<event>
 7    1  0.2985411E-011  0.5052887E+02  0.7816164E-02  0.1300439E+00
        -11   -1    0    0    0    0  0.00000000000E+00  0.00000000000E+00  0.45593999997E+02  0.45594000000E+02  0.51100000000E-03 0.  1.
         11   -1    0    0    0    0 -0.00000000000E+00 -0.00000000000E+00 -0.45593999997E+02  0.45594000000E+02  0.51100000000E-03 0. -1.
    9900012    2    1    2    0    0  0.14292385858E+02 -0.20113342711E+00 -0.38063789723E+02  0.50528870198E+02  0.30000031454E+02 0.  0.
        -12    1    1    2    0    0 -0.14292385858E+02  0.20113342711E+00  0.38063789723E+02  0.40659129802E+02  0.00000000000E+00 0.  1.
         11    1    3    3    0    0  0.50472783162E+01  0.19065791641E+01 -0.15332592089E+02  0.16254182322E+02  0.51100000000E-03 0. -1.
        -11    1    3    3    0    0  0.10336817449E+01  0.10324489670E+02 -0.12272764748E+02  0.16071227076E+02  0.51100000000E-03 0.  1.
         12    1    3    3    0    0  0.82114257970E+01 -0.12432202261E+02 -0.10458432885E+02  0.18203460800E+02  0.00000000000E+00 0. -1.
</event>
<event>
 7    1  0.2985411E-011  0.5052886E+02  0.7816164E-02  0.1300439E+00
        -11   -1    0    0    0    0  0.00000000000E+00  0.00000000000E+00  0.45593999997E+02  0.45594000000E+02  0.51100000000E-03 0. -1.
         11   -1    0    0    0    0 -0.00000000000E+00 -0.00000000000E+00 -0.45593999997E+02  0.45594000000E+02  0.51100000000E-03 0.  1.
    9900012    2    1    2    0    0 -0.35497011772E+01  0.14990295227E+02  0.37627865700E+02  0.50528860725E+02  0.30000002660E+02 0.  0.
        -12    1    1    2    0    0  0.35497011772E+01 -0.14990295227E+02 -0.37627865700E+02  0.40659139275E+02  0.00000000000E+00 0.  1.
         11    1    3    3    0    0  0.99034596136E+00  0.41577282398E+01  0.58528579482E+00  0.43139365969E+01  0.51100000000E-03 0. -1.
        -11    1    3    3    0    0  0.21736466823E+01  0.15498249604E+02  0.11569872686E+02  0.19462333748E+02  0.51100000000E-03 0.  1.
         12    1    3    3    0    0 -0.67136938209E+01 -0.46656826165E+01  0.25472707219E+02  0.26752590381E+02  0.00000000000E+00 0. -1.
</event>
<event>
 7    1  0.2985411E-011  0.5052887E+02  0.7816164E-02  0.1300439E+00
        -11   -1    0    0    0    0  0.00000000000E+00  0.00000000000E+00  0.45593999997E+02  0.45594000000E+02  0.51100000000E-03 0.  1.
         11   -1    0    0    0    0 -0.00000000000E+00 -0.00000000000E+00 -0.45593999997E+02  0.45594000000E+02  0.51100000000E-03 0. -1.
    9900012    2    1    2    0    0  0.20903984443E+02 -0.27677079040E+02 -0.21217157481E+02  0.50528867676E+02  0.30000023789E+02 0.  0.
        -12    1    1    2    0    0 -0.20903984443E+02  0.27677079040E+02  0.21217157481E+02  0.40659132324E+02  0.00000000000E+00 0.  1.
         11    1    3    3    0    0  0.11962986832E+02 -0.61894372513E+01 -0.22938146048E+01  0.13663227040E+02  0.51100000000E-03 0. -1.
        -11    1    3    3    0    0  0.14553715847E+02 -0.21557259455E+02 -0.15124158771E+02  0.30087642962E+02  0.51100000000E-03 0.  1.
        -12    1    3    3    0    0 -0.56127182363E+01  0.69617667238E-01 -0.37991841048E+01  0.67779976749E+01  0.00000000000E+00 0.  1.
</event>
<event>
 7    1  0.2985411E-011  0.5052886E+02  0.7816164E-02  0.1300439E+00
        -11   -1    0    0    0    0  0.00000000000E+00  0.00000000000E+00  0.45593999997E+02  0.45594000000E+02  0.51100000000E-03 0.  1.
         11   -1    0    0    0    0 -0.00000000000E+00 -0.00000000000E+00 -0.45593999997E+02  0.45594000000E+02  0.51100000000E-03 0. -1.
    9900012    2    1    2    0    0 -0.81566270808E+01 -0.37770746800E+02 -0.12649338640E+02  0.50528860225E+02  0.30000001141E+02 0.  0.
        -12    1    1    2    0    0  0.81566270808E+01  0.37770746800E+02  0.12649338640E+02  0.40659139775E+02  0.00000000000E+00 0.  1.
         11    1    3    3    0    0 -0.63667428227E+01 -0.14051064012E+02 -0.63981462900E+01  0.16700421858E+02  0.51100000000E-03 0. -1.
        -11    1    3    3    0    0 -0.12241314118E+02 -0.92211385030E+01 -0.19883087504E+01  0.15454207795E+02  0.51100000000E-03 0.  1.
         12    1    3    3    0    0  0.10451429860E+02 -0.14498544285E+02 -0.42628835992E+01  0.18374230572E+02  0.00000000000E+00 0. -1.
</event>
<event>
 7    1  0.2985411E-011  0.5052885E+02  0.7816164E-02  0.1300439E+00
        -11   -1    0    0    0    0  0.00000000000E+00  0.00000000000E+00  0.45593999997E+02  0.45594000000E+02  0.51100000000E-03 0.  1.
         11   -1    0    0    0    0 -0.00000000000E+00 -0.00000000000E+00 -0.45593999997E+02  0.45594000000E+02  0.51100000000E-03 0. -1.
    9900012    2    1    2    0    0  0.29253131811E+02 -0.21640428343E+02 -0.18141467583E+02  0.50528847209E+02  0.29999961576E+02 0.  0.
        -12    1    1    2    0    0 -0.29253131811E+02  0.21640428343E+02  0.18141467583E+02  0.40659152791E+02  0.00000000000E+00 0.  1.
         11    1    3    3    0    0  0.20079029305E+02 -0.85223462364E+00 -0.81487233852E+01  0.21686295552E+02  0.51100000000E-03 0. -1.
        -11    1    3    3    0    0  0.11346941098E+02 -0.79505369070E+01 -0.68133340498E+01  0.15439741919E+02  0.51100000000E-03 0.  1.
        -12    1    3    3    0    0 -0.21728385923E+01 -0.12837656812E+02 -0.31794101481E+01  0.13402809738E+02  0.00000000000E+00 0.  1.
</event>
<event>
 7    1  0.2985411E-011  0.5052875E+02  0.7816164E-02  0.1300439E+00
        -11   -1    0    0    0    0  0.00000000000E+00  0.00000000000E+00  0.45593999997E+02  0.45594000000E+02  0.51100000000E-03 0. -1.
         11   -1    0    0    0    0 -0.00000000000E+00 -0.00000000000E+00 -0.45593999997E+02  0.45594000000E+02  0.51100000000E-03 0.  1.
    9900012    2    1    2    0    0  0.12077775394E+02 -0.37515517943E+02  0.99944041870E+01  0.50528746932E+02  0.29999656773E+02 0.  0.
        -12    1    1    2    0    0 -0.12077775394E+02  0.37515517943E+02 -0.99944041870E+01  0.40659253068E+02  0.00000000000E+00 0.  1.
         11    1    3    3    0    0  0.63013019063E+01 -0.20176173267E+02  0.46207003797E+01  0.21636433294E+02  0.51100000000E-03 0. -1.
        -11    1    3    3    0    0  0.76974299225E+01 -0.19911480094E+01 -0.57737368648E+01  0.98260437335E+01  0.51100000000E-03 0.  1.
         12    1    3    3    0    0 -0.19209564353E+01 -0.15348196666E+02  0.11147440672E+02  0.19066269905E+02  0.00000000000E+00 0. -1.
</event>
<event>
 7    1  0.2985411E-011  0.5052886E+02  0.7816164E-02  0.1300439E+00
        -11   -1    0    0    0    0  0.00000000000E+00  0.00000000000E+00  0.45593999997E+02  0.45594000000E+02  0.51100000000E-03 0. -1.
         11   -1    0    0    0    0 -0.00000000000E+00 -0.00000000000E+00 -0.45593999997E+02  0.45594000000E+02  0.51100000000E-03 0.  1.
    9900012    2    1    2    0    0  0.89857034858E+00  0.86834701668E+01  0.39710903664E+02  0.50528856469E+02  0.29999989724E+02 0.  0.
        -12    1    1    2    0    0 -0.89857034858E+00 -0.86834701668E+01 -0.39710903664E+02  0.40659143531E+02  0.00000000000E+00 0.  1.
         11    1    3    3    0    0 -0.70412584406E+01  0.23624063675E+01  0.13197118743E+01  0.75433363948E+01  0.51100000000E-03 0. -1.
        -11    1    3    3    0    0 -0.38661279510E+01  0.40399844114E+01  0.50216722714E+01  0.75156910554E+01  0.51100000000E-03 0.  1.
         12    1    3    3    0    0  0.11805956740E+02  0.22810793879E+01  0.33369519519E+02  0.35469829019E+02  0.00000000000E+00 0. -1.
</event>
<event>
 7    1  0.2985411E-011  0.5052885E+02  0.7816164E-02  0.1300439E+00
        -11   -1    0    0    0    0  0.00000000000E+00  0.00000000000E+00  0.45593999997E+02  0.45594000000E+02  0.51100000000E-03 0.  1.
         11   -1    0    0    0    0 -0.00000000000E+00 -0.00000000000E+00 -0.45593999997E+02  0.45594000000E+02  0.51100000000E-03 0. -1.
    9900012    2    1    2    0    0 -0.20388821025E+02 -0.23894506125E+02 -0.25816948401E+02  0.50528852561E+02  0.29999977844E+02 0.  0.
        -12    1    1    2    0    0  0.20388821025E+02  0.23894506125E+02  0.25816948401E+02  0.40659147439E+02  0.00000000000E+00 0.  1.
         11    1    3    3    0    0 -0.21718893502E+02 -0.17997224798E+02 -0.16531498836E+02  0.32694049756E+02  0.51100000000E-03 0. -1.
        -11    1    3    3    0    0 -0.16316023518E+00 -0.67864165956E+00  0.36975050482E+01  0.37628074103E+01  0.51100000000E-03 0.  1.
        -12    1    3    3    0    0  0.14932327126E+01 -0.52186396671E+01 -0.12982954613E+02  0.14071995395E+02  0.00000000000E+00 0.  1.
</event>
<event>
 7    1  0.2985411E-011  0.5052890E+02  0.7816164E-02  0.1300439E+00
        -11   -1    0    0    0    0  0.00000000000E+00  0.00000000000E+00  0.45593999997E+02  0.45594000000E+02  0.51100000000E-03 0.  1.
         11   -1    0    0    0    0 -0.00000000000E+00 -0.00000000000E+00 -0.45593999997E+02  0.45594000000E+02  0.51100000000E-03 0. -1.
    9900012    2    1    2    0    0 -0.12465312815E+02 -0.27028926476E+02 -0.27698650357E+02  0.50528903581E+02  0.30000132925E+02 0.  0.
        -12    1    1    2    0    0  0.12465312815E+02  0.27028926476E+02  0.27698650357E+02  0.40659096419E+02  0.00000000000E+00 0.  1.
         11    1    3    3    0    0 -0.58526571984E+01 -0.11584374094E+02 -0.16877906180E+02  0.21291196225E+02  0.51100000000E-03 0. -1.
        -11    1    3    3    0    0 -0.23209789196E+01 -0.81202765701E+00 -0.13528589173E+02  0.13750238446E+02  0.51100000000E-03 0.  1.
        -12    1    3    3    0    0 -0.42916766974E+01 -0.14632524725E+02  0.27078449962E+01  0.15487468910E+02  0.00000000000E+00 0.  1.
</event>
<event>
 7    1  0.2985411E-011  0.5052886E+02  0.7816164E-02  0.1300439E+00
        -11   -1    0    0    0    0  0.00000000000E+00  0.00000000000E+00  0.45593999997E+02  0.45594000000E+02  0.51100000000E-03 0.  1.
         11   -1    0    0    0    0 -0.00000000000E+00 -0.00000000000E+00 -0.45593999997E+02  0.45594000000E+02  0.51100000000E-03 0. -1.
    9900012    2    1    2    0    0 -0.30507272086E+02 -0.22770222079E+01 -0.26782224341E+02  0.50528855630E+02  0.29999987173E+02 0.  0.
        -12    1    1    2    0    0  0.30507272086E+02  0.22770222079E+01  0.26782224341E+02  0.40659144370E+02  0.00000000000E+00 0.  1.
         11    1    3    3    0    0 -0.24569179553E+02 -0.14554157115E+00 -0.25408663514E+02  0.35344956473E+02  0.51100000000E-03 0. -1.
        -11    1    3    3    0    0  0.11708504586E+01 -0.30889026500E+01 -0.58573922833E+01  0.67246750850E+01  0.51100000000E-03 0.  1.
        -12    1    3    3    0    0 -0.71089429915E+01  0.95742201330E+00  0.44838314563E+01  0.84592240717E+01  0.00000000000E+00 0.  1.
</event>
<event>
 7    1  0.2985411E-011  0.5052886E+02  0.7816164E-02  0.1300439E+00
        -11   -1    0    0    0    0  0.00000000000E+00  0.00000000000E+00  0.45593999997E+02  0.45594000000E+02  0.51100000000E-03 0.  1.
         11   -1    0    0    0    0 -0.00000000000E+00 -0.00000000000E+00 -0.45593999997E+02  0.45594000000E+02  0.51100000000E-03 0. -1.
    9900012    2    1    2    0    0  0.81577759562E+01 -0.20467288554E+02 -0.34171715582E+02  0.50528863817E+02  0.30000012058E+02 0.  0.
        -12    1    1    2    0    0 -0.81577759562E+01  0.20467288554E+02  0.34171715582E+02  0.40659136183E+02  0.00000000000E+00 0.  1.
         11    1    3    3    0    0 -0.36427839891E+01 -0.10344984324E+02 -0.21882883464E+02  0.24477523666E+02  0.51100000000E-03 0. -1.
        -11    1    3    3    0    0 -0.10517725251E+01 -0.89863077226E+01 -0.89443640710E+01  0.12722484067E+02  0.51100000000E-03 0.  1.
        -12    1    3    3    0    0  0.12852332470E+02 -0.11359965075E+01 -0.33444680474E+01  0.13328856084E+02  0.00000000000E+00 0.  1.
</event>
<event>
 7    1  0.2985411E-011  0.5052886E+02  0.7816164E-02  0.1300439E+00
        -11   -1    0    0    0    0  0.00000000000E+00  0.00000000000E+00  0.45593999997E+02  0.45594000000E+02  0.51100000000E-03 0. -1.
         11   -1    0    0    0    0 -0.00000000000E+00 -0.00000000000E+00 -0.45593999997E+02  0.45594000000E+02  0.51100000000E-03 0.  1.
    9900012    2    1    2    0    0  0.33307386947E+02 -0.23228426768E+02  0.20552708858E+01  0.50528856210E+02  0.29999988937E+02 0.  0.
        -12    1    1    2    0    0 -0.33307386947E+02  0.23228426768E+02 -0.20552708858E+01  0.40659143790E+02  0.00000000000E+00 0.  1.
         11    1    3    3    0    0  0.18283303502E+02 -0.12529155579E+02  0.21512649928E+01  0.22268517414E+02  0.51100000000E-03 0. -1.
        -11    1    3    3    0    0 -0.58954701050E+00 -0.10577581199E+02 -0.52421830623E+01  0.11820036938E+02  0.51100000000E-03 0.  1.
         12    1    3    3    0    0  0.15613630455E+02 -0.12168998992E+00  0.51461889554E+01  0.16440301858E+02  0.00000000000E+00 0. -1.
</event>
<event>
 7    1  0.2985411E-011  0.5052886E+02  0.7816164E-02  0.1300439E+00
        -11   -1    0    0    0    0  0.00000000000E+00  0.00000000000E+00  0.45593999997E+02  0.45594000000E+02  0.51100000000E-03 0.  1.
         11   -1    0    0    0    0 -0.00000000000E+00 -0.00000000000E+00 -0.45593999997E+02  0.45594000000E+02  0.51100000000E-03 0. -1.
    9900012    2    1    2    0    0 -0.13952350933E+02 -0.13601712551E+02 -0.35686007089E+02  0.50528858558E+02  0.29999996073E+02 0.  0.
        -12    1    1    2    0    0  0.13952350933E+02  0.13601712551E+02  0.35686007089E+02  0.40659141442E+02  0.00000000000E+00 0.  1.
         11    1    3    3    0    0 -0.11950812736E+02 -0.78681327584E+01 -0.89605183411E+01  0.16882545050E+02  0.51100000000E-03 0. -1.
        -11    1    3    3    0    0 -0.51622601361E+01  0.11025233731E+01  0.59000488979E+00  0.53115528363E+01  0.51100000000E-03 0.  1.
        -12    1    3    3    0    0  0.31607219396E+01 -0.68361031652E+01 -0.27315493637E+02  0.28334760672E+02  0.00000000000E+00 0.  1.
</event>
<event>
 7    1  0.2985411E-011  0.5052886E+02  0.7816164E-02  0.1300439E+00
        -11   -1    0    0    0    0  0.00000000000E+00  0.00000000000E+00  0.45593999997E+02  0.45594000000E+02  0.51100000000E-03 0.  1.
         11   -1    0    0    0    0 -0.00000000000E+00 -0.00000000000E+00 -0.45593999997E+02  0.45594000000E+02  0.51100000000E-03 0. -1.
    9900012    2    1    2    0    0  0.25462377404E+02  0.28248643584E+02  0.14382180280E+02  0.50528860350E+02  0.30000001521E+02 0.  0.
        -12    1    1    2    0    0 -0.25462377404E+02 -0.28248643584E+02 -0.14382180280E+02  0.40659139650E+02  0.00000000000E+00 0.  1.
         11    1    3    3    0    0  0.56854415657E+01  0.57157034215E+01  0.25010062228E+01  0.84408852490E+01  0.51100000000E-03 0. -1.
        -11    1    3    3    0    0  0.18331153868E+02  0.28487836079E+02  0.12056498984E+02  0.35957574648E+02  0.51100000000E-03 0.  1.
        -12    1    3    3    0    0  0.14457819709E+01 -0.59548959164E+01 -0.17532492597E+00  0.61304004528E+01  0.00000000000E+00 0.  1.
</event>
<event>
 7    1  0.2985411E-011  0.5052884E+02  0.7816164E-02  0.1300439E+00
        -11   -1    0    0    0    0  0.00000000000E+00  0.00000000000E+00  0.45593999997E+02  0.45594000000E+02  0.51100000000E-03 0.  1.
         11   -1    0    0    0    0 -0.00000000000E+00 -0.00000000000E+00 -0.45593999997E+02  0.45594000000E+02  0.51100000000E-03 0. -1.
    9900012    2    1    2    0    0  0.15099524675E+02  0.11984067906E+02 -0.35798790859E+02  0.50528844131E+02  0.29999952221E+02 0.  0.
        -12    1    1    2    0    0 -0.15099524675E+02 -0.11984067906E+02  0.35798790859E+02  0.40659155869E+02  0.00000000000E+00 0.  1.
         11    1    3    3    0    0  0.32040650263E+01 -0.78715543454E+01 -0.11826005653E+02  0.14563028891E+02  0.51100000000E-03 0. -1.
        -11    1    3    3    0    0  0.10051894351E+02  0.62995802050E+01 -0.57603848266E+01  0.13187392631E+02  0.51100000000E-03 0.  1.
         12    1    3    3    0    0  0.18435652974E+01  0.13556042046E+02 -0.18212400380E+02  0.22778422609E+02  0.00000000000E+00 0. -1.
</event>
<event>
 7    1  0.2985411E-011  0.5052888E+02  0.7816164E-02  0.1300439E+00
        -11   -1    0    0    0    0  0.00000000000E+00  0.00000000000E+00  0.45593999997E+02  0.45594000000E+02  0.51100000000E-03 0.  1.
         11   -1    0    0    0    0 -0.00000000000E+00 -0.00000000000E+00 -0.45593999997E+02  0.45594000000E+02  0.51100000000E-03 0. -1.
    9900012    2    1    2    0    0 -0.74804852066E+01 -0.53310228626E+00 -0.39961507692E+02  0.50528881048E+02  0.30000064433E+02 0.  0.
        -12    1    1    2    0    0  0.74804852066E+01  0.53310228626E+00  0.39961507692E+02  0.40659118952E+02  0.00000000000E+00 0.  1.
         11    1    3    3    0    0  0.68135838530E+01  0.48035752969E+01 -0.80070054789E+01  0.11559039647E+02  0.51100000000E-03 0. -1.
        -11    1    3    3    0    0 -0.23968322785E+01  0.16529331369E+01  0.11300442876E+01  0.31231383702E+01  0.51100000000E-03 0.  1.
         12    1    3    3    0    0 -0.11897236781E+02 -0.69896107201E+01 -0.33084546500E+02  0.35846703031E+02  0.00000000000E+00 0. -1.
</event>
<event>
 7    1  0.2985411E-011  0.5052877E+02  0.7816164E-02  0.1300439E+00
        -11   -1    0    0    0    0  0.00000000000E+00  0.00000000000E+00  0.45593999997E+02  0.45594000000E+02  0.51100000000E-03 0.  1.
         11   -1    0    0    0    0 -0.00000000000E+00 -0.00000000000E+00 -0.45593999997E+02  0.45594000000E+02  0.51100000000E-03 0. -1.
    9900012    2    1    2    0    0 -0.12916110036E+02  0.11278641086E+02 -0.36866503366E+02  0.50528773327E+02  0.29999737003E+02 0.  0.
        -12    1    1    2    0    0  0.12916110036E+02 -0.11278641086E+02  0.36866503366E+02  0.40659226673E+02  0.00000000000E+00 0.  1.
         11    1    3    3    0    0  0.17519526854E+01  0.11514785608E+02 -0.19788567251E+02  0.22961860114E+02  0.51100000000E-03 0. -1.
        -11    1    3    3    0    0 -0.15030532170E+01  0.54304179259E+01 -0.10237127893E+02  0.11685349613E+02  0.51100000000E-03 0.  1.
        -12    1    3    3    0    0 -0.13165009505E+02 -0.56665624480E+01 -0.68408082228E+01  0.15881563600E+02  0.00000000000E+00 0.  1.
</event>
<event>
 7    1  0.2985411E-011  0.5052886E+02  0.7816164E-02  0.1300439E+00
        -11   -1    0    0    0    0  0.00000000000E+00  0.00000000000E+00  0.45593999997E+02  0.45594000000E+02  0.51100000000E-03 0.  1.
         11   -1    0    0    0    0 -0.00000000000E+00 -0.00000000000E+00 -0.45593999997E+02  0.45594000000E+02  0.51100000000E-03 0. -1.
    9900012    2    1    2    0    0  0.37769111918E+01  0.14813647926E+02 -0.37675675404E+02  0.50528859082E+02  0.29999997666E+02 0.  0.
        -12    1    1    2    0    0 -0.37769111918E+01 -0.14813647926E+02  0.37675675404E+02  0.40659140918E+02  0.00000000000E+00 0.  1.
         11    1    3    3    0    0 -0.10465647010E+01  0.13104493224E+02 -0.37591477496E+02  0.39823890077E+02  0.51100000000E-03 0. -1.
        -11    1    3    3    0    0  0.35142649171E+01 -0.15241236551E+01 -0.39470406449E+01  0.55001946272E+01  0.51100000000E-03 0.  1.
        -12    1    3    3    0    0  0.13092109758E+01  0.32332783573E+01  0.38628427363E+01  0.52047743774E+01  0.00000000000E+00 0.  1.
</event>
<event>
 7    1  0.2985411E-011  0.5052886E+02  0.7816164E-02  0.1300439E+00
        -11   -1    0    0    0    0  0.00000000000E+00  0.00000000000E+00  0.45593999997E+02  0.45594000000E+02  0.51100000000E-03 0.  1.
         11   -1    0    0    0    0 -0.00000000000E+00 -0.00000000000E+00 -0.45593999997E+02  0.45594000000E+02  0.51100000000E-03 0. -1.
    9900012    2    1    2    0    0  0.28689879195E+02  0.28783258199E+02  0.12570825049E+01  0.50528863546E+02  0.30000011234E+02 0.  0.
        -12    1    1    2    0    0 -0.28689879195E+02 -0.28783258199E+02 -0.12570825049E+01  0.40659136454E+02  0.00000000000E+00 0.  1.
         11    1    3    3    0    0  0.75757168179E+01  0.19732044497E+01  0.35496644284E+01  0.85956465097E+01  0.51100000000E-03 0. -1.
        -11    1    3    3    0    0  0.25184187084E+02  0.16403235675E+02  0.16067538183E+01  0.30098024483E+02  0.51100000000E-03 0.  1.
        -12    1    3    3    0    0 -0.40700247068E+01  0.10406818074E+02 -0.38993357418E+01  0.11835192553E+02  0.00000000000E+00 0.  1.
</event>
<event>
 7    1  0.2985411E-011  0.5052885E+02  0.7816164E-02  0.1300439E+00
        -11   -1    0    0    0    0  0.00000000000E+00  0.00000000000E+00  0.45593999997E+02  0.45594000000E+02  0.51100000000E-03 0. -1.
         11   -1    0    0    0    0 -0.00000000000E+00 -0.00000000000E+00 -0.45593999997E+02  0.45594000000E+02  0.51100000000E-03 0.  1.
    9900012    2    1    2    0    0  0.17588405200E+02 -0.17199140751E+02  0.32372887589E+02  0.50528852309E+02  0.29999977080E+02 0.  0.
        -12    1    1    2    0    0 -0.17588405200E+02  0.17199140751E+02 -0.32372887589E+02  0.40659147691E+02  0.00000000000E+00 0.  1.
         11    1    3    3    0    0  0.13668653843E+01 -0.14526790360E+02  0.60760597788E+01  0.15805519980E+02  0.51100000000E-03 0. -1.
        -11    1    3    3    0    0  0.11054620882E+02 -0.31100353782E+01  0.45260010203E+01  0.12343486072E+02  0.51100000000E-03 0.  1.
         12    1    3    3    0    0  0.51669189337E+01  0.43768498681E+00  0.21770826790E+02  0.22379846258E+02  0.00000000000E+00 0. -1.
</event>
<event>
 7    1  0.2985411E-011  0.5052881E+02  0.7816164E-02  0.1300439E+00
        -11   -1    0    0    0    0  0.00000000000E+00  0.00000000000E+00  0.45593999997E+02  0.45594000000E+02  0.51100000000E-03 0. -1.
         11   -1    0    0    0    0 -0.00000000000E+00 -0.00000000000E+00 -0.45593999997E+02  0.45594000000E+02  0.51100000000E-03 0.  1.
    9900012    2    1    2    0    0  0.38979177630E+02 -0.76464727402E+01  0.86790011422E+01  0.50528807990E+02  0.29999842366E+02 0.  0.
        -12    1    1    2    0    0 -0.38979177630E+02  0.76464727402E+01 -0.86790011422E+01  0.40659192010E+02  0.00000000000E+00 0.  1.
         11    1    3    3    0    0  0.20670606511E+02 -0.10876510589E+01 -0.83997214115E+01  0.22338582731E+02  0.51100000000E-03 0. -1.
        -11    1    3    3    0    0  0.19273189864E+01  0.65004947577E-02  0.82214460098E+01  0.84443339279E+01  0.51100000000E-03 0.  1.
        -12    1    3    3    0    0  0.16381252132E+02 -0.65653221760E+01  0.88572765439E+01  0.19745891332E+02  0.00000000000E+00 0.  1.
</event>
<event>
 7    1  0.2985411E-011  0.5052886E+02  0.7816164E-02  0.1300439E+00
        -11   -1    0    0    0    0  0.00000000000E+00  0.00000000000E+00  0.45593999997E+02  0.45594000000E+02  0.51100000000E-03 0.  1.
         11   -1    0    0    0    0 -0.00000000000E+00 -0.00000000000E+00 -0.45593999997E+02  0.45594000000E+02  0.51100000000E-03 0. -1.
    9900012    2    1    2    0    0  0.30850120549E+02 -0.19078864788E+02 -0.18369335097E+02  0.50528862141E+02  0.30000006964E+02 0.  0.
        -12    1    1    2    0    0 -0.30850120549E+02  0.19078864788E+02  0.18369335097E+02  0.40659137859E+02  0.00000000000E+00 0.  1.
         11    1    3    3    0    0  0.14039443548E+02 -0.75033969525E+01 -0.15946934451E+02  0.22532457913E+02  0.51100000000E-03 0. -1.
        -11    1    3    3    0    0  0.17279169429E+02 -0.11834624517E+01 -0.30011948761E+01  0.17577754420E+02  0.51100000000E-03 0.  1.
         12    1    3    3    0    0 -0.46849242691E+00 -0.10392005384E+02  0.57879422971E+00  0.10418649808E+02  0.00000000000E+00 0. -1.
</event>
<event>
 7    1  0.2985411E-011  0.5052886E+02  0.7816164E-02  0.1300439E+00
        -11   -1    0    0    0    0  0.00000000000E+00  0.00000000000E+00  0.45593999997E+02  0.45594000000E+02  0.51100000000E-03 0.  1.
         11   -1    0    0    0    0 -0.00000000000E+00 -0.00000000000E+00 -0.45593999997E+02  0.45594000000E+02  0.51100000000E-03 0. -1.
    9900012    2    1    2    0    0  0.33701549143E+02 -0.21515130836E+02  0.73804182896E+01  0.50528857810E+02  0.29999993798E+02 0.  0.
        -12    1    1    2    0    0 -0.33701549143E+02  0.21515130836E+02 -0.73804182896E+01  0.40659142190E+02  0.00000000000E+00 0.  1.
         11    1    3    3    0    0  0.98230886272E+01 -0.12890567009E+02 -0.99623011499E+00  0.16237372407E+02  0.51100000000E-03 0. -1.
        -11    1    3    3    0    0 -0.53992117669E+00 -0.87270854741E+01  0.33327888424E+01  0.93574044200E+01  0.51100000000E-03 0.  1.
         12    1    3    3    0    0  0.24418381692E+02  0.10252164668E+00  0.50438595622E+01  0.24934080983E+02  0.00000000000E+00 0. -1.
</event>
<event>
 7    1  0.2985411E-011  0.5052885E+02  0.7816164E-02  0.1300439E+00
        -11   -1    0    0    0    0  0.00000000000E+00  0.00000000000E+00  0.45593999997E+02  0.45594000000E+02  0.51100000000E-03 0.  1.
         11   -1    0    0    0    0 -0.00000000000E+00 -0.00000000000E+00 -0.45593999997E+02  0.45594000000E+02  0.51100000000E-03 0. -1.
    9900012    2    1    2    0    0  0.15559719909E+02  0.33400036169E+02  0.17190077950E+02  0.50528854907E+02  0.29999984976E+02 0.  0.
        -12    1    1    2    0    0 -0.15559719909E+02 -0.33400036169E+02 -0.17190077950E+02  0.40659145093E+02  0.00000000000E+00 0.  1.
         11    1    3    3    0    0  0.11856625614E+02  0.14269622242E+02  0.11571219177E+02  0.21865379105E+02  0.51100000000E-03 0. -1.
        -11    1    3    3    0    0  0.41010751410E+01  0.69807260956E-01  0.84469105814E+01  0.93901005850E+01  0.51100000000E-03 0.  1.
         12    1    3    3    0    0 -0.39798084613E+00  0.19060606667E+02 -0.28280518091E+01  0.19273375218E+02  0.00000000000E+00 0. -1.
</event>
<event>
 7    1  0.2985411E-011  0.5052888E+02  0.7816164E-02  0.1300439E+00
        -11   -1    0    0    0    0  0.00000000000E+00  0.00000000000E+00  0.45593999997E+02  0.45594000000E+02  0.51100000000E-03 0. -1.
         11   -1    0    0    0    0 -0.00000000000E+00 -0.00000000000E+00 -0.45593999997E+02  0.45594000000E+02  0.51100000000E-03 0.  1.
    9900012    2    1    2    0    0 -0.39789801611E+02 -0.36994325731E+01 -0.74999899088E+01  0.50528880946E+02  0.30000064124E+02 0.  0.
        -12    1    1    2    0    0  0.39789801611E+02  0.36994325731E+01  0.74999899088E+01  0.40659119054E+02  0.00000000000E+00 0.  1.
         11    1    3    3    0    0 -0.23238956361E+02 -0.27995494563E+01 -0.15846544234E+02  0.28266579813E+02  0.51100000000E-03 0. -1.
        -11    1    3    3    0    0 -0.56471723759E+01  0.22298708619E+01 -0.25011719001E+01  0.65664862018E+01  0.51100000000E-03 0.  1.
         12    1    3    3    0    0 -0.10903672874E+02 -0.31297539787E+01  0.10847726225E+02  0.15695814931E+02  0.00000000000E+00 0. -1.
</event>
<event>
 7    1  0.2985411E-011  0.5052886E+02  0.7816164E-02  0.1300439E+00
        -11   -1    0    0    0    0  0.00000000000E+00  0.00000000000E+00  0.45593999997E+02  0.45594000000E+02  0.51100000000E-03 0.  1.
         11   -1    0    0    0    0 -0.00000000000E+00 -0.00000000000E+00 -0.45593999997E+02  0.45594000000E+02  0.51100000000E-03 0. -1.
    9900012    2    1    2    0    0 -0.64172856482E+01 -0.31519599869E+02 -0.24869642749E+02  0.50528857591E+02  0.29999993132E+02 0.  0.
        -12    1    1    2    0    0  0.64172856482E+01  0.31519599869E+02  0.24869642749E+02  0.40659142409E+02  0.00000000000E+00 0.  1.
         11    1    3    3    0    0 -0.27064166911E+01 -0.18349755433E+02 -0.11385706633E+02  0.21764019195E+02  0.51100000000E-03 0. -1.
        -11    1    3    3    0    0 -0.12354606350E+02 -0.10124558139E+02 -0.65111282817E+01  0.17249283096E+02  0.51100000000E-03 0.  1.
        -12    1    3    3    0    0  0.86437373929E+01 -0.30452862981E+01 -0.69728078342E+01  0.11515555299E+02  0.00000000000E+00 0.  1.
</event>
<event>
 7    1  0.2985411E-011  0.5052886E+02  0.7816164E-02  0.1300439E+00
        -11   -1    0    0    0    0  0.00000000000E+00  0.00000000000E+00  0.45593999997E+02  0.45594000000E+02  0.51100000000E-03 0.  1.
         11   -1    0    0    0    0 -0.00000000000E+00 -0.00000000000E+00 -0.45593999997E+02  0.45594000000E+02  0.51100000000E-03 0. -1.
    9900012    2    1    2    0    0 -0.30204838049E+02  0.16303058053E+02 -0.21795502462E+02  0.50528857474E+02  0.29999992777E+02 0.  0.
        -12    1    1    2    0    0  0.30204838049E+02 -0.16303058053E+02  0.21795502462E+02  0.40659142526E+02  0.00000000000E+00 0.  1.
         11    1    3    3    0    0 -0.14335552436E+02  0.67582740060E+01 -0.25817205458E+01  0.16057634086E+02  0.51100000000E-03 0. -1.
        -11    1    3    3    0    0 -0.98916249589E+01 -0.15570585054E+01  0.15957356095E+01  0.10139775536E+02  0.51100000000E-03 0.  1.
         12    1    3    3    0    0 -0.59776606536E+01  0.11101842552E+02 -0.20809517525E+02  0.24331447852E+02  0.00000000000E+00 0. -1.
</event>
<event>
 7    1  0.2985411E-011  0.5052886E+02  0.7816164E-02  0.1300439E+00
        -11   -1    0    0    0    0  0.00000000000E+00  0.00000000000E+00  0.45593999997E+02  0.45594000000E+02  0.51100000000E-03 0. -1.
         11   -1    0    0    0    0 -0.00000000000E+00 -0.00000000000E+00 -0.45593999997E+02  0.45594000000E+02  0.51100000000E-03 0.  1.
    9900012    2    1    2    0    0 -0.27086153481E+02  0.30027527828E+02  0.42253506194E+01  0.50528859260E+02  0.29999998206E+02 0.  0.
        -12    1    1    2    0    0  0.27086153481E+02 -0.30027527828E+02 -0.42253506194E+01  0.40659140740E+02  0.00000000000E+00 0.  1.
         11    1    3    3    0    0 -0.77009436765E+00  0.61864145302E+01  0.32961500687E-01  0.62342486954E+01  0.51100000000E-03 0. -1.
        -11    1    3    3    0    0 -0.18213567498E+02  0.19513702098E+02 -0.90436573255E+01  0.28183441037E+02  0.51100000000E-03 0.  1.
        -12    1    3    3    0    0 -0.81024916156E+01  0.43274111998E+01  0.13236046444E+02  0.16111169528E+02  0.00000000000E+00 0.  1.
</event>
<event>
 7    1  0.2985411E-011  0.5052886E+02  0.7816164E-02  0.1300439E+00
        -11   -1    0    0    0    0  0.00000000000E+00  0.00000000000E+00  0.45593999997E+02  0.45594000000E+02  0.51100000000E-03 0.  1.
         11   -1    0    0    0    0 -0.00000000000E+00 -0.00000000000E+00 -0.45593999997E+02  0.45594000000E+02  0.51100000000E-03 0. -1.
    9900012    2    1    2    0    0 -0.25594519284E+02 -0.18676975945E+02 -0.25480519830E+02  0.50528859101E+02  0.29999997724E+02 0.  0.
        -12    1    1    2    0    0  0.25594519284E+02  0.18676975945E+02  0.25480519830E+02  0.40659140899E+02  0.00000000000E+00 0.  1.
         11    1    3    3    0    0 -0.15850723499E+02 -0.21244015375E+02 -0.18909239219E+02  0.32559375805E+02  0.51100000000E-03 0. -1.
        -11    1    3    3    0    0 -0.33428189528E+01 -0.48093902576E+01  0.54947820455E+00  0.58827374376E+01  0.51100000000E-03 0.  1.
        -12    1    3    3    0    0 -0.64009768321E+01  0.73764296878E+01 -0.71207588151E+01  0.12086745858E+02  0.00000000000E+00 0.  1.
</event>
<event>
 7    1  0.2985411E-011  0.5052886E+02  0.7816164E-02  0.1300439E+00
        -11   -1    0    0    0    0  0.00000000000E+00  0.00000000000E+00  0.45593999997E+02  0.45594000000E+02  0.51100000000E-03 0. -1.
         11   -1    0    0    0    0 -0.00000000000E+00 -0.00000000000E+00 -0.45593999997E+02  0.45594000000E+02  0.51100000000E-03 0.  1.
    9900012    2    1    2    0    0  0.29022331944E+02 -0.25108082223E+02 -0.13433322868E+02  0.50528859482E+02  0.29999998882E+02 0.  0.
        -12    1    1    2    0    0 -0.29022331944E+02  0.25108082223E+02  0.13433322868E+02  0.40659140518E+02  0.00000000000E+00 0.  1.
         11    1    3    3    0    0  0.45231040481E+01 -0.10951059533E+02 -0.77191478183E+01  0.14141054361E+02  0.51100000000E-03 0.  1.
        -11    1    3    3    0    0  0.10381975699E+02 -0.17983836604E+02 -0.22992650968E+00  0.20766720128E+02  0.51100000000E-03 0. -1.
        -12    1    3    3    0    0  0.14117252197E+02  0.38268139141E+01 -0.54842485400E+01  0.15621084993E+02  0.00000000000E+00 0.  1.
</event>
<event>
 7    1  0.2985411E-011  0.5052886E+02  0.7816164E-02  0.1300439E+00
        -11   -1    0    0    0    0  0.00000000000E+00  0.00000000000E+00  0.45593999997E+02  0.45594000000E+02  0.51100000000E-03 0. -1.
         11   -1    0    0    0    0 -0.00000000000E+00 -0.00000000000E+00 -0.45593999997E+02  0.45594000000E+02  0.51100000000E-03 0.  1.
    9900012    2    1    2    0    0 -0.28586931595E+02  0.26625917961E+02 -0.11270013914E+02  0.50528863524E+02  0.30000011168E+02 0.  0.
        -12    1    1    2    0    0  0.28586931595E+02 -0.26625917961E+02  0.11270013914E+02  0.40659136476E+02  0.00000000000E+00 0.  1.
         11    1    3    3    0    0 -0.55164698311E+01 -0.22028216103E+00 -0.89892673015E+01  0.10549260188E+02  0.51100000000E-03 0. -1.
        -11    1    3    3    0    0 -0.11102217287E+02  0.79772626190E+01 -0.93279933437E+01  0.16550148267E+02  0.51100000000E-03 0.  1.
         12    1    3    3    0    0 -0.11968244477E+02  0.18868937503E+02  0.70472467307E+01  0.23429455070E+02  0.00000000000E+00 0. -1.
</event>
<event>
 7    1  0.2985411E-011  0.5052886E+02  0.7816164E-02  0.1300439E+00
        -11   -1    0    0    0    0  0.00000000000E+00  0.00000000000E+00  0.45593999997E+02  0.45594000000E+02  0.51100000000E-03 0.  1.
         11   -1    0    0    0    0 -0.00000000000E+00 -0.00000000000E+00 -0.45593999997E+02  0.45594000000E+02  0.51100000000E-03 0. -1.
    9900012    2    1    2    0    0 -0.10021151392E+02 -0.97752058885E+01 -0.38173130216E+02  0.50528855938E+02  0.29999988108E+02 0.  0.
        -12    1    1    2    0    0  0.10021151392E+02  0.97752058885E+01  0.38173130216E+02  0.40659144062E+02  0.00000000000E+00 0.  1.
         11    1    3    3    0    0 -0.35412636645E+01 -0.70734969772E+01 -0.23346710714E+02  0.24650432233E+02  0.51100000000E-03 0. -1.
        -11    1    3    3    0    0 -0.17145987284E+01  0.63971148616E+01 -0.14104375404E+02  0.15581923281E+02  0.51100000000E-03 0.  1.
         12    1    3    3    0    0 -0.47652889991E+01 -0.90988237729E+01 -0.72204409812E+00  0.10296500424E+02  0.00000000000E+00 0. -1.
</event>
<event>
 7    1  0.2985411E-011  0.5052886E+02  0.7816164E-02  0.1300439E+00
        -11   -1    0    0    0    0  0.00000000000E+00  0.00000000000E+00  0.45593999997E+02  0.45594000000E+02  0.51100000000E-03 0.  1.
         11   -1    0    0    0    0 -0.00000000000E+00 -0.00000000000E+00 -0.45593999997E+02  0.45594000000E+02  0.51100000000E-03 0. -1.
    9900012    2    1    2    0    0  0.16981506273E+02  0.16296618643E+01 -0.36907154322E+02  0.50528863348E+02  0.30000010634E+02 0.  0.
        -12    1    1    2    0    0 -0.16981506273E+02 -0.16296618643E+01  0.36907154322E+02  0.40659136652E+02  0.00000000000E+00 0.  1.
         11    1    3    3    0    0 -0.26131742256E+01  0.27984521719E+00 -0.28381826899E+01  0.38681098900E+01  0.51100000000E-03 0. -1.
        -11    1    3    3    0    0 -0.55558629940E+01  0.35984012327E+01 -0.65466040787E+01  0.93098942133E+01  0.51100000000E-03 0.  1.
         12    1    3    3    0    0  0.25150543492E+02 -0.22485845855E+01 -0.27522367554E+02  0.37350859245E+02  0.00000000000E+00 0. -1.
</event>
<event>
 7    1  0.2985411E-011  0.5052888E+02  0.7816164E-02  0.1300439E+00
        -11   -1    0    0    0    0  0.00000000000E+00  0.00000000000E+00  0.45593999997E+02  0.45594000000E+02  0.51100000000E-03 0.  1.
         11   -1    0    0    0    0 -0.00000000000E+00 -0.00000000000E+00 -0.45593999997E+02  0.45594000000E+02  0.51100000000E-03 0. -1.
    9900012    2    1    2    0    0 -0.11759816380E+02 -0.35581672722E+02 -0.15773874781E+02  0.50528882442E+02  0.30000068671E+02 0.  0.
        -12    1    1    2    0    0  0.11759816380E+02  0.35581672722E+02  0.15773874781E+02  0.40659117558E+02  0.00000000000E+00 0.  1.
         11    1    3    3    0    0 -0.53030153616E+01 -0.26955296321E+01 -0.11789217522E+02  0.13205055924E+02  0.51100000000E-03 0. -1.
        -11    1    3    3    0    0 -0.59699732890E+01 -0.24838132591E+01 -0.23284574643E+01  0.68725267407E+01  0.51100000000E-03 0.  1.
         12    1    3    3    0    0 -0.48682772958E+00 -0.30402329830E+02 -0.16561997950E+01  0.30451299777E+02  0.00000000000E+00 0. -1.
</event>
<event>
 7    1  0.2985411E-011  0.5052888E+02  0.7816164E-02  0.1300439E+00
        -11   -1    0    0    0    0  0.00000000000E+00  0.00000000000E+00  0.45593999997E+02  0.45594000000E+02  0.51100000000E-03 0.  1.
         11   -1    0    0    0    0 -0.00000000000E+00 -0.00000000000E+00 -0.45593999997E+02  0.45594000000E+02  0.51100000000E-03 0. -1.
    9900012    2    1    2    0    0  0.36429523445E+02  0.38538575913E+01 -0.17640906480E+02  0.50528880750E+02  0.30000063526E+02 0.  0.
        -12    1    1    2    0    0 -0.36429523445E+02 -0.38538575913E+01  0.17640906480E+02  0.40659119250E+02  0.00000000000E+00 0.  1.
         11    1    3    3    0    0  0.36227548833E+00  0.24768781953E+01  0.21107808132E+01  0.32743800980E+01  0.51100000000E-03 0.  1.
        -11    1    3    3    0    0  0.38532832741E+02  0.23678938972E+01 -0.21387583834E+02  0.44134055593E+02  0.51100000000E-03 0. -1.
         12    1    3    3    0    0 -0.24655847837E+01 -0.99091450117E+00  0.16358965409E+01  0.31204450591E+01  0.00000000000E+00 0. -1.
</event>
<event>
 7    1  0.2985411E-011  0.5052886E+02  0.7816164E-02  0.1300439E+00
        -11   -1    0    0    0    0  0.00000000000E+00  0.00000000000E+00  0.45593999997E+02  0.45594000000E+02  0.51100000000E-03 0.  1.
         11   -1    0    0    0    0 -0.00000000000E+00 -0.00000000000E+00 -0.45593999997E+02  0.45594000000E+02  0.51100000000E-03 0. -1.
    9900012    2    1    2    0    0 -0.11224231366E+02  0.25130564140E+02 -0.29927193798E+02  0.50528861391E+02  0.30000004685E+02 0.  0.
        -12    1    1    2    0    0  0.11224231366E+02 -0.25130564140E+02  0.29927193798E+02  0.40659138609E+02  0.00000000000E+00 0.  1.
         11    1    3    3    0    0 -0.61136614390E+01  0.64544516793E+01 -0.66038483300E+01  0.11074638400E+02  0.51100000000E-03 0. -1.
        -11    1    3    3    0    0 -0.13759602431E+02  0.74037851038E+01 -0.52902290620E+01  0.16496339495E+02  0.51100000000E-03 0.  1.
         12    1    3    3    0    0  0.86490325043E+01  0.11272327357E+02 -0.18033116406E+02  0.22957883496E+02  0.00000000000E+00 0. -1.
</event>
<event>
 7    1  0.2985411E-011  0.5052887E+02  0.7816164E-02  0.1300439E+00
        -11   -1    0    0    0    0  0.00000000000E+00  0.00000000000E+00  0.45593999997E+02  0.45594000000E+02  0.51100000000E-03 0.  1.
         11   -1    0    0    0    0 -0.00000000000E+00 -0.00000000000E+00 -0.45593999997E+02  0.45594000000E+02  0.51100000000E-03 0. -1.
    9900012    2    1    2    0    0 -0.24931174243E+02 -0.31714349893E+02 -0.50795380303E+01  0.50528866403E+02  0.30000019920E+02 0.  0.
        -12    1    1    2    0    0  0.24931174243E+02  0.31714349893E+02  0.50795380303E+01  0.40659133597E+02  0.00000000000E+00 0.  1.
         11    1    3    3    0    0 -0.41770240379E+01 -0.69550071158E+00  0.36322816837E+01  0.55789534452E+01  0.51100000000E-03 0. -1.
        -11    1    3    3    0    0 -0.13746872216E+02 -0.34111845011E+01  0.24196249348E+01  0.14368968665E+02  0.51100000000E-03 0.  1.
         12    1    3    3    0    0 -0.70072779891E+01 -0.27607664680E+02 -0.11131444649E+02  0.30580944293E+02  0.00000000000E+00 0. -1.
</event>
<event>
 7    1  0.2985411E-011  0.5052887E+02  0.7816164E-02  0.1300439E+00
        -11   -1    0    0    0    0  0.00000000000E+00  0.00000000000E+00  0.45593999997E+02  0.45594000000E+02  0.51100000000E-03 0.  1.
         11   -1    0    0    0    0 -0.00000000000E+00 -0.00000000000E+00 -0.45593999997E+02  0.45594000000E+02  0.51100000000E-03 0. -1.
    9900012    2    1    2    0    0  0.16820162878E+02 -0.44082273953E+01 -0.36753427687E+02  0.50528870708E+02  0.30000033005E+02 0.  0.
        -12    1    1    2    0    0 -0.16820162878E+02  0.44082273953E+01  0.36753427687E+02  0.40659129292E+02  0.00000000000E+00 0.  1.
         11    1    3    3    0    0 -0.18970197495E+01 -0.20534006891E+01 -0.61040317635E+01  0.67137427974E+01  0.51100000000E-03 0. -1.
        -11    1    3    3    0    0 -0.41340366921E+01  0.44004756448E+01 -0.12431182451E+02  0.13819867679E+02  0.51100000000E-03 0.  1.
        -12    1    3    3    0    0  0.22851219319E+02 -0.67553023510E+01 -0.18218213473E+02  0.29995260232E+02  0.00000000000E+00 0.  1.
</event>
<event>
 7    1  0.2985411E-011  0.5052884E+02  0.7816164E-02  0.1300439E+00
        -11   -1    0    0    0    0  0.00000000000E+00  0.00000000000E+00  0.45593999997E+02  0.45594000000E+02  0.51100000000E-03 0.  1.
         11   -1    0    0    0    0 -0.00000000000E+00 -0.00000000000E+00 -0.45593999997E+02  0.45594000000E+02  0.51100000000E-03 0. -1.
    9900012    2    1    2    0    0  0.69824747727E+01 -0.58000689323E+01 -0.39632958209E+02  0.50528841991E+02  0.29999945716E+02 0.  0.
        -12    1    1    2    0    0 -0.69824747727E+01  0.58000689323E+01  0.39632958209E+02  0.40659158009E+02  0.00000000000E+00 0.  1.
         11    1    3    3    0    0  0.63794177877E+01  0.36394016443E+00 -0.12977906069E+02  0.14465665209E+02  0.51100000000E-03 0. -1.
        -11    1    3    3    0    0  0.18630301790E+01 -0.85311027463E+01 -0.30302793384E+02  0.31535850752E+02  0.51100000000E-03 0.  1.
        -12    1    3    3    0    0 -0.12599731940E+01  0.23670936496E+01  0.36477412437E+01  0.45273260294E+01  0.00000000000E+00 0.  1.
</event>
<event>
 7    1  0.2985411E-011  0.5052886E+02  0.7816164E-02  0.1300439E+00
        -11   -1    0    0    0    0  0.00000000000E+00  0.00000000000E+00  0.45593999997E+02  0.45594000000E+02  0.51100000000E-03 0.  1.
         11   -1    0    0    0    0 -0.00000000000E+00 -0.00000000000E+00 -0.45593999997E+02  0.45594000000E+02  0.51100000000E-03 0. -1.
    9900012    2    1    2    0    0 -0.17333262259E+02 -0.20972929563E+02 -0.30213575005E+02  0.50528857491E+02  0.29999992829E+02 0.  0.
        -12    1    1    2    0    0  0.17333262259E+02  0.20972929563E+02  0.30213575005E+02  0.40659142509E+02  0.00000000000E+00 0.  1.
         11    1    3    3    0    0 -0.12912718838E+02 -0.54593399270E+01 -0.22917366952E+02  0.26865375644E+02  0.51100000000E-03 0. -1.
        -11    1    3    3    0    0 -0.99131044900E+01 -0.13165114641E+02 -0.46022118917E+01  0.17110530053E+02  0.51100000000E-03 0.  1.
        -12    1    3    3    0    0  0.54925610683E+01 -0.23484749944E+01 -0.26939961610E+01  0.65529517932E+01  0.00000000000E+00 0.  1.
</event>
<event>
 7    1  0.2985411E-011  0.5052886E+02  0.7816164E-02  0.1300439E+00
        -11   -1    0    0    0    0  0.00000000000E+00  0.00000000000E+00  0.45593999997E+02  0.45594000000E+02  0.51100000000E-03 0. -1.
         11   -1    0    0    0    0 -0.00000000000E+00 -0.00000000000E+00 -0.45593999997E+02  0.45594000000E+02  0.51100000000E-03 0.  1.
    9900012    2    1    2    0    0  0.11940332069E+02  0.48665217986E+01  0.38560482836E+02  0.50528863254E+02  0.30000010348E+02 0.  0.
        -12    1    1    2    0    0 -0.11940332069E+02 -0.48665217986E+01 -0.38560482836E+02  0.40659136746E+02  0.00000000000E+00 0.  1.
         11    1    3    3    0    0  0.61326108180E+01 -0.80750924628E+01  0.32867555641E+01  0.10659211797E+02  0.51100000000E-03 0. -1.
        -11    1    3    3    0    0 -0.21536519146E+00 -0.22355153220E+01  0.38684154724E+01  0.44730917103E+01  0.51100000000E-03 0.  1.
        -12    1    3    3    0    0  0.60230864426E+01  0.15177129583E+02  0.31405311800E+02  0.35396559747E+02  0.00000000000E+00 0.  1.
</event>
<event>
 7    1  0.2985411E-011  0.5052886E+02  0.7816164E-02  0.1300439E+00
        -11   -1    0    0    0    0  0.00000000000E+00  0.00000000000E+00  0.45593999997E+02  0.45594000000E+02  0.51100000000E-03 0.  1.
         11   -1    0    0    0    0 -0.00000000000E+00 -0.00000000000E+00 -0.45593999997E+02  0.45594000000E+02  0.51100000000E-03 0. -1.
    9900012    2    1    2    0    0  0.70827175198E+01 -0.80044161841E+01 -0.39229201813E+02  0.50528857845E+02  0.29999993905E+02 0.  0.
        -12    1    1    2    0    0 -0.70827175198E+01  0.80044161841E+01  0.39229201813E+02  0.40659142155E+02  0.00000000000E+00 0.  1.
         11    1    3    3    0    0 -0.43117545096E+01 -0.88042864524E+00 -0.25026699378E+02  0.25410668302E+02  0.51100000000E-03 0. -1.
        -11    1    3    3    0    0  0.16225407899E+01 -0.21687390500E+01 -0.13895884403E+02  0.14157389282E+02  0.51100000000E-03 0.  1.
        -12    1    3    3    0    0  0.97719312394E+01 -0.49552484888E+01 -0.30661803219E+00  0.10960800261E+02  0.00000000000E+00 0.  1.
</event>
<event>
 7    1  0.2985411E-011  0.5052886E+02  0.7816164E-02  0.1300439E+00
        -11   -1    0    0    0    0  0.00000000000E+00  0.00000000000E+00  0.45593999997E+02  0.45594000000E+02  0.51100000000E-03 0.  1.
         11   -1    0    0    0    0 -0.00000000000E+00 -0.00000000000E+00 -0.45593999997E+02  0.45594000000E+02  0.51100000000E-03 0. -1.
    9900012    2    1    2    0    0 -0.20757176597E+02  0.17309208571E+02 -0.30375915829E+02  0.50528863953E+02  0.30000012472E+02 0.  0.
        -12    1    1    2    0    0  0.20757176597E+02 -0.17309208571E+02  0.30375915829E+02  0.40659136047E+02  0.00000000000E+00 0.  1.
         11    1    3    3    0    0 -0.56276973237E+01  0.14349758803E+02 -0.16007478270E+02  0.22222194214E+02  0.51100000000E-03 0. -1.
        -11    1    3    3    0    0 -0.30627238623E+01  0.96843394500E+01 -0.35470208279E+01  0.10758627471E+02  0.51100000000E-03 0.  1.
         12    1    3    3    0    0 -0.12066755411E+02 -0.67248896818E+01 -0.10821416731E+02  0.17548042268E+02  0.00000000000E+00 0. -1.
</event>
<event>
 7    1  0.2985411E-011  0.5052886E+02  0.7816164E-02  0.1300439E+00
        -11   -1    0    0    0    0  0.00000000000E+00  0.00000000000E+00  0.45593999997E+02  0.45594000000E+02  0.51100000000E-03 0. -1.
         11   -1    0    0    0    0 -0.00000000000E+00 -0.00000000000E+00 -0.45593999997E+02  0.45594000000E+02  0.51100000000E-03 0.  1.
    9900012    2    1    2    0    0 -0.65079879343E+01  0.64340365327E+01  0.39615837695E+02  0.50528864134E+02  0.30000013023E+02 0.  0.
        -12    1    1    2    0    0  0.65079879343E+01 -0.64340365327E+01 -0.39615837695E+02  0.40659135866E+02  0.00000000000E+00 0.  1.
         11    1    3    3    0    0 -0.39306896859E+01  0.51434473030E+01  0.23844052388E+01  0.68986056685E+01  0.51100000000E-03 0. -1.
        -11    1    3    3    0    0 -0.57105013894E+01  0.11010029473E+02  0.18062060828E+02  0.21910468200E+02  0.51100000000E-03 0.  1.
        -12    1    3    3    0    0  0.31332031410E+01 -0.97194402436E+01  0.19169371628E+02  0.21719790266E+02  0.00000000000E+00 0.  1.
</event>
<event>
 7    1  0.2985411E-011  0.5052886E+02  0.7816164E-02  0.1300439E+00
        -11   -1    0    0    0    0  0.00000000000E+00  0.00000000000E+00  0.45593999997E+02  0.45594000000E+02  0.51100000000E-03 0.  1.
         11   -1    0    0    0    0 -0.00000000000E+00 -0.00000000000E+00 -0.45593999997E+02  0.45594000000E+02  0.51100000000E-03 0. -1.
    9900012    2    1    2    0    0 -0.10710029695E+00  0.92227201857E+01 -0.39599188073E+02  0.50528859156E+02  0.29999997891E+02 0.  0.
        -12    1    1    2    0    0  0.10710029695E+00 -0.92227201857E+01  0.39599188073E+02  0.40659140844E+02  0.00000000000E+00 0.  1.
         11    1    3    3    0    0 -0.44542889951E+01  0.83820921632E+00 -0.23624849392E+02  0.24055701906E+02  0.51100000000E-03 0. -1.
        -11    1    3    3    0    0 -0.74950238264E+01  0.28397081066E+01 -0.66249226899E+01  0.10398505912E+02  0.51100000000E-03 0.  1.
         12    1    3    3    0    0  0.11842212525E+02  0.55448028628E+01 -0.93494159916E+01  0.16074651338E+02  0.00000000000E+00 0. -1.
</event>
<event>
 7    1  0.2985411E-011  0.5052886E+02  0.7816164E-02  0.1300439E+00
        -11   -1    0    0    0    0  0.00000000000E+00  0.00000000000E+00  0.45593999997E+02  0.45594000000E+02  0.51100000000E-03 0. -1.
         11   -1    0    0    0    0 -0.00000000000E+00 -0.00000000000E+00 -0.45593999997E+02  0.45594000000E+02  0.51100000000E-03 0.  1.
    9900012    2    1    2    0    0  0.15794453780E+02 -0.29970398161E+02  0.22482797032E+02  0.50528859594E+02  0.29999999223E+02 0.  0.
        -12    1    1    2    0    0 -0.15794453780E+02  0.29970398161E+02 -0.22482797032E+02  0.40659140406E+02  0.00000000000E+00 0.  1.
         11    1    3    3    0    0 -0.81371289437E+01 -0.71202438620E+01  0.29078031605E+01  0.11196698602E+02  0.51100000000E-03 0.  1.
        -11    1    3    3    0    0  0.40649292623E+01 -0.41076140422E+01  0.75037146484E+01  0.94711074755E+01  0.51100000000E-03 0. -1.
        -12    1    3    3    0    0  0.19866653462E+02 -0.18742540257E+02  0.12071279223E+02  0.29861053517E+02  0.00000000000E+00 0.  1.
</event>
<event>
 7    1  0.2985411E-011  0.5052885E+02  0.7816164E-02  0.1300439E+00
        -11   -1    0    0    0    0  0.00000000000E+00  0.00000000000E+00  0.45593999997E+02  0.45594000000E+02  0.51100000000E-03 0.  1.
         11   -1    0    0    0    0 -0.00000000000E+00 -0.00000000000E+00 -0.45593999997E+02  0.45594000000E+02  0.51100000000E-03 0. -1.
    9900012    2    1    2    0    0 -0.73568741108E+01  0.36806069538E+02  0.15631884557E+02  0.50528853842E+02  0.29999981737E+02 0.  0.
        -12    1    1    2    0    0  0.73568741108E+01 -0.36806069538E+02 -0.15631884557E+02  0.40659146158E+02  0.00000000000E+00 0.  1.
         11    1    3    3    0    0 -0.12691247109E+01  0.79709893031E+01  0.10185036540E+02  0.12995472965E+02  0.51100000000E-03 0. -1.
        -11    1    3    3    0    0 -0.17715959624E+00  0.13766138045E+02  0.13649689494E+02  0.19386901911E+02  0.51100000000E-03 0.  1.
         12    1    3    3    0    0 -0.59105898037E+01  0.15068942190E+02 -0.82028414761E+01  0.18146478965E+02  0.00000000000E+00 0. -1.
</event>
<event>
 7    1  0.2985411E-011  0.5052885E+02  0.7816164E-02  0.1300439E+00
        -11   -1    0    0    0    0  0.00000000000E+00  0.00000000000E+00  0.45593999997E+02  0.45594000000E+02  0.51100000000E-03 0.  1.
         11   -1    0    0    0    0 -0.00000000000E+00 -0.00000000000E+00 -0.45593999997E+02  0.45594000000E+02  0.51100000000E-03 0. -1.
    9900012    2    1    2    0    0  0.36061272512E+02  0.12552387889E+02 -0.13970981849E+02  0.50528854033E+02  0.29999982319E+02 0.  0.
        -12    1    1    2    0    0 -0.36061272512E+02 -0.12552387889E+02  0.13970981849E+02  0.40659145967E+02  0.00000000000E+00 0.  1.
         11    1    3    3    0    0  0.16897606792E+02 -0.16153280519E+01 -0.49788638954E+00  0.16981940146E+02  0.51100000000E-03 0. -1.
        -11    1    3    3    0    0  0.24121797313E+01 -0.36729803178E+01  0.17456570964E+01  0.47282887423E+01  0.51100000000E-03 0.  1.
         12    1    3    3    0    0  0.16751485989E+02  0.17840696259E+02 -0.15218752556E+02  0.28818625144E+02  0.00000000000E+00 0. -1.
</event>
<event>
 7    1  0.2985411E-011  0.5052885E+02  0.7816164E-02  0.1300439E+00
        -11   -1    0    0    0    0  0.00000000000E+00  0.00000000000E+00  0.45593999997E+02  0.45594000000E+02  0.51100000000E-03 0. -1.
         11   -1    0    0    0    0 -0.00000000000E+00 -0.00000000000E+00 -0.45593999997E+02  0.45594000000E+02  0.51100000000E-03 0.  1.
    9900012    2    1    2    0    0 -0.13935890703E+02 -0.36705421949E+02  0.10567393513E+02  0.50528845363E+02  0.29999955966E+02 0.  0.
        -12    1    1    2    0    0  0.13935890703E+02  0.36705421949E+02 -0.10567393513E+02  0.40659154637E+02  0.00000000000E+00 0.  1.
         11    1    3    3    0    0 -0.11268014479E+01 -0.70425623845E+01  0.43489623135E+01  0.83534926772E+01  0.51100000000E-03 0. -1.
        -11    1    3    3    0    0 -0.20042902923E+02 -0.27747714301E+02  0.49465824870E+01  0.34585000869E+02  0.51100000000E-03 0.  1.
        -12    1    3    3    0    0  0.72338136681E+01 -0.19151452625E+01  0.12718487122E+01  0.75903518171E+01  0.00000000000E+00 0.  1.
</event>
<event>
 7    1  0.2985411E-011  0.5052888E+02  0.7816164E-02  0.1300439E+00
        -11   -1    0    0    0    0  0.00000000000E+00  0.00000000000E+00  0.45593999997E+02  0.45594000000E+02  0.51100000000E-03 0.  1.
         11   -1    0    0    0    0 -0.00000000000E+00 -0.00000000000E+00 -0.45593999997E+02  0.45594000000E+02  0.51100000000E-03 0. -1.
    9900012    2    1    2    0    0 -0.17013088611E+02 -0.62096977786E+00 -0.36923345173E+02  0.50528877944E+02  0.30000054999E+02 0.  0.
        -12    1    1    2    0    0  0.17013088611E+02  0.62096977786E+00  0.36923345173E+02  0.40659122056E+02  0.00000000000E+00 0.  1.
         11    1    3    3    0    0 -0.41249774382E-01 -0.92068689911E+00  0.53726653039E+00  0.10667809034E+01  0.51100000000E-03 0. -1.
        -11    1    3    3    0    0  0.58722643248E+01  0.54420501052E+01 -0.15066350721E+02  0.17061486510E+02  0.51100000000E-03 0.  1.
         12    1    3    3    0    0 -0.22844103161E+02 -0.51423329839E+01 -0.22394260983E+02  0.32400610530E+02  0.00000000000E+00 0. -1.
</event>
<event>
 7    1  0.2985411E-011  0.5052886E+02  0.7816164E-02  0.1300439E+00
        -11   -1    0    0    0    0  0.00000000000E+00  0.00000000000E+00  0.45593999997E+02  0.45594000000E+02  0.51100000000E-03 0.  1.
         11   -1    0    0    0    0 -0.00000000000E+00 -0.00000000000E+00 -0.45593999997E+02  0.45594000000E+02  0.51100000000E-03 0. -1.
    9900012    2    1    2    0    0 -0.65911598194E+00  0.28867984470E+02 -0.28624655068E+02  0.50528857867E+02  0.29999993971E+02 0.  0.
        -12    1    1    2    0    0  0.65911598194E+00 -0.28867984470E+02  0.28624655068E+02  0.40659142133E+02  0.00000000000E+00 0.  1.
         11    1    3    3    0    0  0.57486299746E+00  0.18365449331E+02 -0.27891318811E+00  0.18376560870E+02  0.51100000000E-03 0. -1.
        -11    1    3    3    0    0 -0.16663952071E+01  0.40197990628E+01 -0.16121922293E+01  0.46405626315E+01  0.51100000000E-03 0.  1.
        -12    1    3    3    0    0  0.43241622771E+00  0.64827360765E+01 -0.26733549651E+02  0.27511734365E+02  0.00000000000E+00 0.  1.
</event>
<event>
 7    1  0.2985411E-011  0.5052886E+02  0.7816164E-02  0.1300439E+00
        -11   -1    0    0    0    0  0.00000000000E+00  0.00000000000E+00  0.45593999997E+02  0.45594000000E+02  0.51100000000E-03 0. -1.
         11   -1    0    0    0    0 -0.00000000000E+00 -0.00000000000E+00 -0.45593999997E+02  0.45594000000E+02  0.51100000000E-03 0.  1.
    9900012    2    1    2    0    0  0.32987260357E+02 -0.23021575826E+02 -0.59172192392E+01  0.50528858557E+02  0.29999996070E+02 0.  0.
        -12    1    1    2    0    0 -0.32987260357E+02  0.23021575826E+02  0.59172192392E+01  0.40659141443E+02  0.00000000000E+00 0.  1.
         11    1    3    3    0    0  0.15873728061E+02 -0.38796904390E+01 -0.84151463565E+01  0.18380476842E+02  0.51100000000E-03 0. -1.
        -11    1    3    3    0    0  0.12573894822E+01 -0.10247277137E+02  0.81021026490E+01  0.13123710779E+02  0.51100000000E-03 0.  1.
         12    1    3    3    0    0  0.15856142813E+02 -0.88946082504E+01 -0.56041755318E+01  0.19024670936E+02  0.00000000000E+00 0. -1.
</event>
<event>
 7    1  0.2985411E-011  0.5052886E+02  0.7816164E-02  0.1300439E+00
        -11   -1    0    0    0    0  0.00000000000E+00  0.00000000000E+00  0.45593999997E+02  0.45594000000E+02  0.51100000000E-03 0.  1.
         11   -1    0    0    0    0 -0.00000000000E+00 -0.00000000000E+00 -0.45593999997E+02  0.45594000000E+02  0.51100000000E-03 0. -1.
    9900012    2    1    2    0    0  0.40553816539E+02  0.29069258391E+01  0.32177778147E+00  0.50528858412E+02  0.29999995630E+02 0.  0.
        -12    1    1    2    0    0 -0.40553816539E+02 -0.29069258391E+01 -0.32177778147E+00  0.40659141588E+02  0.00000000000E+00 0.  1.
         11    1    3    3    0    0  0.23508136504E+02  0.12676237121E+02 -0.26038331093E+01  0.26834668184E+02  0.51100000000E-03 0. -1.
        -11    1    3    3    0    0  0.16810033780E+02 -0.65330992548E+01 -0.16219299554E+01  0.18107713235E+02  0.51100000000E-03 0.  1.
        -12    1    3    3    0    0  0.23564625473E+00 -0.32362120274E+01  0.45475408462E+01  0.55864769929E+01  0.00000000000E+00 0.  1.
</event>
<event>
 7    1  0.2985411E-011  0.5052887E+02  0.7816164E-02  0.1300439E+00
        -11   -1    0    0    0    0  0.00000000000E+00  0.00000000000E+00  0.45593999997E+02  0.45594000000E+02  0.51100000000E-03 0.  1.
         11   -1    0    0    0    0 -0.00000000000E+00 -0.00000000000E+00 -0.45593999997E+02  0.45594000000E+02  0.51100000000E-03 0. -1.
    9900012    2    1    2    0    0  0.15714163199E+02  0.28419481545E+02 -0.24465539604E+02  0.50528874525E+02  0.30000044606E+02 0.  0.
        -12    1    1    2    0    0 -0.15714163199E+02 -0.28419481545E+02  0.24465539604E+02  0.40659125475E+02  0.00000000000E+00 0.  1.
         11    1    3    3    0    0  0.46313220190E+01  0.15537711718E+01 -0.12304933500E+02  0.13239136573E+02  0.51100000000E-03 0. -1.
        -11    1    3    3    0    0  0.24117628188E+01 -0.13206277109E+01 -0.67754335476E+01  0.73121240050E+01  0.51100000000E-03 0.  1.
         12    1    3    3    0    0  0.86710783609E+01  0.28186338084E+02 -0.53851725559E+01  0.29977613947E+02  0.00000000000E+00 0. -1.
</event>
<event>
 7    1  0.2985411E-011  0.5052885E+02  0.7816164E-02  0.1300439E+00
        -11   -1    0    0    0    0  0.00000000000E+00  0.00000000000E+00  0.45593999997E+02  0.45594000000E+02  0.51100000000E-03 0. -1.
         11   -1    0    0    0    0 -0.00000000000E+00 -0.00000000000E+00 -0.45593999997E+02  0.45594000000E+02  0.51100000000E-03 0.  1.
    9900012    2    1    2    0    0 -0.15619712300E+02  0.28996524171E+02  0.23840981291E+02  0.50528853240E+02  0.29999979907E+02 0.  0.
        -12    1    1    2    0    0  0.15619712300E+02 -0.28996524171E+02 -0.23840981291E+02  0.40659146760E+02  0.00000000000E+00 0.  1.
         11    1    3    3    0    0 -0.34171180320E+01  0.25396079921E+02  0.20089418190E+02  0.32561054874E+02  0.51100000000E-03 0. -1.
        -11    1    3    3    0    0 -0.39176675142E+01  0.32435582966E+01 -0.41113870746E+01  0.65400529901E+01  0.51100000000E-03 0.  1.
        -12    1    3    3    0    0 -0.82849267541E+01  0.35688595286E+00  0.78629501763E+01  0.11427745376E+02  0.00000000000E+00 0.  1.
</event>
<event>
 7    1  0.2985411E-011  0.5052886E+02  0.7816164E-02  0.1300439E+00
        -11   -1    0    0    0    0  0.00000000000E+00  0.00000000000E+00  0.45593999997E+02  0.45594000000E+02  0.51100000000E-03 0. -1.
         11   -1    0    0    0    0 -0.00000000000E+00 -0.00000000000E+00 -0.45593999997E+02  0.45594000000E+02  0.51100000000E-03 0.  1.
    9900012    2    1    2    0    0 -0.22856771496E+02 -0.29813160606E+02  0.15553427220E+02  0.50528860230E+02  0.30000001154E+02 0.  0.
        -12    1    1    2    0    0  0.22856771496E+02  0.29813160606E+02 -0.15553427220E+02  0.40659139770E+02  0.00000000000E+00 0.  1.
         11    1    3    3    0    0 -0.70854880147E+01 -0.17907905744E+02  0.24480279279E+01  0.19413656779E+02  0.51100000000E-03 0. -1.
        -11    1    3    3    0    0 -0.16860763642E+02 -0.73748321344E+01  0.13296195705E+01  0.18451053847E+02  0.51100000000E-03 0.  1.
         12    1    3    3    0    0  0.10894801607E+01 -0.45304227281E+01  0.11775779722E+02  0.12664149603E+02  0.00000000000E+00 0. -1.
</event>
<event>
 7    1  0.2985411E-011  0.5052878E+02  0.7816164E-02  0.1300439E+00
        -11   -1    0    0    0    0  0.00000000000E+00  0.00000000000E+00  0.45593999997E+02  0.45594000000E+02  0.51100000000E-03 0.  1.
         11   -1    0    0    0    0 -0.00000000000E+00 -0.00000000000E+00 -0.45593999997E+02  0.45594000000E+02  0.51100000000E-03 0. -1.
    9900012    2    1    2    0    0  0.32344356918E+01 -0.27819592299E+02 -0.29475084844E+02  0.50528783130E+02  0.29999766800E+02 0.  0.
        -12    1    1    2    0    0 -0.32344356918E+01  0.27819592299E+02  0.29475084844E+02  0.40659216870E+02  0.00000000000E+00 0.  1.
         11    1    3    3    0    0  0.10129527681E+02 -0.32022894943E+00 -0.81592690188E+01  0.13010901152E+02  0.51100000000E-03 0. -1.
        -11    1    3    3    0    0 -0.29295357300E+01 -0.17757936130E+02 -0.60657712452E+01  0.18992631631E+02  0.51100000000E-03 0.  1.
        -12    1    3    3    0    0 -0.39655562587E+01 -0.97414272194E+01 -0.15250044580E+02  0.18525250347E+02  0.00000000000E+00 0.  1.
</event>
<event>
 7    1  0.2985411E-011  0.5052884E+02  0.7816164E-02  0.1300439E+00
        -11   -1    0    0    0    0  0.00000000000E+00  0.00000000000E+00  0.45593999997E+02  0.45594000000E+02  0.51100000000E-03 0. -1.
         11   -1    0    0    0    0 -0.00000000000E+00 -0.00000000000E+00 -0.45593999997E+02  0.45594000000E+02  0.51100000000E-03 0.  1.
    9900012    2    1    2    0    0 -0.17236039955E+02  0.26329420448E+02  0.25745829892E+02  0.50528840991E+02  0.29999942677E+02 0.  0.
        -12    1    1    2    0    0  0.17236039955E+02 -0.26329420448E+02 -0.25745829892E+02  0.40659159009E+02  0.00000000000E+00 0.  1.
         11    1    3    3    0    0 -0.13533603655E+02  0.21396909615E+02  0.73971233708E+01  0.26376193876E+02  0.51100000000E-03 0. -1.
        -11    1    3    3    0    0 -0.83649169236E+01  0.64641528568E+01  0.14342203477E+02  0.17817292390E+02  0.51100000000E-03 0.  1.
        -12    1    3    3    0    0  0.46624806232E+01 -0.15316420236E+01  0.40065030443E+01  0.63353547252E+01  0.00000000000E+00 0.  1.
</event>
<event>
 7    1  0.2985411E-011  0.5052885E+02  0.7816164E-02  0.1300439E+00
        -11   -1    0    0    0    0  0.00000000000E+00  0.00000000000E+00  0.45593999997E+02  0.45594000000E+02  0.51100000000E-03 0.  1.
         11   -1    0    0    0    0 -0.00000000000E+00 -0.00000000000E+00 -0.45593999997E+02  0.45594000000E+02  0.51100000000E-03 0. -1.
    9900012    2    1    2    0    0  0.30693671527E+02 -0.17884612114E+02 -0.19778913104E+02  0.50528853110E+02  0.29999979514E+02 0.  0.
        -12    1    1    2    0    0 -0.30693671527E+02  0.17884612114E+02  0.19778913104E+02  0.40659146890E+02  0.00000000000E+00 0.  1.
         11    1    3    3    0    0  0.20203232744E+01 -0.14831225312E+02 -0.20171364498E+01  0.15103502577E+02  0.51100000000E-03 0. -1.
        -11    1    3    3    0    0  0.16740150724E+02 -0.50604867824E+01 -0.58381881189E+01  0.18437071717E+02  0.51100000000E-03 0.  1.
        -12    1    3    3    0    0  0.11933197529E+02  0.20070999805E+01 -0.11923588535E+02  0.16988278816E+02  0.00000000000E+00 0.  1.
</event>
<event>
 7    1  0.2985411E-011  0.5052884E+02  0.7816164E-02  0.1300439E+00
        -11   -1    0    0    0    0  0.00000000000E+00  0.00000000000E+00  0.45593999997E+02  0.45594000000E+02  0.51100000000E-03 0.  1.
         11   -1    0    0    0    0 -0.00000000000E+00 -0.00000000000E+00 -0.45593999997E+02  0.45594000000E+02  0.51100000000E-03 0. -1.
    9900012    2    1    2    0    0 -0.11259426237E+02 -0.16707540124E+01 -0.39033330618E+02  0.50528843623E+02  0.29999950677E+02 0.  0.
        -12    1    1    2    0    0  0.11259426237E+02  0.16707540124E+01  0.39033330618E+02  0.40659156377E+02  0.00000000000E+00 0.  1.
         11    1    3    3    0    0  0.62953916045E+01 -0.69009347716E+01 -0.25297486489E+02  0.26966973858E+02  0.51100000000E-03 0. -1.
        -11    1    3    3    0    0 -0.76557451454E+01  0.33768161699E-01 -0.35552163261E+01  0.84410388820E+01  0.51100000000E-03 0.  1.
        -12    1    3    3    0    0 -0.98990726963E+01  0.51964125975E+01 -0.10180627803E+02  0.15120830883E+02  0.00000000000E+00 0.  1.
</event>
<event>
 7    1  0.2985411E-011  0.5052887E+02  0.7816164E-02  0.1300439E+00
        -11   -1    0    0    0    0  0.00000000000E+00  0.00000000000E+00  0.45593999997E+02  0.45594000000E+02  0.51100000000E-03 0.  1.
         11   -1    0    0    0    0 -0.00000000000E+00 -0.00000000000E+00 -0.45593999997E+02  0.45594000000E+02  0.51100000000E-03 0. -1.
    9900012    2    1    2    0    0 -0.16064741025E+02  0.35847182415E+02 -0.10491332855E+02  0.50528874870E+02  0.30000045655E+02 0.  0.
        -12    1    1    2    0    0  0.16064741025E+02 -0.35847182415E+02  0.10491332855E+02  0.40659125130E+02  0.00000000000E+00 0.  1.
         11    1    3    3    0    0 -0.24734097856E+01  0.67368811049E+01  0.66802168086E+01  0.98045203789E+01  0.51100000000E-03 0.  1.
        -11    1    3    3    0    0 -0.13649482507E+02  0.92457992003E+01 -0.42440032520E+01  0.17023652353E+02  0.51100000000E-03 0. -1.
         12    1    3    3    0    0  0.58151267534E-01  0.19864502110E+02 -0.12927546411E+02  0.23700702138E+02  0.00000000000E+00 0. -1.
</event>
<event>
 7    1  0.2985411E-011  0.5052885E+02  0.7816164E-02  0.1300439E+00
        -11   -1    0    0    0    0  0.00000000000E+00  0.00000000000E+00  0.45593999997E+02  0.45594000000E+02  0.51100000000E-03 0. -1.
         11   -1    0    0    0    0 -0.00000000000E+00 -0.00000000000E+00 -0.45593999997E+02  0.45594000000E+02  0.51100000000E-03 0.  1.
    9900012    2    1    2    0    0  0.11492719570E+02 -0.17727865157E+02  0.34739123530E+02  0.50528849618E+02  0.29999968898E+02 0.  0.
        -12    1    1    2    0    0 -0.11492719570E+02  0.17727865157E+02 -0.34739123530E+02  0.40659150382E+02  0.00000000000E+00 0.  1.
         11    1    3    3    0    0  0.13592887301E+02 -0.10726669288E+02  0.13771400867E+02  0.22124183630E+02  0.51100000000E-03 0. -1.
        -11    1    3    3    0    0  0.60800138588E+01 -0.76745920845E+01  0.64417377159E+01  0.11720150052E+02  0.51100000000E-03 0.  1.
        -12    1    3    3    0    0 -0.81801815900E+01  0.67339621513E+00  0.14525984947E+02  0.16684515935E+02  0.00000000000E+00 0.  1.
</event>
<event>
 7    1  0.2985411E-011  0.5052888E+02  0.7816164E-02  0.1300439E+00
        -11   -1    0    0    0    0  0.00000000000E+00  0.00000000000E+00  0.45593999997E+02  0.45594000000E+02  0.51100000000E-03 0.  1.
         11   -1    0    0    0    0 -0.00000000000E+00 -0.00000000000E+00 -0.45593999997E+02  0.45594000000E+02  0.51100000000E-03 0. -1.
    9900012    2    1    2    0    0 -0.35504672296E+02 -0.37967820169E+01 -0.19446504926E+02  0.50528882174E+02  0.30000067856E+02 0.  0.
        -12    1    1    2    0    0  0.35504672296E+02  0.37967820169E+01  0.19446504926E+02  0.40659117826E+02  0.00000000000E+00 0.  1.
         11    1    3    3    0    0 -0.14643539007E+01 -0.14010776362E+01  0.27912540392E+01  0.34494130315E+01  0.51100000000E-03 0.  1.
        -11    1    3    3    0    0 -0.28692304620E+02  0.38633547193E+01 -0.70396519898E+01  0.29794807509E+02  0.51100000000E-03 0. -1.
         12    1    3    3    0    0 -0.53480137758E+01 -0.62590591000E+01 -0.15198106975E+02  0.17284661634E+02  0.00000000000E+00 0. -1.
</event>
<event>
 7    1  0.2985411E-011  0.5052886E+02  0.7816164E-02  0.1300439E+00
        -11   -1    0    0    0    0  0.00000000000E+00  0.00000000000E+00  0.45593999997E+02  0.45594000000E+02  0.51100000000E-03 0. -1.
         11   -1    0    0    0    0 -0.00000000000E+00 -0.00000000000E+00 -0.45593999997E+02  0.45594000000E+02  0.51100000000E-03 0.  1.
    9900012    2    1    2    0    0  0.30171655751E+02 -0.20956742588E+02  0.17425611294E+02  0.50528858351E+02  0.29999995444E+02 0.  0.
        -12    1    1    2    0    0 -0.30171655751E+02  0.20956742588E+02 -0.17425611294E+02  0.40659141649E+02  0.00000000000E+00 0.  1.
         11    1    3    3    0    0  0.14856614868E+02 -0.14084177806E+02  0.13070286618E+02  0.24288175360E+02  0.51100000000E-03 0. -1.
        -11    1    3    3    0    0  0.16008777247E+01 -0.48865581578E+01  0.10026263440E+02  0.11267973152E+02  0.51100000000E-03 0.  1.
         12    1    3    3    0    0  0.13714163159E+02 -0.19860066244E+01 -0.56709387640E+01  0.14972709839E+02  0.00000000000E+00 0. -1.
</event>
<event>
 7    1  0.2985411E-011  0.5052885E+02  0.7816164E-02  0.1300439E+00
        -11   -1    0    0    0    0  0.00000000000E+00  0.00000000000E+00  0.45593999997E+02  0.45594000000E+02  0.51100000000E-03 0.  1.
         11   -1    0    0    0    0 -0.00000000000E+00 -0.00000000000E+00 -0.45593999997E+02  0.45594000000E+02  0.51100000000E-03 0. -1.
    9900012    2    1    2    0    0  0.44961532046E+01  0.39796681496E+02 -0.70124795449E+01  0.50528854398E+02  0.29999983428E+02 0.  0.
        -12    1    1    2    0    0 -0.44961532046E+01 -0.39796681496E+02  0.70124795449E+01  0.40659145602E+02  0.00000000000E+00 0.  1.
         11    1    3    3    0    0 -0.82588397151E+01  0.84639360413E+01  0.77996931985E+00  0.11851371193E+02  0.51100000000E-03 0.  1.
        -11    1    3    3    0    0 -0.29553761252E+01  0.14252645564E+02 -0.45189202830E+01  0.15241154628E+02  0.51100000000E-03 0. -1.
        -12    1    3    3    0    0  0.15710369045E+02  0.17080099890E+02 -0.32735285817E+01  0.23436328577E+02  0.00000000000E+00 0.  1.
</event>
<event>
 7    1  0.2985411E-011  0.5052886E+02  0.7816164E-02  0.1300439E+00
        -11   -1    0    0    0    0  0.00000000000E+00  0.00000000000E+00  0.45593999997E+02  0.45594000000E+02  0.51100000000E-03 0.  1.
         11   -1    0    0    0    0 -0.00000000000E+00 -0.00000000000E+00 -0.45593999997E+02  0.45594000000E+02  0.51100000000E-03 0. -1.
    9900012    2    1    2    0    0  0.33707290723E+02 -0.17403657511E+02 -0.14632043962E+02  0.50528862612E+02  0.30000008395E+02 0.  0.
        -12    1    1    2    0    0 -0.33707290723E+02  0.17403657511E+02  0.14632043962E+02  0.40659137388E+02  0.00000000000E+00 0.  1.
         11    1    3    3    0    0  0.11529733256E+02 -0.71000910310E+01 -0.19400264428E+02  0.23658324153E+02  0.51100000000E-03 0. -1.
        -11    1    3    3    0    0  0.14370936690E+02 -0.43022281307E+01 -0.16881899091E+01  0.15095793244E+02  0.51100000000E-03 0.  1.
        -12    1    3    3    0    0  0.78066207771E+01 -0.60013383492E+01  0.64564103753E+01  0.11774745215E+02  0.00000000000E+00 0.  1.
</event>
<event>
 7    1  0.2985411E-011  0.5052886E+02  0.7816164E-02  0.1300439E+00
        -11   -1    0    0    0    0  0.00000000000E+00  0.00000000000E+00  0.45593999997E+02  0.45594000000E+02  0.51100000000E-03 0. -1.
         11   -1    0    0    0    0 -0.00000000000E+00 -0.00000000000E+00 -0.45593999997E+02  0.45594000000E+02  0.51100000000E-03 0.  1.
    9900012    2    1    2    0    0 -0.16406124803E+02  0.18759882165E+02  0.32125868388E+02  0.50528861672E+02  0.30000005538E+02 0.  0.
        -12    1    1    2    0    0  0.16406124803E+02 -0.18759882165E+02 -0.32125868388E+02  0.40659138328E+02  0.00000000000E+00 0.  1.
         11    1    3    3    0    0 -0.12488132387E+02  0.10659837592E+02  0.24296905484E+02  0.29324481314E+02  0.51100000000E-03 0. -1.
        -11    1    3    3    0    0 -0.67554005459E+01 -0.33227707692E+01  0.51849520509E+01  0.91411142730E+01  0.51100000000E-03 0.  1.
        -12    1    3    3    0    0  0.28374081300E+01  0.11422815342E+02  0.26440108534E+01  0.12063266085E+02  0.00000000000E+00 0.  1.
</event>
<event>
 7    1  0.2985411E-011  0.5052886E+02  0.7816164E-02  0.1300439E+00
        -11   -1    0    0    0    0  0.00000000000E+00  0.00000000000E+00  0.45593999997E+02  0.45594000000E+02  0.51100000000E-03 0.  1.
         11   -1    0    0    0    0 -0.00000000000E+00 -0.00000000000E+00 -0.45593999997E+02  0.45594000000E+02  0.51100000000E-03 0. -1.
    9900012    2    1    2    0    0 -0.13287438057E+02  0.35347197427E+02 -0.15072660960E+02  0.50528862227E+02  0.30000007224E+02 0.  0.
        -12    1    1    2    0    0  0.13287438057E+02 -0.35347197427E+02  0.15072660960E+02  0.40659137773E+02  0.00000000000E+00 0.  1.
         11    1    3    3    0    0  0.28401629140E+01  0.12188623410E+02  0.29398617660E+01  0.12855810106E+02  0.51100000000E-03 0. -1.
        -11    1    3    3    0    0  0.18608752396E+01  0.10501318328E+02 -0.31257445955E+01  0.11113542316E+02  0.51100000000E-03 0.  1.
        -12    1    3    3    0    0 -0.17988476211E+02  0.12657255689E+02 -0.14886778131E+02  0.26559509805E+02  0.00000000000E+00 0.  1.
</event>
<event>
 7    1  0.2985411E-011  0.5052886E+02  0.7816164E-02  0.1300439E+00
        -11   -1    0    0    0    0  0.00000000000E+00  0.00000000000E+00  0.45593999997E+02  0.45594000000E+02  0.51100000000E-03 0. -1.
         11   -1    0    0    0    0 -0.00000000000E+00 -0.00000000000E+00 -0.45593999997E+02  0.45594000000E+02  0.51100000000E-03 0.  1.
    9900012    2    1    2    0    0  0.26319847185E+02  0.20152093752E+02  0.23544095017E+02  0.50528860209E+02  0.30000001092E+02 0.  0.
        -12    1    1    2    0    0 -0.26319847185E+02 -0.20152093752E+02 -0.23544095017E+02  0.40659139791E+02  0.00000000000E+00 0.  1.
         11    1    3    3    0    0  0.17071326419E+02  0.17528508327E+02  0.24448817622E+02  0.34589354912E+02  0.51100000000E-03 0. -1.
        -11    1    3    3    0    0  0.74331916479E+01  0.20589999118E+01  0.53600352738E+01  0.93926459056E+01  0.51100000000E-03 0.  1.
        -12    1    3    3    0    0  0.18153291174E+01  0.56458551255E+00 -0.62647578790E+01  0.65468593912E+01  0.00000000000E+00 0.  1.
</event>
<event>
 7    1  0.2985411E-011  0.5052885E+02  0.7816164E-02  0.1300439E+00
        -11   -1    0    0    0    0  0.00000000000E+00  0.00000000000E+00  0.45593999997E+02  0.45594000000E+02  0.51100000000E-03 0.  1.
         11   -1    0    0    0    0 -0.00000000000E+00 -0.00000000000E+00 -0.45593999997E+02  0.45594000000E+02  0.51100000000E-03 0. -1.
    9900012    2    1    2    0    0  0.13972301413E+02  0.62020059141E+01 -0.37675939663E+02  0.50528849571E+02  0.29999968755E+02 0.  0.
        -12    1    1    2    0    0 -0.13972301413E+02 -0.62020059141E+01  0.37675939663E+02  0.40659150429E+02  0.00000000000E+00 0.  1.
         11    1    3    3    0    0  0.71317343644E+01 -0.12521772740E+01 -0.10462970204E+02  0.12724123888E+02  0.51100000000E-03 0. -1.
        -11    1    3    3    0    0  0.10072423088E+02  0.37586277670E+01 -0.30201035502E+02  0.32057503571E+02  0.51100000000E-03 0.  1.
        -12    1    3    3    0    0 -0.32318560390E+01  0.36955554211E+01  0.29880660427E+01  0.57472221119E+01  0.00000000000E+00 0.  1.
</event>
<event>
 7    1  0.2985411E-011  0.5052885E+02  0.7816164E-02  0.1300439E+00
        -11   -1    0    0    0    0  0.00000000000E+00  0.00000000000E+00  0.45593999997E+02  0.45594000000E+02  0.51100000000E-03 0. -1.
         11   -1    0    0    0    0 -0.00000000000E+00 -0.00000000000E+00 -0.45593999997E+02  0.45594000000E+02  0.51100000000E-03 0.  1.
    9900012    2    1    2    0    0 -0.30699941955E+01  0.13495363392E+02  0.38231093359E+02  0.50528853466E+02  0.29999980597E+02 0.  0.
        -12    1    1    2    0    0  0.30699941955E+01 -0.13495363392E+02 -0.38231093359E+02  0.40659146534E+02  0.00000000000E+00 0.  1.
         11    1    3    3    0    0  0.37726018476E+00  0.36516580956E+01 -0.24555267170E+01  0.44166213120E+01  0.51100000000E-03 0. -1.
        -11    1    3    3    0    0  0.12489477850E+01 -0.11530657974E+01 -0.14979449631E+01  0.22656722349E+01  0.51100000000E-03 0.  1.
         12    1    3    3    0    0 -0.46962021652E+01  0.10996771094E+02  0.42184565039E+02  0.43846559919E+02  0.00000000000E+00 0. -1.
</event>
<event>
 7    1  0.2985411E-011  0.5052890E+02  0.7816164E-02  0.1300439E+00
        -11   -1    0    0    0    0  0.00000000000E+00  0.00000000000E+00  0.45593999997E+02  0.45594000000E+02  0.51100000000E-03 0.  1.
         11   -1    0    0    0    0 -0.00000000000E+00 -0.00000000000E+00 -0.45593999997E+02  0.45594000000E+02  0.51100000000E-03 0. -1.
    9900012    2    1    2    0    0 -0.35604187973E+02  0.25078727444E+01 -0.19473429764E+02  0.50528903924E+02  0.30000133967E+02 0.  0.
        -12    1    1    2    0    0  0.35604187973E+02 -0.25078727444E+01  0.19473429764E+02  0.40659096076E+02  0.00000000000E+00 0.  1.
         11    1    3    3    0    0 -0.14056611663E+02 -0.20273377286E+01  0.36639924990E+01  0.14667081202E+02  0.51100000000E-03 0. -1.
        -11    1    3    3    0    0 -0.94095275246E+01 -0.23409250798E-01 -0.81173328887E-01  0.94099067795E+01  0.51100000000E-03 0.  1.
         12    1    3    3    0    0 -0.12138048786E+02  0.45586197238E+01 -0.23056248934E+02  0.26451915942E+02  0.00000000000E+00 0. -1.
</event>
<event>
 7    1  0.2985411E-011  0.5052887E+02  0.7816164E-02  0.1300439E+00
        -11   -1    0    0    0    0  0.00000000000E+00  0.00000000000E+00  0.45593999997E+02  0.45594000000E+02  0.51100000000E-03 0.  1.
         11   -1    0    0    0    0 -0.00000000000E+00 -0.00000000000E+00 -0.45593999997E+02  0.45594000000E+02  0.51100000000E-03 0. -1.
    9900012    2    1    2    0    0  0.49242272457E+01  0.94092220070E+01 -0.39247719434E+02  0.50528868756E+02  0.30000027070E+02 0.  0.
        -12    1    1    2    0    0 -0.49242272457E+01 -0.94092220070E+01  0.39247719434E+02  0.40659131244E+02  0.00000000000E+00 0.  1.
         11    1    3    3    0    0 -0.25808198572E+01 -0.99119867876E+00 -0.14445352334E+01  0.31192608512E+01  0.51100000000E-03 0. -1.
        -11    1    3    3    0    0 -0.51131421718E+01  0.27399287612E+01 -0.30300618735E+02  0.30850914548E+02  0.51100000000E-03 0.  1.
        -12    1    3    3    0    0  0.12618189275E+02  0.76604919245E+01 -0.75025654659E+01  0.16558693356E+02  0.00000000000E+00 0.  1.
</event>
<event>
 7    1  0.2985411E-011  0.5052881E+02  0.7816164E-02  0.1300439E+00
        -11   -1    0    0    0    0  0.00000000000E+00  0.00000000000E+00  0.45593999997E+02  0.45594000000E+02  0.51100000000E-03 0. -1.
         11   -1    0    0    0    0 -0.00000000000E+00 -0.00000000000E+00 -0.45593999997E+02  0.45594000000E+02  0.51100000000E-03 0.  1.
    9900012    2    1    2    0    0 -0.14409438153E+02  0.36956210674E+02 -0.89317504953E+01  0.50528811836E+02  0.29999854055E+02 0.  0.
        -12    1    1    2    0    0  0.14409438153E+02 -0.36956210674E+02  0.89317504953E+01  0.40659188164E+02  0.00000000000E+00 0.  1.
         11    1    3    3    0    0  0.12112295333E+01 -0.11237257553E+01 -0.26008524688E-01  0.16524264764E+01  0.51100000000E-03 0. -1.
        -11    1    3    3    0    0 -0.14812412315E+02  0.79255762979E+01  0.17364237789E+01  0.16888975281E+02  0.51100000000E-03 0.  1.
         12    1    3    3    0    0 -0.80825537173E+00  0.30154360131E+02 -0.10642165750E+02  0.31987410078E+02  0.00000000000E+00 0. -1.
</event>
<event>
 7    1  0.2985411E-011  0.5052886E+02  0.7816164E-02  0.1300439E+00
        -11   -1    0    0    0    0  0.00000000000E+00  0.00000000000E+00  0.45593999997E+02  0.45594000000E+02  0.51100000000E-03 0. -1.
         11   -1    0    0    0    0 -0.00000000000E+00 -0.00000000000E+00 -0.45593999997E+02  0.45594000000E+02  0.51100000000E-03 0.  1.
    9900012    2    1    2    0    0 -0.35926833087E+02 -0.76246968927E+01 -0.17443978620E+02  0.50528859227E+02  0.29999998106E+02 0.  0.
        -12    1    1    2    0    0  0.35926833087E+02  0.76246968927E+01  0.17443978620E+02  0.40659140773E+02  0.00000000000E+00 0.  1.
         11    1    3    3    0    0 -0.38391802567E+01  0.27549144394E+00  0.59423115627E+01  0.70799906461E+01  0.51100000000E-03 0. -1.
        -11    1    3    3    0    0 -0.92208569570E+01  0.27535765194E+01 -0.91790302437E+00  0.96668988250E+01  0.51100000000E-03 0.  1.
        -12    1    3    3    0    0 -0.22866795873E+02 -0.10653764856E+02 -0.22468387158E+02  0.33781969756E+02  0.00000000000E+00 0.  1.
</event>
<event>
 7    1  0.2985411E-011  0.5052885E+02  0.7816164E-02  0.1300439E+00
        -11   -1    0    0    0    0  0.00000000000E+00  0.00000000000E+00  0.45593999997E+02  0.45594000000E+02  0.51100000000E-03 0. -1.
         11   -1    0    0    0    0 -0.00000000000E+00 -0.00000000000E+00 -0.45593999997E+02  0.45594000000E+02  0.51100000000E-03 0.  1.
    9900012    2    1    2    0    0 -0.38283282415E+02  0.10150432173E+02  0.91937571936E+01  0.50528853956E+02  0.29999982083E+02 0.  0.
        -12    1    1    2    0    0  0.38283282415E+02 -0.10150432173E+02 -0.91937571936E+01  0.40659146044E+02  0.00000000000E+00 0.  1.
         11    1    3    3    0    0 -0.43745451598E+01 -0.64547562913E+01  0.71125893917E+01  0.10554120155E+02  0.51100000000E-03 0. -1.
        -11    1    3    3    0    0 -0.93055565454E+01 -0.88743066762E+00  0.28640823809E+01  0.97767010773E+01  0.51100000000E-03 0.  1.
         12    1    3    3    0    0 -0.24603180709E+02  0.17492619131E+02 -0.78291457895E+00  0.30198032723E+02  0.00000000000E+00 0. -1.
</event>
<event>
 7    1  0.2985411E-011  0.5052887E+02  0.7816164E-02  0.1300439E+00
        -11   -1    0    0    0    0  0.00000000000E+00  0.00000000000E+00  0.45593999997E+02  0.45594000000E+02  0.51100000000E-03 0.  1.
         11   -1    0    0    0    0 -0.00000000000E+00 -0.00000000000E+00 -0.45593999997E+02  0.45594000000E+02  0.51100000000E-03 0. -1.
    9900012    2    1    2    0    0 -0.37983615633E+02  0.90081504352E+01 -0.11369394313E+02  0.50528868702E+02  0.30000026907E+02 0.  0.
        -12    1    1    2    0    0  0.37983615633E+02 -0.90081504352E+01  0.11369394313E+02  0.40659131298E+02  0.00000000000E+00 0.  1.
         11    1    3    3    0    0 -0.85524712062E+01  0.77144522344E+00 -0.13699277492E+02  0.16168181577E+02  0.51100000000E-03 0. -1.
        -11    1    3    3    0    0 -0.19434199818E+02 -0.24325009214E+01  0.21050098195E+00  0.19586972564E+02  0.51100000000E-03 0.  1.
        -12    1    3    3    0    0 -0.99969446095E+01  0.10669206133E+02  0.21193821964E+01  0.14773714561E+02  0.00000000000E+00 0.  1.
</event>
<event>
 7    1  0.2985411E-011  0.5052886E+02  0.7816164E-02  0.1300439E+00
        -11   -1    0    0    0    0  0.00000000000E+00  0.00000000000E+00  0.45593999997E+02  0.45594000000E+02  0.51100000000E-03 0.  1.
         11   -1    0    0    0    0 -0.00000000000E+00 -0.00000000000E+00 -0.45593999997E+02  0.45594000000E+02  0.51100000000E-03 0. -1.
    9900012    2    1    2    0    0  0.35806665653E+02  0.59455321190E+01  0.18322093174E+02  0.50528858892E+02  0.29999997089E+02 0.  0.
        -12    1    1    2    0    0 -0.35806665653E+02 -0.59455321190E+01 -0.18322093174E+02  0.40659141108E+02  0.00000000000E+00 0.  1.
         11    1    3    3    0    0  0.26642674223E+01 -0.64324567216E+00 -0.11966178439E+01  0.29906488289E+01  0.51100000000E-03 0. -1.
        -11    1    3    3    0    0  0.26259852713E+02 -0.57702651930E+01  0.51512229498E+01  0.27375370738E+02  0.51100000000E-03 0.  1.
        -12    1    3    3    0    0  0.68825455174E+01  0.12359042984E+02  0.14367488068E+02  0.20162839326E+02  0.00000000000E+00 0.  1.
</event>
<event>
 7    1  0.2985411E-011  0.5052886E+02  0.7816164E-02  0.1300439E+00
        -11   -1    0    0    0    0  0.00000000000E+00  0.00000000000E+00  0.45593999997E+02  0.45594000000E+02  0.51100000000E-03 0. -1.
         11   -1    0    0    0    0 -0.00000000000E+00 -0.00000000000E+00 -0.45593999997E+02  0.45594000000E+02  0.51100000000E-03 0.  1.
    9900012    2    1    2    0    0  0.56691023098E+01 -0.27254798510E+02  0.29634488471E+02  0.50528859948E+02  0.30000000297E+02 0.  0.
        -12    1    1    2    0    0 -0.56691023098E+01  0.27254798510E+02 -0.29634488471E+02  0.40659140052E+02  0.00000000000E+00 0.  1.
         11    1    3    3    0    0  0.33736322427E+00 -0.15687012190E+02  0.15075507885E+02  0.21759299245E+02  0.51100000000E-03 0. -1.
        -11    1    3    3    0    0 -0.25748097458E+01 -0.15553712446E+02  0.11015043873E+02  0.19232233564E+02  0.51100000000E-03 0.  1.
        -12    1    3    3    0    0  0.79065488313E+01  0.39859261261E+01  0.35439367136E+01  0.95373271378E+01  0.00000000000E+00 0.  1.
</event>
<event>
 7    1  0.2985411E-011  0.5052886E+02  0.7816164E-02  0.1300439E+00
        -11   -1    0    0    0    0  0.00000000000E+00  0.00000000000E+00  0.45593999997E+02  0.45594000000E+02  0.51100000000E-03 0. -1.
         11   -1    0    0    0    0 -0.00000000000E+00 -0.00000000000E+00 -0.45593999997E+02  0.45594000000E+02  0.51100000000E-03 0.  1.
    9900012    2    1    2    0    0 -0.38638052720E+02 -0.12653395501E+02 -0.39720163332E+00  0.50528864436E+02  0.30000013940E+02 0.  0.
        -12    1    1    2    0    0  0.38638052720E+02  0.12653395501E+02  0.39720163332E+00  0.40659135564E+02  0.00000000000E+00 0.  1.
         11    1    3    3    0    0 -0.58526995149E+01 -0.58622822252E+01  0.30658300209E+01  0.88328793991E+01  0.51100000000E-03 0. -1.
        -11    1    3    3    0    0 -0.37587111350E+01 -0.95421421933E+01  0.48963084404E+01  0.11364603981E+02  0.51100000000E-03 0.  1.
         12    1    3    3    0    0 -0.29026642070E+02  0.27510289176E+01 -0.83593400947E+01  0.30331381056E+02  0.00000000000E+00 0. -1.
</event>
<event>
 7    1  0.2985411E-011  0.5052891E+02  0.7816164E-02  0.1300439E+00
        -11   -1    0    0    0    0  0.00000000000E+00  0.00000000000E+00  0.45593999997E+02  0.45594000000E+02  0.51100000000E-03 0.  1.
         11   -1    0    0    0    0 -0.00000000000E+00 -0.00000000000E+00 -0.45593999997E+02  0.45594000000E+02  0.51100000000E-03 0. -1.
    9900012    2    1    2    0    0  0.23821777033E+02 -0.10177586226E+02 -0.31338497109E+02  0.50528908477E+02  0.30000147806E+02 0.  0.
        -12    1    1    2    0    0 -0.23821777033E+02  0.10177586226E+02  0.31338497109E+02  0.40659091523E+02  0.00000000000E+00 0.  1.
         11    1    3    3    0    0  0.92380073664E+01 -0.39953985471E+00 -0.34668895782E+01  0.98752081399E+01  0.51100000000E-03 0. -1.
        -11    1    3    3    0    0 -0.35221260948E+01 -0.91161571363E+01 -0.37095290752E+01  0.10453243486E+02  0.51100000000E-03 0.  1.
         12    1    3    3    0    0  0.18105895762E+02 -0.66188923506E+00 -0.24162078456E+02  0.30200456851E+02  0.00000000000E+00 0. -1.
</event>
<event>
 7    1  0.2985411E-011  0.5052887E+02  0.7816164E-02  0.1300439E+00
        -11   -1    0    0    0    0  0.00000000000E+00  0.00000000000E+00  0.45593999997E+02  0.45594000000E+02  0.51100000000E-03 0.  1.
         11   -1    0    0    0    0 -0.00000000000E+00 -0.00000000000E+00 -0.45593999997E+02  0.45594000000E+02  0.51100000000E-03 0. -1.
    9900012    2    1    2    0    0  0.16753026075E+02  0.13768720185E+02 -0.34393651639E+02  0.50528870505E+02  0.30000032387E+02 0.  0.
        -12    1    1    2    0    0 -0.16753026075E+02 -0.13768720185E+02  0.34393651639E+02  0.40659129495E+02  0.00000000000E+00 0.  1.
         11    1    3    3    0    0  0.77441765008E+00  0.43762114688E+01  0.17176562451E+01  0.47645873645E+01  0.51100000000E-03 0. -1.
        -11    1    3    3    0    0  0.76055218030E+01 -0.34299634087E+01 -0.23122364361E+01  0.86576583716E+01  0.51100000000E-03 0.  1.
         12    1    3    3    0    0  0.83730866220E+01  0.12822472125E+02 -0.33799071448E+02  0.37106624769E+02  0.00000000000E+00 0. -1.
</event>
<event>
 7    1  0.2985411E-011  0.5052887E+02  0.7816164E-02  0.1300439E+00
        -11   -1    0    0    0    0  0.00000000000E+00  0.00000000000E+00  0.45593999997E+02  0.45594000000E+02  0.51100000000E-03 0.  1.
         11   -1    0    0    0    0 -0.00000000000E+00 -0.00000000000E+00 -0.45593999997E+02  0.45594000000E+02  0.51100000000E-03 0. -1.
    9900012    2    1    2    0    0 -0.40433080371E+02  0.38841756875E+01  0.18011832686E+01  0.50528867320E+02  0.30000022707E+02 0.  0.
        -12    1    1    2    0    0  0.40433080371E+02 -0.38841756875E+01 -0.18011832686E+01  0.40659132680E+02  0.00000000000E+00 0.  1.
         11    1    3    3    0    0 -0.28238666446E+02  0.15826904121E+01  0.51449414713E+01  0.28747132284E+02  0.51100000000E-03 0. -1.
        -11    1    3    3    0    0 -0.80503495354E+01  0.12711475718E+01  0.69031187575E+01  0.10680683154E+02  0.51100000000E-03 0.  1.
        -12    1    3    3    0    0 -0.41440643904E+01  0.10303377037E+01 -0.10246876960E+02  0.11101051882E+02  0.00000000000E+00 0.  1.
</event>
<event>
 7    1  0.2985411E-011  0.5052886E+02  0.7816164E-02  0.1300439E+00
        -11   -1    0    0    0    0  0.00000000000E+00  0.00000000000E+00  0.45593999997E+02  0.45594000000E+02  0.51100000000E-03 0. -1.
         11   -1    0    0    0    0 -0.00000000000E+00 -0.00000000000E+00 -0.45593999997E+02  0.45594000000E+02  0.51100000000E-03 0.  1.
    9900012    2    1    2    0    0 -0.10852425040E+02  0.35217597054E+02  0.17178811880E+02  0.50528857743E+02  0.29999993595E+02 0.  0.
        -12    1    1    2    0    0  0.10852425040E+02 -0.35217597054E+02 -0.17178811880E+02  0.40659142257E+02  0.00000000000E+00 0.  1.
         11    1    3    3    0    0 -0.54510390093E+01  0.57605556770E+01 -0.21781767737E+01  0.82244928298E+01  0.51100000000E-03 0. -1.
        -11    1    3    3    0    0 -0.11876709518E+02  0.20682031173E+02  0.51585063175E+01  0.24401082560E+02  0.51100000000E-03 0.  1.
        -12    1    3    3    0    0  0.64753234882E+01  0.87750102039E+01  0.14198482336E+02  0.17903282353E+02  0.00000000000E+00 0.  1.
</event>
<event>
 7    1  0.2985411E-011  0.5052886E+02  0.7816164E-02  0.1300439E+00
        -11   -1    0    0    0    0  0.00000000000E+00  0.00000000000E+00  0.45593999997E+02  0.45594000000E+02  0.51100000000E-03 0. -1.
         11   -1    0    0    0    0 -0.00000000000E+00 -0.00000000000E+00 -0.45593999997E+02  0.45594000000E+02  0.51100000000E-03 0.  1.
    9900012    2    1    2    0    0  0.33034898419E+02 -0.21842734384E+02  0.92063207569E+01  0.50528857107E+02  0.29999991663E+02 0.  0.
        -12    1    1    2    0    0 -0.33034898419E+02  0.21842734384E+02 -0.92063207569E+01  0.40659142893E+02  0.00000000000E+00 0.  1.
         11    1    3    3    0    0  0.38917303197E+01 -0.47012538260E+01 -0.57363426949E+01  0.83757375909E+01  0.51100000000E-03 0. -1.
        -11    1    3    3    0    0  0.78754682080E+01 -0.11231904933E+01  0.13274545458E+02  0.15475726598E+02  0.51100000000E-03 0.  1.
         12    1    3    3    0    0  0.21267699891E+02 -0.16018290064E+02  0.16681179941E+01  0.26677392918E+02  0.00000000000E+00 0. -1.
</event>
<event>
 7    1  0.2985411E-011  0.5052891E+02  0.7816164E-02  0.1300439E+00
        -11   -1    0    0    0    0  0.00000000000E+00  0.00000000000E+00  0.45593999997E+02  0.45594000000E+02  0.51100000000E-03 0.  1.
         11   -1    0    0    0    0 -0.00000000000E+00 -0.00000000000E+00 -0.45593999997E+02  0.45594000000E+02  0.51100000000E-03 0. -1.
    9900012    2    1    2    0    0 -0.82302974544E+01 -0.17855600469E+02 -0.35589347122E+02  0.50528906394E+02  0.30000141474E+02 0.  0.
        -12    1    1    2    0    0  0.82302974544E+01  0.17855600469E+02  0.35589347122E+02  0.40659093606E+02  0.00000000000E+00 0.  1.
         11    1    3    3    0    0 -0.23284872787E+01 -0.16953967720E+02 -0.11132207883E+02  0.20415311094E+02  0.51100000000E-03 0. -1.
        -11    1    3    3    0    0  0.45780349608E+01 -0.37008153277E+01 -0.45396788041E+01  0.74339170091E+01  0.51100000000E-03 0.  1.
         12    1    3    3    0    0 -0.10479845136E+02  0.27991825786E+01 -0.19917460435E+02  0.22679678291E+02  0.00000000000E+00 0. -1.
</event>
<event>
 7    1  0.2985411E-011  0.5052886E+02  0.7816164E-02  0.1300439E+00
        -11   -1    0    0    0    0  0.00000000000E+00  0.00000000000E+00  0.45593999997E+02  0.45594000000E+02  0.51100000000E-03 0.  1.
         11   -1    0    0    0    0 -0.00000000000E+00 -0.00000000000E+00 -0.45593999997E+02  0.45594000000E+02  0.51100000000E-03 0. -1.
    9900012    2    1    2    0    0 -0.32886037366E+02  0.86588137635E+00 -0.23894026087E+02  0.50528859738E+02  0.29999999661E+02 0.  0.
        -12    1    1    2    0    0  0.32886037366E+02 -0.86588137635E+00  0.23894026087E+02  0.40659140262E+02  0.00000000000E+00 0.  1.
         11    1    3    3    0    0 -0.54265286782E+00 -0.90734377233E+01 -0.48796019732E+01  0.10316601181E+02  0.51100000000E-03 0. -1.
        -11    1    3    3    0    0  0.46122591214E+00  0.11115834837E+01 -0.16996236455E+01  0.20825628396E+01  0.51100000000E-03 0.  1.
         12    1    3    3    0    0 -0.32804610410E+02  0.88277356159E+01 -0.17314800468E+02  0.38129695718E+02  0.00000000000E+00 0. -1.
</event>
<event>
 7    1  0.2985411E-011  0.5052886E+02  0.7816164E-02  0.1300439E+00
        -11   -1    0    0    0    0  0.00000000000E+00  0.00000000000E+00  0.45593999997E+02  0.45594000000E+02  0.51100000000E-03 0. -1.
         11   -1    0    0    0    0 -0.00000000000E+00 -0.00000000000E+00 -0.45593999997E+02  0.45594000000E+02  0.51100000000E-03 0.  1.
    9900012    2    1    2    0    0  0.26105181416E+01  0.38031157187E+02  0.14141492170E+02  0.50528861756E+02  0.30000005794E+02 0.  0.
        -12    1    1    2    0    0 -0.26105181416E+01 -0.38031157187E+02 -0.14141492170E+02  0.40659138244E+02  0.00000000000E+00 0.  1.
         11    1    3    3    0    0  0.13162621499E+01  0.32476778482E+01  0.25811341477E+01  0.43522650658E+01  0.51100000000E-03 0. -1.
        -11    1    3    3    0    0  0.12160494309E+01 -0.46373883096E+01 -0.80607483100E+00  0.48614713253E+01  0.51100000000E-03 0.  1.
        -12    1    3    3    0    0  0.78206560746E-01  0.39420867648E+02  0.12366432853E+02  0.41315125365E+02  0.00000000000E+00 0.  1.
</event>
<event>
 7    1  0.2985411E-011  0.5052886E+02  0.7816164E-02  0.1300439E+00
        -11   -1    0    0    0    0  0.00000000000E+00  0.00000000000E+00  0.45593999997E+02  0.45594000000E+02  0.51100000000E-03 0. -1.
         11   -1    0    0    0    0 -0.00000000000E+00 -0.00000000000E+00 -0.45593999997E+02  0.45594000000E+02  0.51100000000E-03 0.  1.
    9900012    2    1    2    0    0 -0.86021143043E+01 -0.31635882185E+02 -0.24048705795E+02  0.50528860037E+02  0.30000000568E+02 0.  0.
        -12    1    1    2    0    0  0.86021143043E+01  0.31635882185E+02  0.24048705795E+02  0.40659139963E+02  0.00000000000E+00 0.  1.
         11    1    3    3    0    0 -0.12568921337E+02 -0.24808219979E+02 -0.70851915589E+01  0.28698876316E+02  0.51100000000E-03 0. -1.
        -11    1    3    3    0    0  0.53235670688E+01 -0.18021962646E+01 -0.19651558256E+01  0.59539999489E+01  0.51100000000E-03 0.  1.
        -12    1    3    3    0    0 -0.13567600365E+01 -0.50254659415E+01 -0.14998358411E+02  0.15875983772E+02  0.00000000000E+00 0.  1.
</event>
<event>
 7    1  0.2985411E-011  0.5052886E+02  0.7816164E-02  0.1300439E+00
        -11   -1    0    0    0    0  0.00000000000E+00  0.00000000000E+00  0.45593999997E+02  0.45594000000E+02  0.51100000000E-03 0.  1.
         11   -1    0    0    0    0 -0.00000000000E+00 -0.00000000000E+00 -0.45593999997E+02  0.45594000000E+02  0.51100000000E-03 0. -1.
    9900012    2    1    2    0    0  0.14720532455E+02 -0.11867218822E+00 -0.37900625388E+02  0.50528861253E+02  0.30000004266E+02 0.  0.
        -12    1    1    2    0    0 -0.14720532455E+02  0.11867218822E+00  0.37900625388E+02  0.40659138747E+02  0.00000000000E+00 0.  1.
         11    1    3    3    0    0 -0.17871768876E+01 -0.28850286085E+01 -0.10053787063E+02  0.10611127455E+02  0.51100000000E-03 0. -1.
        -11    1    3    3    0    0  0.79136628082E+01  0.26642671088E+01 -0.29931050634E+02  0.31073978996E+02  0.51100000000E-03 0.  1.
        -12    1    3    3    0    0  0.85940465339E+01  0.10208931154E+00  0.20842123101E+01  0.88437548026E+01  0.00000000000E+00 0.  1.
</event>
<event>
 7    1  0.2985411E-011  0.5052887E+02  0.7816164E-02  0.1300439E+00
        -11   -1    0    0    0    0  0.00000000000E+00  0.00000000000E+00  0.45593999997E+02  0.45594000000E+02  0.51100000000E-03 0.  1.
         11   -1    0    0    0    0 -0.00000000000E+00 -0.00000000000E+00 -0.45593999997E+02  0.45594000000E+02  0.51100000000E-03 0. -1.
    9900012    2    1    2    0    0 -0.39020348836E+02 -0.33656812403E+01 -0.10920153341E+02  0.50528865940E+02  0.30000018510E+02 0.  0.
        -12    1    1    2    0    0  0.39020348836E+02  0.33656812403E+01  0.10920153341E+02  0.40659134060E+02  0.00000000000E+00 0.  1.
         11    1    3    3    0    0 -0.18163851561E+02 -0.38613862330E+01 -0.10760824019E+02  0.21462319096E+02  0.51100000000E-03 0. -1.
        -11    1    3    3    0    0 -0.10568874628E+02 -0.40110975031E+01 -0.92583156611E+01  0.14611858992E+02  0.51100000000E-03 0.  1.
        -12    1    3    3    0    0 -0.10287622648E+02  0.45068024958E+01  0.90989863385E+01  0.14454687851E+02  0.00000000000E+00 0.  1.
</event>
<event>
 7    1  0.2985411E-011  0.5052886E+02  0.7816164E-02  0.1300439E+00
        -11   -1    0    0    0    0  0.00000000000E+00  0.00000000000E+00  0.45593999997E+02  0.45594000000E+02  0.51100000000E-03 0.  1.
         11   -1    0    0    0    0 -0.00000000000E+00 -0.00000000000E+00 -0.45593999997E+02  0.45594000000E+02  0.51100000000E-03 0. -1.
    9900012    2    1    2    0    0 -0.15577609423E+00 -0.30517574207E+02 -0.26866687771E+02  0.50528861870E+02  0.30000006140E+02 0.  0.
        -12    1    1    2    0    0  0.15577609423E+00  0.30517574207E+02  0.26866687771E+02  0.40659138130E+02  0.00000000000E+00 0.  1.
         11    1    3    3    0    0  0.96689144460E+01 -0.16130226715E+02 -0.10362919424E+01  0.18834702591E+02  0.51100000000E-03 0. -1.
        -11    1    3    3    0    0 -0.95091975259E+00 -0.44451925144E+00 -0.24987577213E-01  0.10499858956E+01  0.51100000000E-03 0.  1.
         12    1    3    3    0    0 -0.88737707876E+01 -0.13942828241E+02 -0.25805408251E+02  0.30644173384E+02  0.00000000000E+00 0. -1.
</event>
<event>
 7    1  0.2985411E-011  0.5052885E+02  0.7816164E-02  0.1300439E+00
        -11   -1    0    0    0    0  0.00000000000E+00  0.00000000000E+00  0.45593999997E+02  0.45594000000E+02  0.51100000000E-03 0. -1.
         11   -1    0    0    0    0 -0.00000000000E+00 -0.00000000000E+00 -0.45593999997E+02  0.45594000000E+02  0.51100000000E-03 0.  1.
    9900012    2    1    2    0    0 -0.49089381156E+01 -0.40316590456E+02 -0.19081235184E+01  0.50528854968E+02  0.29999985160E+02 0.  0.
        -12    1    1    2    0    0  0.49089381156E+01  0.40316590456E+02  0.19081235184E+01  0.40659145032E+02  0.00000000000E+00 0.  1.
         11    1    3    3    0    0 -0.51210256792E+01 -0.23088232390E+01 -0.73282336693E+01  0.92335571547E+01  0.51100000000E-03 0. -1.
        -11    1    3    3    0    0  0.87763618680E+00  0.13288098092E+01  0.10880023293E+00  0.15961887537E+01  0.51100000000E-03 0.  1.
         12    1    3    3    0    0 -0.66554862313E+00 -0.39336577026E+02  0.53113099180E+01  0.39699109059E+02  0.00000000000E+00 0. -1.
</event>
<event>
 7    1  0.2985411E-011  0.5052886E+02  0.7816164E-02  0.1300439E+00
        -11   -1    0    0    0    0  0.00000000000E+00  0.00000000000E+00  0.45593999997E+02  0.45594000000E+02  0.51100000000E-03 0. -1.
         11   -1    0    0    0    0 -0.00000000000E+00 -0.00000000000E+00 -0.45593999997E+02  0.45594000000E+02  0.51100000000E-03 0.  1.
    9900012    2    1    2    0    0  0.39555179491E+02  0.94059954147E+01  0.28366394494E+00  0.50528862780E+02  0.30000008905E+02 0.  0.
        -12    1    1    2    0    0 -0.39555179491E+02 -0.94059954147E+01 -0.28366394494E+00  0.40659137220E+02  0.00000000000E+00 0.  1.
         11    1    3    3    0    0  0.35765212519E+02  0.38451840516E+01 -0.39968768245E+01  0.36192691135E+02  0.51100000000E-03 0. -1.
        -11    1    3    3    0    0  0.14030128600E+01 -0.29389416425E+01  0.44398434485E+01  0.55061813602E+01  0.51100000000E-03 0.  1.
        -12    1    3    3    0    0  0.23869541112E+01  0.84997530056E+01 -0.15930267910E+00  0.88299902847E+01  0.00000000000E+00 0.  1.
</event>
<event>
 7    1  0.2985411E-011  0.5052885E+02  0.7816164E-02  0.1300439E+00
        -11   -1    0    0    0    0  0.00000000000E+00  0.00000000000E+00  0.45593999997E+02  0.45594000000E+02  0.51100000000E-03 0.  1.
         11   -1    0    0    0    0 -0.00000000000E+00 -0.00000000000E+00 -0.45593999997E+02  0.45594000000E+02  0.51100000000E-03 0. -1.
    9900012    2    1    2    0    0 -0.40240143057E+02 -0.41919601768E+01  0.40403501312E+01  0.50528854995E+02  0.29999985243E+02 0.  0.
        -12    1    1    2    0    0  0.40240143057E+02  0.41919601768E+01 -0.40403501312E+01  0.40659145005E+02  0.00000000000E+00 0.  1.
         11    1    3    3    0    0 -0.15672131837E+02 -0.60566459109E+01 -0.45219520241E+01  0.17399618570E+02  0.51100000000E-03 0. -1.
        -11    1    3    3    0    0 -0.14369973496E+02 -0.82312237627E+01  0.88485570656E+01  0.18776212220E+02  0.51100000000E-03 0.  1.
        -12    1    3    3    0    0 -0.10198037724E+02  0.10095909497E+02 -0.28625491041E+00  0.14353024206E+02  0.00000000000E+00 0.  1.
</event>
<event>
 7    1  0.2985411E-011  0.5052886E+02  0.7816164E-02  0.1300439E+00
        -11   -1    0    0    0    0  0.00000000000E+00  0.00000000000E+00  0.45593999997E+02  0.45594000000E+02  0.51100000000E-03 0.  1.
         11   -1    0    0    0    0 -0.00000000000E+00 -0.00000000000E+00 -0.45593999997E+02  0.45594000000E+02  0.51100000000E-03 0. -1.
    9900012    2    1    2    0    0  0.15110711089E+02 -0.26273646879E+02 -0.27102170199E+02  0.50528859092E+02  0.29999997695E+02 0.  0.
        -12    1    1    2    0    0 -0.15110711089E+02  0.26273646879E+02  0.27102170199E+02  0.40659140908E+02  0.00000000000E+00 0.  1.
         11    1    3    3    0    0  0.21379335995E+02 -0.20860950574E+02 -0.14331093051E+02  0.33130582469E+02  0.51100000000E-03 0. -1.
        -11    1    3    3    0    0  0.90194949108E-01 -0.51968316718E+00  0.11867457948E+01  0.12986807019E+01  0.51100000000E-03 0.  1.
        -12    1    3    3    0    0 -0.63588198553E+01 -0.48930131375E+01 -0.13957822942E+02  0.16099595920E+02  0.00000000000E+00 0.  1.
</event>
<event>
 7    1  0.2985411E-011  0.5052886E+02  0.7816164E-02  0.1300439E+00
        -11   -1    0    0    0    0  0.00000000000E+00  0.00000000000E+00  0.45593999997E+02  0.45594000000E+02  0.51100000000E-03 0.  1.
         11   -1    0    0    0    0 -0.00000000000E+00 -0.00000000000E+00 -0.45593999997E+02  0.45594000000E+02  0.51100000000E-03 0. -1.
    9900012    2    1    2    0    0  0.16314976701E+02 -0.22923569294E+02 -0.29351269960E+02  0.50528861516E+02  0.30000005065E+02 0.  0.
        -12    1    1    2    0    0 -0.16314976701E+02  0.22923569294E+02  0.29351269960E+02  0.40659138484E+02  0.00000000000E+00 0.  1.
         11    1    3    3    0    0  0.14745450300E+02 -0.10121489073E+02 -0.23406576160E+02  0.29457437998E+02  0.51100000000E-03 0. -1.
        -11    1    3    3    0    0  0.19949058799E+01 -0.13147833797E+02 -0.10213322400E+02  0.16767740984E+02  0.51100000000E-03 0.  1.
        -12    1    3    3    0    0 -0.42537947841E+00  0.34575357490E+00  0.42686285994E+01  0.43036825342E+01  0.00000000000E+00 0.  1.
</event>
<event>
 7    1  0.2985411E-011  0.5052885E+02  0.7816164E-02  0.1300439E+00
        -11   -1    0    0    0    0  0.00000000000E+00  0.00000000000E+00  0.45593999997E+02  0.45594000000E+02  0.51100000000E-03 0. -1.
         11   -1    0    0    0    0 -0.00000000000E+00 -0.00000000000E+00 -0.45593999997E+02  0.45594000000E+02  0.51100000000E-03 0.  1.
    9900012    2    1    2    0    0  0.36548867126E+02  0.86234547037E+01  0.15587916720E+02  0.50528845964E+02  0.29999957793E+02 0.  0.
        -12    1    1    2    0    0 -0.36548867126E+02 -0.86234547037E+01 -0.15587916720E+02  0.40659154036E+02  0.00000000000E+00 0.  1.
         11    1    3    3    0    0  0.26373806504E+02 -0.14582586972E+01 -0.18086950764E+01  0.26475943158E+02  0.51100000000E-03 0.  1.
        -11    1    3    3    0    0  0.58784705406E+01  0.20447110937E+01  0.11847938672E+02  0.13383232434E+02  0.51100000000E-03 0. -1.
        -12    1    3    3    0    0  0.42965900816E+01  0.80370023072E+01  0.55486731240E+01  0.10669670372E+02  0.00000000000E+00 0.  1.
</event>
<event>
 7    1  0.2985411E-011  0.5052889E+02  0.7816164E-02  0.1300439E+00
        -11   -1    0    0    0    0  0.00000000000E+00  0.00000000000E+00  0.45593999997E+02  0.45594000000E+02  0.51100000000E-03 0.  1.
         11   -1    0    0    0    0 -0.00000000000E+00 -0.00000000000E+00 -0.45593999997E+02  0.45594000000E+02  0.51100000000E-03 0. -1.
    9900012    2    1    2    0    0  0.32466975259E+02 -0.16799148391E+02 -0.17800213116E+02  0.50528887170E+02  0.30000083042E+02 0.  0.
        -12    1    1    2    0    0 -0.32466975259E+02  0.16799148391E+02  0.17800213116E+02  0.40659112830E+02  0.00000000000E+00 0.  1.
         11    1    3    3    0    0  0.18051243865E+02 -0.60375167636E+00 -0.74373860529E+01  0.19532706743E+02  0.51100000000E-03 0. -1.
        -11    1    3    3    0    0  0.56363584010E+01 -0.43621493550E+01  0.57533967468E+01  0.91596101122E+01  0.51100000000E-03 0.  1.
        -12    1    3    3    0    0  0.87793729936E+01 -0.11833247360E+02 -0.16116223810E+02  0.21836570315E+02  0.00000000000E+00 0.  1.
</event>
<event>
 7    1  0.2985411E-011  0.5052887E+02  0.7816164E-02  0.1300439E+00
        -11   -1    0    0    0    0  0.00000000000E+00  0.00000000000E+00  0.45593999997E+02  0.45594000000E+02  0.51100000000E-03 0.  1.
         11   -1    0    0    0    0 -0.00000000000E+00 -0.00000000000E+00 -0.45593999997E+02  0.45594000000E+02  0.51100000000E-03 0. -1.
    9900012    2    1    2    0    0  0.24519539061E+02 -0.62724545769E+01 -0.31821591279E+02  0.50528866294E+02  0.30000019588E+02 0.  0.
        -12    1    1    2    0    0 -0.24519539061E+02  0.62724545769E+01  0.31821591279E+02  0.40659133706E+02  0.00000000000E+00 0.  1.
         11    1    3    3    0    0  0.11617562524E+02 -0.92457749516E+01 -0.23525944975E+02  0.27819457232E+02  0.51100000000E-03 0. -1.
        -11    1    3    3    0    0  0.30326877897E+01 -0.15002545291E+01 -0.11027167966E+02  0.11534573789E+02  0.51100000000E-03 0.  1.
        -12    1    3    3    0    0  0.98692887475E+01  0.44735749038E+01  0.27315216618E+01  0.11174835274E+02  0.00000000000E+00 0.  1.
</event>
<event>
 7    1  0.2985411E-011  0.5052885E+02  0.7816164E-02  0.1300439E+00
        -11   -1    0    0    0    0  0.00000000000E+00  0.00000000000E+00  0.45593999997E+02  0.45594000000E+02  0.51100000000E-03 0. -1.
         11   -1    0    0    0    0 -0.00000000000E+00 -0.00000000000E+00 -0.45593999997E+02  0.45594000000E+02  0.51100000000E-03 0.  1.
    9900012    2    1    2    0    0 -0.65589096578E+01 -0.24099834649E+02  0.32083410770E+02  0.50528848845E+02  0.29999966549E+02 0.  0.
        -12    1    1    2    0    0  0.65589096578E+01  0.24099834649E+02 -0.32083410770E+02  0.40659151155E+02  0.00000000000E+00 0.  1.
         11    1    3    3    0    0 -0.72165437248E+01 -0.47557665734E+01  0.19019756780E+02  0.20891313201E+02  0.51100000000E-03 0. -1.
        -11    1    3    3    0    0 -0.46819916088E+01 -0.75801593978E+01  0.14097825176E+02  0.16677186120E+02  0.51100000000E-03 0.  1.
        -12    1    3    3    0    0  0.53396256758E+01 -0.11763908678E+02 -0.10341711865E+01  0.12960349524E+02  0.00000000000E+00 0.  1.
</event>
<event>
 7    1  0.2985411E-011  0.5052885E+02  0.7816164E-02  0.1300439E+00
        -11   -1    0    0    0    0  0.00000000000E+00  0.00000000000E+00  0.45593999997E+02  0.45594000000E+02  0.51100000000E-03 0. -1.
         11   -1    0    0    0    0 -0.00000000000E+00 -0.00000000000E+00 -0.45593999997E+02  0.45594000000E+02  0.51100000000E-03 0.  1.
    9900012    2    1    2    0    0 -0.20139376626E+02  0.40319267428E+01  0.35090105856E+02  0.50528850315E+02  0.29999971017E+02 0.  0.
        -12    1    1    2    0    0  0.20139376626E+02 -0.40319267428E+01 -0.35090105856E+02  0.40659149685E+02  0.00000000000E+00 0.  1.
         11    1    3    3    0    0  0.17048348510E+01 -0.43817926985E+00  0.22949743905E+01  0.28922950499E+01  0.51100000000E-03 0. -1.
        -11    1    3    3    0    0  0.30614835950E+01  0.86557063345E+01  0.70818273833E+01  0.11595094364E+02  0.51100000000E-03 0.  1.
         12    1    3    3    0    0 -0.24905695072E+02 -0.41856003218E+01  0.25713304082E+02  0.36041460901E+02  0.00000000000E+00 0. -1.
</event>
<event>
 7    1  0.2985411E-011  0.5052886E+02  0.7816164E-02  0.1300439E+00
        -11   -1    0    0    0    0  0.00000000000E+00  0.00000000000E+00  0.45593999997E+02  0.45594000000E+02  0.51100000000E-03 0.  1.
         11   -1    0    0    0    0 -0.00000000000E+00 -0.00000000000E+00 -0.45593999997E+02  0.45594000000E+02  0.51100000000E-03 0. -1.
    9900012    2    1    2    0    0 -0.46937029484E+01 -0.32574851040E+02 -0.23874962794E+02  0.50528860609E+02  0.30000002306E+02 0.  0.
        -12    1    1    2    0    0  0.46937029484E+01  0.32574851040E+02  0.23874962794E+02  0.40659139391E+02  0.00000000000E+00 0.  1.
         11    1    3    3    0    0  0.32017940610E+01  0.15684113339E+01 -0.10185605221E+02  0.10791568621E+02  0.51100000000E-03 0. -1.
        -11    1    3    3    0    0 -0.19687754642E+01  0.56923421802E+00 -0.11906449882E+01  0.23701772450E+01  0.51100000000E-03 0.  1.
        -12    1    3    3    0    0 -0.59267215452E+01 -0.34712496592E+02 -0.12498712585E+02  0.37367114743E+02  0.00000000000E+00 0.  1.
</event>
<event>
 7    1  0.2985411E-011  0.5052886E+02  0.7816164E-02  0.1300439E+00
        -11   -1    0    0    0    0  0.00000000000E+00  0.00000000000E+00  0.45593999997E+02  0.45594000000E+02  0.51100000000E-03 0.  1.
         11   -1    0    0    0    0 -0.00000000000E+00 -0.00000000000E+00 -0.45593999997E+02  0.45594000000E+02  0.51100000000E-03 0. -1.
    9900012    2    1    2    0    0  0.16464364204E+02  0.33750968146E+02 -0.15587257268E+02  0.50528859225E+02  0.29999998100E+02 0.  0.
        -12    1    1    2    0    0 -0.16464364204E+02 -0.33750968146E+02  0.15587257268E+02  0.40659140775E+02  0.00000000000E+00 0.  1.
         11    1    3    3    0    0  0.86461586729E+01  0.12827456043E+02 -0.10125369721E+02  0.18488450465E+02  0.51100000000E-03 0. -1.
        -11    1    3    3    0    0  0.11363300425E+02  0.17885984856E+02  0.39304480429E+01  0.21551832240E+02  0.51100000000E-03 0.  1.
         12    1    3    3    0    0 -0.35450948942E+01  0.30375272465E+01 -0.93923355895E+01  0.10488576520E+02  0.00000000000E+00 0. -1.
</event>
<event>
 7    1  0.2985411E-011  0.5052885E+02  0.7816164E-02  0.1300439E+00
        -11   -1    0    0    0    0  0.00000000000E+00  0.00000000000E+00  0.45593999997E+02  0.45594000000E+02  0.51100000000E-03 0. -1.
         11   -1    0    0    0    0 -0.00000000000E+00 -0.00000000000E+00 -0.45593999997E+02  0.45594000000E+02  0.51100000000E-03 0.  1.
    9900012    2    1    2    0    0 -0.29765460616E+02  0.81792283246E+01  0.26462878054E+02  0.50528851748E+02  0.29999975372E+02 0.  0.
        -12    1    1    2    0    0  0.29765460616E+02 -0.81792283246E+01 -0.26462878054E+02  0.40659148252E+02  0.00000000000E+00 0.  1.
         11    1    3    3    0    0 -0.93434439138E+01 -0.53878236023E+01  0.54490214969E+01  0.12083891049E+02  0.51100000000E-03 0. -1.
        -11    1    3    3    0    0 -0.98002070778E+01 -0.48488430822E+01  0.71328387718E+01  0.13054988595E+02  0.51100000000E-03 0.  1.
        -12    1    3    3    0    0 -0.10621809625E+02  0.18415895009E+02  0.13881017786E+02  0.25389972104E+02  0.00000000000E+00 0.  1.
</event>
<event>
 7    1  0.2985411E-011  0.5052886E+02  0.7816164E-02  0.1300439E+00
        -11   -1    0    0    0    0  0.00000000000E+00  0.00000000000E+00  0.45593999997E+02  0.45594000000E+02  0.51100000000E-03 0.  1.
         11   -1    0    0    0    0 -0.00000000000E+00 -0.00000000000E+00 -0.45593999997E+02  0.45594000000E+02  0.51100000000E-03 0. -1.
    9900012    2    1    2    0    0  0.14312711277E+01  0.13708133696E+02 -0.38251855700E+02  0.50528856736E+02  0.29999990534E+02 0.  0.
        -12    1    1    2    0    0 -0.14312711277E+01 -0.13708133696E+02  0.38251855700E+02  0.40659143264E+02  0.00000000000E+00 0.  1.
         11    1    3    3    0    0  0.30126911402E+01 -0.60346260824E+01 -0.10649492444E+02  0.12605741130E+02  0.51100000000E-03 0. -1.
        -11    1    3    3    0    0  0.84456381017E+00  0.37841835773E+01  0.18815344463E+01  0.43096990046E+01  0.51100000000E-03 0.  1.
        -12    1    3    3    0    0 -0.24259838226E+01  0.15958576201E+02 -0.29483897703E+02  0.33613416601E+02  0.00000000000E+00 0.  1.
</event>
<event>
 7    1  0.2985411E-011  0.5052886E+02  0.7816164E-02  0.1300439E+00
        -11   -1    0    0    0    0  0.00000000000E+00  0.00000000000E+00  0.45593999997E+02  0.45594000000E+02  0.51100000000E-03 0.  1.
         11   -1    0    0    0    0 -0.00000000000E+00 -0.00000000000E+00 -0.45593999997E+02  0.45594000000E+02  0.51100000000E-03 0. -1.
    9900012    2    1    2    0    0  0.16889579901E+02 -0.35168109034E+02 -0.11450406982E+02  0.50528860531E+02  0.30000002071E+02 0.  0.
        -12    1    1    2    0    0 -0.16889579901E+02  0.35168109034E+02  0.11450406982E+02  0.40659139469E+02  0.00000000000E+00 0.  1.
         11    1    3    3    0    0  0.70369467069E+01 -0.11491771891E+01 -0.97066292760E+00  0.71959303740E+01  0.51100000000E-03 0. -1.
        -11    1    3    3    0    0 -0.62482492069E+01 -0.84036661452E+01 -0.76035802477E+01  0.12941277204E+02  0.51100000000E-03 0.  1.
         12    1    3    3    0    0  0.16100882401E+02 -0.25615265700E+02 -0.28761638071E+01  0.30391652953E+02  0.00000000000E+00 0. -1.
</event>
<event>
 7    1  0.2985411E-011  0.5052886E+02  0.7816164E-02  0.1300439E+00
        -11   -1    0    0    0    0  0.00000000000E+00  0.00000000000E+00  0.45593999997E+02  0.45594000000E+02  0.51100000000E-03 0.  1.
         11   -1    0    0    0    0 -0.00000000000E+00 -0.00000000000E+00 -0.45593999997E+02  0.45594000000E+02  0.51100000000E-03 0. -1.
    9900012    2    1    2    0    0 -0.18321063272E+02 -0.33631081628E+02 -0.13654842636E+02  0.50528859106E+02  0.29999997738E+02 0.  0.
        -12    1    1    2    0    0  0.18321063272E+02  0.33631081628E+02  0.13654842636E+02  0.40659140894E+02  0.00000000000E+00 0.  1.
         11    1    3    3    0    0 -0.13144543401E+02 -0.18783479131E+02 -0.15121708573E+02  0.27463870446E+02  0.51100000000E-03 0. -1.
        -11    1    3    3    0    0  0.40811395421E+01 -0.26323457706E+01 -0.44968267334E+01  0.66186399773E+01  0.51100000000E-03 0.  1.
        -12    1    3    3    0    0 -0.92576594135E+01 -0.12215256726E+02  0.59636926707E+01  0.16446348682E+02  0.00000000000E+00 0.  1.
</event>
<event>
 7    1  0.2985411E-011  0.5052886E+02  0.7816164E-02  0.1300439E+00
        -11   -1    0    0    0    0  0.00000000000E+00  0.00000000000E+00  0.45593999997E+02  0.45594000000E+02  0.51100000000E-03 0.  1.
         11   -1    0    0    0    0 -0.00000000000E+00 -0.00000000000E+00 -0.45593999997E+02  0.45594000000E+02  0.51100000000E-03 0. -1.
    9900012    2    1    2    0    0 -0.38983697093E+02  0.92146636695E+01 -0.69661197249E+01  0.50528862163E+02  0.30000007032E+02 0.  0.
        -12    1    1    2    0    0  0.38983697093E+02 -0.92146636695E+01  0.69661197249E+01  0.40659137837E+02  0.00000000000E+00 0.  1.
         11    1    3    3    0    0 -0.22736548467E+02  0.13359454771E+02 -0.59150160914E+01  0.27026155546E+02  0.51100000000E-03 0. -1.
        -11    1    3    3    0    0  0.69741423108E+00  0.10855035135E+01  0.46891159350E+01  0.48633849323E+01  0.51100000000E-03 0.  1.
         12    1    3    3    0    0 -0.16944562858E+02 -0.52302946149E+01 -0.57402195684E+01  0.18639321685E+02  0.00000000000E+00 0. -1.
</event>
<event>
 7    1  0.2985411E-011  0.5052886E+02  0.7816164E-02  0.1300439E+00
        -11   -1    0    0    0    0  0.00000000000E+00  0.00000000000E+00  0.45593999997E+02  0.45594000000E+02  0.51100000000E-03 0.  1.
         11   -1    0    0    0    0 -0.00000000000E+00 -0.00000000000E+00 -0.45593999997E+02  0.45594000000E+02  0.51100000000E-03 0. -1.
    9900012    2    1    2    0    0 -0.23696599390E+02  0.10385992924E+02 -0.31365081086E+02  0.50528856093E+02  0.29999988582E+02 0.  0.
        -12    1    1    2    0    0  0.23696599390E+02 -0.10385992924E+02  0.31365081086E+02  0.40659143907E+02  0.00000000000E+00 0.  1.
         11    1    3    3    0    0 -0.35631916697E+01  0.37026195604E+01 -0.14845004193E+01  0.53487819398E+01  0.51100000000E-03 0. -1.
        -11    1    3    3    0    0 -0.23917346511E+02  0.36143088179E+01 -0.12696294306E+02  0.27318465947E+02  0.51100000000E-03 0.  1.
        -12    1    3    3    0    0  0.37839387910E+01  0.30690645457E+01 -0.17184286362E+02  0.17861608206E+02  0.00000000000E+00 0.  1.
</event>
<event>
 7    1  0.2985411E-011  0.5052888E+02  0.7816164E-02  0.1300439E+00
        -11   -1    0    0    0    0  0.00000000000E+00  0.00000000000E+00  0.45593999997E+02  0.45594000000E+02  0.51100000000E-03 0.  1.
         11   -1    0    0    0    0 -0.00000000000E+00 -0.00000000000E+00 -0.45593999997E+02  0.45594000000E+02  0.51100000000E-03 0. -1.
    9900012    2    1    2    0    0  0.27275163658E+02  0.20708083665E+02 -0.21918139228E+02  0.50528879143E+02  0.30000058643E+02 0.  0.
        -12    1    1    2    0    0 -0.27275163658E+02 -0.20708083665E+02  0.21918139228E+02  0.40659120857E+02  0.00000000000E+00 0.  1.
         11    1    3    3    0    0  0.12763794981E+02  0.16046721798E+02 -0.21500424706E+02  0.29709931093E+02  0.51100000000E-03 0. -1.
        -11    1    3    3    0    0  0.23802969745E+01  0.13122695255E+01 -0.63490247072E+01  0.69063724188E+01  0.51100000000E-03 0.  1.
         12    1    3    3    0    0  0.12131071703E+02  0.33490923417E+01  0.59313101851E+01  0.13912575631E+02  0.00000000000E+00 0. -1.
</event>
<event>
 7    1  0.2985411E-011  0.5052886E+02  0.7816164E-02  0.1300439E+00
        -11   -1    0    0    0    0  0.00000000000E+00  0.00000000000E+00  0.45593999997E+02  0.45594000000E+02  0.51100000000E-03 0. -1.
         11   -1    0    0    0    0 -0.00000000000E+00 -0.00000000000E+00 -0.45593999997E+02  0.45594000000E+02  0.51100000000E-03 0.  1.
    9900012    2    1    2    0    0  0.34847415264E+01  0.19823274681E+02  0.35327889499E+02  0.50528863031E+02  0.30000009670E+02 0.  0.
        -12    1    1    2    0    0 -0.34847415264E+01 -0.19823274681E+02 -0.35327889499E+02  0.40659136969E+02  0.00000000000E+00 0.  1.
         11    1    3    3    0    0 -0.21363737010E+01  0.11760799811E+02  0.10514180995E+02  0.15919438025E+02  0.51100000000E-03 0. -1.
        -11    1    3    3    0    0 -0.71889217496E+01  0.53231958720E+01  0.35280525279E+01  0.96158288834E+01  0.51100000000E-03 0.  1.
         12    1    3    3    0    0  0.12810036977E+02  0.27392789973E+01  0.21285655977E+02  0.24993596123E+02  0.00000000000E+00 0. -1.
</event>
<event>
 7    1  0.2985411E-011  0.5052886E+02  0.7816164E-02  0.1300439E+00
        -11   -1    0    0    0    0  0.00000000000E+00  0.00000000000E+00  0.45593999997E+02  0.45594000000E+02  0.51100000000E-03 0.  1.
         11   -1    0    0    0    0 -0.00000000000E+00 -0.00000000000E+00 -0.45593999997E+02  0.45594000000E+02  0.51100000000E-03 0. -1.
    9900012    2    1    2    0    0  0.38121032956E+02 -0.13687064060E+02 -0.35520164824E+01  0.50528859609E+02  0.29999999268E+02 0.  0.
        -12    1    1    2    0    0 -0.38121032956E+02  0.13687064060E+02  0.35520164824E+01  0.40659140391E+02  0.00000000000E+00 0.  1.
         11    1    3    3    0    0  0.84180319433E+01 -0.13642968859E+02  0.35207391382E+01  0.16413088236E+02  0.51100000000E-03 0. -1.
        -11    1    3    3    0    0  0.41677434808E+01 -0.56929226536E+01 -0.29186136346E+01  0.76352969733E+01  0.51100000000E-03 0.  1.
        -12    1    3    3    0    0  0.25535257532E+02  0.56488274527E+01 -0.41541419860E+01  0.26480474400E+02  0.00000000000E+00 0.  1.
</event>
<event>
 7    1  0.2985411E-011  0.5052885E+02  0.7816164E-02  0.1300439E+00
        -11   -1    0    0    0    0  0.00000000000E+00  0.00000000000E+00  0.45593999997E+02  0.45594000000E+02  0.51100000000E-03 0. -1.
         11   -1    0    0    0    0 -0.00000000000E+00 -0.00000000000E+00 -0.45593999997E+02  0.45594000000E+02  0.51100000000E-03 0.  1.
    9900012    2    1    2    0    0 -0.25572984696E+02 -0.13363184670E+02  0.28646360122E+02  0.50528853439E+02  0.29999980515E+02 0.  0.
        -12    1    1    2    0    0  0.25572984696E+02  0.13363184670E+02 -0.28646360122E+02  0.40659146561E+02  0.00000000000E+00 0.  1.
         11    1    3    3    0    0 -0.16513498121E+01  0.11207093270E+00 -0.13284718048E+01  0.21223462708E+01  0.51100000000E-03 0. -1.
        -11    1    3    3    0    0  0.51619231540E+01  0.13713119350E+01  0.37587432642E+01  0.65310105082E+01  0.51100000000E-03 0.  1.
         12    1    3    3    0    0 -0.29083558038E+02 -0.14846567537E+02  0.26216088663E+02  0.41875496660E+02  0.00000000000E+00 0. -1.
</event>
<event>
 7    1  0.2985411E-011  0.5052885E+02  0.7816164E-02  0.1300439E+00
        -11   -1    0    0    0    0  0.00000000000E+00  0.00000000000E+00  0.45593999997E+02  0.45594000000E+02  0.51100000000E-03 0.  1.
         11   -1    0    0    0    0 -0.00000000000E+00 -0.00000000000E+00 -0.45593999997E+02  0.45594000000E+02  0.51100000000E-03 0. -1.
    9900012    2    1    2    0    0  0.10153580165E+02  0.18600842972E+02 -0.34699860038E+02  0.50528845605E+02  0.29999956701E+02 0.  0.
        -12    1    1    2    0    0 -0.10153580165E+02 -0.18600842972E+02  0.34699860038E+02  0.40659154395E+02  0.00000000000E+00 0.  1.
         11    1    3    3    0    0  0.25712267183E+01  0.29266561273E+00 -0.94381300289E+01  0.97864783605E+01  0.51100000000E-03 0. -1.
        -11    1    3    3    0    0 -0.36499760353E+01 -0.18704338929E+01 -0.14856718020E+02  0.15412427407E+02  0.51100000000E-03 0.  1.
         12    1    3    3    0    0  0.11232329482E+02  0.20178611252E+02 -0.10405011990E+02  0.25329939837E+02  0.00000000000E+00 0. -1.
</event>
<event>
 7    1  0.2985411E-011  0.5052886E+02  0.7816164E-02  0.1300439E+00
        -11   -1    0    0    0    0  0.00000000000E+00  0.00000000000E+00  0.45593999997E+02  0.45594000000E+02  0.51100000000E-03 0.  1.
         11   -1    0    0    0    0 -0.00000000000E+00 -0.00000000000E+00 -0.45593999997E+02  0.45594000000E+02  0.51100000000E-03 0. -1.
    9900012    2    1    2    0    0  0.35175574831E+02 -0.41910636311E+01 -0.19956948367E+02  0.50528857520E+02  0.29999992919E+02 0.  0.
        -12    1    1    2    0    0 -0.35175574831E+02  0.41910636311E+01  0.19956948367E+02  0.40659142480E+02  0.00000000000E+00 0.  1.
         11    1    3    3    0    0  0.89687999807E+01 -0.18273592313E+01 -0.63148491160E+01  0.11120068996E+02  0.51100000000E-03 0.  1.
        -11    1    3    3    0    0  0.22846965505E+02 -0.55257861241E+00 -0.21052961892E+02  0.31072759462E+02  0.51100000000E-03 0. -1.
        -12    1    3    3    0    0  0.33598093459E+01 -0.18111257874E+01  0.74108626406E+01  0.83360290628E+01  0.00000000000E+00 0.  1.
</event>
<event>
 7    1  0.2985411E-011  0.5052886E+02  0.7816164E-02  0.1300439E+00
        -11   -1    0    0    0    0  0.00000000000E+00  0.00000000000E+00  0.45593999997E+02  0.45594000000E+02  0.51100000000E-03 0. -1.
         11   -1    0    0    0    0 -0.00000000000E+00 -0.00000000000E+00 -0.45593999997E+02  0.45594000000E+02  0.51100000000E-03 0.  1.
    9900012    2    1    2    0    0 -0.25154493899E+02  0.78348742983E+01  0.30968243476E+02  0.50528856839E+02  0.29999990848E+02 0.  0.
        -12    1    1    2    0    0  0.25154493899E+02 -0.78348742983E+01 -0.30968243476E+02  0.40659143161E+02  0.00000000000E+00 0.  1.
         11    1    3    3    0    0  0.14161979046E+01 -0.21997778662E+00 -0.20768058161E+01  0.25233171403E+01  0.51100000000E-03 0.  1.
        -11    1    3    3    0    0 -0.12238214745E+02  0.14582207311E+02  0.19163583608E+02  0.27012175165E+02  0.51100000000E-03 0. -1.
         12    1    3    3    0    0 -0.14332477059E+02 -0.65273552260E+01  0.13881465685E+02  0.20993364534E+02  0.00000000000E+00 0. -1.
</event>
<event>
 7    1  0.2985411E-011  0.5052886E+02  0.7816164E-02  0.1300439E+00
        -11   -1    0    0    0    0  0.00000000000E+00  0.00000000000E+00  0.45593999997E+02  0.45594000000E+02  0.51100000000E-03 0.  1.
         11   -1    0    0    0    0 -0.00000000000E+00 -0.00000000000E+00 -0.45593999997E+02  0.45594000000E+02  0.51100000000E-03 0. -1.
    9900012    2    1    2    0    0  0.26878653262E+02  0.29961401569E+02 -0.57461315673E+01  0.50528860645E+02  0.30000002416E+02 0.  0.
        -12    1    1    2    0    0 -0.26878653262E+02 -0.29961401569E+02  0.57461315673E+01  0.40659139355E+02  0.00000000000E+00 0.  1.
         11    1    3    3    0    0  0.66259162307E+01  0.20563198770E+02 -0.44796588070E+01  0.22063890247E+02  0.51100000000E-03 0. -1.
        -11    1    3    3    0    0 -0.17779177564E+01 -0.11067715946E+00  0.35676842081E+01  0.39876825165E+01  0.51100000000E-03 0.  1.
         12    1    3    3    0    0  0.22030654787E+02  0.95088799580E+01 -0.48341569684E+01  0.24477287881E+02  0.00000000000E+00 0. -1.
</event>
<event>
 7    1  0.2985411E-011  0.5052887E+02  0.7816164E-02  0.1300439E+00
        -11   -1    0    0    0    0  0.00000000000E+00  0.00000000000E+00  0.45593999997E+02  0.45594000000E+02  0.51100000000E-03 0.  1.
         11   -1    0    0    0    0 -0.00000000000E+00 -0.00000000000E+00 -0.45593999997E+02  0.45594000000E+02  0.51100000000E-03 0. -1.
    9900012    2    1    2    0    0  0.24943984939E+02 -0.98895948164E-01 -0.32108452283E+02  0.50528869746E+02  0.30000030080E+02 0.  0.
        -12    1    1    2    0    0 -0.24943984939E+02  0.98895948164E-01  0.32108452283E+02  0.40659130254E+02  0.00000000000E+00 0.  1.
         11    1    3    3    0    0  0.86981694583E+01 -0.35375489618E+01 -0.23940068438E+02  0.25715739960E+02  0.51100000000E-03 0. -1.
        -11    1    3    3    0    0 -0.16063120309E+01  0.40998538097E+01 -0.50129352617E+01  0.66722230029E+01  0.51100000000E-03 0.  1.
         12    1    3    3    0    0  0.17852127511E+02 -0.66120079604E+00 -0.31554485824E+01  0.18140906783E+02  0.00000000000E+00 0. -1.
</event>
<event>
 7    1  0.2985411E-011  0.5052885E+02  0.7816164E-02  0.1300439E+00
        -11   -1    0    0    0    0  0.00000000000E+00  0.00000000000E+00  0.45593999997E+02  0.45594000000E+02  0.51100000000E-03 0. -1.
         11   -1    0    0    0    0 -0.00000000000E+00 -0.00000000000E+00 -0.45593999997E+02  0.45594000000E+02  0.51100000000E-03 0.  1.
    9900012    2    1    2    0    0  0.12214543236E+02 -0.33173727987E+02 -0.20086687209E+02  0.50528852222E+02  0.29999976813E+02 0.  0.
        -12    1    1    2    0    0 -0.12214543236E+02  0.33173727987E+02  0.20086687209E+02  0.40659147778E+02  0.00000000000E+00 0.  1.
         11    1    3    3    0    0 -0.10166345815E+00 -0.51392620314E+01 -0.83471720019E+01  0.98029398844E+01  0.51100000000E-03 0. -1.
        -11    1    3    3    0    0  0.79303983414E+01 -0.18613451968E+00 -0.95998859833E+01  0.12453259616E+02  0.51100000000E-03 0.  1.
         12    1    3    3    0    0  0.43858083526E+01 -0.27848331436E+02 -0.21396292243E+01  0.28272652721E+02  0.00000000000E+00 0. -1.
</event>
<event>
 7    1  0.2985411E-011  0.5052886E+02  0.7816164E-02  0.1300439E+00
        -11   -1    0    0    0    0  0.00000000000E+00  0.00000000000E+00  0.45593999997E+02  0.45594000000E+02  0.51100000000E-03 0. -1.
         11   -1    0    0    0    0 -0.00000000000E+00 -0.00000000000E+00 -0.45593999997E+02  0.45594000000E+02  0.51100000000E-03 0.  1.
    9900012    2    1    2    0    0  0.12469786289E+02  0.78201374080E+01  0.37901387074E+02  0.50528864971E+02  0.30000015567E+02 0.  0.
        -12    1    1    2    0    0 -0.12469786289E+02 -0.78201374080E+01 -0.37901387074E+02  0.40659135029E+02  0.00000000000E+00 0.  1.
         11    1    3    3    0    0  0.36835089943E+01  0.72491323733E+01  0.11684604709E+02  0.14235453844E+02  0.51100000000E-03 0. -1.
        -11    1    3    3    0    0  0.68303221368E+01 -0.67013184092E+01  0.27072880507E+02  0.28714139864E+02  0.51100000000E-03 0.  1.
         12    1    3    3    0    0  0.19559551581E+01  0.72723234439E+01 -0.85609814270E+00  0.75792712634E+01  0.00000000000E+00 0. -1.
</event>
<event>
 7    1  0.2985411E-011  0.5052889E+02  0.7816164E-02  0.1300439E+00
        -11   -1    0    0    0    0  0.00000000000E+00  0.00000000000E+00  0.45593999997E+02  0.45594000000E+02  0.51100000000E-03 0. -1.
         11   -1    0    0    0    0 -0.00000000000E+00 -0.00000000000E+00 -0.45593999997E+02  0.45594000000E+02  0.51100000000E-03 0.  1.
    9900012    2    1    2    0    0  0.32696729501E+02  0.24110697766E+02  0.16617895979E+01  0.50528887719E+02  0.30000084711E+02 0.  0.
        -12    1    1    2    0    0 -0.32696729501E+02 -0.24110697766E+02 -0.16617895979E+01  0.40659112281E+02  0.00000000000E+00 0.  1.
         11    1    3    3    0    0  0.17131847147E+02  0.38477614228E+01  0.49073927598E+01  0.18231510047E+02  0.51100000000E-03 0. -1.
        -11    1    3    3    0    0  0.50676409637E+01 -0.24071581500E+01  0.32507641629E+01  0.64840468228E+01  0.51100000000E-03 0.  1.
        -12    1    3    3    0    0  0.10497241390E+02  0.22670094493E+02 -0.64963673248E+01  0.25813330850E+02  0.00000000000E+00 0.  1.
</event>
<event>
 7    1  0.2985411E-011  0.5052884E+02  0.7816164E-02  0.1300439E+00
        -11   -1    0    0    0    0  0.00000000000E+00  0.00000000000E+00  0.45593999997E+02  0.45594000000E+02  0.51100000000E-03 0.  1.
         11   -1    0    0    0    0 -0.00000000000E+00 -0.00000000000E+00 -0.45593999997E+02  0.45594000000E+02  0.51100000000E-03 0. -1.
    9900012    2    1    2    0    0  0.38390735987E+02 -0.58753645207E+01  0.12033249640E+02  0.50528836030E+02  0.29999927596E+02 0.  0.
        -12    1    1    2    0    0 -0.38390735987E+02  0.58753645207E+01 -0.12033249640E+02  0.40659163970E+02  0.00000000000E+00 0.  1.
         11    1    3    3    0    0  0.22432681713E+02 -0.72794915807E+01  0.55697820433E+01  0.24233008042E+02  0.51100000000E-03 0. -1.
        -11    1    3    3    0    0  0.18269027576E+02 -0.28725245739E+01  0.92657477272E+01  0.20684845834E+02  0.51100000000E-03 0.  1.
        -12    1    3    3    0    0 -0.23109733016E+01  0.42766516340E+01 -0.28022801302E+01  0.56109821535E+01  0.00000000000E+00 0.  1.
</event>
<event>
 7    1  0.2985411E-011  0.5052886E+02  0.7816164E-02  0.1300439E+00
        -11   -1    0    0    0    0  0.00000000000E+00  0.00000000000E+00  0.45593999997E+02  0.45594000000E+02  0.51100000000E-03 0.  1.
         11   -1    0    0    0    0 -0.00000000000E+00 -0.00000000000E+00 -0.45593999997E+02  0.45594000000E+02  0.51100000000E-03 0. -1.
    9900012    2    1    2    0    0  0.23820296077E+02  0.11261148617E+02 -0.30966850067E+02  0.50528858636E+02  0.29999996310E+02 0.  0.
        -12    1    1    2    0    0 -0.23820296077E+02 -0.11261148617E+02  0.30966850067E+02  0.40659141364E+02  0.00000000000E+00 0.  1.
         11    1    3    3    0    0  0.17069518249E+02  0.10085071266E+02 -0.13798223255E+02  0.24155083956E+02  0.51100000000E-03 0. -1.
        -11    1    3    3    0    0  0.34650291783E+01 -0.57570894044E+01  0.86599345480E+00  0.67749871249E+01  0.51100000000E-03 0.  1.
         12    1    3    3    0    0  0.32857486503E+01  0.69331667553E+01 -0.18034620267E+02  0.19598787555E+02  0.00000000000E+00 0. -1.
</event>
<event>
 7    1  0.2985411E-011  0.5052888E+02  0.7816164E-02  0.1300439E+00
        -11   -1    0    0    0    0  0.00000000000E+00  0.00000000000E+00  0.45593999997E+02  0.45594000000E+02  0.51100000000E-03 0. -1.
         11   -1    0    0    0    0 -0.00000000000E+00 -0.00000000000E+00 -0.45593999997E+02  0.45594000000E+02  0.51100000000E-03 0.  1.
    9900012    2    1    2    0    0 -0.38822220711E+02 -0.88661660521E+01  0.82091835249E+01  0.50528875372E+02  0.30000047181E+02 0.  0.
        -12    1    1    2    0    0  0.38822220711E+02  0.88661660521E+01 -0.82091835249E+01  0.40659124628E+02  0.00000000000E+00 0.  1.
         11    1    3    3    0    0  0.21448923697E+01 -0.45654644046E+01  0.23444924493E+01  0.55624341446E+01  0.51100000000E-03 0. -1.
        -11    1    3    3    0    0 -0.47380014257E+00  0.15333996575E+01 -0.27254630333E+01  0.31629021628E+01  0.51100000000E-03 0.  1.
         12    1    3    3    0    0 -0.40493312938E+02 -0.58341013049E+01  0.85901541089E+01  0.41803539065E+02  0.00000000000E+00 0. -1.
</event>
<event>
 7    1  0.2985411E-011  0.5052887E+02  0.7816164E-02  0.1300439E+00
        -11   -1    0    0    0    0  0.00000000000E+00  0.00000000000E+00  0.45593999997E+02  0.45594000000E+02  0.51100000000E-03 0. -1.
         11   -1    0    0    0    0 -0.00000000000E+00 -0.00000000000E+00 -0.45593999997E+02  0.45594000000E+02  0.51100000000E-03 0.  1.
    9900012    2    1    2    0    0  0.35571711656E+01  0.32445270330E+02  0.24244914126E+02  0.50528869483E+02  0.30000029279E+02 0.  0.
        -12    1    1    2    0    0 -0.35571711656E+01 -0.32445270330E+02 -0.24244914126E+02  0.40659130517E+02  0.00000000000E+00 0.  1.
         11    1    3    3    0    0 -0.20766865412E+00  0.33974061111E+01  0.72577967972E+01  0.80163027116E+01  0.51100000000E-03 0. -1.
        -11    1    3    3    0    0 -0.40799220202E+01 -0.34876507319E+01  0.11617601106E+01  0.54917354392E+01  0.51100000000E-03 0.  1.
        -12    1    3    3    0    0  0.78447618400E+01  0.32535514951E+02  0.15825357218E+02  0.37020831332E+02  0.00000000000E+00 0.  1.
</event>
<event>
 7    1  0.2985411E-011  0.5052889E+02  0.7816164E-02  0.1300439E+00
        -11   -1    0    0    0    0  0.00000000000E+00  0.00000000000E+00  0.45593999997E+02  0.45594000000E+02  0.51100000000E-03 0.  1.
         11   -1    0    0    0    0 -0.00000000000E+00 -0.00000000000E+00 -0.45593999997E+02  0.45594000000E+02  0.51100000000E-03 0. -1.
    9900012    2    1    2    0    0 -0.21168502557E+02 -0.34329881376E+02  0.51494871377E+01  0.50528886955E+02  0.30000082390E+02 0.  0.
        -12    1    1    2    0    0  0.21168502557E+02  0.34329881376E+02 -0.51494871377E+01  0.40659113045E+02  0.00000000000E+00 0.  1.
         11    1    3    3    0    0  0.59016942460E+01 -0.10459626486E+02  0.42261380336E+01  0.12731615143E+02  0.51100000000E-03 0. -1.
        -11    1    3    3    0    0 -0.29214453876E+01 -0.78101981232E+01  0.26354631572E+01  0.87452675311E+01  0.51100000000E-03 0.  1.
        -12    1    3    3    0    0 -0.24148751415E+02 -0.16060056767E+02 -0.17121140531E+01  0.29052004282E+02  0.00000000000E+00 0.  1.
</event>
<event>
 7    1  0.2985411E-011  0.5052885E+02  0.7816164E-02  0.1300439E+00
        -11   -1    0    0    0    0  0.00000000000E+00  0.00000000000E+00  0.45593999997E+02  0.45594000000E+02  0.51100000000E-03 0.  1.
         11   -1    0    0    0    0 -0.00000000000E+00 -0.00000000000E+00 -0.45593999997E+02  0.45594000000E+02  0.51100000000E-03 0. -1.
    9900012    2    1    2    0    0 -0.26367666847E+02  0.86948106835E+01 -0.29703746886E+02  0.50528853835E+02  0.29999981717E+02 0.  0.
        -12    1    1    2    0    0  0.26367666847E+02 -0.86948106835E+01  0.29703746886E+02  0.40659146165E+02  0.00000000000E+00 0.  1.
         11    1    3    3    0    0 -0.12974913071E+02 -0.83481492296E+01 -0.16951166536E+02  0.22921213144E+02  0.51100000000E-03 0. -1.
        -11    1    3    3    0    0 -0.20766941902E+01 -0.15973136263E+01 -0.79423135833E+00  0.27376766230E+01  0.51100000000E-03 0.  1.
         12    1    3    3    0    0 -0.11316059585E+02  0.18640273540E+02 -0.11958348992E+02  0.24869964069E+02  0.00000000000E+00 0. -1.
</event>
<event>
 7    1  0.2985411E-011  0.5052885E+02  0.7816164E-02  0.1300439E+00
        -11   -1    0    0    0    0  0.00000000000E+00  0.00000000000E+00  0.45593999997E+02  0.45594000000E+02  0.51100000000E-03 0.  1.
         11   -1    0    0    0    0 -0.00000000000E+00 -0.00000000000E+00 -0.45593999997E+02  0.45594000000E+02  0.51100000000E-03 0. -1.
    9900012    2    1    2    0    0 -0.98566620548E+01  0.37832813533E+02 -0.11166507248E+02  0.50528850344E+02  0.29999971104E+02 0.  0.
        -12    1    1    2    0    0  0.98566620548E+01 -0.37832813533E+02  0.11166507248E+02  0.40659149656E+02  0.00000000000E+00 0.  1.
         11    1    3    3    0    0 -0.39016198849E+01  0.17358522382E+02 -0.49612339306E+01  0.18470375724E+02  0.51100000000E-03 0. -1.
        -11    1    3    3    0    0  0.61918613474E+01  0.17413968519E+02 -0.10475134767E+01  0.18511691745E+02  0.51100000000E-03 0.  1.
        -12    1    3    3    0    0 -0.12146903517E+02  0.30603226319E+01 -0.51577598405E+01  0.13546782874E+02  0.00000000000E+00 0.  1.
</event>
<event>
 7    1  0.2985411E-011  0.5052885E+02  0.7816164E-02  0.1300439E+00
        -11   -1    0    0    0    0  0.00000000000E+00  0.00000000000E+00  0.45593999997E+02  0.45594000000E+02  0.51100000000E-03 0.  1.
         11   -1    0    0    0    0 -0.00000000000E+00 -0.00000000000E+00 -0.45593999997E+02  0.45594000000E+02  0.51100000000E-03 0. -1.
    9900012    2    1    2    0    0 -0.28823130189E+02 -0.22479067265E+01 -0.28589162687E+02  0.50528854144E+02  0.29999982657E+02 0.  0.
        -12    1    1    2    0    0  0.28823130189E+02  0.22479067265E+01  0.28589162687E+02  0.40659145856E+02  0.00000000000E+00 0.  1.
         11    1    3    3    0    0 -0.17489949609E+01 -0.36921836056E+00 -0.77221277944E+01  0.79263209312E+01  0.51100000000E-03 0. -1.
        -11    1    3    3    0    0 -0.17636387854E+02 -0.12923211930E+01 -0.26303487195E+02  0.31695200102E+02  0.51100000000E-03 0.  1.
        -12    1    3    3    0    0 -0.94377473744E+01 -0.58636717296E+00  0.54364523025E+01  0.10907333111E+02  0.00000000000E+00 0.  1.
</event>
<event>
 7    1  0.2985411E-011  0.5052886E+02  0.7816164E-02  0.1300439E+00
        -11   -1    0    0    0    0  0.00000000000E+00  0.00000000000E+00  0.45593999997E+02  0.45594000000E+02  0.51100000000E-03 0. -1.
         11   -1    0    0    0    0 -0.00000000000E+00 -0.00000000000E+00 -0.45593999997E+02  0.45594000000E+02  0.51100000000E-03 0.  1.
    9900012    2    1    2    0    0  0.99484712710E+01  0.36629603579E+02  0.14576201748E+02  0.50528860850E+02  0.30000003041E+02 0.  0.
        -12    1    1    2    0    0 -0.99484712710E+01 -0.36629603579E+02 -0.14576201748E+02  0.40659139150E+02  0.00000000000E+00 0.  1.
         11    1    3    3    0    0  0.11021458728E+01  0.10258680768E+02 -0.44203068803E+01  0.11224721369E+02  0.51100000000E-03 0. -1.
        -11    1    3    3    0    0  0.11290986772E+01 -0.79178494906E+00  0.93695448516E+01  0.94704888056E+01  0.51100000000E-03 0.  1.
         12    1    3    3    0    0  0.77172267210E+01  0.27162707760E+02  0.96269637765E+01  0.29833650676E+02  0.00000000000E+00 0. -1.
</event>
<event>
 7    1  0.2985411E-011  0.5052886E+02  0.7816164E-02  0.1300439E+00
        -11   -1    0    0    0    0  0.00000000000E+00  0.00000000000E+00  0.45593999997E+02  0.45594000000E+02  0.51100000000E-03 0.  1.
         11   -1    0    0    0    0 -0.00000000000E+00 -0.00000000000E+00 -0.45593999997E+02  0.45594000000E+02  0.51100000000E-03 0. -1.
    9900012    2    1    2    0    0  0.37497315777E+02  0.22667484322E+01 -0.15555667999E+02  0.50528860242E+02  0.30000001192E+02 0.  0.
        -12    1    1    2    0    0 -0.37497315777E+02 -0.22667484322E+01  0.15555667999E+02  0.40659139758E+02  0.00000000000E+00 0.  1.
         11    1    3    3    0    0  0.98094854664E+01 -0.26265282548E+01  0.35933402216E+01  0.10772035555E+02  0.51100000000E-03 0. -1.
        -11    1    3    3    0    0  0.13228025364E+02 -0.25385073806E+01  0.14137468459E+01  0.13543387876E+02  0.51100000000E-03 0.  1.
         12    1    3    3    0    0  0.14459804946E+02  0.74317840676E+01 -0.20562755067E+02  0.26213436811E+02  0.00000000000E+00 0. -1.
</event>
<event>
 7    1  0.2985411E-011  0.5052886E+02  0.7816164E-02  0.1300439E+00
        -11   -1    0    0    0    0  0.00000000000E+00  0.00000000000E+00  0.45593999997E+02  0.45594000000E+02  0.51100000000E-03 0. -1.
         11   -1    0    0    0    0 -0.00000000000E+00 -0.00000000000E+00 -0.45593999997E+02  0.45594000000E+02  0.51100000000E-03 0.  1.
    9900012    2    1    2    0    0 -0.27587834312E+01 -0.67741846494E+01  0.39995817015E+02  0.50528857825E+02  0.29999993845E+02 0.  0.
        -12    1    1    2    0    0  0.27587834312E+01  0.67741846494E+01 -0.39995817015E+02  0.40659142175E+02  0.00000000000E+00 0.  1.
         11    1    3    3    0    0 -0.63859825725E+01 -0.69172758617E+01  0.25693554637E+02  0.27363995120E+02  0.51100000000E-03 0. -1.
        -11    1    3    3    0    0 -0.54912222003E+01 -0.50827667599E+01  0.77875607892E+01  0.10799728816E+02  0.51100000000E-03 0.  1.
        -12    1    3    3    0    0  0.91184213417E+01  0.52258579722E+01  0.65147015891E+01  0.12365133889E+02  0.00000000000E+00 0.  1.
</event>
<event>
 7    1  0.2985411E-011  0.5052886E+02  0.7816164E-02  0.1300439E+00
        -11   -1    0    0    0    0  0.00000000000E+00  0.00000000000E+00  0.45593999997E+02  0.45594000000E+02  0.51100000000E-03 0.  1.
         11   -1    0    0    0    0 -0.00000000000E+00 -0.00000000000E+00 -0.45593999997E+02  0.45594000000E+02  0.51100000000E-03 0. -1.
    9900012    2    1    2    0    0 -0.33184353057E+02 -0.72613956879E+01  0.22343607295E+02  0.50528856599E+02  0.29999990119E+02 0.  0.
        -12    1    1    2    0    0  0.33184353057E+02  0.72613956879E+01 -0.22343607295E+02  0.40659143401E+02  0.00000000000E+00 0.  1.
         11    1    3    3    0    0 -0.75433964102E+01  0.60934661335E+01  0.29314405191E+01  0.10130473962E+02  0.51100000000E-03 0. -1.
        -11    1    3    3    0    0  0.31262886693E+01  0.97029612128E+00  0.21834513558E+01  0.39347954828E+01  0.51100000000E-03 0.  1.
         12    1    3    3    0    0 -0.28767245316E+02 -0.14325157943E+02  0.17228715420E+02  0.36463587154E+02  0.00000000000E+00 0. -1.
</event>
<event>
 7    1  0.2985411E-011  0.5052886E+02  0.7816164E-02  0.1300439E+00
        -11   -1    0    0    0    0  0.00000000000E+00  0.00000000000E+00  0.45593999997E+02  0.45594000000E+02  0.51100000000E-03 0.  1.
         11   -1    0    0    0    0 -0.00000000000E+00 -0.00000000000E+00 -0.45593999997E+02  0.45594000000E+02  0.51100000000E-03 0. -1.
    9900012    2    1    2    0    0  0.40426218925E+01 -0.33371185662E+02 -0.22873284815E+02  0.50528856103E+02  0.29999988611E+02 0.  0.
        -12    1    1    2    0    0 -0.40426218925E+01  0.33371185662E+02  0.22873284815E+02  0.40659143897E+02  0.00000000000E+00 0.  1.
         11    1    3    3    0    0  0.36252317411E+01 -0.23510865984E+01 -0.80364438152E+01  0.91243817777E+01  0.51100000000E-03 0. -1.
        -11    1    3    3    0    0  0.11433431936E+02 -0.12687329139E+02 -0.86218110855E+01  0.19131840298E+02  0.51100000000E-03 0.  1.
         12    1    3    3    0    0 -0.11016041785E+02 -0.18332769924E+02 -0.62150299141E+01  0.22272634028E+02  0.00000000000E+00 0. -1.
</event>
<event>
 7    1  0.2985411E-011  0.5052886E+02  0.7816164E-02  0.1300439E+00
        -11   -1    0    0    0    0  0.00000000000E+00  0.00000000000E+00  0.45593999997E+02  0.45594000000E+02  0.51100000000E-03 0.  1.
         11   -1    0    0    0    0 -0.00000000000E+00 -0.00000000000E+00 -0.45593999997E+02  0.45594000000E+02  0.51100000000E-03 0. -1.
    9900012    2    1    2    0    0  0.33570816031E+02  0.18630302368E+02 -0.13381993663E+02  0.50528860687E+02  0.30000002543E+02 0.  0.
        -12    1    1    2    0    0 -0.33570816031E+02 -0.18630302368E+02  0.13381993663E+02  0.40659139313E+02  0.00000000000E+00 0.  1.
         11    1    3    3    0    0  0.16221140028E+02  0.13661991925E+02 -0.18349279415E+02  0.28044098533E+02  0.51100000000E-03 0. -1.
        -11    1    3    3    0    0  0.18652569034E+01  0.50006617704E+01 -0.17348627798E+01  0.56120896806E+01  0.51100000000E-03 0.  1.
         12    1    3    3    0    0  0.15484419099E+02 -0.32351327648E-01  0.67021485321E+01  0.16872672473E+02  0.00000000000E+00 0. -1.
</event>
<event>
 7    1  0.2985411E-011  0.5052886E+02  0.7816164E-02  0.1300439E+00
        -11   -1    0    0    0    0  0.00000000000E+00  0.00000000000E+00  0.45593999997E+02  0.45594000000E+02  0.51100000000E-03 0.  1.
         11   -1    0    0    0    0 -0.00000000000E+00 -0.00000000000E+00 -0.45593999997E+02  0.45594000000E+02  0.51100000000E-03 0. -1.
    9900012    2    1    2    0    0 -0.18463045623E+02 -0.33160895741E+02 -0.14582076352E+02  0.50528855754E+02  0.29999987551E+02 0.  0.
        -12    1    1    2    0    0  0.18463045623E+02  0.33160895741E+02  0.14582076352E+02  0.40659144246E+02  0.00000000000E+00 0.  1.
         11    1    3    3    0    0 -0.19259745597E+02 -0.25448866075E+02 -0.15977985496E+02  0.35691436028E+02  0.51100000000E-03 0.  1.
        -11    1    3    3    0    0 -0.17272013740E+01 -0.89868519838E+01 -0.29827366408E+01  0.96251468193E+01  0.51100000000E-03 0. -1.
        -12    1    3    3    0    0  0.25239013477E+01  0.12748223177E+01  0.43786457841E+01  0.52122729070E+01  0.00000000000E+00 0.  1.
</event>
<event>
 7    1  0.2985411E-011  0.5052886E+02  0.7816164E-02  0.1300439E+00
        -11   -1    0    0    0    0  0.00000000000E+00  0.00000000000E+00  0.45593999997E+02  0.45594000000E+02  0.51100000000E-03 0.  1.
         11   -1    0    0    0    0 -0.00000000000E+00 -0.00000000000E+00 -0.45593999997E+02  0.45594000000E+02  0.51100000000E-03 0. -1.
    9900012    2    1    2    0    0 -0.28473020645E+02 -0.28951123015E+02  0.20701601906E+01  0.50528855990E+02  0.29999988266E+02 0.  0.
        -12    1    1    2    0    0  0.28473020645E+02  0.28951123015E+02 -0.20701601906E+01  0.40659144010E+02  0.00000000000E+00 0.  1.
         11    1    3    3    0    0 -0.51081658054E+01 -0.96721606556E+01  0.18280785514E+01  0.11089901762E+02  0.51100000000E-03 0. -1.
        -11    1    3    3    0    0 -0.11165685473E+02 -0.22190635995E+02 -0.58121570816E+01  0.25512311305E+02  0.51100000000E-03 0.  1.
        -12    1    3    3    0    0 -0.12199169367E+02  0.29116736356E+01  0.60542387208E+01  0.13926642922E+02  0.00000000000E+00 0.  1.
</event>
<event>
 7    1  0.2985411E-011  0.5052886E+02  0.7816164E-02  0.1300439E+00
        -11   -1    0    0    0    0  0.00000000000E+00  0.00000000000E+00  0.45593999997E+02  0.45594000000E+02  0.51100000000E-03 0.  1.
         11   -1    0    0    0    0 -0.00000000000E+00 -0.00000000000E+00 -0.45593999997E+02  0.45594000000E+02  0.51100000000E-03 0. -1.
    9900012    2    1    2    0    0  0.18422251350E+02  0.19131484864E+02 -0.30785915111E+02  0.50528860472E+02  0.30000001891E+02 0.  0.
        -12    1    1    2    0    0 -0.18422251350E+02 -0.19131484864E+02  0.30785915111E+02  0.40659139528E+02  0.00000000000E+00 0.  1.
         11    1    3    3    0    0 -0.38273912943E+01 -0.52524410969E+00 -0.48706334919E+00  0.38938459730E+01  0.51100000000E-03 0. -1.
        -11    1    3    3    0    0 -0.49179766117E+00 -0.24690127881E+01 -0.65063186872E+01  0.69763939257E+01  0.51100000000E-03 0.  1.
         12    1    3    3    0    0  0.22741440306E+02  0.22125741761E+02 -0.23792533075E+02  0.39658620573E+02  0.00000000000E+00 0. -1.
</event>
<event>
 7    1  0.2985411E-011  0.5052886E+02  0.7816164E-02  0.1300439E+00
        -11   -1    0    0    0    0  0.00000000000E+00  0.00000000000E+00  0.45593999997E+02  0.45594000000E+02  0.51100000000E-03 0. -1.
         11   -1    0    0    0    0 -0.00000000000E+00 -0.00000000000E+00 -0.45593999997E+02  0.45594000000E+02  0.51100000000E-03 0.  1.
    9900012    2    1    2    0    0 -0.25442373788E+01 -0.25394291450E+01  0.40499926841E+02  0.50528856891E+02  0.29999991006E+02 0.  0.
        -12    1    1    2    0    0  0.25442373788E+01  0.25394291450E+01 -0.40499926841E+02  0.40659143109E+02  0.00000000000E+00 0.  1.
         11    1    3    3    0    0 -0.28928450372E+01 -0.53230054530E+01  0.21792447699E+02  0.22618879646E+02  0.51100000000E-03 0.  1.
        -11    1    3    3    0    0  0.26328833465E+01 -0.23467477881E+01  0.21395277849E+02  0.21684031323E+02  0.51100000000E-03 0. -1.
        -12    1    3    3    0    0 -0.22842756881E+01  0.51303240960E+01 -0.26877987067E+01  0.62259459231E+01  0.00000000000E+00 0.  1.
</event>
<event>
 7    1  0.2985411E-011  0.5052886E+02  0.7816164E-02  0.1300439E+00
        -11   -1    0    0    0    0  0.00000000000E+00  0.00000000000E+00  0.45593999997E+02  0.45594000000E+02  0.51100000000E-03 0.  1.
         11   -1    0    0    0    0 -0.00000000000E+00 -0.00000000000E+00 -0.45593999997E+02  0.45594000000E+02  0.51100000000E-03 0. -1.
    9900012    2    1    2    0    0 -0.65565163019E+01 -0.20113655798E+02 -0.34722020228E+02  0.50528859032E+02  0.29999997513E+02 0.  0.
        -12    1    1    2    0    0  0.65565163019E+01  0.20113655798E+02  0.34722020228E+02  0.40659140968E+02  0.00000000000E+00 0.  1.
         11    1    3    3    0    0 -0.56021989240E+01 -0.20350968176E+01 -0.72460398678E+00  0.60042737312E+01  0.51100000000E-03 0. -1.
        -11    1    3    3    0    0 -0.57026921245E+01 -0.16603251435E+02 -0.10390676834E+02  0.20399873064E+02  0.51100000000E-03 0.  1.
         12    1    3    3    0    0  0.47483747466E+01 -0.14753075455E+01 -0.23606739406E+02  0.24124712236E+02  0.00000000000E+00 0. -1.
</event>
<event>
 7    1  0.2985411E-011  0.5052886E+02  0.7816164E-02  0.1300439E+00
        -11   -1    0    0    0    0  0.00000000000E+00  0.00000000000E+00  0.45593999997E+02  0.45594000000E+02  0.51100000000E-03 0.  1.
         11   -1    0    0    0    0 -0.00000000000E+00 -0.00000000000E+00 -0.45593999997E+02  0.45594000000E+02  0.51100000000E-03 0. -1.
    9900012    2    1    2    0    0 -0.12597140702E+02 -0.21261577406E+02 -0.32286580916E+02  0.50528856687E+02  0.29999990387E+02 0.  0.
        -12    1    1    2    0    0  0.12597140702E+02  0.21261577406E+02  0.32286580916E+02  0.40659143313E+02  0.00000000000E+00 0.  1.
         11    1    3    3    0    0 -0.76245858621E+01 -0.16726344980E+02 -0.26172347459E+02  0.31982756256E+02  0.51100000000E-03 0. -1.
        -11    1    3    3    0    0 -0.44652514465E+01 -0.81047710893E+01 -0.97386647931E+01  0.13433814689E+02  0.51100000000E-03 0.  1.
        -12    1    3    3    0    0 -0.50730339368E+00  0.35695386636E+01  0.36244313357E+01  0.51122857424E+01  0.00000000000E+00 0.  1.
</event>
<event>
 7    1  0.2985411E-011  0.5052887E+02  0.7816164E-02  0.1300439E+00
        -11   -1    0    0    0    0  0.00000000000E+00  0.00000000000E+00  0.45593999997E+02  0.45594000000E+02  0.51100000000E-03 0.  1.
         11   -1    0    0    0    0 -0.00000000000E+00 -0.00000000000E+00 -0.45593999997E+02  0.45594000000E+02  0.51100000000E-03 0. -1.
    9900012    2    1    2    0    0  0.18823125492E+01  0.94304305477E+01 -0.39505558007E+02  0.50528865303E+02  0.30000016575E+02 0.  0.
        -12    1    1    2    0    0 -0.18823125492E+01 -0.94304305477E+01  0.39505558007E+02  0.40659134697E+02  0.00000000000E+00 0.  1.
         11    1    3    3    0    0  0.21545493014E+01  0.11891549432E+02 -0.50723344779E+01  0.13106471985E+02  0.51100000000E-03 0. -1.
        -11    1    3    3    0    0 -0.53469378458E+01 -0.27449599844E+01 -0.58379003544E+01  0.83788800237E+01  0.51100000000E-03 0.  1.
        -12    1    3    3    0    0  0.50747010937E+01  0.28384110003E+00 -0.28595323175E+02  0.29043513294E+02  0.00000000000E+00 0.  1.
</event>
<event>
 7    1  0.2985411E-011  0.5052886E+02  0.7816164E-02  0.1300439E+00
        -11   -1    0    0    0    0  0.00000000000E+00  0.00000000000E+00  0.45593999997E+02  0.45594000000E+02  0.51100000000E-03 0. -1.
         11   -1    0    0    0    0 -0.00000000000E+00 -0.00000000000E+00 -0.45593999997E+02  0.45594000000E+02  0.51100000000E-03 0.  1.
    9900012    2    1    2    0    0 -0.33885217221E+02 -0.12282913658E+02 -0.18817229073E+02  0.50528855592E+02  0.29999987056E+02 0.  0.
        -12    1    1    2    0    0  0.33885217221E+02  0.12282913658E+02  0.18817229073E+02  0.40659144408E+02  0.00000000000E+00 0.  1.
         11    1    3    3    0    0 -0.17233431530E+02 -0.11530590253E+02 -0.27814373496E+01  0.20920852466E+02  0.51100000000E-03 0. -1.
        -11    1    3    3    0    0  0.46790773226E+00 -0.66914103990E+01 -0.34288578576E+01  0.75333244482E+01  0.51100000000E-03 0.  1.
        -12    1    3    3    0    0 -0.17119693423E+02  0.59390869946E+01 -0.12606933866E+02  0.22074678678E+02  0.00000000000E+00 0.  1.
</event>
<event>
 7    1  0.2985411E-011  0.5052886E+02  0.7816164E-02  0.1300439E+00
        -11   -1    0    0    0    0  0.00000000000E+00  0.00000000000E+00  0.45593999997E+02  0.45594000000E+02  0.51100000000E-03 0.  1.
         11   -1    0    0    0    0 -0.00000000000E+00 -0.00000000000E+00 -0.45593999997E+02  0.45594000000E+02  0.51100000000E-03 0. -1.
    9900012    2    1    2    0    0 -0.25629646008E+02 -0.22294661929E+02 -0.22343566656E+02  0.50528859872E+02  0.30000000067E+02 0.  0.
        -12    1    1    2    0    0  0.25629646008E+02  0.22294661929E+02  0.22343566656E+02  0.40659140128E+02  0.00000000000E+00 0.  1.
         11    1    3    3    0    0  0.57438039712E+00 -0.87759734372E+00 -0.80577519080E+01  0.81257280296E+01  0.51100000000E-03 0. -1.
        -11    1    3    3    0    0 -0.63081850094E+00 -0.12604043108E+02 -0.68093673329E+01  0.14339711238E+02  0.51100000000E-03 0.  1.
         12    1    3    3    0    0 -0.25573207905E+02 -0.88130214774E+01 -0.74764474152E+01  0.28063420605E+02  0.00000000000E+00 0. -1.
</event>
<event>
 7    1  0.2985411E-011  0.5052886E+02  0.7816164E-02  0.1300439E+00
        -11   -1    0    0    0    0  0.00000000000E+00  0.00000000000E+00  0.45593999997E+02  0.45594000000E+02  0.51100000000E-03 0.  1.
         11   -1    0    0    0    0 -0.00000000000E+00 -0.00000000000E+00 -0.45593999997E+02  0.45594000000E+02  0.51100000000E-03 0. -1.
    9900012    2    1    2    0    0 -0.18275200754E+02  0.32318062393E+01 -0.36176482327E+02  0.50528863170E+02  0.30000010093E+02 0.  0.
        -12    1    1    2    0    0  0.18275200754E+02 -0.32318062393E+01  0.36176482327E+02  0.40659136830E+02  0.00000000000E+00 0.  1.
         11    1    3    3    0    0 -0.14414329331E+02 -0.32956744558E+01 -0.45566338432E+01  0.15472468207E+02  0.51100000000E-03 0. -1.
        -11    1    3    3    0    0  0.45332416980E+01  0.32396891131E+00 -0.12021076999E+02  0.12851518534E+02  0.51100000000E-03 0.  1.
         12    1    3    3    0    0 -0.83941131212E+01  0.62035117837E+01 -0.19598771485E+02  0.22204876430E+02  0.00000000000E+00 0. -1.
</event>
<event>
 7    1  0.2985411E-011  0.5052888E+02  0.7816164E-02  0.1300439E+00
        -11   -1    0    0    0    0  0.00000000000E+00  0.00000000000E+00  0.45593999997E+02  0.45594000000E+02  0.51100000000E-03 0.  1.
         11   -1    0    0    0    0 -0.00000000000E+00 -0.00000000000E+00 -0.45593999997E+02  0.45594000000E+02  0.51100000000E-03 0. -1.
    9900012    2    1    2    0    0 -0.28706149007E+02  0.66437159822E+01 -0.28017532049E+02  0.50528879806E+02  0.30000060658E+02 0.  0.
        -12    1    1    2    0    0  0.28706149007E+02 -0.66437159822E+01  0.28017532049E+02  0.40659120194E+02  0.00000000000E+00 0.  1.
         11    1    3    3    0    0 -0.10100039826E+02  0.22413016832E+00 -0.11990014640E+02  0.15678695422E+02  0.51100000000E-03 0. -1.
        -11    1    3    3    0    0 -0.18206472690E+02 -0.33646759942E+01 -0.33244327429E+01  0.18810862438E+02  0.51100000000E-03 0.  1.
        -12    1    3    3    0    0 -0.39963649144E+00  0.97842618081E+01 -0.12703084665E+02  0.16039321945E+02  0.00000000000E+00 0.  1.
</event>
<event>
 7    1  0.2985411E-011  0.5052885E+02  0.7816164E-02  0.1300439E+00
        -11   -1    0    0    0    0  0.00000000000E+00  0.00000000000E+00  0.45593999997E+02  0.45594000000E+02  0.51100000000E-03 0.  1.
         11   -1    0    0    0    0 -0.00000000000E+00 -0.00000000000E+00 -0.45593999997E+02  0.45594000000E+02  0.51100000000E-03 0. -1.
    9900012    2    1    2    0    0  0.39283968737E+02  0.89988570882E+01 -0.53811372296E+01  0.50528852610E+02  0.29999977993E+02 0.  0.
        -12    1    1    2    0    0 -0.39283968737E+02 -0.89988570882E+01  0.53811372296E+01  0.40659147390E+02  0.00000000000E+00 0.  1.
         11    1    3    3    0    0  0.29132592443E+01 -0.96612316168E+00  0.71739907984E+00  0.31520049316E+01  0.51100000000E-03 0. -1.
        -11    1    3    3    0    0  0.31944541672E+02  0.68792866312E+01  0.68162881294E+01  0.33380235339E+02  0.51100000000E-03 0.  1.
         12    1    3    3    0    0  0.44261678205E+01  0.30856936187E+01 -0.12914824439E+02  0.13996612339E+02  0.00000000000E+00 0. -1.
</event>
<event>
 7    1  0.2985411E-011  0.5052886E+02  0.7816164E-02  0.1300439E+00
        -11   -1    0    0    0    0  0.00000000000E+00  0.00000000000E+00  0.45593999997E+02  0.45594000000E+02  0.51100000000E-03 0.  1.
         11   -1    0    0    0    0 -0.00000000000E+00 -0.00000000000E+00 -0.45593999997E+02  0.45594000000E+02  0.51100000000E-03 0. -1.
    9900012    2    1    2    0    0 -0.17600688417E+02 -0.28528516774E+02 -0.23010980659E+02  0.50528859171E+02  0.29999997936E+02 0.  0.
        -12    1    1    2    0    0  0.17600688417E+02  0.28528516774E+02  0.23010980659E+02  0.40659140829E+02  0.00000000000E+00 0.  1.
         11    1    3    3    0    0 -0.42686319258E+01 -0.20785039843E+02 -0.10174658691E+02  0.23532164786E+02  0.51100000000E-03 0. -1.
        -11    1    3    3    0    0 -0.39451055447E+01 -0.10223610685E+02 -0.13352954287E+02  0.17273895381E+02  0.51100000000E-03 0.  1.
        -12    1    3    3    0    0 -0.93869509465E+01  0.24801337540E+01  0.51663231925E+00  0.97227990035E+01  0.00000000000E+00 0.  1.
</event>
<event>
 7    1  0.2985411E-011  0.5052886E+02  0.7816164E-02  0.1300439E+00
        -11   -1    0    0    0    0  0.00000000000E+00  0.00000000000E+00  0.45593999997E+02  0.45594000000E+02  0.51100000000E-03 0.  1.
         11   -1    0    0    0    0 -0.00000000000E+00 -0.00000000000E+00 -0.45593999997E+02  0.45594000000E+02  0.51100000000E-03 0. -1.
    9900012    2    1    2    0    0 -0.42906341226E-01  0.36479249357E+02 -0.17956289619E+02  0.50528858205E+02  0.29999995001E+02 0.  0.
        -12    1    1    2    0    0  0.42906341226E-01 -0.36479249357E+02  0.17956289619E+02  0.40659141795E+02  0.00000000000E+00 0.  1.
         11    1    3    3    0    0  0.87924310695E+00  0.10789274601E+02 -0.11364053513E+01  0.10884527194E+02  0.51100000000E-03 0. -1.
        -11    1    3    3    0    0 -0.44173311348E+01  0.18448129603E+02  0.21010127478E+01  0.19085611204E+02  0.51100000000E-03 0.  1.
         12    1    3    3    0    0  0.34951816867E+01  0.72418451534E+01 -0.18920897016E+02  0.20558719808E+02  0.00000000000E+00 0. -1.
</event>
<event>
 7    1  0.2985411E-011  0.5052892E+02  0.7816164E-02  0.1300439E+00
        -11   -1    0    0    0    0  0.00000000000E+00  0.00000000000E+00  0.45593999997E+02  0.45594000000E+02  0.51100000000E-03 0.  1.
         11   -1    0    0    0    0 -0.00000000000E+00 -0.00000000000E+00 -0.45593999997E+02  0.45594000000E+02  0.51100000000E-03 0. -1.
    9900012    2    1    2    0    0  0.36401158649E+02 -0.12384354287E+02 -0.13219082348E+02  0.50528920815E+02  0.30000185308E+02 0.  0.
        -12    1    1    2    0    0 -0.36401158649E+02  0.12384354287E+02  0.13219082348E+02  0.40659079185E+02  0.00000000000E+00 0.  1.
         11    1    3    3    0    0  0.24940116383E+02 -0.17128077808E+02 -0.89620083914E+01  0.31554683476E+02  0.51100000000E-03 0. -1.
        -11    1    3    3    0    0  0.90182301411E+01 -0.22786128568E+01 -0.63352778552E+01  0.11254167992E+02  0.51100000000E-03 0.  1.
        -12    1    3    3    0    0  0.24428121244E+01  0.70223363773E+01  0.20782038991E+01  0.77200693466E+01  0.00000000000E+00 0.  1.
</event>
<event>
 7    1  0.2985411E-011  0.5052885E+02  0.7816164E-02  0.1300439E+00
        -11   -1    0    0    0    0  0.00000000000E+00  0.00000000000E+00  0.45593999997E+02  0.45594000000E+02  0.51100000000E-03 0.  1.
         11   -1    0    0    0    0 -0.00000000000E+00 -0.00000000000E+00 -0.45593999997E+02  0.45594000000E+02  0.51100000000E-03 0. -1.
    9900012    2    1    2    0    0 -0.15836474054E+02  0.36679503092E+02 -0.75489589465E+01  0.50528848033E+02  0.29999964081E+02 0.  0.
        -12    1    1    2    0    0  0.15836474054E+02 -0.36679503092E+02  0.75489589465E+01  0.40659151967E+02  0.00000000000E+00 0.  1.
         11    1    3    3    0    0 -0.81924096012E+01  0.51076717324E+00 -0.35786609068E+00  0.82161138368E+01  0.51100000000E-03 0. -1.
        -11    1    3    3    0    0  0.53955693540E-01  0.20581793229E+02  0.48750633270E+01  0.21151344317E+02  0.51100000000E-03 0.  1.
         12    1    3    3    0    0 -0.76980201459E+01  0.15586942690E+02 -0.12066156183E+02  0.21161389879E+02  0.00000000000E+00 0. -1.
</event>
<event>
 7    1  0.2985411E-011  0.5052885E+02  0.7816164E-02  0.1300439E+00
        -11   -1    0    0    0    0  0.00000000000E+00  0.00000000000E+00  0.45593999997E+02  0.45594000000E+02  0.51100000000E-03 0.  1.
         11   -1    0    0    0    0 -0.00000000000E+00 -0.00000000000E+00 -0.45593999997E+02  0.45594000000E+02  0.51100000000E-03 0. -1.
    9900012    2    1    2    0    0 -0.13547341654E+02 -0.12472210379E+02 -0.36250245562E+02  0.50528846037E+02  0.29999958015E+02 0.  0.
        -12    1    1    2    0    0  0.13547341654E+02  0.12472210379E+02  0.36250245562E+02  0.40659153963E+02  0.00000000000E+00 0.  1.
         11    1    3    3    0    0 -0.54243840067E+00  0.15634031638E+01 -0.12625180043E+01  0.20814468149E+01  0.51100000000E-03 0. -1.
        -11    1    3    3    0    0 -0.11168083564E+02 -0.14911171431E+02 -0.62684237154E+01  0.19656099818E+02  0.51100000000E-03 0.  1.
        -12    1    3    3    0    0 -0.18368196902E+01  0.87555788787E+00 -0.28719303843E+02  0.28791299404E+02  0.00000000000E+00 0.  1.
</event>
<event>
 7    1  0.2985411E-011  0.5052882E+02  0.7816164E-02  0.1300439E+00
        -11   -1    0    0    0    0  0.00000000000E+00  0.00000000000E+00  0.45593999997E+02  0.45594000000E+02  0.51100000000E-03 0.  1.
         11   -1    0    0    0    0 -0.00000000000E+00 -0.00000000000E+00 -0.45593999997E+02  0.45594000000E+02  0.51100000000E-03 0. -1.
    9900012    2    1    2    0    0  0.89026518114E+00 -0.10773032907E+02 -0.39195899202E+02  0.50528815006E+02  0.29999863692E+02 0.  0.
        -12    1    1    2    0    0 -0.89026518114E+00  0.10773032907E+02  0.39195899202E+02  0.40659184994E+02  0.00000000000E+00 0.  1.
         11    1    3    3    0    0  0.46814744549E-01 -0.87408335266E+01 -0.21030647382E+02  0.22774821447E+02  0.51100000000E-03 0. -1.
        -11    1    3    3    0    0 -0.78071707853E+01 -0.63409158551E+01 -0.13980790163E+02  0.17222706622E+02  0.51100000000E-03 0.  1.
        -12    1    3    3    0    0  0.86506212219E+01  0.43087164752E+01 -0.41844616569E+01  0.10531286937E+02  0.00000000000E+00 0.  1.
</event>
<event>
 7    1  0.2985411E-011  0.5052886E+02  0.7816164E-02  0.1300439E+00
        -11   -1    0    0    0    0  0.00000000000E+00  0.00000000000E+00  0.45593999997E+02  0.45594000000E+02  0.51100000000E-03 0. -1.
         11   -1    0    0    0    0 -0.00000000000E+00 -0.00000000000E+00 -0.45593999997E+02  0.45594000000E+02  0.51100000000E-03 0.  1.
    9900012    2    1    2    0    0  0.33851773202E+02  0.22503920663E+02 -0.89241513184E+00  0.50528863279E+02  0.30000010423E+02 0.  0.
        -12    1    1    2    0    0 -0.33851773202E+02 -0.22503920663E+02  0.89241513184E+00  0.40659136721E+02  0.00000000000E+00 0.  1.
         11    1    3    3    0    0  0.34301336780E+01  0.34656854776E+01  0.58910335673E+01  0.76472916533E+01  0.51100000000E-03 0. -1.
        -11    1    3    3    0    0  0.92792892640E+01 -0.47957040620E+01 -0.24447141048E+01  0.10727563284E+02  0.51100000000E-03 0.  1.
        -12    1    3    3    0    0  0.21142350260E+02  0.23833939248E+02 -0.43387345944E+01  0.32154008342E+02  0.00000000000E+00 0.  1.
</event>
<event>
 7    1  0.2985411E-011  0.5052885E+02  0.7816164E-02  0.1300439E+00
        -11   -1    0    0    0    0  0.00000000000E+00  0.00000000000E+00  0.45593999997E+02  0.45594000000E+02  0.51100000000E-03 0. -1.
         11   -1    0    0    0    0 -0.00000000000E+00 -0.00000000000E+00 -0.45593999997E+02  0.45594000000E+02  0.51100000000E-03 0.  1.
    9900012    2    1    2    0    0  0.11697535153E+02  0.84458428326E+01  0.38013182751E+02  0.50528847861E+02  0.29999963558E+02 0.  0.
        -12    1    1    2    0    0 -0.11697535153E+02 -0.84458428326E+01 -0.38013182751E+02  0.40659152139E+02  0.00000000000E+00 0.  1.
         11    1    3    3    0    0  0.10904761896E+02 -0.27106068198E+01  0.32218063636E+02  0.34121325386E+02  0.51100000000E-03 0. -1.
        -11    1    3    3    0    0  0.51101104145E+01  0.71818044006E+01  0.57777728995E+01  0.10539174675E+02  0.51100000000E-03 0.  1.
        -12    1    3    3    0    0 -0.43173371577E+01  0.39746452517E+01  0.17346215099E-01  0.58683478000E+01  0.00000000000E+00 0.  1.
</event>
<event>
 7    1  0.2985411E-011  0.5052886E+02  0.7816164E-02  0.1300439E+00
        -11   -1    0    0    0    0  0.00000000000E+00  0.00000000000E+00  0.45593999997E+02  0.45594000000E+02  0.51100000000E-03 0. -1.
         11   -1    0    0    0    0 -0.00000000000E+00 -0.00000000000E+00 -0.45593999997E+02  0.45594000000E+02  0.51100000000E-03 0.  1.
    9900012    2    1    2    0    0  0.26695595605E+02  0.13748235863E+02  0.27413445422E+02  0.50528858298E+02  0.29999995282E+02 0.  0.
        -12    1    1    2    0    0 -0.26695595605E+02 -0.13748235863E+02 -0.27413445422E+02  0.40659141702E+02  0.00000000000E+00 0.  1.
         11    1    3    3    0    0  0.55541376811E+01  0.50631802078E+01  0.18102871552E+02  0.19600974411E+02  0.51100000000E-03 0. -1.
        -11    1    3    3    0    0  0.43878358461E+01 -0.13380165064E+01  0.10408021036E+02  0.11374106283E+02  0.51100000000E-03 0.  1.
         12    1    3    3    0    0  0.16753622078E+02  0.10023072162E+02 -0.10974471661E+01  0.19553777604E+02  0.00000000000E+00 0. -1.
</event>
<event>
 7    1  0.2985411E-011  0.5052886E+02  0.7816164E-02  0.1300439E+00
        -11   -1    0    0    0    0  0.00000000000E+00  0.00000000000E+00  0.45593999997E+02  0.45594000000E+02  0.51100000000E-03 0. -1.
         11   -1    0    0    0    0 -0.00000000000E+00 -0.00000000000E+00 -0.45593999997E+02  0.45594000000E+02  0.51100000000E-03 0.  1.
    9900012    2    1    2    0    0 -0.35278983261E+02 -0.17362757055E+02  0.10348591031E+02  0.50528864141E+02  0.30000013042E+02 0.  0.
        -12    1    1    2    0    0  0.35278983261E+02  0.17362757055E+02 -0.10348591031E+02  0.40659135859E+02  0.00000000000E+00 0.  1.
         11    1    3    3    0    0 -0.89282472424E+01 -0.37472536050E+01  0.13092313301E+02  0.16283862448E+02  0.51100000000E-03 0. -1.
        -11    1    3    3    0    0 -0.26449304978E+02 -0.88699419467E+01  0.14170404718E+01  0.27932948428E+02  0.51100000000E-03 0.  1.
        -12    1    3    3    0    0  0.98568959091E-01 -0.47455615037E+01 -0.41607627412E+01  0.63120532644E+01  0.00000000000E+00 0.  1.
</event>
<event>
 7    1  0.2985411E-011  0.5052887E+02  0.7816164E-02  0.1300439E+00
        -11   -1    0    0    0    0  0.00000000000E+00  0.00000000000E+00  0.45593999997E+02  0.45594000000E+02  0.51100000000E-03 0. -1.
         11   -1    0    0    0    0 -0.00000000000E+00 -0.00000000000E+00 -0.45593999997E+02  0.45594000000E+02  0.51100000000E-03 0.  1.
    9900012    2    1    2    0    0 -0.24652849718E+02 -0.19879455970E+01  0.32271502804E+02  0.50528870396E+02  0.30000032057E+02 0.  0.
        -12    1    1    2    0    0  0.24652849718E+02  0.19879455970E+01 -0.32271502804E+02  0.40659129604E+02  0.00000000000E+00 0.  1.
         11    1    3    3    0    0 -0.32411927023E+01  0.36939794758E+01 -0.39851838544E-01  0.49145094293E+01  0.51100000000E-03 0. -1.
        -11    1    3    3    0    0 -0.75754541672E+01 -0.60138259055E+01 -0.82139149925E+00  0.97071258422E+01  0.51100000000E-03 0.  1.
         12    1    3    3    0    0 -0.13836202848E+02  0.33190083266E+00  0.33132746142E+02  0.35907235125E+02  0.00000000000E+00 0. -1.
</event>
<event>
 7    1  0.2985411E-011  0.5052886E+02  0.7816164E-02  0.1300439E+00
        -11   -1    0    0    0    0  0.00000000000E+00  0.00000000000E+00  0.45593999997E+02  0.45594000000E+02  0.51100000000E-03 0.  1.
         11   -1    0    0    0    0 -0.00000000000E+00 -0.00000000000E+00 -0.45593999997E+02  0.45594000000E+02  0.51100000000E-03 0. -1.
    9900012    2    1    2    0    0 -0.19528984537E+02  0.34206456436E+02 -0.10084776371E+02  0.50528860642E+02  0.30000002406E+02 0.  0.
        -12    1    1    2    0    0  0.19528984537E+02 -0.34206456436E+02  0.10084776371E+02  0.40659139358E+02  0.00000000000E+00 0.  1.
         11    1    3    3    0    0 -0.55295636474E+01  0.31036533065E+01 -0.10179110354E+02  0.11992623810E+02  0.51100000000E-03 0. -1.
        -11    1    3    3    0    0 -0.63713598477E+01  0.11887861406E+00 -0.16397264772E+01  0.65800502745E+01  0.51100000000E-03 0.  1.
        -12    1    3    3    0    0 -0.76280610416E+01  0.30983924515E+02  0.17340604605E+01  0.31956186558E+02  0.00000000000E+00 0.  1.
</event>
<event>
 7    1  0.2985411E-011  0.5052886E+02  0.7816164E-02  0.1300439E+00
        -11   -1    0    0    0    0  0.00000000000E+00  0.00000000000E+00  0.45593999997E+02  0.45594000000E+02  0.51100000000E-03 0.  1.
         11   -1    0    0    0    0 -0.00000000000E+00 -0.00000000000E+00 -0.45593999997E+02  0.45594000000E+02  0.51100000000E-03 0. -1.
    9900012    2    1    2    0    0 -0.14980376404E+02 -0.37047373999E+02 -0.74997321342E+01  0.50528861058E+02  0.30000003671E+02 0.  0.
        -12    1    1    2    0    0  0.14980376404E+02  0.37047373999E+02  0.74997321342E+01  0.40659138942E+02  0.00000000000E+00 0.  1.
         11    1    3    3    0    0  0.35504312742E+00 -0.11169652620E+02 -0.33585006194E+00  0.11180339476E+02  0.51100000000E-03 0. -1.
        -11    1    3    3    0    0 -0.44729731185E+01 -0.16849680356E+02  0.75093600883E+01  0.18981825672E+02  0.51100000000E-03 0.  1.
         12    1    3    3    0    0 -0.10862446413E+02 -0.90280410230E+01 -0.14673242161E+02  0.20366695910E+02  0.00000000000E+00 0. -1.
</event>
<event>
 7    1  0.2985411E-011  0.5052886E+02  0.7816164E-02  0.1300439E+00
        -11   -1    0    0    0    0  0.00000000000E+00  0.00000000000E+00  0.45593999997E+02  0.45594000000E+02  0.51100000000E-03 0. -1.
         11   -1    0    0    0    0 -0.00000000000E+00 -0.00000000000E+00 -0.45593999997E+02  0.45594000000E+02  0.51100000000E-03 0.  1.
    9900012    2    1    2    0    0 -0.10425104830E+02 -0.38368883873E+02  0.85036088818E+01  0.50528862965E+02  0.30000009470E+02 0.  0.
        -12    1    1    2    0    0  0.10425104830E+02  0.38368883873E+02 -0.85036088818E+01  0.40659137035E+02  0.00000000000E+00 0.  1.
         11    1    3    3    0    0 -0.53114881402E+01 -0.64556143404E+01  0.42811305846E+01  0.93922809860E+01  0.51100000000E-03 0. -1.
        -11    1    3    3    0    0 -0.15158151657E+02 -0.21227757389E+02  0.44949159255E+01  0.26468689331E+02  0.51100000000E-03 0.  1.
         12    1    3    3    0    0  0.10044534968E+02 -0.10685512143E+02 -0.27243762842E+00  0.14667892649E+02  0.00000000000E+00 0. -1.
</event>
<event>
 7    1  0.2985411E-011  0.5052887E+02  0.7816164E-02  0.1300439E+00
        -11   -1    0    0    0    0  0.00000000000E+00  0.00000000000E+00  0.45593999997E+02  0.45594000000E+02  0.51100000000E-03 0.  1.
         11   -1    0    0    0    0 -0.00000000000E+00 -0.00000000000E+00 -0.45593999997E+02  0.45594000000E+02  0.51100000000E-03 0. -1.
    9900012    2    1    2    0    0  0.19794133162E+02 -0.21301518075E+02 -0.28418345866E+02  0.50528871115E+02  0.30000034241E+02 0.  0.
        -12    1    1    2    0    0 -0.19794133162E+02  0.21301518075E+02  0.28418345866E+02  0.40659128885E+02  0.00000000000E+00 0.  1.
         11    1    3    3    0    0  0.17912677912E+02 -0.46030969975E+01 -0.22102146378E+02  0.28819392893E+02  0.51100000000E-03 0. -1.
        -11    1    3    3    0    0 -0.84982223216E+00 -0.74150820435E+01 -0.89761423023E+01  0.11673764193E+02  0.51100000000E-03 0.  1.
        -12    1    3    3    0    0  0.27312774824E+01 -0.92833390339E+01  0.26599428142E+01  0.10035714029E+02  0.00000000000E+00 0.  1.
</event>
<event>
 7    1  0.2985411E-011  0.5052886E+02  0.7816164E-02  0.1300439E+00
        -11   -1    0    0    0    0  0.00000000000E+00  0.00000000000E+00  0.45593999997E+02  0.45594000000E+02  0.51100000000E-03 0.  1.
         11   -1    0    0    0    0 -0.00000000000E+00 -0.00000000000E+00 -0.45593999997E+02  0.45594000000E+02  0.51100000000E-03 0. -1.
    9900012    2    1    2    0    0 -0.88210220878E+01  0.84097841074E+01 -0.38789573727E+02  0.50528856756E+02  0.29999990595E+02 0.  0.
        -12    1    1    2    0    0  0.88210220878E+01 -0.84097841074E+01  0.38789573727E+02  0.40659143244E+02  0.00000000000E+00 0.  1.
         11    1    3    3    0    0  0.19961820883E+01  0.85147782314E+01 -0.94810618469E+01  0.12898710217E+02  0.51100000000E-03 0. -1.
        -11    1    3    3    0    0  0.19141092274E+01  0.40457768847E+01 -0.21847062229E+02  0.22300812834E+02  0.51100000000E-03 0.  1.
        -12    1    3    3    0    0 -0.12731313403E+02 -0.41507710087E+01 -0.74614496509E+01  0.15329333705E+02  0.00000000000E+00 0.  1.
</event>
<event>
 7    1  0.2985411E-011  0.5052886E+02  0.7816164E-02  0.1300439E+00
        -11   -1    0    0    0    0  0.00000000000E+00  0.00000000000E+00  0.45593999997E+02  0.45594000000E+02  0.51100000000E-03 0. -1.
         11   -1    0    0    0    0 -0.00000000000E+00 -0.00000000000E+00 -0.45593999997E+02  0.45594000000E+02  0.51100000000E-03 0.  1.
    9900012    2    1    2    0    0 -0.25544283772E+02  0.21570040561E+02  0.23138467613E+02  0.50528858756E+02  0.29999996676E+02 0.  0.
        -12    1    1    2    0    0  0.25544283772E+02 -0.21570040561E+02 -0.23138467613E+02  0.40659141244E+02  0.00000000000E+00 0.  1.
         11    1    3    3    0    0 -0.45702743247E+00  0.75257565883E+01 -0.15777647533E+01  0.77029363348E+01  0.51100000000E-03 0.  1.
        -11    1    3    3    0    0  0.30008956214E+01  0.38015680867E+01  0.52861565892E+01  0.71694313718E+01  0.51100000000E-03 0. -1.
        -12    1    3    3    0    0 -0.28088151961E+02  0.10242715886E+02  0.19430075777E+02  0.35656491050E+02  0.00000000000E+00 0.  1.
</event>
<event>
 7    1  0.2985411E-011  0.5052884E+02  0.7816164E-02  0.1300439E+00
        -11   -1    0    0    0    0  0.00000000000E+00  0.00000000000E+00  0.45593999997E+02  0.45594000000E+02  0.51100000000E-03 0. -1.
         11   -1    0    0    0    0 -0.00000000000E+00 -0.00000000000E+00 -0.45593999997E+02  0.45594000000E+02  0.51100000000E-03 0.  1.
    9900012    2    1    2    0    0  0.21129802322E+02 -0.97866510259E+01  0.33330464889E+02  0.50528843907E+02  0.29999951539E+02 0.  0.
        -12    1    1    2    0    0 -0.21129802322E+02  0.97866510259E+01 -0.33330464889E+02  0.40659156093E+02  0.00000000000E+00 0.  1.
         11    1    3    3    0    0  0.86532419412E+01 -0.62871525211E+00  0.84766894539E+01  0.12129639043E+02  0.51100000000E-03 0. -1.
        -11    1    3    3    0    0  0.16380729285E+02 -0.44136356978E+01  0.51044589193E+01  0.17716206510E+02  0.51100000000E-03 0.  1.
        -12    1    3    3    0    0 -0.39041689043E+01 -0.47443000760E+01  0.19749316516E+02  0.20682998354E+02  0.00000000000E+00 0.  1.
</event>
<event>
 7    1  0.2985411E-011  0.5052886E+02  0.7816164E-02  0.1300439E+00
        -11   -1    0    0    0    0  0.00000000000E+00  0.00000000000E+00  0.45593999997E+02  0.45594000000E+02  0.51100000000E-03 0.  1.
         11   -1    0    0    0    0 -0.00000000000E+00 -0.00000000000E+00 -0.45593999997E+02  0.45594000000E+02  0.51100000000E-03 0. -1.
    9900012    2    1    2    0    0  0.18524845104E+02 -0.48214825269E+01 -0.35871288915E+02  0.50528856522E+02  0.29999989886E+02 0.  0.
        -12    1    1    2    0    0 -0.18524845104E+02  0.48214825269E+01  0.35871288915E+02  0.40659143478E+02  0.00000000000E+00 0.  1.
         11    1    3    3    0    0  0.39954112333E+01  0.17781066159E+01 -0.28753376730E+01  0.52337884038E+01  0.51100000000E-03 0. -1.
        -11    1    3    3    0    0  0.17889207930E+02  0.52485285863E+01 -0.18342161943E+02  0.26153502972E+02  0.51100000000E-03 0.  1.
         12    1    3    3    0    0 -0.33597740592E+01 -0.11848117729E+02 -0.14653789299E+02  0.19141565147E+02  0.00000000000E+00 0. -1.
</event>
<event>
 7    1  0.2985411E-011  0.5052883E+02  0.7816164E-02  0.1300439E+00
        -11   -1    0    0    0    0  0.00000000000E+00  0.00000000000E+00  0.45593999997E+02  0.45594000000E+02  0.51100000000E-03 0. -1.
         11   -1    0    0    0    0 -0.00000000000E+00 -0.00000000000E+00 -0.45593999997E+02  0.45594000000E+02  0.51100000000E-03 0.  1.
    9900012    2    1    2    0    0 -0.32210261648E+02 -0.24797896624E+02  0.85543829084E+00  0.50528826286E+02  0.29999897980E+02 0.  0.
        -12    1    1    2    0    0  0.32210261648E+02  0.24797896624E+02 -0.85543829084E+00  0.40659173714E+02  0.00000000000E+00 0.  1.
         11    1    3    3    0    0 -0.16693542513E+02 -0.26924355641E+02 -0.95539368620E+00  0.31693975227E+02  0.51100000000E-03 0. -1.
        -11    1    3    3    0    0 -0.37408462704E+01 -0.39752176679E+01  0.76412066858E-01  0.54591322929E+01  0.51100000000E-03 0.  1.
        -12    1    3    3    0    0 -0.11775872865E+02  0.61016766853E+01  0.17344199102E+01  0.13375718767E+02  0.00000000000E+00 0.  1.
</event>
<event>
 7    1  0.2985411E-011  0.5052886E+02  0.7816164E-02  0.1300439E+00
        -11   -1    0    0    0    0  0.00000000000E+00  0.00000000000E+00  0.45593999997E+02  0.45594000000E+02  0.51100000000E-03 0.  1.
         11   -1    0    0    0    0 -0.00000000000E+00 -0.00000000000E+00 -0.45593999997E+02  0.45594000000E+02  0.51100000000E-03 0. -1.
    9900012    2    1    2    0    0 -0.40149851552E+02 -0.63273590062E+01  0.10580899410E+01  0.50528860732E+02  0.30000002682E+02 0.  0.
        -12    1    1    2    0    0  0.40149851552E+02  0.63273590062E+01 -0.10580899410E+01  0.40659139268E+02  0.00000000000E+00 0.  1.
         11    1    3    3    0    0 -0.81341148131E+01  0.46352567157E+01 -0.19666297581E+00  0.93641927148E+01  0.51100000000E-03 0. -1.
        -11    1    3    3    0    0  0.18032743511E+01  0.21757977489E+01  0.38667423226E+01  0.47893204821E+01  0.51100000000E-03 0.  1.
        -12    1    3    3    0    0 -0.33819011090E+02 -0.13138413471E+02 -0.26119894058E+01  0.36375347535E+02  0.00000000000E+00 0.  1.
</event>
<event>
 7    1  0.2985411E-011  0.5052886E+02  0.7816164E-02  0.1300439E+00
        -11   -1    0    0    0    0  0.00000000000E+00  0.00000000000E+00  0.45593999997E+02  0.45594000000E+02  0.51100000000E-03 0. -1.
         11   -1    0    0    0    0 -0.00000000000E+00 -0.00000000000E+00 -0.45593999997E+02  0.45594000000E+02  0.51100000000E-03 0.  1.
    9900012    2    1    2    0    0  0.29735388397E+02  0.26777665492E+02  0.72061883441E+01  0.50528857820E+02  0.29999993831E+02 0.  0.
        -12    1    1    2    0    0 -0.29735388397E+02 -0.26777665492E+02 -0.72061883441E+01  0.40659142180E+02  0.00000000000E+00 0.  1.
         11    1    3    3    0    0  0.25847711514E+01  0.25179189688E+01  0.41781141223E+01  0.55206517476E+01  0.51100000000E-03 0. -1.
        -11    1    3    3    0    0  0.69041086034E+01 -0.38915773927E+01  0.63750474344E+01  0.10171151374E+02  0.51100000000E-03 0.  1.
         12    1    3    3    0    0  0.20246508642E+02  0.28151323916E+02 -0.33469732126E+01  0.34837054699E+02  0.00000000000E+00 0. -1.
</event>
<event>
 7    1  0.2985411E-011  0.5052888E+02  0.7816164E-02  0.1300439E+00
        -11   -1    0    0    0    0  0.00000000000E+00  0.00000000000E+00  0.45593999997E+02  0.45594000000E+02  0.51100000000E-03 0.  1.
         11   -1    0    0    0    0 -0.00000000000E+00 -0.00000000000E+00 -0.45593999997E+02  0.45594000000E+02  0.51100000000E-03 0. -1.
    9900012    2    1    2    0    0  0.12295448862E+01 -0.11361735619E+02 -0.39020037977E+02  0.50528878260E+02  0.30000055960E+02 0.  0.
        -12    1    1    2    0    0 -0.12295448862E+01  0.11361735619E+02  0.39020037977E+02  0.40659121740E+02  0.00000000000E+00 0.  1.
         11    1    3    3    0    0  0.76088563545E+01 -0.99836442948E+01 -0.53829274083E+01  0.13658102217E+02  0.51100000000E-03 0.  1.
        -11    1    3    3    0    0  0.14146413182E+01  0.28996602526E+01 -0.21952423406E+02  0.22188243132E+02  0.51100000000E-03 0. -1.
         12    1    3    3    0    0 -0.77939527866E+01 -0.42777515766E+01 -0.11684687163E+02  0.14682532911E+02  0.00000000000E+00 0. -1.
</event>
<event>
 7    1  0.2985411E-011  0.5052886E+02  0.7816164E-02  0.1300439E+00
        -11   -1    0    0    0    0  0.00000000000E+00  0.00000000000E+00  0.45593999997E+02  0.45594000000E+02  0.51100000000E-03 0. -1.
         11   -1    0    0    0    0 -0.00000000000E+00 -0.00000000000E+00 -0.45593999997E+02  0.45594000000E+02  0.51100000000E-03 0.  1.
    9900012    2    1    2    0    0 -0.23147470846E+02  0.25087469682E+02  0.22090244550E+02  0.50528862701E+02  0.30000008667E+02 0.  0.
        -12    1    1    2    0    0  0.23147470846E+02 -0.25087469682E+02 -0.22090244550E+02  0.40659137299E+02  0.00000000000E+00 0.  1.
         11    1    3    3    0    0 -0.77181177260E+00  0.12105351772E-01  0.58948085381E-01  0.77415443533E+00  0.51100000000E-03 0. -1.
        -11    1    3    3    0    0 -0.78527178655E+01  0.51814063699E+01  0.23262523987E+02  0.25092970577E+02  0.51100000000E-03 0.  1.
         12    1    3    3    0    0 -0.14522941208E+02  0.19893957960E+02 -0.12312275231E+01  0.24661737689E+02  0.00000000000E+00 0. -1.
</event>
<event>
 7    1  0.2985411E-011  0.5052886E+02  0.7816164E-02  0.1300439E+00
        -11   -1    0    0    0    0  0.00000000000E+00  0.00000000000E+00  0.45593999997E+02  0.45594000000E+02  0.51100000000E-03 0.  1.
         11   -1    0    0    0    0 -0.00000000000E+00 -0.00000000000E+00 -0.45593999997E+02  0.45594000000E+02  0.51100000000E-03 0. -1.
    9900012    2    1    2    0    0 -0.30017764937E+02  0.17870922730E+02 -0.20802148826E+02  0.50528862198E+02  0.30000007136E+02 0.  0.
        -12    1    1    2    0    0  0.30017764937E+02 -0.17870922730E+02  0.20802148826E+02  0.40659137802E+02  0.00000000000E+00 0.  1.
         11    1    3    3    0    0 -0.16188861582E+02  0.14803771392E+02 -0.19265882183E+02  0.29195977519E+02  0.51100000000E-03 0. -1.
        -11    1    3    3    0    0  0.16285960570E+01  0.27778112402E+01 -0.45574730378E+01  0.55802438257E+01  0.51100000000E-03 0.  1.
         12    1    3    3    0    0 -0.15457499412E+02  0.28934009812E+00  0.30212063945E+01  0.15752640853E+02  0.00000000000E+00 0. -1.
</event>
<event>
 7    1  0.2985411E-011  0.5052887E+02  0.7816164E-02  0.1300439E+00
        -11   -1    0    0    0    0  0.00000000000E+00  0.00000000000E+00  0.45593999997E+02  0.45594000000E+02  0.51100000000E-03 0.  1.
         11   -1    0    0    0    0 -0.00000000000E+00 -0.00000000000E+00 -0.45593999997E+02  0.45594000000E+02  0.51100000000E-03 0. -1.
    9900012    2    1    2    0    0  0.11629897000E+01  0.24959467194E+01 -0.40565784630E+02  0.50528865998E+02  0.30000018689E+02 0.  0.
        -12    1    1    2    0    0 -0.11629897000E+01 -0.24959467194E+01  0.40565784630E+02  0.40659134002E+02  0.00000000000E+00 0.  1.
         11    1    3    3    0    0 -0.46384981018E+00 -0.93274007305E+01 -0.24431546054E+02  0.26155611327E+02  0.51100000000E-03 0. -1.
        -11    1    3    3    0    0  0.13237085445E+01  0.13858453093E+00 -0.11849443570E+02  0.11923955852E+02  0.51100000000E-03 0.  1.
        -12    1    3    3    0    0  0.30313096568E+00  0.11684762919E+02 -0.42847950068E+01  0.12449298820E+02  0.00000000000E+00 0.  1.
</event>
<event>
 7    1  0.2985411E-011  0.5052886E+02  0.7816164E-02  0.1300439E+00
        -11   -1    0    0    0    0  0.00000000000E+00  0.00000000000E+00  0.45593999997E+02  0.45594000000E+02  0.51100000000E-03 0.  1.
         11   -1    0    0    0    0 -0.00000000000E+00 -0.00000000000E+00 -0.45593999997E+02  0.45594000000E+02  0.51100000000E-03 0. -1.
    9900012    2    1    2    0    0  0.13535796632E+02 -0.18173441735E+02 -0.33759061220E+02  0.50528856017E+02  0.29999988350E+02 0.  0.
        -12    1    1    2    0    0 -0.13535796632E+02  0.18173441735E+02  0.33759061220E+02  0.40659143983E+02  0.00000000000E+00 0.  1.
         11    1    3    3    0    0  0.28822456264E+01 -0.16254419336E+02 -0.18942522041E+02  0.25126333384E+02  0.51100000000E-03 0. -1.
        -11    1    3    3    0    0  0.96722396408E+01 -0.81720431051E+01 -0.47753486036E+01  0.13532866021E+02  0.51100000000E-03 0.  1.
         12    1    3    3    0    0  0.98131136466E+00  0.62530207056E+01 -0.10041190575E+02  0.11869656613E+02  0.00000000000E+00 0. -1.
</event>
<event>
 7    1  0.2985411E-011  0.5052886E+02  0.7816164E-02  0.1300439E+00
        -11   -1    0    0    0    0  0.00000000000E+00  0.00000000000E+00  0.45593999997E+02  0.45594000000E+02  0.51100000000E-03 0. -1.
         11   -1    0    0    0    0 -0.00000000000E+00 -0.00000000000E+00 -0.45593999997E+02  0.45594000000E+02  0.51100000000E-03 0.  1.
    9900012    2    1    2    0    0 -0.26506145989E+01 -0.35536254291E+02  0.19578419407E+02  0.50528860397E+02  0.30000001663E+02 0.  0.
        -12    1    1    2    0    0  0.26506145989E+01  0.35536254291E+02 -0.19578419407E+02  0.40659139603E+02  0.00000000000E+00 0.  1.
         11    1    3    3    0    0  0.46974178902E+01  0.19043748779E+01  0.74405872282E+01  0.90030393242E+01  0.51100000000E-03 0.  1.
        -11    1    3    3    0    0 -0.35825440952E+01 -0.17240056038E+02  0.11375393435E+02  0.20963151730E+02  0.51100000000E-03 0. -1.
        -12    1    3    3    0    0 -0.37654883939E+01 -0.20200573131E+02  0.76243874315E+00  0.20562669343E+02  0.00000000000E+00 0.  1.
</event>
<event>
 7    1  0.2985411E-011  0.5052887E+02  0.7816164E-02  0.1300439E+00
        -11   -1    0    0    0    0  0.00000000000E+00  0.00000000000E+00  0.45593999997E+02  0.45594000000E+02  0.51100000000E-03 0.  1.
         11   -1    0    0    0    0 -0.00000000000E+00 -0.00000000000E+00 -0.45593999997E+02  0.45594000000E+02  0.51100000000E-03 0. -1.
    9900012    2    1    2    0    0  0.32106943018E+02 -0.20047091446E+02 -0.14846648501E+02  0.50528872647E+02  0.30000038897E+02 0.  0.
        -12    1    1    2    0    0 -0.32106943018E+02  0.20047091446E+02  0.14846648501E+02  0.40659127353E+02  0.00000000000E+00 0.  1.
         11    1    3    3    0    0  0.12515396061E+02  0.43344648641E+01  0.27448896118E+00  0.13247568406E+02  0.51100000000E-03 0. -1.
        -11    1    3    3    0    0 -0.79162246441E+00  0.41555406750E+00  0.10164528771E+01  0.13537089871E+01  0.51100000000E-03 0.  1.
         12    1    3    3    0    0  0.20383169421E+02 -0.24797110378E+02 -0.16137590340E+02  0.35927595254E+02  0.00000000000E+00 0. -1.
</event>
<event>
 7    1  0.2985411E-011  0.5052885E+02  0.7816164E-02  0.1300439E+00
        -11   -1    0    0    0    0  0.00000000000E+00  0.00000000000E+00  0.45593999997E+02  0.45594000000E+02  0.51100000000E-03 0. -1.
         11   -1    0    0    0    0 -0.00000000000E+00 -0.00000000000E+00 -0.45593999997E+02  0.45594000000E+02  0.51100000000E-03 0.  1.
    9900012    2    1    2    0    0 -0.19483059603E+01  0.39909904928E+02  0.75212826377E+01  0.50528854657E+02  0.29999984215E+02 0.  0.
        -12    1    1    2    0    0  0.19483059603E+01 -0.39909904928E+02 -0.75212826377E+01  0.40659145343E+02  0.00000000000E+00 0.  1.
         11    1    3    3    0    0 -0.29328386129E+00  0.36458749006E+02  0.69606508097E+01  0.37118419342E+02  0.51100000000E-03 0. -1.
        -11    1    3    3    0    0  0.41777456416E+01  0.57560456196E+01  0.61123228848E+00  0.71385730362E+01  0.51100000000E-03 0.  1.
        -12    1    3    3    0    0 -0.58327677406E+01 -0.23048896974E+01 -0.50600460498E-01  0.62718622784E+01  0.00000000000E+00 0.  1.
</event>
<event>
 7    1  0.2985411E-011  0.5052886E+02  0.7816164E-02  0.1300439E+00
        -11   -1    0    0    0    0  0.00000000000E+00  0.00000000000E+00  0.45593999997E+02  0.45594000000E+02  0.51100000000E-03 0.  1.
         11   -1    0    0    0    0 -0.00000000000E+00 -0.00000000000E+00 -0.45593999997E+02  0.45594000000E+02  0.51100000000E-03 0. -1.
    9900012    2    1    2    0    0  0.20013398524E+02  0.30559373436E+02 -0.17853693524E+02  0.50528858374E+02  0.29999995515E+02 0.  0.
        -12    1    1    2    0    0 -0.20013398524E+02 -0.30559373436E+02  0.17853693524E+02  0.40659141626E+02  0.00000000000E+00 0.  1.
         11    1    3    3    0    0  0.42709332081E+01  0.15438957007E+02 -0.10860226197E+02  0.19353211032E+02  0.51100000000E-03 0. -1.
        -11    1    3    3    0    0  0.23769513715E+01  0.81229677358E+01 -0.12516971876E+02  0.15109834144E+02  0.51100000000E-03 0.  1.
        -12    1    3    3    0    0  0.13365513945E+02  0.69974486928E+01  0.55235045490E+01  0.16065813198E+02  0.00000000000E+00 0.  1.
</event>
<event>
 7    1  0.2985411E-011  0.5052884E+02  0.7816164E-02  0.1300439E+00
        -11   -1    0    0    0    0  0.00000000000E+00  0.00000000000E+00  0.45593999997E+02  0.45594000000E+02  0.51100000000E-03 0.  1.
         11   -1    0    0    0    0 -0.00000000000E+00 -0.00000000000E+00 -0.45593999997E+02  0.45594000000E+02  0.51100000000E-03 0. -1.
    9900012    2    1    2    0    0 -0.26014169509E+02  0.13554296761E+02 -0.28155133808E+02  0.50528837002E+02  0.29999930551E+02 0.  0.
        -12    1    1    2    0    0  0.26014169509E+02 -0.13554296761E+02  0.28155133808E+02  0.40659162998E+02  0.00000000000E+00 0.  1.
         11    1    3    3    0    0 -0.16961427195E+02  0.35708495200E+01 -0.60212125554E+01  0.18349277361E+02  0.51100000000E-03 0. -1.
        -11    1    3    3    0    0 -0.10437694448E+02  0.13613750041E+02 -0.10978464268E+02  0.20366794876E+02  0.51100000000E-03 0.  1.
        -12    1    3    3    0    0  0.13849521341E+01 -0.36303028006E+01 -0.11155456985E+02  0.11812764765E+02  0.00000000000E+00 0.  1.
</event>
<event>
 7    1  0.2985411E-011  0.5052886E+02  0.7816164E-02  0.1300439E+00
        -11   -1    0    0    0    0  0.00000000000E+00  0.00000000000E+00  0.45593999997E+02  0.45594000000E+02  0.51100000000E-03 0.  1.
         11   -1    0    0    0    0 -0.00000000000E+00 -0.00000000000E+00 -0.45593999997E+02  0.45594000000E+02  0.51100000000E-03 0. -1.
    9900012    2    1    2    0    0 -0.22356831869E+01  0.53249604634E+01 -0.40246886041E+02  0.50528864259E+02  0.30000013401E+02 0.  0.
        -12    1    1    2    0    0  0.22356831869E+01 -0.53249604634E+01  0.40246886041E+02  0.40659135741E+02  0.00000000000E+00 0.  1.
         11    1    3    3    0    0  0.37502036717E+01 -0.60399980374E+01 -0.90931796590E+01  0.11542595914E+02  0.51100000000E-03 0. -1.
        -11    1    3    3    0    0 -0.31719753047E+01 -0.54919128356E+01 -0.80273829483E+01  0.10230415983E+02  0.51100000000E-03 0.  1.
         12    1    3    3    0    0 -0.28139115538E+01  0.16856871337E+02 -0.23126323433E+02  0.28755852361E+02  0.00000000000E+00 0. -1.
</event>
<event>
 7    1  0.2985411E-011  0.5052884E+02  0.7816164E-02  0.1300439E+00
        -11   -1    0    0    0    0  0.00000000000E+00  0.00000000000E+00  0.45593999997E+02  0.45594000000E+02  0.51100000000E-03 0.  1.
         11   -1    0    0    0    0 -0.00000000000E+00 -0.00000000000E+00 -0.45593999997E+02  0.45594000000E+02  0.51100000000E-03 0. -1.
    9900012    2    1    2    0    0 -0.68462459859E+01  0.10820251344E+02 -0.38590388213E+02  0.50528843766E+02  0.29999951110E+02 0.  0.
        -12    1    1    2    0    0  0.68462459859E+01 -0.10820251344E+02  0.38590388213E+02  0.40659156234E+02  0.00000000000E+00 0.  1.
         11    1    3    3    0    0 -0.55736527647E+00  0.11940885420E+02 -0.44984998148E+01  0.12772309952E+02  0.51100000000E-03 0. -1.
        -11    1    3    3    0    0  0.63695554900E+00  0.42258306661E+01 -0.24097327483E+02  0.24473343647E+02  0.51100000000E-03 0.  1.
         12    1    3    3    0    0 -0.69258362585E+01 -0.53464647420E+01 -0.99945609158E+01  0.13283190167E+02  0.00000000000E+00 0. -1.
</event>
<event>
 7    1  0.2985411E-011  0.5052886E+02  0.7816164E-02  0.1300439E+00
        -11   -1    0    0    0    0  0.00000000000E+00  0.00000000000E+00  0.45593999997E+02  0.45594000000E+02  0.51100000000E-03 0.  1.
         11   -1    0    0    0    0 -0.00000000000E+00 -0.00000000000E+00 -0.45593999997E+02  0.45594000000E+02  0.51100000000E-03 0. -1.
    9900012    2    1    2    0    0 -0.11430853319E+02 -0.16418296383E+01 -0.38984688657E+02  0.50528856356E+02  0.29999989380E+02 0.  0.
        -12    1    1    2    0    0  0.11430853319E+02  0.16418296383E+01  0.38984688657E+02  0.40659143644E+02  0.00000000000E+00 0.  1.
         11    1    3    3    0    0 -0.13275676688E+02  0.25922879139E+01 -0.65973666819E+01  0.15049544696E+02  0.51100000000E-03 0.  1.
        -11    1    3    3    0    0 -0.45895176760E+01  0.73852127007E+00 -0.46521874833E+01  0.65766203178E+01  0.51100000000E-03 0. -1.
         12    1    3    3    0    0  0.64343410452E+01 -0.49726388223E+01 -0.27735134492E+02  0.28902691342E+02  0.00000000000E+00 0. -1.
</event>
<event>
 7    1  0.2985411E-011  0.5052884E+02  0.7816164E-02  0.1300439E+00
        -11   -1    0    0    0    0  0.00000000000E+00  0.00000000000E+00  0.45593999997E+02  0.45594000000E+02  0.51100000000E-03 0.  1.
         11   -1    0    0    0    0 -0.00000000000E+00 -0.00000000000E+00 -0.45593999997E+02  0.45594000000E+02  0.51100000000E-03 0. -1.
    9900012    2    1    2    0    0 -0.36891629294E+02 -0.13016010596E+02 -0.11079653200E+02  0.50528836718E+02  0.29999929688E+02 0.  0.
        -12    1    1    2    0    0  0.36891629294E+02  0.13016010596E+02  0.11079653200E+02  0.40659163282E+02  0.00000000000E+00 0.  1.
         11    1    3    3    0    0 -0.21668021182E+02 -0.26073941759E+01 -0.15300585972E+02  0.26653509669E+02  0.51100000000E-03 0. -1.
        -11    1    3    3    0    0 -0.16096244882E+02 -0.34453575884E+01  0.24993117394E+01  0.16649508931E+02  0.51100000000E-03 0.  1.
         12    1    3    3    0    0  0.87263677077E+00 -0.69632588312E+01  0.17216210326E+01  0.72258181173E+01  0.00000000000E+00 0. -1.
</event>
<event>
 7    1  0.2985411E-011  0.5052885E+02  0.7816164E-02  0.1300439E+00
        -11   -1    0    0    0    0  0.00000000000E+00  0.00000000000E+00  0.45593999997E+02  0.45594000000E+02  0.51100000000E-03 0.  1.
         11   -1    0    0    0    0 -0.00000000000E+00 -0.00000000000E+00 -0.45593999997E+02  0.45594000000E+02  0.51100000000E-03 0. -1.
    9900012    2    1    2    0    0 -0.37101106741E+02 -0.14722090551E+02 -0.77417081822E+01  0.50528854446E+02  0.29999983574E+02 0.  0.
        -12    1    1    2    0    0  0.37101106741E+02  0.14722090551E+02  0.77417081822E+01  0.40659145554E+02  0.00000000000E+00 0.  1.
         11    1    3    3    0    0 -0.12917618201E+02 -0.80488309224E+01 -0.13172570423E+02  0.20128714589E+02  0.51100000000E-03 0. -1.
        -11    1    3    3    0    0 -0.74345295882E+00 -0.16400673261E+01 -0.41953196652E+01  0.45654408867E+01  0.51100000000E-03 0.  1.
         12    1    3    3    0    0 -0.23440035581E+02 -0.50331923028E+01  0.96261819060E+01  0.25834698970E+02  0.00000000000E+00 0. -1.
</event>
<event>
 7    1  0.2985411E-011  0.5052885E+02  0.7816164E-02  0.1300439E+00
        -11   -1    0    0    0    0  0.00000000000E+00  0.00000000000E+00  0.45593999997E+02  0.45594000000E+02  0.51100000000E-03 0.  1.
         11   -1    0    0    0    0 -0.00000000000E+00 -0.00000000000E+00 -0.45593999997E+02  0.45594000000E+02  0.51100000000E-03 0. -1.
    9900012    2    1    2    0    0 -0.22735521827E+02  0.38175772192E+01 -0.33491620373E+02  0.50528849937E+02  0.29999969869E+02 0.  0.
        -12    1    1    2    0    0  0.22735521827E+02 -0.38175772192E+01  0.33491620373E+02  0.40659150063E+02  0.00000000000E+00 0.  1.
         11    1    3    3    0    0 -0.12531941929E+02  0.10851712306E+00 -0.47503864018E+01  0.13402519006E+02  0.51100000000E-03 0. -1.
        -11    1    3    3    0    0 -0.12313979492E+02  0.49259830201E+01 -0.65321888239E+01  0.14784075580E+02  0.51100000000E-03 0.  1.
        -12    1    3    3    0    0  0.21103995936E+01 -0.12169229239E+01 -0.22209045148E+02  0.22342255352E+02  0.00000000000E+00 0.  1.
</event>
<event>
 7    1  0.2985411E-011  0.5052885E+02  0.7816164E-02  0.1300439E+00
        -11   -1    0    0    0    0  0.00000000000E+00  0.00000000000E+00  0.45593999997E+02  0.45594000000E+02  0.51100000000E-03 0.  1.
         11   -1    0    0    0    0 -0.00000000000E+00 -0.00000000000E+00 -0.45593999997E+02  0.45594000000E+02  0.51100000000E-03 0. -1.
    9900012    2    1    2    0    0  0.14999671144E+02  0.31608728751E+02 -0.20713865564E+02  0.50528854727E+02  0.29999984429E+02 0.  0.
        -12    1    1    2    0    0 -0.14999671144E+02 -0.31608728751E+02  0.20713865564E+02  0.40659145273E+02  0.00000000000E+00 0.  1.
         11    1    3    3    0    0  0.17464885453E+02  0.18837717924E+02 -0.87347870025E+01  0.27132606670E+02  0.51100000000E-03 0. -1.
        -11    1    3    3    0    0  0.61847530800E+01  0.25855489461E+01 -0.46169414485E+01  0.81395566595E+01  0.51100000000E-03 0.  1.
        -12    1    3    3    0    0 -0.86499673882E+01  0.10185461881E+02 -0.73621371125E+01  0.15256691398E+02  0.00000000000E+00 0.  1.
</event>
<event>
 7    1  0.2985411E-011  0.5052886E+02  0.7816164E-02  0.1300439E+00
        -11   -1    0    0    0    0  0.00000000000E+00  0.00000000000E+00  0.45593999997E+02  0.45594000000E+02  0.51100000000E-03 0.  1.
         11   -1    0    0    0    0 -0.00000000000E+00 -0.00000000000E+00 -0.45593999997E+02  0.45594000000E+02  0.51100000000E-03 0. -1.
    9900012    2    1    2    0    0 -0.32066808382E+02 -0.18195648652E+02 -0.17140706419E+02  0.50528860237E+02  0.30000001177E+02 0.  0.
        -12    1    1    2    0    0  0.32066808382E+02  0.18195648652E+02  0.17140706419E+02  0.40659139763E+02  0.00000000000E+00 0.  1.
         11    1    3    3    0    0 -0.17872771049E+02 -0.97016301733E+00 -0.17274217508E+02  0.24875203557E+02  0.51100000000E-03 0. -1.
        -11    1    3    3    0    0 -0.90773713843E+01 -0.23250277332E+01 -0.24580550038E+01  0.96874382512E+01  0.51100000000E-03 0.  1.
         12    1    3    3    0    0 -0.51166659491E+01 -0.14900457901E+02  0.25915660923E+01  0.15966218429E+02  0.00000000000E+00 0. -1.
</event>
<event>
 7    1  0.2985411E-011  0.5052885E+02  0.7816164E-02  0.1300439E+00
        -11   -1    0    0    0    0  0.00000000000E+00  0.00000000000E+00  0.45593999997E+02  0.45594000000E+02  0.51100000000E-03 0.  1.
         11   -1    0    0    0    0 -0.00000000000E+00 -0.00000000000E+00 -0.45593999997E+02  0.45594000000E+02  0.51100000000E-03 0. -1.
    9900012    2    1    2    0    0  0.35772366126E+02  0.18564121183E+02 -0.53737613671E+01  0.50528854844E+02  0.29999984784E+02 0.  0.
        -12    1    1    2    0    0 -0.35772366126E+02 -0.18564121183E+02  0.53737613671E+01  0.40659145156E+02  0.00000000000E+00 0.  1.
         11    1    3    3    0    0  0.49129515152E+01 -0.30859230441E+01  0.12897229682E+01  0.59433491586E+01  0.51100000000E-03 0. -1.
        -11    1    3    3    0    0  0.61920497561E+01  0.13338370373E+01  0.73401387711E+01  0.96952688907E+01  0.51100000000E-03 0.  1.
         12    1    3    3    0    0  0.24667364855E+02  0.20316207190E+02 -0.14003623106E+02  0.34890236795E+02  0.00000000000E+00 0. -1.
</event>
<event>
 7    1  0.2985411E-011  0.5052886E+02  0.7816164E-02  0.1300439E+00
        -11   -1    0    0    0    0  0.00000000000E+00  0.00000000000E+00  0.45593999997E+02  0.45594000000E+02  0.51100000000E-03 0.  1.
         11   -1    0    0    0    0 -0.00000000000E+00 -0.00000000000E+00 -0.45593999997E+02  0.45594000000E+02  0.51100000000E-03 0. -1.
    9900012    2    1    2    0    0 -0.16952884190E+02 -0.27246112417E+02 -0.24968281438E+02  0.50528855860E+02  0.29999987872E+02 0.  0.
        -12    1    1    2    0    0  0.16952884190E+02  0.27246112417E+02  0.24968281438E+02  0.40659144140E+02  0.00000000000E+00 0.  1.
         11    1    3    3    0    0 -0.14353929753E+02 -0.15341738923E+02 -0.12624815288E+02  0.24511022293E+02  0.51100000000E-03 0. -1.
        -11    1    3    3    0    0 -0.94765073226E+01 -0.78007828239E+01 -0.13126211297E+02  0.17970916142E+02  0.51100000000E-03 0.  1.
        -12    1    3    3    0    0  0.68775528853E+01 -0.41035906707E+01  0.78274514755E+00  0.80469174252E+01  0.00000000000E+00 0.  1.
</event>
<event>
 7    1  0.2985411E-011  0.5052885E+02  0.7816164E-02  0.1300439E+00
        -11   -1    0    0    0    0  0.00000000000E+00  0.00000000000E+00  0.45593999997E+02  0.45594000000E+02  0.51100000000E-03 0.  1.
         11   -1    0    0    0    0 -0.00000000000E+00 -0.00000000000E+00 -0.45593999997E+02  0.45594000000E+02  0.51100000000E-03 0. -1.
    9900012    2    1    2    0    0 -0.34213774391E+01  0.29935443560E+02 -0.27300728077E+02  0.50528851481E+02  0.29999974563E+02 0.  0.
        -12    1    1    2    0    0  0.34213774391E+01 -0.29935443560E+02  0.27300728077E+02  0.40659148519E+02  0.00000000000E+00 0.  1.
         11    1    3    3    0    0  0.61990424779E+01  0.14835298953E+02 -0.29151218162E+00  0.16081019939E+02  0.51100000000E-03 0. -1.
        -11    1    3    3    0    0  0.53628874084E+00  0.21479193751E+00  0.99271410006E+00  0.11485742186E+01  0.51100000000E-03 0.  1.
         12    1    3    3    0    0 -0.10156708658E+02  0.14885352670E+02 -0.28001929995E+02  0.33299257324E+02  0.00000000000E+00 0. -1.
</event>
<event>
 7    1  0.2985411E-011  0.5052886E+02  0.7816164E-02  0.1300439E+00
        -11   -1    0    0    0    0  0.00000000000E+00  0.00000000000E+00  0.45593999997E+02  0.45594000000E+02  0.51100000000E-03 0.  1.
         11   -1    0    0    0    0 -0.00000000000E+00 -0.00000000000E+00 -0.45593999997E+02  0.45594000000E+02  0.51100000000E-03 0. -1.
    9900012    2    1    2    0    0 -0.90618675689E+01  0.26578997128E+02 -0.29404167525E+02  0.50528860806E+02  0.30000002907E+02 0.  0.
        -12    1    1    2    0    0  0.90618675689E+01 -0.26578997128E+02  0.29404167525E+02  0.40659139194E+02  0.00000000000E+00 0.  1.
         11    1    3    3    0    0  0.58630028683E+00  0.53391611356E+01 -0.17982073453E+02  0.18767134986E+02  0.51100000000E-03 0. -1.
        -11    1    3    3    0    0  0.29377771376E+01 -0.19304251586E+00  0.19563488197E+01  0.35348409990E+01  0.51100000000E-03 0.  1.
        -12    1    3    3    0    0 -0.12585944993E+02  0.21432878508E+02 -0.13378442891E+02  0.28226884821E+02  0.00000000000E+00 0.  1.
</event>
<event>
 7    1  0.2985411E-011  0.5052886E+02  0.7816164E-02  0.1300439E+00
        -11   -1    0    0    0    0  0.00000000000E+00  0.00000000000E+00  0.45593999997E+02  0.45594000000E+02  0.51100000000E-03 0. -1.
         11   -1    0    0    0    0 -0.00000000000E+00 -0.00000000000E+00 -0.45593999997E+02  0.45594000000E+02  0.51100000000E-03 0.  1.
    9900012    2    1    2    0    0 -0.19715320296E+02  0.10835042173E+02  0.33868470241E+02  0.50528864867E+02  0.30000015250E+02 0.  0.
        -12    1    1    2    0    0  0.19715320296E+02 -0.10835042173E+02 -0.33868470241E+02  0.40659135133E+02  0.00000000000E+00 0.  1.
         11    1    3    3    0    0 -0.56684116578E+01 -0.44604300083E+01  0.16523198729E+02  0.18028932944E+02  0.51100000000E-03 0. -1.
        -11    1    3    3    0    0 -0.49513495873E+01  0.74316936370E+01 -0.25204439370E+01  0.92789315630E+01  0.51100000000E-03 0.  1.
         12    1    3    3    0    0 -0.90955590510E+01  0.78637785445E+01  0.19865715449E+02  0.23221000360E+02  0.00000000000E+00 0. -1.
</event>
<event>
 7    1  0.2985411E-011  0.5052885E+02  0.7816164E-02  0.1300439E+00
        -11   -1    0    0    0    0  0.00000000000E+00  0.00000000000E+00  0.45593999997E+02  0.45594000000E+02  0.51100000000E-03 0. -1.
         11   -1    0    0    0    0 -0.00000000000E+00 -0.00000000000E+00 -0.45593999997E+02  0.45594000000E+02  0.51100000000E-03 0.  1.
    9900012    2    1    2    0    0 -0.28296763481E+02 -0.28982294508E+02 -0.35336115051E+01  0.50528848155E+02  0.29999964452E+02 0.  0.
        -12    1    1    2    0    0  0.28296763481E+02  0.28982294508E+02  0.35336115051E+01  0.40659151845E+02  0.00000000000E+00 0.  1.
         11    1    3    3    0    0 -0.68939459328E+01  0.16490947254E+01  0.46816804018E+01  0.84949476504E+01  0.51100000000E-03 0.  1.
        -11    1    3    3    0    0 -0.55218257322E+01  0.11825768924E+01 -0.15647585582E+01  0.58598222781E+01  0.51100000000E-03 0. -1.
         12    1    3    3    0    0 -0.15880991816E+02 -0.31813966126E+02 -0.66505333486E+01  0.36174078227E+02  0.00000000000E+00 0. -1.
</event>
<event>
 7    1  0.2985411E-011  0.5052887E+02  0.7816164E-02  0.1300439E+00
        -11   -1    0    0    0    0  0.00000000000E+00  0.00000000000E+00  0.45593999997E+02  0.45594000000E+02  0.51100000000E-03 0.  1.
         11   -1    0    0    0    0 -0.00000000000E+00 -0.00000000000E+00 -0.45593999997E+02  0.45594000000E+02  0.51100000000E-03 0. -1.
    9900012    2    1    2    0    0  0.16785577813E+02 -0.18485086447E+01 -0.36986375850E+02  0.50528873038E+02  0.30000040088E+02 0.  0.
        -12    1    1    2    0    0 -0.16785577813E+02  0.18485086447E+01  0.36986375850E+02  0.40659126962E+02  0.00000000000E+00 0.  1.
         11    1    3    3    0    0  0.11162648599E+02 -0.17544539337E+01 -0.78683732339E+01  0.13769318427E+02  0.51100000000E-03 0. -1.
        -11    1    3    3    0    0  0.13423507924E+02 -0.32256921571E+01 -0.15505619289E+02  0.20761018392E+02  0.51100000000E-03 0.  1.
         12    1    3    3    0    0 -0.78005787096E+01  0.31316374461E+01 -0.13612383327E+02  0.15998536219E+02  0.00000000000E+00 0. -1.
</event>
<event>
 7    1  0.2985411E-011  0.5052885E+02  0.7816164E-02  0.1300439E+00
        -11   -1    0    0    0    0  0.00000000000E+00  0.00000000000E+00  0.45593999997E+02  0.45594000000E+02  0.51100000000E-03 0.  1.
         11   -1    0    0    0    0 -0.00000000000E+00 -0.00000000000E+00 -0.45593999997E+02  0.45594000000E+02  0.51100000000E-03 0. -1.
    9900012    2    1    2    0    0 -0.26808871550E+02  0.29925920006E+02  0.62362175886E+01  0.50528847380E+02  0.29999962095E+02 0.  0.
        -12    1    1    2    0    0  0.26808871550E+02 -0.29925920006E+02 -0.62362175886E+01  0.40659152620E+02  0.00000000000E+00 0.  1.
         11    1    3    3    0    0 -0.24039024115E+02  0.26669500229E+02  0.89673161458E+01  0.37007427390E+02  0.51100000000E-03 0. -1.
        -11    1    3    3    0    0 -0.27789579290E+01 -0.39602384591E+01  0.16110307125E+01  0.50991681716E+01  0.51100000000E-03 0.  1.
        -12    1    3    3    0    0  0.91104943596E-02  0.72166582362E+01 -0.43421292697E+01  0.84222518185E+01  0.00000000000E+00 0.  1.
</event>
<event>
 7    1  0.2985411E-011  0.5052887E+02  0.7816164E-02  0.1300439E+00
        -11   -1    0    0    0    0  0.00000000000E+00  0.00000000000E+00  0.45593999997E+02  0.45594000000E+02  0.51100000000E-03 0. -1.
         11   -1    0    0    0    0 -0.00000000000E+00 -0.00000000000E+00 -0.45593999997E+02  0.45594000000E+02  0.51100000000E-03 0.  1.
    9900012    2    1    2    0    0 -0.20661554248E+02  0.34520119998E+02 -0.58844460023E+01  0.50528865560E+02  0.30000017357E+02 0.  0.
        -12    1    1    2    0    0  0.20661554248E+02 -0.34520119998E+02  0.58844460023E+01  0.40659134440E+02  0.00000000000E+00 0.  1.
         11    1    3    3    0    0  0.21806705150E+01 -0.71192176165E+00 -0.16583563283E+01  0.28306010779E+01  0.51100000000E-03 0. -1.
        -11    1    3    3    0    0  0.22855098196E+01  0.99526328748E+01  0.42502056229E+01  0.11060863636E+02  0.51100000000E-03 0.  1.
         12    1    3    3    0    0 -0.25127734583E+02  0.25279408885E+02 -0.84762952968E+01  0.36637400846E+02  0.00000000000E+00 0. -1.
</event>
<event>
 7    1  0.2985411E-011  0.5052883E+02  0.7816164E-02  0.1300439E+00
        -11   -1    0    0    0    0  0.00000000000E+00  0.00000000000E+00  0.45593999997E+02  0.45594000000E+02  0.51100000000E-03 0. -1.
         11   -1    0    0    0    0 -0.00000000000E+00 -0.00000000000E+00 -0.45593999997E+02  0.45594000000E+02  0.51100000000E-03 0.  1.
    9900012    2    1    2    0    0 -0.29736525454E+02  0.25909861578E+02 -0.98785564579E+01  0.50528834357E+02  0.29999922512E+02 0.  0.
        -12    1    1    2    0    0  0.29736525454E+02 -0.25909861578E+02  0.98785564579E+01  0.40659165643E+02  0.00000000000E+00 0.  1.
         11    1    3    3    0    0 -0.64215152639E+01  0.72566021285E+00  0.29013066071E+00  0.64688961262E+01  0.51100000000E-03 0. -1.
        -11    1    3    3    0    0 -0.26839710388E+02  0.14932146597E+02 -0.25702277092E+01  0.30821179836E+02  0.51100000000E-03 0.  1.
        -12    1    3    3    0    0  0.35247001980E+01  0.10252054768E+02 -0.75984594094E+01  0.13238758395E+02  0.00000000000E+00 0.  1.
</event>
<event>
 7    1  0.2985411E-011  0.5052885E+02  0.7816164E-02  0.1300439E+00
        -11   -1    0    0    0    0  0.00000000000E+00  0.00000000000E+00  0.45593999997E+02  0.45594000000E+02  0.51100000000E-03 0.  1.
         11   -1    0    0    0    0 -0.00000000000E+00 -0.00000000000E+00 -0.45593999997E+02  0.45594000000E+02  0.51100000000E-03 0. -1.
    9900012    2    1    2    0    0 -0.64429342222E+01  0.21114696274E+02 -0.34144169702E+02  0.50528854352E+02  0.29999983290E+02 0.  0.
        -12    1    1    2    0    0  0.64429342222E+01 -0.21114696274E+02  0.34144169702E+02  0.40659145648E+02  0.00000000000E+00 0.  1.
         11    1    3    3    0    0  0.73379097141E+00 -0.31296909036E+01 -0.11785505953E+02  0.12216037213E+02  0.51100000000E-03 0. -1.
        -11    1    3    3    0    0 -0.31655220504E+01 -0.23245212251E+01 -0.11830206013E+01  0.41016419617E+01  0.51100000000E-03 0.  1.
        -12    1    3    3    0    0 -0.40112031432E+01  0.26568908402E+02 -0.21175643148E+02  0.34211175178E+02  0.00000000000E+00 0.  1.
</event>
<event>
 7    1  0.2985411E-011  0.5052886E+02  0.7816164E-02  0.1300439E+00
        -11   -1    0    0    0    0  0.00000000000E+00  0.00000000000E+00  0.45593999997E+02  0.45594000000E+02  0.51100000000E-03 0. -1.
         11   -1    0    0    0    0 -0.00000000000E+00 -0.00000000000E+00 -0.45593999997E+02  0.45594000000E+02  0.51100000000E-03 0.  1.
    9900012    2    1    2    0    0  0.18278544307E+01  0.38618192667E+02  0.12588091353E+02  0.50528857109E+02  0.29999991669E+02 0.  0.
        -12    1    1    2    0    0 -0.18278544307E+01 -0.38618192667E+02 -0.12588091353E+02  0.40659142891E+02  0.00000000000E+00 0.  1.
         11    1    3    3    0    0  0.61342771579E+01  0.96798422506E+01  0.46466023221E+01  0.12366067105E+02  0.51100000000E-03 0. -1.
        -11    1    3    3    0    0  0.90588517062E+01  0.95099458062E+01  0.61804175042E+01  0.14515489115E+02  0.51100000000E-03 0.  1.
         12    1    3    3    0    0 -0.13365274433E+02  0.19428404611E+02  0.17610715267E+01  0.23647300889E+02  0.00000000000E+00 0. -1.
</event>
<event>
 7    1  0.2985411E-011  0.5052886E+02  0.7816164E-02  0.1300439E+00
        -11   -1    0    0    0    0  0.00000000000E+00  0.00000000000E+00  0.45593999997E+02  0.45594000000E+02  0.51100000000E-03 0. -1.
         11   -1    0    0    0    0 -0.00000000000E+00 -0.00000000000E+00 -0.45593999997E+02  0.45594000000E+02  0.51100000000E-03 0.  1.
    9900012    2    1    2    0    0  0.33545857136E+02 -0.97236729278E+01  0.20815643294E+02  0.50528863856E+02  0.30000012177E+02 0.  0.
        -12    1    1    2    0    0 -0.33545857136E+02  0.97236729278E+01 -0.20815643294E+02  0.40659136144E+02  0.00000000000E+00 0.  1.
         11    1    3    3    0    0  0.16668997260E+02 -0.10476521434E+02  0.35269293770E+01  0.20001305010E+02  0.51100000000E-03 0. -1.
        -11    1    3    3    0    0  0.59355176504E+00 -0.29728879111E+01 -0.29878933030E+01  0.42565094715E+01  0.51100000000E-03 0.  1.
        -12    1    3    3    0    0  0.16283308111E+02  0.37257364174E+01  0.20276607220E+02  0.26271049375E+02  0.00000000000E+00 0.  1.
</event>
<event>
 7    1  0.2985411E-011  0.5052884E+02  0.7816164E-02  0.1300439E+00
        -11   -1    0    0    0    0  0.00000000000E+00  0.00000000000E+00  0.45593999997E+02  0.45594000000E+02  0.51100000000E-03 0.  1.
         11   -1    0    0    0    0 -0.00000000000E+00 -0.00000000000E+00 -0.45593999997E+02  0.45594000000E+02  0.51100000000E-03 0. -1.
    9900012    2    1    2    0    0  0.45324192691E+01 -0.19071315300E+02 -0.35621750193E+02  0.50528843854E+02  0.29999951379E+02 0.  0.
        -12    1    1    2    0    0 -0.45324192691E+01  0.19071315300E+02  0.35621750193E+02  0.40659156146E+02  0.00000000000E+00 0.  1.
         11    1    3    3    0    0 -0.58318278378E+01  0.23572957624E+01 -0.81827301647E+01  0.10321052875E+02  0.51100000000E-03 0. -1.
        -11    1    3    3    0    0 -0.47708988944E+01 -0.36209623860E+01 -0.48828296492E+01  0.77275397447E+01  0.51100000000E-03 0.  1.
         12    1    3    3    0    0  0.15135146001E+02 -0.17807648676E+02 -0.22556190379E+02  0.32480251235E+02  0.00000000000E+00 0. -1.
</event>
<event>
 7    1  0.2985411E-011  0.5052886E+02  0.7816164E-02  0.1300439E+00
        -11   -1    0    0    0    0  0.00000000000E+00  0.00000000000E+00  0.45593999997E+02  0.45594000000E+02  0.51100000000E-03 0. -1.
         11   -1    0    0    0    0 -0.00000000000E+00 -0.00000000000E+00 -0.45593999997E+02  0.45594000000E+02  0.51100000000E-03 0.  1.
    9900012    2    1    2    0    0  0.18560681070E+02  0.22501790302E+02  0.28325536692E+02  0.50528862313E+02  0.30000007485E+02 0.  0.
        -12    1    1    2    0    0 -0.18560681070E+02 -0.22501790302E+02 -0.28325536692E+02  0.40659137687E+02  0.00000000000E+00 0.  1.
         11    1    3    3    0    0  0.12199205199E+02  0.24709624360E+02  0.11187363998E+02  0.29741271946E+02  0.51100000000E-03 0. -1.
        -11    1    3    3    0    0 -0.93431904651E+00  0.24488141164E+01  0.18121683305E+01  0.31864709283E+01  0.51100000000E-03 0.  1.
        -12    1    3    3    0    0  0.72957949185E+01 -0.46566481747E+01  0.15326004364E+02  0.17601119438E+02  0.00000000000E+00 0.  1.
</event>
<event>
 7    1  0.2985411E-011  0.5052886E+02  0.7816164E-02  0.1300439E+00
        -11   -1    0    0    0    0  0.00000000000E+00  0.00000000000E+00  0.45593999997E+02  0.45594000000E+02  0.51100000000E-03 0.  1.
         11   -1    0    0    0    0 -0.00000000000E+00 -0.00000000000E+00 -0.45593999997E+02  0.45594000000E+02  0.51100000000E-03 0. -1.
    9900012    2    1    2    0    0 -0.31455786736E+02  0.11648928830E+02 -0.22978292158E+02  0.50528856224E+02  0.29999988979E+02 0.  0.
        -12    1    1    2    0    0  0.31455786736E+02 -0.11648928830E+02  0.22978292158E+02  0.40659143776E+02  0.00000000000E+00 0.  1.
         11    1    3    3    0    0 -0.14152087698E+02  0.54813463200E+01 -0.84778980288E+01  0.17383943711E+02  0.51100000000E-03 0. -1.
        -11    1    3    3    0    0 -0.27753032615E+01  0.13312628003E+02 -0.71545651690E+01  0.15366072223E+02  0.51100000000E-03 0.  1.
         12    1    3    3    0    0 -0.14528395777E+02 -0.71450454934E+01 -0.73458289605E+01  0.17778840290E+02  0.00000000000E+00 0. -1.
</event>
<event>
 7    1  0.2985411E-011  0.5052889E+02  0.7816164E-02  0.1300439E+00
        -11   -1    0    0    0    0  0.00000000000E+00  0.00000000000E+00  0.45593999997E+02  0.45594000000E+02  0.51100000000E-03 0. -1.
         11   -1    0    0    0    0 -0.00000000000E+00 -0.00000000000E+00 -0.45593999997E+02  0.45594000000E+02  0.51100000000E-03 0.  1.
    9900012    2    1    2    0    0  0.23247443305E+02  0.32899841575E+02  0.55063781300E+01  0.50528887910E+02  0.30000085290E+02 0.  0.
        -12    1    1    2    0    0 -0.23247443305E+02 -0.32899841575E+02 -0.55063781300E+01  0.40659112090E+02  0.00000000000E+00 0.  1.
         11    1    3    3    0    0  0.15192372643E+02  0.34678664846E+02 -0.83370299390E+00  0.37869685013E+02  0.51100000000E-03 0. -1.
        -11    1    3    3    0    0 -0.11197359356E+01  0.25649815162E+00 -0.25682268471E+00  0.11770972856E+01  0.51100000000E-03 0.  1.
        -12    1    3    3    0    0  0.91748065974E+01 -0.20353214234E+01  0.65969038086E+01  0.11482105611E+02  0.00000000000E+00 0.  1.
</event>
<event>
 7    1  0.2985411E-011  0.5052887E+02  0.7816164E-02  0.1300439E+00
        -11   -1    0    0    0    0  0.00000000000E+00  0.00000000000E+00  0.45593999997E+02  0.45594000000E+02  0.51100000000E-03 0. -1.
         11   -1    0    0    0    0 -0.00000000000E+00 -0.00000000000E+00 -0.45593999997E+02  0.45594000000E+02  0.51100000000E-03 0.  1.
    9900012    2    1    2    0    0 -0.10975074321E+02  0.11228447139E+02  0.37505130650E+02  0.50528866873E+02  0.30000021348E+02 0.  0.
        -12    1    1    2    0    0  0.10975074321E+02 -0.11228447139E+02 -0.37505130650E+02  0.40659133127E+02  0.00000000000E+00 0.  1.
         11    1    3    3    0    0 -0.94194063855E+01 -0.57545119738E+00  0.72981194639E+01  0.11929748895E+02  0.51100000000E-03 0. -1.
        -11    1    3    3    0    0 -0.97486452745E+01  0.21829354420E+01  0.19995411919E+02  0.22352131664E+02  0.51100000000E-03 0.  1.
        -12    1    3    3    0    0  0.81929773388E+01  0.96209628947E+01  0.10211599267E+02  0.16246986314E+02  0.00000000000E+00 0.  1.
</event>
<event>
 7    1  0.2985411E-011  0.5052885E+02  0.7816164E-02  0.1300439E+00
        -11   -1    0    0    0    0  0.00000000000E+00  0.00000000000E+00  0.45593999997E+02  0.45594000000E+02  0.51100000000E-03 0.  1.
         11   -1    0    0    0    0 -0.00000000000E+00 -0.00000000000E+00 -0.45593999997E+02  0.45594000000E+02  0.51100000000E-03 0. -1.
    9900012    2    1    2    0    0  0.28871691421E+02 -0.20387489430E+02 -0.20098309060E+02  0.50528851978E+02  0.29999976073E+02 0.  0.
        -12    1    1    2    0    0 -0.28871691421E+02  0.20387489430E+02  0.20098309060E+02  0.40659148022E+02  0.00000000000E+00 0.  1.
         11    1    3    3    0    0  0.19854108959E+02 -0.14451218305E+02 -0.35929944034E+01  0.24817996738E+02  0.51100000000E-03 0. -1.
        -11    1    3    3    0    0  0.28253081856E+01 -0.19241433382E+01  0.31920131864E+01  0.46769265947E+01  0.51100000000E-03 0.  1.
        -12    1    3    3    0    0  0.61922742765E+01 -0.40121277868E+01 -0.19697327843E+02  0.21033928645E+02  0.00000000000E+00 0.  1.
</event>
<event>
 7    1  0.2985411E-011  0.5052886E+02  0.7816164E-02  0.1300439E+00
        -11   -1    0    0    0    0  0.00000000000E+00  0.00000000000E+00  0.45593999997E+02  0.45594000000E+02  0.51100000000E-03 0.  1.
         11   -1    0    0    0    0 -0.00000000000E+00 -0.00000000000E+00 -0.45593999997E+02  0.45594000000E+02  0.51100000000E-03 0. -1.
    9900012    2    1    2    0    0 -0.35520773112E+00  0.14834066001E+02 -0.37854855980E+02  0.50528858250E+02  0.29999995135E+02 0.  0.
        -12    1    1    2    0    0  0.35520773112E+00 -0.14834066001E+02  0.37854855980E+02  0.40659141750E+02  0.00000000000E+00 0.  1.
         11    1    3    3    0    0 -0.21299495813E+00  0.11919167507E+01 -0.65052886583E+01  0.66170093835E+01  0.51100000000E-03 0. -1.
        -11    1    3    3    0    0 -0.12855777404E+02  0.51524527796E+01 -0.21985805669E+02  0.25984503718E+02  0.51100000000E-03 0.  1.
        -12    1    3    3    0    0  0.12713564631E+02  0.84896964702E+01 -0.93637616523E+01  0.17927345148E+02  0.00000000000E+00 0.  1.
</event>
<event>
 7    1  0.2985411E-011  0.5052886E+02  0.7816164E-02  0.1300439E+00
        -11   -1    0    0    0    0  0.00000000000E+00  0.00000000000E+00  0.45593999997E+02  0.45594000000E+02  0.51100000000E-03 0.  1.
         11   -1    0    0    0    0 -0.00000000000E+00 -0.00000000000E+00 -0.45593999997E+02  0.45594000000E+02  0.51100000000E-03 0. -1.
    9900012    2    1    2    0    0 -0.32721510172E+02 -0.23523774373E+02 -0.53944590381E+01  0.50528863548E+02  0.30000011240E+02 0.  0.
        -12    1    1    2    0    0  0.32721510172E+02  0.23523774373E+02  0.53944590381E+01  0.40659136452E+02  0.00000000000E+00 0.  1.
         11    1    3    3    0    0 -0.15298900028E+02 -0.18221897855E+02 -0.44016874824E+01  0.24196461652E+02  0.51100000000E-03 0. -1.
        -11    1    3    3    0    0 -0.15044674439E+02 -0.34012772707E+01 -0.89359466224E+01  0.17825881699E+02  0.51100000000E-03 0.  1.
        -12    1    3    3    0    0 -0.23779357049E+01 -0.19005992477E+01  0.79431750668E+01  0.85065201968E+01  0.00000000000E+00 0.  1.
</event>
<event>
 7    1  0.2985411E-011  0.5052885E+02  0.7816164E-02  0.1300439E+00
        -11   -1    0    0    0    0  0.00000000000E+00  0.00000000000E+00  0.45593999997E+02  0.45594000000E+02  0.51100000000E-03 0.  1.
         11   -1    0    0    0    0 -0.00000000000E+00 -0.00000000000E+00 -0.45593999997E+02  0.45594000000E+02  0.51100000000E-03 0. -1.
    9900012    2    1    2    0    0  0.33378962884E+02 -0.23210996516E+02 -0.51076485546E+00  0.50528850929E+02  0.29999972883E+02 0.  0.
        -12    1    1    2    0    0 -0.33378962884E+02  0.23210996516E+02  0.51076485546E+00  0.40659149071E+02  0.00000000000E+00 0.  1.
         11    1    3    3    0    0  0.20961008337E+02  0.39510553340E-01  0.47260916174E+01  0.21487237464E+02  0.51100000000E-03 0. -1.
        -11    1    3    3    0    0  0.12776434243E+01 -0.10723156013E+01  0.25347828290E+01  0.30343628193E+01  0.51100000000E-03 0.  1.
         12    1    3    3    0    0  0.11140311122E+02 -0.22178191468E+02 -0.77716393018E+01  0.26007250645E+02  0.00000000000E+00 0. -1.
</event>
<event>
 7    1  0.2985411E-011  0.5052888E+02  0.7816164E-02  0.1300439E+00
        -11   -1    0    0    0    0  0.00000000000E+00  0.00000000000E+00  0.45593999997E+02  0.45594000000E+02  0.51100000000E-03 0.  1.
         11   -1    0    0    0    0 -0.00000000000E+00 -0.00000000000E+00 -0.45593999997E+02  0.45594000000E+02  0.51100000000E-03 0. -1.
    9900012    2    1    2    0    0  0.35535512177E+02 -0.16493711299E+02 -0.10878829655E+02  0.50528879587E+02  0.30000059993E+02 0.  0.
        -12    1    1    2    0    0 -0.35535512177E+02  0.16493711299E+02  0.10878829655E+02  0.40659120413E+02  0.00000000000E+00 0.  1.
         11    1    3    3    0    0  0.10141161697E+02  0.14376528182E+01  0.52918846634E+01  0.11528835576E+02  0.51100000000E-03 0. -1.
        -11    1    3    3    0    0 -0.64150789417E+00 -0.65314120259E+01 -0.57570909421E+01  0.87301186594E+01  0.51100000000E-03 0.  1.
        -12    1    3    3    0    0  0.26035858374E+02 -0.11399952091E+02 -0.10413623377E+02  0.30269925351E+02  0.00000000000E+00 0.  1.
</event>
<event>
 7    1  0.2985411E-011  0.5052887E+02  0.7816164E-02  0.1300439E+00
        -11   -1    0    0    0    0  0.00000000000E+00  0.00000000000E+00  0.45593999997E+02  0.45594000000E+02  0.51100000000E-03 0. -1.
         11   -1    0    0    0    0 -0.00000000000E+00 -0.00000000000E+00 -0.45593999997E+02  0.45594000000E+02  0.51100000000E-03 0.  1.
    9900012    2    1    2    0    0 -0.51637576570E+01 -0.50232050595E+01  0.40015848142E+02  0.50528867143E+02  0.30000022167E+02 0.  0.
        -12    1    1    2    0    0  0.51637576570E+01  0.50232050595E+01 -0.40015848142E+02  0.40659132857E+02  0.00000000000E+00 0.  1.
         11    1    3    3    0    0 -0.39554577036E+01 -0.81805367725E+01  0.14879516071E+02  0.17434644428E+02  0.51100000000E-03 0. -1.
        -11    1    3    3    0    0  0.93983604564E+01 -0.21368140537E+01  0.12198695994E+02  0.15546811178E+02  0.51100000000E-03 0.  1.
        -12    1    3    3    0    0 -0.10606660410E+02  0.52941457667E+01  0.12937636076E+02  0.17547411538E+02  0.00000000000E+00 0.  1.
</event>
<event>
 7    1  0.2985411E-011  0.5052885E+02  0.7816164E-02  0.1300439E+00
        -11   -1    0    0    0    0  0.00000000000E+00  0.00000000000E+00  0.45593999997E+02  0.45594000000E+02  0.51100000000E-03 0.  1.
         11   -1    0    0    0    0 -0.00000000000E+00 -0.00000000000E+00 -0.45593999997E+02  0.45594000000E+02  0.51100000000E-03 0. -1.
    9900012    2    1    2    0    0 -0.21323136453E+02 -0.21310946898E+02 -0.27282479993E+02  0.50528851946E+02  0.29999975976E+02 0.  0.
        -12    1    1    2    0    0  0.21323136453E+02  0.21310946898E+02  0.27282479993E+02  0.40659148054E+02  0.00000000000E+00 0.  1.
         11    1    3    3    0    0 -0.12113640856E+02 -0.12807712590E+02 -0.17026506055E+02  0.24508767927E+02  0.51100000000E-03 0. -1.
        -11    1    3    3    0    0 -0.84403891578E+00 -0.66084550052E+01 -0.14860084655E+02  0.16285152608E+02  0.51100000000E-03 0.  1.
        -12    1    3    3    0    0 -0.83654566810E+01 -0.18947793029E+01  0.46041107176E+01  0.97349314116E+01  0.00000000000E+00 0.  1.
</event>
<event>
 7    1  0.2985411E-011  0.5052887E+02  0.7816164E-02  0.1300439E+00
        -11   -1    0    0    0    0  0.00000000000E+00  0.00000000000E+00  0.45593999997E+02  0.45594000000E+02  0.51100000000E-03 0.  1.
         11   -1    0    0    0    0 -0.00000000000E+00 -0.00000000000E+00 -0.45593999997E+02  0.45594000000E+02  0.51100000000E-03 0. -1.
    9900012    2    1    2    0    0 -0.30960616669E+02  0.64517248791E+00 -0.26347470786E+02  0.50528865124E+02  0.30000016030E+02 0.  0.
        -12    1    1    2    0    0  0.30960616669E+02 -0.64517248791E+00  0.26347470786E+02  0.40659134876E+02  0.00000000000E+00 0.  1.
         11    1    3    3    0    0 -0.15285053818E+02  0.11202571807E+02 -0.32500749360E+01  0.19227414612E+02  0.51100000000E-03 0. -1.
        -11    1    3    3    0    0 -0.59331680925E+01 -0.46852381139E+00 -0.26705716596E+01  0.65233389784E+01  0.51100000000E-03 0.  1.
        -12    1    3    3    0    0 -0.97423947585E+01 -0.10088875508E+02 -0.20426824191E+02  0.24778111533E+02  0.00000000000E+00 0.  1.
</event>
<event>
 7    1  0.2985411E-011  0.5052887E+02  0.7816164E-02  0.1300439E+00
        -11   -1    0    0    0    0  0.00000000000E+00  0.00000000000E+00  0.45593999997E+02  0.45594000000E+02  0.51100000000E-03 0. -1.
         11   -1    0    0    0    0 -0.00000000000E+00 -0.00000000000E+00 -0.45593999997E+02  0.45594000000E+02  0.51100000000E-03 0.  1.
    9900012    2    1    2    0    0 -0.15655947029E+02  0.30536912073E+02  0.21807179262E+02  0.50528871336E+02  0.30000034913E+02 0.  0.
        -12    1    1    2    0    0  0.15655947029E+02 -0.30536912073E+02 -0.21807179262E+02  0.40659128664E+02  0.00000000000E+00 0.  1.
         11    1    3    3    0    0  0.32806903042E+00  0.21144542161E+02  0.22333073697E+02  0.30756551717E+02  0.51100000000E-03 0. -1.
        -11    1    3    3    0    0 -0.33591283534E+01  0.34955553997E+01  0.25865437107E+01  0.54948029515E+01  0.51100000000E-03 0.  1.
        -12    1    3    3    0    0 -0.12624887706E+02  0.58968145120E+01 -0.31124381456E+01  0.14277516668E+02  0.00000000000E+00 0.  1.
</event>
<event>
 7    1  0.2985411E-011  0.5052886E+02  0.7816164E-02  0.1300439E+00
        -11   -1    0    0    0    0  0.00000000000E+00  0.00000000000E+00  0.45593999997E+02  0.45594000000E+02  0.51100000000E-03 0.  1.
         11   -1    0    0    0    0 -0.00000000000E+00 -0.00000000000E+00 -0.45593999997E+02  0.45594000000E+02  0.51100000000E-03 0. -1.
    9900012    2    1    2    0    0  0.19083565824E+02  0.16334576996E+02 -0.31971309710E+02  0.50528861608E+02  0.30000005345E+02 0.  0.
        -12    1    1    2    0    0 -0.19083565824E+02 -0.16334576996E+02  0.31971309710E+02  0.40659138392E+02  0.00000000000E+00 0.  1.
         11    1    3    3    0    0  0.63404837670E+01  0.92236560838E+00 -0.22460467319E+01  0.67894932725E+01  0.51100000000E-03 0. -1.
        -11    1    3    3    0    0  0.14736523989E+02 -0.13719944431E+01 -0.17266916145E+02  0.22741897490E+02  0.51100000000E-03 0.  1.
         12    1    3    3    0    0 -0.19934419321E+01  0.16784205831E+02 -0.12458346833E+02  0.20997470845E+02  0.00000000000E+00 0. -1.
</event>
<event>
 7    1  0.2985411E-011  0.5052885E+02  0.7816164E-02  0.1300439E+00
        -11   -1    0    0    0    0  0.00000000000E+00  0.00000000000E+00  0.45593999997E+02  0.45594000000E+02  0.51100000000E-03 0.  1.
         11   -1    0    0    0    0 -0.00000000000E+00 -0.00000000000E+00 -0.45593999997E+02  0.45594000000E+02  0.51100000000E-03 0. -1.
    9900012    2    1    2    0    0  0.21466799985E+02 -0.20229413005E+02 -0.27984173996E+02  0.50528847939E+02  0.29999963796E+02 0.  0.
        -12    1    1    2    0    0 -0.21466799985E+02  0.20229413005E+02  0.27984173996E+02  0.40659152061E+02  0.00000000000E+00 0.  1.
         11    1    3    3    0    0  0.52794905791E+01  0.22581944056E+01  0.28128919408E+01  0.63941241839E+01  0.51100000000E-03 0. -1.
        -11    1    3    3    0    0  0.97648934535E+01 -0.21455890418E+01 -0.71728949754E+01  0.12304760017E+02  0.51100000000E-03 0.  1.
         12    1    3    3    0    0  0.64224159520E+01 -0.20342018368E+02 -0.23624170961E+02  0.31829963738E+02  0.00000000000E+00 0. -1.
</event>
<event>
 7    1  0.2985411E-011  0.5052882E+02  0.7816164E-02  0.1300439E+00
        -11   -1    0    0    0    0  0.00000000000E+00  0.00000000000E+00  0.45593999997E+02  0.45594000000E+02  0.51100000000E-03 0. -1.
         11   -1    0    0    0    0 -0.00000000000E+00 -0.00000000000E+00 -0.45593999997E+02  0.45594000000E+02  0.51100000000E-03 0.  1.
    9900012    2    1    2    0    0  0.21685542774E+02 -0.33194163293E+02  0.90029704808E+01  0.50528822443E+02  0.29999886297E+02 0.  0.
        -12    1    1    2    0    0 -0.21685542774E+02  0.33194163293E+02 -0.90029704808E+01  0.40659177557E+02  0.00000000000E+00 0.  1.
         11    1    3    3    0    0  0.31736442016E+01  0.57920839114E-01  0.23835667087E+01  0.39694789151E+01  0.51100000000E-03 0. -1.
        -11    1    3    3    0    0  0.16345793966E+02 -0.11651081516E+02 -0.66138025912E+01  0.21134688686E+02  0.51100000000E-03 0.  1.
        -12    1    3    3    0    0  0.21661046070E+01 -0.21601002616E+02  0.13233206363E+02  0.25424654842E+02  0.00000000000E+00 0.  1.
</event>
<event>
 7    1  0.2985411E-011  0.5052886E+02  0.7816164E-02  0.1300439E+00
        -11   -1    0    0    0    0  0.00000000000E+00  0.00000000000E+00  0.45593999997E+02  0.45594000000E+02  0.51100000000E-03 0. -1.
         11   -1    0    0    0    0 -0.00000000000E+00 -0.00000000000E+00 -0.45593999997E+02  0.45594000000E+02  0.51100000000E-03 0.  1.
    9900012    2    1    2    0    0  0.11972269944E+02 -0.36083532391E+02  0.14415581310E+02  0.50528861520E+02  0.30000005076E+02 0.  0.
        -12    1    1    2    0    0 -0.11972269944E+02  0.36083532391E+02 -0.14415581310E+02  0.40659138480E+02  0.00000000000E+00 0.  1.
         11    1    3    3    0    0  0.75854113688E+00 -0.86014148163E+01 -0.23384567259E+01  0.89458427003E+01  0.51100000000E-03 0.  1.
        -11    1    3    3    0    0 -0.19055897092E+01 -0.24063356436E+02  0.13433291188E+02  0.27624802398E+02  0.51100000000E-03 0. -1.
        -12    1    3    3    0    0  0.13119318516E+02 -0.34187611392E+01  0.33207468472E+01  0.13958216422E+02  0.00000000000E+00 0.  1.
</event>
<event>
 7    1  0.2985411E-011  0.5052886E+02  0.7816164E-02  0.1300439E+00
        -11   -1    0    0    0    0  0.00000000000E+00  0.00000000000E+00  0.45593999997E+02  0.45594000000E+02  0.51100000000E-03 0.  1.
         11   -1    0    0    0    0 -0.00000000000E+00 -0.00000000000E+00 -0.45593999997E+02  0.45594000000E+02  0.51100000000E-03 0. -1.
    9900012    2    1    2    0    0 -0.20985872916E+02  0.13311393917E+02 -0.32180205945E+02  0.50528859272E+02  0.29999998243E+02 0.  0.
        -12    1    1    2    0    0  0.20985872916E+02 -0.13311393917E+02  0.32180205945E+02  0.40659140728E+02  0.00000000000E+00 0.  1.
         11    1    3    3    0    0 -0.16851041935E+01  0.89991475226E+01  0.14888255497E+01  0.92758198589E+01  0.51100000000E-03 0.  1.
        -11    1    3    3    0    0 -0.68871471761E+01  0.47365785226E+01 -0.43748234470E+01  0.94343549212E+01  0.51100000000E-03 0. -1.
         12    1    3    3    0    0 -0.12413621547E+02 -0.42433212783E+00 -0.29294208048E+02  0.31818684492E+02  0.00000000000E+00 0. -1.
</event>
<event>
 7    1  0.2985411E-011  0.5052886E+02  0.7816164E-02  0.1300439E+00
        -11   -1    0    0    0    0  0.00000000000E+00  0.00000000000E+00  0.45593999997E+02  0.45594000000E+02  0.51100000000E-03 0.  1.
         11   -1    0    0    0    0 -0.00000000000E+00 -0.00000000000E+00 -0.45593999997E+02  0.45594000000E+02  0.51100000000E-03 0. -1.
    9900012    2    1    2    0    0 -0.18714456570E+02  0.10806407311E+02 -0.34440619519E+02  0.50528860849E+02  0.30000003036E+02 0.  0.
        -12    1    1    2    0    0  0.18714456570E+02 -0.10806407311E+02  0.34440619519E+02  0.40659139151E+02  0.00000000000E+00 0.  1.
         11    1    3    3    0    0 -0.11690686464E+02 -0.50740744359E+00 -0.17868314237E+02  0.21358985609E+02  0.51100000000E-03 0. -1.
        -11    1    3    3    0    0 -0.14021832283E+02  0.70195626424E+01 -0.12199881975E+02  0.19867641046E+02  0.51100000000E-03 0.  1.
         12    1    3    3    0    0  0.69980621766E+01  0.42942521120E+01 -0.43724233067E+01  0.93022341941E+01  0.00000000000E+00 0. -1.
</event>
<event>
 7    1  0.2985411E-011  0.5052886E+02  0.7816164E-02  0.1300439E+00
        -11   -1    0    0    0    0  0.00000000000E+00  0.00000000000E+00  0.45593999997E+02  0.45594000000E+02  0.51100000000E-03 0.  1.
         11   -1    0    0    0    0 -0.00000000000E+00 -0.00000000000E+00 -0.45593999997E+02  0.45594000000E+02  0.51100000000E-03 0. -1.
    9900012    2    1    2    0    0 -0.21144369696E+02  0.34081674862E+02 -0.66723943512E+01  0.50528858622E+02  0.29999996267E+02 0.  0.
        -12    1    1    2    0    0  0.21144369696E+02 -0.34081674862E+02  0.66723943512E+01  0.40659141378E+02  0.00000000000E+00 0.  1.
         11    1    3    3    0    0 -0.24569654950E+01  0.78576404561E+01 -0.19286646083E+01  0.84557046078E+01  0.51100000000E-03 0. -1.
        -11    1    3    3    0    0 -0.19378744202E+02  0.31022640951E+02 -0.23159716626E+01  0.36651107807E+02  0.51100000000E-03 0.  1.
         12    1    3    3    0    0  0.69134000193E+00 -0.47986065456E+01 -0.24277580803E+01  0.54220462073E+01  0.00000000000E+00 0. -1.
</event>
<event>
 7    1  0.2985411E-011  0.5052887E+02  0.7816164E-02  0.1300439E+00
        -11   -1    0    0    0    0  0.00000000000E+00  0.00000000000E+00  0.45593999997E+02  0.45594000000E+02  0.51100000000E-03 0.  1.
         11   -1    0    0    0    0 -0.00000000000E+00 -0.00000000000E+00 -0.45593999997E+02  0.45594000000E+02  0.51100000000E-03 0. -1.
    9900012    2    1    2    0    0  0.25751127302E+02 -0.10017406176E+02 -0.29827765719E+02  0.50528873207E+02  0.30000040600E+02 0.  0.
        -12    1    1    2    0    0 -0.25751127302E+02  0.10017406176E+02  0.29827765719E+02  0.40659126793E+02  0.00000000000E+00 0.  1.
         11    1    3    3    0    0 -0.27643321334E+01 -0.22451676847E+01 -0.14089911271E+00  0.35640093851E+01  0.51100000000E-03 0. -1.
        -11    1    3    3    0    0  0.12216983814E+01  0.51213976427E+01 -0.88080570788E+01  0.10261731360E+02  0.51100000000E-03 0.  1.
         12    1    3    3    0    0  0.27293761054E+02 -0.12893636134E+02 -0.20878809527E+02  0.36703132461E+02  0.00000000000E+00 0. -1.
</event>
<event>
 7    1  0.2985411E-011  0.5052886E+02  0.7816164E-02  0.1300439E+00
        -11   -1    0    0    0    0  0.00000000000E+00  0.00000000000E+00  0.45593999997E+02  0.45594000000E+02  0.51100000000E-03 0.  1.
         11   -1    0    0    0    0 -0.00000000000E+00 -0.00000000000E+00 -0.45593999997E+02  0.45594000000E+02  0.51100000000E-03 0. -1.
    9900012    2    1    2    0    0  0.14259851309E+02 -0.35598727671E+02  0.13511212227E+02  0.50528860473E+02  0.30000001895E+02 0.  0.
        -12    1    1    2    0    0 -0.14259851309E+02  0.35598727671E+02 -0.13511212227E+02  0.40659139527E+02  0.00000000000E+00 0.  1.
         11    1    3    3    0    0 -0.49021601503E+01 -0.13161830005E+02  0.15413682825E+01  0.14129428851E+02  0.51100000000E-03 0. -1.
        -11    1    3    3    0    0 -0.33142624600E+01 -0.17961438008E+01  0.51642927750E+00  0.38048873396E+01  0.51100000000E-03 0.  1.
        -12    1    3    3    0    0  0.22476273920E+02 -0.20640753866E+02  0.11453414667E+02  0.32594544283E+02  0.00000000000E+00 0.  1.
</event>
<event>
 7    1  0.2985411E-011  0.5052886E+02  0.7816164E-02  0.1300439E+00
        -11   -1    0    0    0    0  0.00000000000E+00  0.00000000000E+00  0.45593999997E+02  0.45594000000E+02  0.51100000000E-03 0.  1.
         11   -1    0    0    0    0 -0.00000000000E+00 -0.00000000000E+00 -0.45593999997E+02  0.45594000000E+02  0.51100000000E-03 0. -1.
    9900012    2    1    2    0    0 -0.28655461060E+02 -0.28668064912E+02  0.31894347888E+01  0.50528857256E+02  0.29999992116E+02 0.  0.
        -12    1    1    2    0    0  0.28655461060E+02  0.28668064912E+02 -0.31894347888E+01  0.40659142744E+02  0.00000000000E+00 0.  1.
         11    1    3    3    0    0 -0.24789600409E+02 -0.83021627787E+01  0.21527108546E+01  0.26231362136E+02  0.51100000000E-03 0. -1.
        -11    1    3    3    0    0 -0.74137490709E+01 -0.64544794595E+01  0.14426217260E+01  0.99350459528E+01  0.51100000000E-03 0.  1.
        -12    1    3    3    0    0  0.35478884196E+01 -0.13911422674E+02 -0.40589779176E+00  0.14362449167E+02  0.00000000000E+00 0.  1.
</event>
<event>
 7    1  0.2985411E-011  0.5052885E+02  0.7816164E-02  0.1300439E+00
        -11   -1    0    0    0    0  0.00000000000E+00  0.00000000000E+00  0.45593999997E+02  0.45594000000E+02  0.51100000000E-03 0.  1.
         11   -1    0    0    0    0 -0.00000000000E+00 -0.00000000000E+00 -0.45593999997E+02  0.45594000000E+02  0.51100000000E-03 0. -1.
    9900012    2    1    2    0    0 -0.33070716623E+02  0.18950667160E+02 -0.14155071455E+02  0.50528854268E+02  0.29999983034E+02 0.  0.
        -12    1    1    2    0    0  0.33070716623E+02 -0.18950667160E+02  0.14155071455E+02  0.40659145732E+02  0.00000000000E+00 0.  1.
         11    1    3    3    0    0 -0.19406341978E+02 -0.10912332946E+01 -0.20178963789E+01  0.19541463741E+02  0.51100000000E-03 0. -1.
        -11    1    3    3    0    0 -0.14502677460E+01 -0.22213783136E+01 -0.29881710871E+01  0.39958684731E+01  0.51100000000E-03 0.  1.
         12    1    3    3    0    0 -0.12214106898E+02  0.22263278768E+02 -0.91490039889E+01  0.26991522054E+02  0.00000000000E+00 0. -1.
</event>
<event>
 7    1  0.2985411E-011  0.5052886E+02  0.7816164E-02  0.1300439E+00
        -11   -1    0    0    0    0  0.00000000000E+00  0.00000000000E+00  0.45593999997E+02  0.45594000000E+02  0.51100000000E-03 0. -1.
         11   -1    0    0    0    0 -0.00000000000E+00 -0.00000000000E+00 -0.45593999997E+02  0.45594000000E+02  0.51100000000E-03 0.  1.
    9900012    2    1    2    0    0 -0.14585305091E+02 -0.19838701234E+02  0.32355224224E+02  0.50528859259E+02  0.29999998204E+02 0.  0.
        -12    1    1    2    0    0  0.14585305091E+02  0.19838701234E+02 -0.32355224224E+02  0.40659140741E+02  0.00000000000E+00 0.  1.
         11    1    3    3    0    0 -0.39703280884E+01 -0.86415952538E+01  0.40852946881E+01  0.10350377124E+02  0.51100000000E-03 0. -1.
        -11    1    3    3    0    0 -0.11637768328E+02  0.31965127401E+01  0.55977341831E+01  0.13303757875E+02  0.51100000000E-03 0.  1.
         12    1    3    3    0    0  0.10227913253E+01 -0.14393618720E+02  0.22672195353E+02  0.26874724260E+02  0.00000000000E+00 0. -1.
</event>
<event>
 7    1  0.2985411E-011  0.5052886E+02  0.7816164E-02  0.1300439E+00
        -11   -1    0    0    0    0  0.00000000000E+00  0.00000000000E+00  0.45593999997E+02  0.45594000000E+02  0.51100000000E-03 0.  1.
         11   -1    0    0    0    0 -0.00000000000E+00 -0.00000000000E+00 -0.45593999997E+02  0.45594000000E+02  0.51100000000E-03 0. -1.
    9900012    2    1    2    0    0 -0.52166726842E+01  0.75839145242E+01 -0.39603486686E+02  0.50528860916E+02  0.30000003239E+02 0.  0.
        -12    1    1    2    0    0  0.52166726842E+01 -0.75839145242E+01  0.39603486686E+02  0.40659139084E+02  0.00000000000E+00 0.  1.
         11    1    3    3    0    0 -0.52541334037E+00  0.13052683972E+01 -0.14951149817E+01  0.20530839819E+01  0.51100000000E-03 0. -1.
        -11    1    3    3    0    0 -0.68330596120E+01 -0.42860415883E+01  0.79637772619E+00  0.81052497742E+01  0.51100000000E-03 0.  1.
         12    1    3    3    0    0  0.21418002682E+01  0.10564687715E+02 -0.38904749430E+02  0.40370527160E+02  0.00000000000E+00 0. -1.
</event>
<event>
 7    1  0.2985411E-011  0.5052887E+02  0.7816164E-02  0.1300439E+00
        -11   -1    0    0    0    0  0.00000000000E+00  0.00000000000E+00  0.45593999997E+02  0.45594000000E+02  0.51100000000E-03 0.  1.
         11   -1    0    0    0    0 -0.00000000000E+00 -0.00000000000E+00 -0.45593999997E+02  0.45594000000E+02  0.51100000000E-03 0. -1.
    9900012    2    1    2    0    0  0.30627686512E+02  0.12904434961E+02 -0.23421903632E+02  0.50528865817E+02  0.30000018136E+02 0.  0.
        -12    1    1    2    0    0 -0.30627686512E+02 -0.12904434961E+02  0.23421903632E+02  0.40659134183E+02  0.00000000000E+00 0.  1.
         11    1    3    3    0    0  0.21111067652E+02 -0.15897598735E+01 -0.17997141329E+02  0.27786716433E+02  0.51100000000E-03 0. -1.
        -11    1    3    3    0    0  0.65572763414E+01  0.89722308244E+01 -0.10027396981E+02  0.14968215975E+02  0.51100000000E-03 0.  1.
        -12    1    3    3    0    0  0.29593425189E+01  0.55219640107E+01  0.46026346773E+01  0.77739334092E+01  0.00000000000E+00 0.  1.
</event>
<event>
 7    1  0.2985411E-011  0.5052886E+02  0.7816164E-02  0.1300439E+00
        -11   -1    0    0    0    0  0.00000000000E+00  0.00000000000E+00  0.45593999997E+02  0.45594000000E+02  0.51100000000E-03 0.  1.
         11   -1    0    0    0    0 -0.00000000000E+00 -0.00000000000E+00 -0.45593999997E+02  0.45594000000E+02  0.51100000000E-03 0. -1.
    9900012    2    1    2    0    0 -0.38677189316E+02 -0.10139388581E+02 -0.73778924005E+01  0.50528862399E+02  0.30000007747E+02 0.  0.
        -12    1    1    2    0    0  0.38677189316E+02  0.10139388581E+02  0.73778924005E+01  0.40659137601E+02  0.00000000000E+00 0.  1.
         11    1    3    3    0    0 -0.54133209490E+00 -0.31578296468E+01 -0.20984880221E+01  0.38299583229E+01  0.51100000000E-03 0.  1.
        -11    1    3    3    0    0 -0.37561929476E+02  0.15606571905E+01 -0.24183960925E+01  0.37672043172E+02  0.51100000000E-03 0. -1.
         12    1    3    3    0    0 -0.57392774591E+00 -0.85422161244E+01 -0.28610082859E+01  0.90268609043E+01  0.00000000000E+00 0. -1.
</event>
<event>
 7    1  0.2985411E-011  0.5052886E+02  0.7816164E-02  0.1300439E+00
        -11   -1    0    0    0    0  0.00000000000E+00  0.00000000000E+00  0.45593999997E+02  0.45594000000E+02  0.51100000000E-03 0. -1.
         11   -1    0    0    0    0 -0.00000000000E+00 -0.00000000000E+00 -0.45593999997E+02  0.45594000000E+02  0.51100000000E-03 0.  1.
    9900012    2    1    2    0    0 -0.14568184405E+02  0.40035597711E+01  0.37747919290E+02  0.50528857136E+02  0.29999991750E+02 0.  0.
        -12    1    1    2    0    0  0.14568184405E+02 -0.40035597711E+01 -0.37747919290E+02  0.40659142864E+02  0.00000000000E+00 0.  1.
         11    1    3    3    0    0 -0.48714332042E+01  0.68187637077E+01  0.11875761520E+01  0.84638488492E+01  0.51100000000E-03 0.  1.
        -11    1    3    3    0    0 -0.20987923915E+01  0.49068983035E+01  0.17633739926E+01  0.56206822151E+01  0.51100000000E-03 0. -1.
         12    1    3    3    0    0 -0.75979588095E+01 -0.77221022401E+01  0.34796969146E+02  0.36444326072E+02  0.00000000000E+00 0. -1.
</event>
<event>
 7    1  0.2985411E-011  0.5052883E+02  0.7816164E-02  0.1300439E+00
        -11   -1    0    0    0    0  0.00000000000E+00  0.00000000000E+00  0.45593999997E+02  0.45594000000E+02  0.51100000000E-03 0.  1.
         11   -1    0    0    0    0 -0.00000000000E+00 -0.00000000000E+00 -0.45593999997E+02  0.45594000000E+02  0.51100000000E-03 0. -1.
    9900012    2    1    2    0    0 -0.28352727850E+02  0.27559652785E+02  0.94739845450E+01  0.50528831030E+02  0.29999912399E+02 0.  0.
        -12    1    1    2    0    0  0.28352727850E+02 -0.27559652785E+02 -0.94739845450E+01  0.40659168970E+02  0.00000000000E+00 0.  1.
         11    1    3    3    0    0 -0.12303170091E+02  0.23952641174E+02  0.84398613625E+01  0.28219289034E+02  0.51100000000E-03 0. -1.
        -11    1    3    3    0    0 -0.16776433313E+02  0.27054714265E-01 -0.28059429340E+01  0.17009490371E+02  0.51100000000E-03 0.  1.
         12    1    3    3    0    0  0.72687555434E+00  0.35799568968E+01  0.38400661166E+01  0.53000516256E+01  0.00000000000E+00 0. -1.
</event>
<event>
 7    1  0.2985411E-011  0.5052885E+02  0.7816164E-02  0.1300439E+00
        -11   -1    0    0    0    0  0.00000000000E+00  0.00000000000E+00  0.45593999997E+02  0.45594000000E+02  0.51100000000E-03 0.  1.
         11   -1    0    0    0    0 -0.00000000000E+00 -0.00000000000E+00 -0.45593999997E+02  0.45594000000E+02  0.51100000000E-03 0. -1.
    9900012    2    1    2    0    0 -0.25558011531E+02  0.85948028757E+01 -0.30431631988E+02  0.50528845860E+02  0.29999957477E+02 0.  0.
        -12    1    1    2    0    0  0.25558011531E+02 -0.85948028757E+01  0.30431631988E+02  0.40659154140E+02  0.00000000000E+00 0.  1.
         11    1    3    3    0    0 -0.24033734436E+00  0.94968181914E+01 -0.31260250857E+01  0.10000967498E+02  0.51100000000E-03 0. -1.
        -11    1    3    3    0    0  0.34658326152E+00 -0.25522521152E+01  0.53109917378E+00  0.26298626219E+01  0.51100000000E-03 0.  1.
         12    1    3    3    0    0 -0.25664257449E+02  0.16502367995E+01 -0.27836706076E+02  0.37898015740E+02  0.00000000000E+00 0. -1.
</event>
<event>
 7    1  0.2985411E-011  0.5052886E+02  0.7816164E-02  0.1300439E+00
        -11   -1    0    0    0    0  0.00000000000E+00  0.00000000000E+00  0.45593999997E+02  0.45594000000E+02  0.51100000000E-03 0.  1.
         11   -1    0    0    0    0 -0.00000000000E+00 -0.00000000000E+00 -0.45593999997E+02  0.45594000000E+02  0.51100000000E-03 0. -1.
    9900012    2    1    2    0    0  0.10959223379E+02  0.24167007576E+02 -0.30806111901E+02  0.50528863724E+02  0.30000011775E+02 0.  0.
        -12    1    1    2    0    0 -0.10959223379E+02 -0.24167007576E+02  0.30806111901E+02  0.40659136276E+02  0.00000000000E+00 0.  1.
         11    1    3    3    0    0  0.48924069371E+01  0.11387502152E+02 -0.10353397822E+02  0.16149417872E+02  0.51100000000E-03 0. -1.
        -11    1    3    3    0    0  0.81951813941E+01  0.15135012972E+02 -0.40620493687E+01  0.17684169788E+02  0.51100000000E-03 0.  1.
        -12    1    3    3    0    0 -0.21283649525E+01 -0.23555075481E+01 -0.16390664711E+02  0.16695276064E+02  0.00000000000E+00 0.  1.
</event>
<event>
 7    1  0.2985411E-011  0.5052885E+02  0.7816164E-02  0.1300439E+00
        -11   -1    0    0    0    0  0.00000000000E+00  0.00000000000E+00  0.45593999997E+02  0.45594000000E+02  0.51100000000E-03 0. -1.
         11   -1    0    0    0    0 -0.00000000000E+00 -0.00000000000E+00 -0.45593999997E+02  0.45594000000E+02  0.51100000000E-03 0.  1.
    9900012    2    1    2    0    0  0.26730993363E+02  0.13698015346E+02  0.27404099955E+02  0.50528851892E+02  0.29999975810E+02 0.  0.
        -12    1    1    2    0    0 -0.26730993363E+02 -0.13698015346E+02 -0.27404099955E+02  0.40659148108E+02  0.00000000000E+00 0.  1.
         11    1    3    3    0    0  0.13127782957E+02  0.14563800415E+00  0.40293069692E+01  0.13732997149E+02  0.51100000000E-03 0. -1.
        -11    1    3    3    0    0  0.96236552954E+01  0.75739198911E+01 -0.10003296826E+00  0.12247000066E+02  0.51100000000E-03 0.  1.
         12    1    3    3    0    0  0.39795551106E+01  0.59784574504E+01  0.23474825954E+02  0.24548854677E+02  0.00000000000E+00 0. -1.
</event>
<event>
 7    1  0.2985411E-011  0.5052887E+02  0.7816164E-02  0.1300439E+00
        -11   -1    0    0    0    0  0.00000000000E+00  0.00000000000E+00  0.45593999997E+02  0.45594000000E+02  0.51100000000E-03 0.  1.
         11   -1    0    0    0    0 -0.00000000000E+00 -0.00000000000E+00 -0.45593999997E+02  0.45594000000E+02  0.51100000000E-03 0. -1.
    9900012    2    1    2    0    0  0.41224969528E+01  0.40449592338E+02 -0.24021234008E-01  0.50528867220E+02  0.30000022401E+02 0.  0.
        -12    1    1    2    0    0 -0.41224969528E+01 -0.40449592338E+02  0.24021234008E-01  0.40659132780E+02  0.00000000000E+00 0.  1.
         11    1    3    3    0    0  0.26287282658E+01  0.83412929131E+01 -0.18908691719E+00  0.87477502182E+01  0.51100000000E-03 0. -1.
        -11    1    3    3    0    0  0.11676871680E+01  0.26185346374E+02 -0.11555051087E+02  0.28645332324E+02  0.51100000000E-03 0.  1.
        -12    1    3    3    0    0  0.32608151891E+00  0.59229530507E+01  0.11720116770E+02  0.13135784678E+02  0.00000000000E+00 0.  1.
</event>
<event>
 7    1  0.2985411E-011  0.5052886E+02  0.7816164E-02  0.1300439E+00
        -11   -1    0    0    0    0  0.00000000000E+00  0.00000000000E+00  0.45593999997E+02  0.45594000000E+02  0.51100000000E-03 0. -1.
         11   -1    0    0    0    0 -0.00000000000E+00 -0.00000000000E+00 -0.45593999997E+02  0.45594000000E+02  0.51100000000E-03 0.  1.
    9900012    2    1    2    0    0  0.10174565440E+02 -0.30865301752E+02  0.24433117603E+02  0.50528857487E+02  0.29999992816E+02 0.  0.
        -12    1    1    2    0    0 -0.10174565440E+02  0.30865301752E+02 -0.24433117603E+02  0.40659142513E+02  0.00000000000E+00 0.  1.
         11    1    3    3    0    0  0.10282635404E+02 -0.12129537390E+02  0.15073190627E+01  0.15972798101E+02  0.51100000000E-03 0. -1.
        -11    1    3    3    0    0  0.19659128774E+01  0.31852380280E+01  0.44310331354E+01  0.58003973696E+01  0.51100000000E-03 0.  1.
         12    1    3    3    0    0 -0.20739828417E+01 -0.21921002390E+02  0.18494765405E+02  0.28755662016E+02  0.00000000000E+00 0. -1.
</event>
<event>
 7    1  0.2985411E-011  0.5052885E+02  0.7816164E-02  0.1300439E+00
        -11   -1    0    0    0    0  0.00000000000E+00  0.00000000000E+00  0.45593999997E+02  0.45594000000E+02  0.51100000000E-03 0.  1.
         11   -1    0    0    0    0 -0.00000000000E+00 -0.00000000000E+00 -0.45593999997E+02  0.45594000000E+02  0.51100000000E-03 0. -1.
    9900012    2    1    2    0    0  0.30227497718E+02  0.25421203601E+02 -0.96554139765E+01  0.50528853060E+02  0.29999979362E+02 0.  0.
        -12    1    1    2    0    0 -0.30227497718E+02 -0.25421203601E+02  0.96554139765E+01  0.40659146940E+02  0.00000000000E+00 0.  1.
         11    1    3    3    0    0 -0.12604555678E+01 -0.23418607284E+01 -0.24137115716E+01  0.35915266561E+01  0.51100000000E-03 0. -1.
        -11    1    3    3    0    0  0.10091667360E+02 -0.56946127898E+00  0.18781824738E+01  0.10280739561E+02  0.51100000000E-03 0.  1.
         12    1    3    3    0    0  0.21396285925E+02  0.28332525608E+02 -0.91198848787E+01  0.36656586843E+02  0.00000000000E+00 0. -1.
</event>
<event>
 7    1  0.2985411E-011  0.5052890E+02  0.7816164E-02  0.1300439E+00
        -11   -1    0    0    0    0  0.00000000000E+00  0.00000000000E+00  0.45593999997E+02  0.45594000000E+02  0.51100000000E-03 0.  1.
         11   -1    0    0    0    0 -0.00000000000E+00 -0.00000000000E+00 -0.45593999997E+02  0.45594000000E+02  0.51100000000E-03 0. -1.
    9900012    2    1    2    0    0  0.32859272753E+01 -0.35048456456E+02 -0.20346271777E+02  0.50528900241E+02  0.30000122772E+02 0.  0.
        -12    1    1    2    0    0 -0.32859272753E+01  0.35048456456E+02  0.20346271777E+02  0.40659099759E+02  0.00000000000E+00 0.  1.
         11    1    3    3    0    0 -0.70423035044E+01 -0.21826176598E+02 -0.17004487998E+02  0.28550457718E+02  0.51100000000E-03 0. -1.
        -11    1    3    3    0    0  0.34804331174E+01 -0.13635773481E+02  0.56399638387E+00  0.14084240316E+02  0.51100000000E-03 0.  1.
        -12    1    3    3    0    0  0.68477976624E+01  0.41349362324E+00 -0.39057801630E+01  0.78942022069E+01  0.00000000000E+00 0.  1.
</event>
<event>
 7    1  0.2985411E-011  0.5052886E+02  0.7816164E-02  0.1300439E+00
        -11   -1    0    0    0    0  0.00000000000E+00  0.00000000000E+00  0.45593999997E+02  0.45594000000E+02  0.51100000000E-03 0.  1.
         11   -1    0    0    0    0 -0.00000000000E+00 -0.00000000000E+00 -0.45593999997E+02  0.45594000000E+02  0.51100000000E-03 0. -1.
    9900012    2    1    2    0    0  0.30459011257E+02  0.15045265156E+02 -0.22339520178E+02  0.50528861640E+02  0.30000005441E+02 0.  0.
        -12    1    1    2    0    0 -0.30459011257E+02 -0.15045265156E+02  0.22339520178E+02  0.40659138360E+02  0.00000000000E+00 0.  1.
         11    1    3    3    0    0 -0.30882055599E+01 -0.42125522227E+00 -0.44046770078E+01  0.53958918954E+01  0.51100000000E-03 0. -1.
        -11    1    3    3    0    0  0.50041062904E+01  0.12857617137E+01 -0.11515238975E+02  0.12621211981E+02  0.51100000000E-03 0.  1.
         12    1    3    3    0    0  0.28543110527E+02  0.14180758665E+02 -0.64196041951E+01  0.32511757764E+02  0.00000000000E+00 0. -1.
</event>
<event>
 7    1  0.2985411E-011  0.5052886E+02  0.7816164E-02  0.1300439E+00
        -11   -1    0    0    0    0  0.00000000000E+00  0.00000000000E+00  0.45593999997E+02  0.45594000000E+02  0.51100000000E-03 0. -1.
         11   -1    0    0    0    0 -0.00000000000E+00 -0.00000000000E+00 -0.45593999997E+02  0.45594000000E+02  0.51100000000E-03 0.  1.
    9900012    2    1    2    0    0  0.18699826305E+02  0.34617320735E+02 -0.10252961939E+02  0.50528860472E+02  0.30000001890E+02 0.  0.
        -12    1    1    2    0    0 -0.18699826305E+02 -0.34617320735E+02  0.10252961939E+02  0.40659139528E+02  0.00000000000E+00 0.  1.
         11    1    3    3    0    0 -0.48758905800E+01  0.20078766493E+01 -0.34691856897E+01  0.63119828262E+01  0.51100000000E-03 0.  1.
        -11    1    3    3    0    0 -0.49463063439E+00 -0.10331985168E+01  0.16406807948E+01  0.20009978439E+01  0.51100000000E-03 0. -1.
         12    1    3    3    0    0  0.24070347519E+02  0.33642642602E+02 -0.84244570437E+01  0.42215879802E+02  0.00000000000E+00 0. -1.
</event>
<event>
 7    1  0.2985411E-011  0.5052885E+02  0.7816164E-02  0.1300439E+00
        -11   -1    0    0    0    0  0.00000000000E+00  0.00000000000E+00  0.45593999997E+02  0.45594000000E+02  0.51100000000E-03 0.  1.
         11   -1    0    0    0    0 -0.00000000000E+00 -0.00000000000E+00 -0.45593999997E+02  0.45594000000E+02  0.51100000000E-03 0. -1.
    9900012    2    1    2    0    0  0.34791265317E+02 -0.57147058600E+01 -0.20250335981E+02  0.50528854500E+02  0.29999983737E+02 0.  0.
        -12    1    1    2    0    0 -0.34791265317E+02  0.57147058600E+01  0.20250335981E+02  0.40659145500E+02  0.00000000000E+00 0.  1.
         11    1    3    3    0    0  0.12785952956E+02  0.55855674662E+01  0.33061072528E+01  0.14339090011E+02  0.51100000000E-03 0. -1.
        -11    1    3    3    0    0  0.59013902836E+01 -0.30949286328E+01 -0.21284865723E+00  0.66671054689E+01  0.51100000000E-03 0.  1.
        -12    1    3    3    0    0  0.16103922078E+02 -0.82053446935E+01 -0.23343594577E+02  0.29522659020E+02  0.00000000000E+00 0.  1.
</event>
<event>
 7    1  0.2985411E-011  0.5052886E+02  0.7816164E-02  0.1300439E+00
        -11   -1    0    0    0    0  0.00000000000E+00  0.00000000000E+00  0.45593999997E+02  0.45594000000E+02  0.51100000000E-03 0. -1.
         11   -1    0    0    0    0 -0.00000000000E+00 -0.00000000000E+00 -0.45593999997E+02  0.45594000000E+02  0.51100000000E-03 0.  1.
    9900012    2    1    2    0    0 -0.99792727382E+01  0.52858597167E+01  0.39059433777E+02  0.50528861245E+02  0.30000004241E+02 0.  0.
        -12    1    1    2    0    0  0.99792727382E+01 -0.52858597167E+01 -0.39059433777E+02  0.40659138755E+02  0.00000000000E+00 0.  1.
         11    1    3    3    0    0 -0.32655559602E+01  0.63767181025E+01  0.45328851028E+01  0.84778203038E+01  0.51100000000E-03 0.  1.
        -11    1    3    3    0    0  0.34801112742E+01  0.80639645758E+01  0.67429246143E+01  0.11072747255E+02  0.51100000000E-03 0. -1.
         12    1    3    3    0    0 -0.10193828052E+02 -0.91548229616E+01  0.27783624060E+02  0.30978293686E+02  0.00000000000E+00 0. -1.
</event>
<event>
 7    1  0.2985411E-011  0.5052886E+02  0.7816164E-02  0.1300439E+00
        -11   -1    0    0    0    0  0.00000000000E+00  0.00000000000E+00  0.45593999997E+02  0.45594000000E+02  0.51100000000E-03 0. -1.
         11   -1    0    0    0    0 -0.00000000000E+00 -0.00000000000E+00 -0.45593999997E+02  0.45594000000E+02  0.51100000000E-03 0.  1.
    9900012    2    1    2    0    0 -0.42177230796E+01 -0.37161293850E+02  0.15950382186E+02  0.50528860308E+02  0.30000001393E+02 0.  0.
        -12    1    1    2    0    0  0.42177230796E+01  0.37161293850E+02 -0.15950382186E+02  0.40659139692E+02  0.00000000000E+00 0.  1.
         11    1    3    3    0    0 -0.11198334600E+02 -0.16941249995E+02  0.14226989374E+02  0.24795480961E+02  0.51100000000E-03 0. -1.
        -11    1    3    3    0    0  0.46097132494E+00 -0.11742789104E+01  0.51595019748E+01  0.53114862713E+01  0.51100000000E-03 0.  1.
        -12    1    3    3    0    0  0.65196401958E+01 -0.19045764945E+02 -0.34361091618E+01  0.20421893076E+02  0.00000000000E+00 0.  1.
</event>
<event>
 7    1  0.2985411E-011  0.5052887E+02  0.7816164E-02  0.1300439E+00
        -11   -1    0    0    0    0  0.00000000000E+00  0.00000000000E+00  0.45593999997E+02  0.45594000000E+02  0.51100000000E-03 0. -1.
         11   -1    0    0    0    0 -0.00000000000E+00 -0.00000000000E+00 -0.45593999997E+02  0.45594000000E+02  0.51100000000E-03 0.  1.
    9900012    2    1    2    0    0  0.32292588522E+01  0.21206537288E+02  0.34540115461E+02  0.50528869260E+02  0.30000028604E+02 0.  0.
        -12    1    1    2    0    0 -0.32292588522E+01 -0.21206537288E+02 -0.34540115461E+02  0.40659130740E+02  0.00000000000E+00 0.  1.
         11    1    3    3    0    0 -0.29059447375E+01  0.11847354070E+02  0.18429872972E+02  0.22101233705E+02  0.51100000000E-03 0. -1.
        -11    1    3    3    0    0 -0.14631099997E+01  0.14185593986E+02  0.82374669522E+01  0.16468989940E+02  0.51100000000E-03 0.  1.
        -12    1    3    3    0    0  0.75983135894E+01 -0.48264107676E+01  0.78727755368E+01  0.11958645615E+02  0.00000000000E+00 0.  1.
</event>
<event>
 7    1  0.2985411E-011  0.5052886E+02  0.7816164E-02  0.1300439E+00
        -11   -1    0    0    0    0  0.00000000000E+00  0.00000000000E+00  0.45593999997E+02  0.45594000000E+02  0.51100000000E-03 0.  1.
         11   -1    0    0    0    0 -0.00000000000E+00 -0.00000000000E+00 -0.45593999997E+02  0.45594000000E+02  0.51100000000E-03 0. -1.
    9900012    2    1    2    0    0 -0.19540932438E+02  0.59334375925E+00 -0.35650600299E+02  0.50528863277E+02  0.30000010418E+02 0.  0.
        -12    1    1    2    0    0  0.19540932438E+02 -0.59334375925E+00  0.35650600299E+02  0.40659136723E+02  0.00000000000E+00 0.  1.
         11    1    3    3    0    0  0.58541024972E+00  0.26341969573E+01 -0.29311892471E+01  0.39841648352E+01  0.51100000000E-03 0. -1.
        -11    1    3    3    0    0  0.84845305355E+00 -0.35420107226E+01  0.32487059260E+01  0.48805535545E+01  0.51100000000E-03 0.  1.
         12    1    3    3    0    0 -0.20974795741E+02  0.15011575246E+01 -0.35968116978E+02  0.41664144888E+02  0.00000000000E+00 0. -1.
</event>
<event>
 7    1  0.2985411E-011  0.5052886E+02  0.7816164E-02  0.1300439E+00
        -11   -1    0    0    0    0  0.00000000000E+00  0.00000000000E+00  0.45593999997E+02  0.45594000000E+02  0.51100000000E-03 0.  1.
         11   -1    0    0    0    0 -0.00000000000E+00 -0.00000000000E+00 -0.45593999997E+02  0.45594000000E+02  0.51100000000E-03 0. -1.
    9900012    2    1    2    0    0  0.15473917995E+02 -0.20043255920E+02 -0.31811810415E+02  0.50528861693E+02  0.30000005602E+02 0.  0.
        -12    1    1    2    0    0 -0.15473917995E+02  0.20043255920E+02  0.31811810415E+02  0.40659138307E+02  0.00000000000E+00 0.  1.
         11    1    3    3    0    0 -0.40715145999E+01 -0.50869726834E+01 -0.80988829540E+01  0.10394538354E+02  0.51100000000E-03 0. -1.
        -11    1    3    3    0    0 -0.29019150949E+01  0.23050191304E+01 -0.48761038876E+01  0.61245909082E+01  0.51100000000E-03 0.  1.
         12    1    3    3    0    0  0.22447347689E+02 -0.17261302367E+02 -0.18836823573E+02  0.34009732431E+02  0.00000000000E+00 0. -1.
</event>
<event>
 7    1  0.2985411E-011  0.5052888E+02  0.7816164E-02  0.1300439E+00
        -11   -1    0    0    0    0  0.00000000000E+00  0.00000000000E+00  0.45593999997E+02  0.45594000000E+02  0.51100000000E-03 0.  1.
         11   -1    0    0    0    0 -0.00000000000E+00 -0.00000000000E+00 -0.45593999997E+02  0.45594000000E+02  0.51100000000E-03 0. -1.
    9900012    2    1    2    0    0  0.71627321527E+01  0.38985207125E+02 -0.90560908764E+01  0.50528881854E+02  0.30000066884E+02 0.  0.
        -12    1    1    2    0    0 -0.71627321527E+01 -0.38985207125E+02  0.90560908764E+01  0.40659118146E+02  0.00000000000E+00 0.  1.
         11    1    3    3    0    0  0.76959137205E+01  0.25215541718E+02  0.30858180070E+01  0.26543792216E+02  0.51100000000E-03 0.  1.
        -11    1    3    3    0    0  0.54636691582E+01  0.61415508256E+01  0.27729400244E+00  0.82247929724E+01  0.51100000000E-03 0. -1.
        -12    1    3    3    0    0 -0.59968507260E+01  0.76281145806E+01 -0.12419202886E+02  0.15760296666E+02  0.00000000000E+00 0.  1.
</event>
<event>
 7    1  0.2985411E-011  0.5052886E+02  0.7816164E-02  0.1300439E+00
        -11   -1    0    0    0    0  0.00000000000E+00  0.00000000000E+00  0.45593999997E+02  0.45594000000E+02  0.51100000000E-03 0. -1.
         11   -1    0    0    0    0 -0.00000000000E+00 -0.00000000000E+00 -0.45593999997E+02  0.45594000000E+02  0.51100000000E-03 0.  1.
    9900012    2    1    2    0    0  0.13618306256E+02  0.24010478463E+01  0.38235352578E+02  0.50528862247E+02  0.30000007287E+02 0.  0.
        -12    1    1    2    0    0 -0.13618306256E+02 -0.24010478463E+01 -0.38235352578E+02  0.40659137753E+02  0.00000000000E+00 0.  1.
         11    1    3    3    0    0 -0.80027365943E+01  0.16789569944E+01  0.20277422106E+02  0.21864046677E+02  0.51100000000E-03 0. -1.
        -11    1    3    3    0    0  0.50168232424E+01 -0.77926082903E-01  0.14163528504E+01  0.52135058816E+01  0.51100000000E-03 0.  1.
        -12    1    3    3    0    0  0.16604219608E+02  0.80001693489E+00  0.16541577621E+02  0.23451309688E+02  0.00000000000E+00 0.  1.
</event>
<event>
 7    1  0.2985411E-011  0.5052884E+02  0.7816164E-02  0.1300439E+00
        -11   -1    0    0    0    0  0.00000000000E+00  0.00000000000E+00  0.45593999997E+02  0.45594000000E+02  0.51100000000E-03 0.  1.
         11   -1    0    0    0    0 -0.00000000000E+00 -0.00000000000E+00 -0.45593999997E+02  0.45594000000E+02  0.51100000000E-03 0. -1.
    9900012    2    1    2    0    0 -0.20207728252E+01 -0.18224372785E+02 -0.36289883811E+02  0.50528844165E+02  0.29999952323E+02 0.  0.
        -12    1    1    2    0    0  0.20207728252E+01  0.18224372785E+02  0.36289883811E+02  0.40659155835E+02  0.00000000000E+00 0.  1.
         11    1    3    3    0    0  0.12642281183E+01 -0.63808312596E+01 -0.13277726194E+02  0.14785509577E+02  0.51100000000E-03 0. -1.
        -11    1    3    3    0    0 -0.10381997976E+02 -0.13137143545E+02 -0.23098209269E+02  0.28528892270E+02  0.51100000000E-03 0.  1.
         12    1    3    3    0    0  0.70969970325E+01  0.12936020189E+01  0.86051651910E-01  0.72144423173E+01  0.00000000000E+00 0. -1.
</event>
<event>
 7    1  0.2985411E-011  0.5052886E+02  0.7816164E-02  0.1300439E+00
        -11   -1    0    0    0    0  0.00000000000E+00  0.00000000000E+00  0.45593999997E+02  0.45594000000E+02  0.51100000000E-03 0. -1.
         11   -1    0    0    0    0 -0.00000000000E+00 -0.00000000000E+00 -0.45593999997E+02  0.45594000000E+02  0.51100000000E-03 0.  1.
    9900012    2    1    2    0    0  0.20188404250E+02 -0.15569143969E+01  0.35258616409E+02  0.50528859826E+02  0.29999999928E+02 0.  0.
        -12    1    1    2    0    0 -0.20188404250E+02  0.15569143969E+01 -0.35258616409E+02  0.40659140174E+02  0.00000000000E+00 0.  1.
         11    1    3    3    0    0  0.93321994429E+00  0.52925838604E+01  0.60393307021E+01  0.80842970613E+01  0.51100000000E-03 0. -1.
        -11    1    3    3    0    0 -0.17101760339E+01  0.37033153125E+01  0.13729503678E+02  0.14322657501E+02  0.51100000000E-03 0.  1.
         12    1    3    3    0    0  0.20965360339E+02 -0.10552813570E+02  0.15489782029E+02  0.28121905264E+02  0.00000000000E+00 0. -1.
</event>
<event>
 7    1  0.2985411E-011  0.5052880E+02  0.7816164E-02  0.1300439E+00
        -11   -1    0    0    0    0  0.00000000000E+00  0.00000000000E+00  0.45593999997E+02  0.45594000000E+02  0.51100000000E-03 0.  1.
         11   -1    0    0    0    0 -0.00000000000E+00 -0.00000000000E+00 -0.45593999997E+02  0.45594000000E+02  0.51100000000E-03 0. -1.
    9900012    2    1    2    0    0  0.15792512324E+01  0.22010426162E+02 -0.34149927768E+02  0.50528801031E+02  0.29999821213E+02 0.  0.
        -12    1    1    2    0    0 -0.15792512324E+01 -0.22010426162E+02  0.34149927768E+02  0.40659198969E+02  0.00000000000E+00 0.  1.
         11    1    3    3    0    0  0.43262600977E+01 -0.35981250072E-01 -0.49782893318E+01  0.65955428901E+01  0.51100000000E-03 0. -1.
        -11    1    3    3    0    0  0.28816421543E+01 -0.32778648636E+01 -0.12137656696E+02  0.12898487117E+02  0.51100000000E-03 0.  1.
         12    1    3    3    0    0 -0.56286510197E+01  0.25324272276E+02 -0.17033981739E+02  0.31034771024E+02  0.00000000000E+00 0. -1.
</event>
<event>
 7    1  0.2985411E-011  0.5052887E+02  0.7816164E-02  0.1300439E+00
        -11   -1    0    0    0    0  0.00000000000E+00  0.00000000000E+00  0.45593999997E+02  0.45594000000E+02  0.51100000000E-03 0.  1.
         11   -1    0    0    0    0 -0.00000000000E+00 -0.00000000000E+00 -0.45593999997E+02  0.45594000000E+02  0.51100000000E-03 0. -1.
    9900012    2    1    2    0    0 -0.72301394884E+00  0.36183549018E+02 -0.18530856103E+02  0.50528873145E+02  0.30000040410E+02 0.  0.
        -12    1    1    2    0    0  0.72301394884E+00 -0.36183549018E+02  0.18530856103E+02  0.40659126855E+02  0.00000000000E+00 0.  1.
         11    1    3    3    0    0 -0.12411070317E+02  0.14324742007E+02 -0.39611590793E+01  0.19362946096E+02  0.51100000000E-03 0. -1.
        -11    1    3    3    0    0  0.34676451136E+01  0.10099050913E+02 -0.12861910256E+02  0.16716582416E+02  0.51100000000E-03 0.  1.
        -12    1    3    3    0    0  0.82204112546E+01  0.11759756098E+02 -0.17077867678E+01  0.14449344633E+02  0.00000000000E+00 0.  1.
</event>
<event>
 7    1  0.2985411E-011  0.5052885E+02  0.7816164E-02  0.1300439E+00
        -11   -1    0    0    0    0  0.00000000000E+00  0.00000000000E+00  0.45593999997E+02  0.45594000000E+02  0.51100000000E-03 0. -1.
         11   -1    0    0    0    0 -0.00000000000E+00 -0.00000000000E+00 -0.45593999997E+02  0.45594000000E+02  0.51100000000E-03 0.  1.
    9900012    2    1    2    0    0 -0.20846573833E+02  0.20640941909E+02  0.28152051590E+02  0.50528854262E+02  0.29999983014E+02 0.  0.
        -12    1    1    2    0    0  0.20846573833E+02 -0.20640941909E+02 -0.28152051590E+02  0.40659145738E+02  0.00000000000E+00 0.  1.
         11    1    3    3    0    0 -0.14728935578E+02  0.13233066398E+02  0.60379171577E+01  0.20700532202E+02  0.51100000000E-03 0. -1.
        -11    1    3    3    0    0  0.53459176235E+01 -0.91438452964E+00  0.90903954004E+01  0.10585377797E+02  0.51100000000E-03 0.  1.
         12    1    3    3    0    0 -0.11463555878E+02  0.83222600403E+01  0.13023739032E+02  0.19242944263E+02  0.00000000000E+00 0. -1.
</event>
<event>
 7    1  0.2985411E-011  0.5052883E+02  0.7816164E-02  0.1300439E+00
        -11   -1    0    0    0    0  0.00000000000E+00  0.00000000000E+00  0.45593999997E+02  0.45594000000E+02  0.51100000000E-03 0. -1.
         11   -1    0    0    0    0 -0.00000000000E+00 -0.00000000000E+00 -0.45593999997E+02  0.45594000000E+02  0.51100000000E-03 0.  1.
    9900012    2    1    2    0    0 -0.10783321016E+01  0.89698272634E+01  0.39642744040E+02  0.50528834290E+02  0.29999922307E+02 0.  0.
        -12    1    1    2    0    0  0.10783321016E+01 -0.89698272634E+01 -0.39642744040E+02  0.40659165710E+02  0.00000000000E+00 0.  1.
         11    1    3    3    0    0 -0.71717824598E+00 -0.22559132256E+01  0.42667119937E+01  0.48793770726E+01  0.51100000000E-03 0. -1.
        -11    1    3    3    0    0  0.50743073590E+00 -0.14788873192E+01 -0.39844677245E+01  0.42802543106E+01  0.51100000000E-03 0.  1.
         12    1    3    3    0    0 -0.86858459147E+00  0.12704627808E+02  0.39360499771E+02  0.41369202907E+02  0.00000000000E+00 0. -1.
</event>
<event>
 7    1  0.2985411E-011  0.5052886E+02  0.7816164E-02  0.1300439E+00
        -11   -1    0    0    0    0  0.00000000000E+00  0.00000000000E+00  0.45593999997E+02  0.45594000000E+02  0.51100000000E-03 0.  1.
         11   -1    0    0    0    0 -0.00000000000E+00 -0.00000000000E+00 -0.45593999997E+02  0.45594000000E+02  0.51100000000E-03 0. -1.
    9900012    2    1    2    0    0 -0.31592547236E+02 -0.25502851368E+02 -0.21636296734E+01  0.50528858812E+02  0.29999996846E+02 0.  0.
        -12    1    1    2    0    0  0.31592547236E+02  0.25502851368E+02  0.21636296734E+01  0.40659141188E+02  0.00000000000E+00 0.  1.
         11    1    3    3    0    0 -0.12290141628E+02 -0.14550741964E+02 -0.46824574589E+01  0.19613696262E+02  0.51100000000E-03 0. -1.
        -11    1    3    3    0    0 -0.43643595470E+00 -0.78599968378E+01  0.77994499390E+01  0.11081581396E+02  0.51100000000E-03 0.  1.
         12    1    3    3    0    0 -0.18865969653E+02 -0.30921125666E+01 -0.52806221536E+01  0.19833581154E+02  0.00000000000E+00 0. -1.
</event>
<event>
 7    1  0.2985411E-011  0.5052887E+02  0.7816164E-02  0.1300439E+00
        -11   -1    0    0    0    0  0.00000000000E+00  0.00000000000E+00  0.45593999997E+02  0.45594000000E+02  0.51100000000E-03 0.  1.
         11   -1    0    0    0    0 -0.00000000000E+00 -0.00000000000E+00 -0.45593999997E+02  0.45594000000E+02  0.51100000000E-03 0. -1.
    9900012    2    1    2    0    0  0.61908198504E+01  0.29507062931E+02 -0.27279508865E+02  0.50528872892E+02  0.30000039644E+02 0.  0.
        -12    1    1    2    0    0 -0.61908198504E+01 -0.29507062931E+02  0.27279508865E+02  0.40659127108E+02  0.00000000000E+00 0.  1.
         11    1    3    3    0    0  0.28741197474E+00  0.11947064312E+02 -0.12141679620E+02  0.17036294655E+02  0.51100000000E-03 0. -1.
        -11    1    3    3    0    0  0.79641509510E+01  0.22849542436E+02 -0.12112832615E+02  0.27060118332E+02  0.51100000000E-03 0.  1.
        -12    1    3    3    0    0 -0.20607430753E+01 -0.52895438176E+01 -0.30249966292E+01  0.64324599049E+01  0.00000000000E+00 0.  1.
</event>
<event>
 7    1  0.2985411E-011  0.5052887E+02  0.7816164E-02  0.1300439E+00
        -11   -1    0    0    0    0  0.00000000000E+00  0.00000000000E+00  0.45593999997E+02  0.45594000000E+02  0.51100000000E-03 0.  1.
         11   -1    0    0    0    0 -0.00000000000E+00 -0.00000000000E+00 -0.45593999997E+02  0.45594000000E+02  0.51100000000E-03 0. -1.
    9900012    2    1    2    0    0  0.30767082845E+02  0.24623958094E+02 -0.10010615318E+02  0.50528866733E+02  0.30000020920E+02 0.  0.
        -12    1    1    2    0    0 -0.30767082845E+02 -0.24623958094E+02  0.10010615318E+02  0.40659133267E+02  0.00000000000E+00 0.  1.
         11    1    3    3    0    0  0.28283430759E+01  0.71417676927E+01  0.62618828556E+01  0.99103757492E+01  0.51100000000E-03 0. -1.
        -11    1    3    3    0    0  0.95077631153E+01  0.11889994612E+02  0.27387873460E+00  0.15226442170E+02  0.51100000000E-03 0.  1.
        -12    1    3    3    0    0  0.18430976654E+02  0.55921957899E+01 -0.16546376909E+02  0.25392048814E+02  0.00000000000E+00 0.  1.
</event>
<event>
 7    1  0.2985411E-011  0.5052885E+02  0.7816164E-02  0.1300439E+00
        -11   -1    0    0    0    0  0.00000000000E+00  0.00000000000E+00  0.45593999997E+02  0.45594000000E+02  0.51100000000E-03 0. -1.
         11   -1    0    0    0    0 -0.00000000000E+00 -0.00000000000E+00 -0.45593999997E+02  0.45594000000E+02  0.51100000000E-03 0.  1.
    9900012    2    1    2    0    0  0.27358287796E+02  0.24187116563E+02  0.17879420305E+02  0.50528853561E+02  0.29999980883E+02 0.  0.
        -12    1    1    2    0    0 -0.27358287796E+02 -0.24187116563E+02 -0.17879420305E+02  0.40659146439E+02  0.00000000000E+00 0.  1.
         11    1    3    3    0    0  0.10798593038E+02  0.78545451380E+01 -0.45442921890E-01  0.13353110359E+02  0.51100000000E-03 0. -1.
        -11    1    3    3    0    0  0.10476946649E+01  0.16769014542E+02  0.11605620945E+02  0.20420282824E+02  0.51100000000E-03 0.  1.
         12    1    3    3    0    0  0.15512000093E+02 -0.43644311757E+00  0.63192422818E+01  0.16755460378E+02  0.00000000000E+00 0. -1.
</event>
<event>
 7    1  0.2985411E-011  0.5052888E+02  0.7816164E-02  0.1300439E+00
        -11   -1    0    0    0    0  0.00000000000E+00  0.00000000000E+00  0.45593999997E+02  0.45594000000E+02  0.51100000000E-03 0.  1.
         11   -1    0    0    0    0 -0.00000000000E+00 -0.00000000000E+00 -0.45593999997E+02  0.45594000000E+02  0.51100000000E-03 0. -1.
    9900012    2    1    2    0    0  0.12890220153E+02  0.46159690227E+01 -0.38284446430E+02  0.50528883137E+02  0.30000070783E+02 0.  0.
        -12    1    1    2    0    0 -0.12890220153E+02 -0.46159690227E+01  0.38284446430E+02  0.40659116863E+02  0.00000000000E+00 0.  1.
         11    1    3    3    0    0  0.10342867139E+02  0.18409681394E+01 -0.60311585571E+01  0.12113584859E+02  0.51100000000E-03 0. -1.
        -11    1    3    3    0    0  0.10910952588E+02  0.13898921334E+01 -0.11100526539E+02  0.15626975915E+02  0.51100000000E-03 0.  1.
         12    1    3    3    0    0 -0.83635995738E+01  0.13851087499E+01 -0.21152761334E+02  0.22788322363E+02  0.00000000000E+00 0. -1.
</event>
<event>
 7    1  0.2985411E-011  0.5052886E+02  0.7816164E-02  0.1300439E+00
        -11   -1    0    0    0    0  0.00000000000E+00  0.00000000000E+00  0.45593999997E+02  0.45594000000E+02  0.51100000000E-03 0. -1.
         11   -1    0    0    0    0 -0.00000000000E+00 -0.00000000000E+00 -0.45593999997E+02  0.45594000000E+02  0.51100000000E-03 0.  1.
    9900012    2    1    2    0    0  0.15894213773E+02 -0.14063608102E+02  0.34680749018E+02  0.50528862567E+02  0.30000008260E+02 0.  0.
        -12    1    1    2    0    0 -0.15894213773E+02  0.14063608102E+02 -0.34680749018E+02  0.40659137433E+02  0.00000000000E+00 0.  1.
         11    1    3    3    0    0  0.12869399040E+01 -0.20075027295E+01 -0.13319138972E+01  0.27313506579E+01  0.51100000000E-03 0. -1.
        -11    1    3    3    0    0  0.61791138956E+01  0.18395189489E+01 -0.17548991992E+01  0.66816876579E+01  0.51100000000E-03 0.  1.
         12    1    3    3    0    0  0.84281599734E+01 -0.13895624321E+02  0.37767562114E+02  0.41115824252E+02  0.00000000000E+00 0. -1.
</event>
<event>
 7    1  0.2985411E-011  0.5052886E+02  0.7816164E-02  0.1300439E+00
        -11   -1    0    0    0    0  0.00000000000E+00  0.00000000000E+00  0.45593999997E+02  0.45594000000E+02  0.51100000000E-03 0.  1.
         11   -1    0    0    0    0 -0.00000000000E+00 -0.00000000000E+00 -0.45593999997E+02  0.45594000000E+02  0.51100000000E-03 0. -1.
    9900012    2    1    2    0    0  0.30540114429E+02  0.10255081615E+02 -0.24805250263E+02  0.50528859221E+02  0.29999998088E+02 0.  0.
        -12    1    1    2    0    0 -0.30540114429E+02 -0.10255081615E+02  0.24805250263E+02  0.40659140779E+02  0.00000000000E+00 0.  1.
         11    1    3    3    0    0  0.25529804102E+01  0.56024006703E+01 -0.74886059202E+01  0.96945253176E+01  0.51100000000E-03 0. -1.
        -11    1    3    3    0    0  0.19075664194E+02  0.71058046102E+01 -0.22414767027E+02  0.30278626203E+02  0.51100000000E-03 0.  1.
        -12    1    3    3    0    0  0.89114698248E+01 -0.24531236659E+01  0.50981226836E+01  0.10555707700E+02  0.00000000000E+00 0.  1.
</event>
<event>
 7    1  0.2985411E-011  0.5052886E+02  0.7816164E-02  0.1300439E+00
        -11   -1    0    0    0    0  0.00000000000E+00  0.00000000000E+00  0.45593999997E+02  0.45594000000E+02  0.51100000000E-03 0.  1.
         11   -1    0    0    0    0 -0.00000000000E+00 -0.00000000000E+00 -0.45593999997E+02  0.45594000000E+02  0.51100000000E-03 0. -1.
    9900012    2    1    2    0    0 -0.25797593560E+02  0.26847884155E+02 -0.16335271963E+02  0.50528858012E+02  0.29999994413E+02 0.  0.
        -12    1    1    2    0    0  0.25797593560E+02 -0.26847884155E+02  0.16335271963E+02  0.40659141988E+02  0.00000000000E+00 0.  1.
         11    1    3    3    0    0 -0.23502640033E+02  0.13167472164E+02 -0.91835654612E+01  0.28462155339E+02  0.51100000000E-03 0. -1.
        -11    1    3    3    0    0 -0.60082469997E+01  0.22567319369E+01 -0.77221988705E+01  0.10041126764E+02  0.51100000000E-03 0.  1.
         12    1    3    3    0    0  0.37132934718E+01  0.11423680054E+02  0.57049236905E+00  0.12025575909E+02  0.00000000000E+00 0. -1.
</event>
<event>
 7    1  0.2985411E-011  0.5052886E+02  0.7816164E-02  0.1300439E+00
        -11   -1    0    0    0    0  0.00000000000E+00  0.00000000000E+00  0.45593999997E+02  0.45594000000E+02  0.51100000000E-03 0.  1.
         11   -1    0    0    0    0 -0.00000000000E+00 -0.00000000000E+00 -0.45593999997E+02  0.45594000000E+02  0.51100000000E-03 0. -1.
    9900012    2    1    2    0    0 -0.23826323680E+02 -0.17155342348E+02 -0.28127677535E+02  0.50528859395E+02  0.29999998617E+02 0.  0.
        -12    1    1    2    0    0  0.23826323680E+02  0.17155342348E+02  0.28127677535E+02  0.40659140605E+02  0.00000000000E+00 0.  1.
         11    1    3    3    0    0  0.18907496037E+01 -0.12993221544E+01 -0.65274401556E+01  0.69188617106E+01  0.51100000000E-03 0. -1.
        -11    1    3    3    0    0 -0.42428686814E+01 -0.60112929648E+01 -0.18342389059E+02  0.19763117528E+02  0.51100000000E-03 0.  1.
         12    1    3    3    0    0 -0.21474204603E+02 -0.98447272293E+01 -0.32578483203E+01  0.23846880157E+02  0.00000000000E+00 0. -1.
</event>
<event>
 7    1  0.2985411E-011  0.5052887E+02  0.7816164E-02  0.1300439E+00
        -11   -1    0    0    0    0  0.00000000000E+00  0.00000000000E+00  0.45593999997E+02  0.45594000000E+02  0.51100000000E-03 0.  1.
         11   -1    0    0    0    0 -0.00000000000E+00 -0.00000000000E+00 -0.45593999997E+02  0.45594000000E+02  0.51100000000E-03 0. -1.
    9900012    2    1    2    0    0  0.31683001404E+02 -0.36973909818E+01 -0.25212722835E+02  0.50528872233E+02  0.30000037639E+02 0.  0.
        -12    1    1    2    0    0 -0.31683001404E+02  0.36973909818E+01  0.25212722835E+02  0.40659127767E+02  0.00000000000E+00 0.  1.
         11    1    3    3    0    0  0.25107126784E+02 -0.71839674925E+01 -0.98915046987E+01  0.27925240729E+02  0.51100000000E-03 0. -1.
        -11    1    3    3    0    0  0.28228836086E+01 -0.53071459625E+01 -0.22712038744E+01  0.64259503138E+01  0.51100000000E-03 0.  1.
         12    1    3    3    0    0  0.37529910106E+01  0.87937224732E+01 -0.13050014262E+02  0.16177681190E+02  0.00000000000E+00 0. -1.
</event>
<event>
 7    1  0.2985411E-011  0.5052886E+02  0.7816164E-02  0.1300439E+00
        -11   -1    0    0    0    0  0.00000000000E+00  0.00000000000E+00  0.45593999997E+02  0.45594000000E+02  0.51100000000E-03 0.  1.
         11   -1    0    0    0    0 -0.00000000000E+00 -0.00000000000E+00 -0.45593999997E+02  0.45594000000E+02  0.51100000000E-03 0. -1.
    9900012    2    1    2    0    0  0.11476544616E+01  0.55032737905E+00 -0.40639214307E+02  0.50528859447E+02  0.29999998775E+02 0.  0.
        -12    1    1    2    0    0 -0.11476544616E+01 -0.55032737905E+00  0.40639214307E+02  0.40659140553E+02  0.00000000000E+00 0.  1.
         11    1    3    3    0    0 -0.55135297405E+01 -0.67295629097E+01 -0.23470924374E+02  0.25031386665E+02  0.51100000000E-03 0. -1.
        -11    1    3    3    0    0  0.87493798423E+01 -0.22349265410E+01 -0.94320369526E+01  0.13057942625E+02  0.51100000000E-03 0.  1.
        -12    1    3    3    0    0 -0.20881956402E+01  0.95148168297E+01 -0.77362529811E+01  0.12439530157E+02  0.00000000000E+00 0.  1.
</event>
<event>
 7    1  0.2985411E-011  0.5052886E+02  0.7816164E-02  0.1300439E+00
        -11   -1    0    0    0    0  0.00000000000E+00  0.00000000000E+00  0.45593999997E+02  0.45594000000E+02  0.51100000000E-03 0. -1.
         11   -1    0    0    0    0 -0.00000000000E+00 -0.00000000000E+00 -0.45593999997E+02  0.45594000000E+02  0.51100000000E-03 0.  1.
    9900012    2    1    2    0    0  0.30422756974E+02 -0.25985295284E+02 -0.72378114793E+01  0.50528860462E+02  0.30000001862E+02 0.  0.
        -12    1    1    2    0    0 -0.30422756974E+02  0.25985295284E+02  0.72378114793E+01  0.40659139538E+02  0.00000000000E+00 0.  1.
         11    1    3    3    0    0  0.11540724122E+02 -0.14806679904E+02 -0.84254025387E+00  0.18791912020E+02  0.51100000000E-03 0. -1.
        -11    1    3    3    0    0  0.84574874766E+01 -0.16119128378E+02  0.65886550015E+00  0.18215089846E+02  0.51100000000E-03 0.  1.
        -12    1    3    3    0    0  0.10424545375E+02  0.49405129973E+01 -0.70541367256E+01  0.13521858596E+02  0.00000000000E+00 0.  1.
</event>
<event>
 7    1  0.2985411E-011  0.5052884E+02  0.7816164E-02  0.1300439E+00
        -11   -1    0    0    0    0  0.00000000000E+00  0.00000000000E+00  0.45593999997E+02  0.45594000000E+02  0.51100000000E-03 0. -1.
         11   -1    0    0    0    0 -0.00000000000E+00 -0.00000000000E+00 -0.45593999997E+02  0.45594000000E+02  0.51100000000E-03 0.  1.
    9900012    2    1    2    0    0  0.39011143821E+02  0.71372429390E+00  0.11436264467E+02  0.50528844948E+02  0.29999954705E+02 0.  0.
        -12    1    1    2    0    0 -0.39011143821E+02 -0.71372429390E+00 -0.11436264467E+02  0.40659155052E+02  0.00000000000E+00 0.  1.
         11    1    3    3    0    0  0.23704600258E+01  0.61091743754E+01  0.59394319105E+01  0.88440909066E+01  0.51100000000E-03 0. -1.
        -11    1    3    3    0    0 -0.21257469507E+00  0.78502365423E+00  0.42172322364E+01  0.42949386649E+01  0.51100000000E-03 0.  1.
         12    1    3    3    0    0  0.36853258490E+02 -0.61804737357E+01  0.12796003197E+01  0.37389815377E+02  0.00000000000E+00 0. -1.
</event>
<event>
 7    1  0.2985411E-011  0.5052886E+02  0.7816164E-02  0.1300439E+00
        -11   -1    0    0    0    0  0.00000000000E+00  0.00000000000E+00  0.45593999997E+02  0.45594000000E+02  0.51100000000E-03 0. -1.
         11   -1    0    0    0    0 -0.00000000000E+00 -0.00000000000E+00 -0.45593999997E+02  0.45594000000E+02  0.51100000000E-03 0.  1.
    9900012    2    1    2    0    0  0.34193477372E+02 -0.14428914081E+02 -0.16606577400E+02  0.50528857494E+02  0.29999992839E+02 0.  0.
        -12    1    1    2    0    0 -0.34193477372E+02  0.14428914081E+02  0.16606577400E+02  0.40659142506E+02  0.00000000000E+00 0.  1.
         11    1    3    3    0    0  0.10416285771E+02 -0.73005941433E+01 -0.77669826843E+00  0.12743662918E+02  0.51100000000E-03 0. -1.
        -11    1    3    3    0    0  0.17063597222E+02 -0.14171842065E+02 -0.41209711712E+01  0.22560803650E+02  0.51100000000E-03 0.  1.
        -12    1    3    3    0    0  0.67135943792E+01  0.70435221271E+01 -0.11708907960E+02  0.15224390926E+02  0.00000000000E+00 0.  1.
</event>
<event>
 7    1  0.2985411E-011  0.5052886E+02  0.7816164E-02  0.1300439E+00
        -11   -1    0    0    0    0  0.00000000000E+00  0.00000000000E+00  0.45593999997E+02  0.45594000000E+02  0.51100000000E-03 0.  1.
         11   -1    0    0    0    0 -0.00000000000E+00 -0.00000000000E+00 -0.45593999997E+02  0.45594000000E+02  0.51100000000E-03 0. -1.
    9900012    2    1    2    0    0 -0.30047063328E+02 -0.65565525888E+00 -0.27384475661E+02  0.50528863196E+02  0.30000010169E+02 0.  0.
        -12    1    1    2    0    0  0.30047063328E+02  0.65565525888E+00  0.27384475661E+02  0.40659136804E+02  0.00000000000E+00 0.  1.
         11    1    3    3    0    0 -0.33717793710E+00  0.93286827998E+01 -0.53071919175E+01  0.10737983891E+02  0.51100000000E-03 0. -1.
        -11    1    3    3    0    0  0.24057846680E+00 -0.15186200498E+01  0.15014193097E+00  0.15448714235E+01  0.51100000000E-03 0.  1.
         12    1    3    3    0    0 -0.29950463858E+02 -0.84657180089E+01 -0.22227425675E+02  0.38246007881E+02  0.00000000000E+00 0. -1.
</event>
<event>
 7    1  0.2985411E-011  0.5052885E+02  0.7816164E-02  0.1300439E+00
        -11   -1    0    0    0    0  0.00000000000E+00  0.00000000000E+00  0.45593999997E+02  0.45594000000E+02  0.51100000000E-03 0.  1.
         11   -1    0    0    0    0 -0.00000000000E+00 -0.00000000000E+00 -0.45593999997E+02  0.45594000000E+02  0.51100000000E-03 0. -1.
    9900012    2    1    2    0    0  0.24497566731E+02  0.32124755481E+02  0.45864970100E+01  0.50528847952E+02  0.29999963835E+02 0.  0.
        -12    1    1    2    0    0 -0.24497566731E+02 -0.32124755481E+02 -0.45864970100E+01  0.40659152048E+02  0.00000000000E+00 0.  1.
         11    1    3    3    0    0  0.77080782282E+01 -0.16418409368E+01  0.50570103548E+01  0.93639449818E+01  0.51100000000E-03 0. -1.
        -11    1    3    3    0    0  0.88987176088E-02  0.18864170450E+01  0.44218032770E+01  0.48073894097E+01  0.51100000000E-03 0.  1.
         12    1    3    3    0    0  0.16780589785E+02  0.31880179373E+02 -0.48923166218E+01  0.36357513560E+02  0.00000000000E+00 0. -1.
</event>
<event>
 7    1  0.2985411E-011  0.5052885E+02  0.7816164E-02  0.1300439E+00
        -11   -1    0    0    0    0  0.00000000000E+00  0.00000000000E+00  0.45593999997E+02  0.45594000000E+02  0.51100000000E-03 0.  1.
         11   -1    0    0    0    0 -0.00000000000E+00 -0.00000000000E+00 -0.45593999997E+02  0.45594000000E+02  0.51100000000E-03 0. -1.
    9900012    2    1    2    0    0 -0.24642249480E+02  0.23365482847E+02 -0.22360233438E+02  0.50528852352E+02  0.29999977208E+02 0.  0.
        -12    1    1    2    0    0  0.24642249480E+02 -0.23365482847E+02  0.22360233438E+02  0.40659147648E+02  0.00000000000E+00 0.  1.
         11    1    3    3    0    0 -0.75813990062E+01 -0.12617785760E+01 -0.85160454042E+01  0.11471387259E+02  0.51100000000E-03 0. -1.
        -11    1    3    3    0    0 -0.32008469210E+01 -0.33535598791E+01  0.56045726302E+00  0.46696785199E+01  0.51100000000E-03 0.  1.
         12    1    3    3    0    0 -0.13860003553E+02  0.27980821302E+02 -0.14404645296E+02  0.34387786572E+02  0.00000000000E+00 0. -1.
</event>
<event>
 7    1  0.2985411E-011  0.5052886E+02  0.7816164E-02  0.1300439E+00
        -11   -1    0    0    0    0  0.00000000000E+00  0.00000000000E+00  0.45593999997E+02  0.45594000000E+02  0.51100000000E-03 0.  1.
         11   -1    0    0    0    0 -0.00000000000E+00 -0.00000000000E+00 -0.45593999997E+02  0.45594000000E+02  0.51100000000E-03 0. -1.
    9900012    2    1    2    0    0 -0.36073218316E+01 -0.38586037021E+02  0.12299220271E+02  0.50528857817E+02  0.29999993821E+02 0.  0.
        -12    1    1    2    0    0  0.36073218316E+01  0.38586037021E+02 -0.12299220271E+02  0.40659142183E+02  0.00000000000E+00 0.  1.
         11    1    3    3    0    0 -0.89522719605E+01 -0.11136561571E+02 -0.10920186416E+01  0.14330341303E+02  0.51100000000E-03 0. -1.
        -11    1    3    3    0    0 -0.57257906007E+01 -0.23373463440E+01  0.23166736757E+01  0.66041534745E+01  0.51100000000E-03 0.  1.
        -12    1    3    3    0    0  0.11070740730E+02 -0.25112129106E+02  0.11074565237E+02  0.29594363039E+02  0.00000000000E+00 0.  1.
</event>
<event>
 7    1  0.2985411E-011  0.5052886E+02  0.7816164E-02  0.1300439E+00
        -11   -1    0    0    0    0  0.00000000000E+00  0.00000000000E+00  0.45593999997E+02  0.45594000000E+02  0.51100000000E-03 0. -1.
         11   -1    0    0    0    0 -0.00000000000E+00 -0.00000000000E+00 -0.45593999997E+02  0.45594000000E+02  0.51100000000E-03 0.  1.
    9900012    2    1    2    0    0  0.25328639134E+02  0.28794319454E+02 -0.13509733661E+02  0.50528859615E+02  0.29999999286E+02 0.  0.
        -12    1    1    2    0    0 -0.25328639134E+02 -0.28794319454E+02  0.13509733661E+02  0.40659140385E+02  0.00000000000E+00 0.  1.
         11    1    3    3    0    0  0.14939476933E+02  0.21255349088E+02 -0.14351464781E+02  0.29680673468E+02  0.51100000000E-03 0. -1.
        -11    1    3    3    0    0  0.10862639423E+02  0.11326061407E+02 -0.23559857644E+01  0.15869066495E+02  0.51100000000E-03 0.  1.
        -12    1    3    3    0    0 -0.47347722133E+00 -0.37870910413E+01  0.31977168849E+01  0.49791196521E+01  0.00000000000E+00 0.  1.
</event>
<event>
 7    1  0.2985411E-011  0.5052886E+02  0.7816164E-02  0.1300439E+00
        -11   -1    0    0    0    0  0.00000000000E+00  0.00000000000E+00  0.45593999997E+02  0.45594000000E+02  0.51100000000E-03 0. -1.
         11   -1    0    0    0    0 -0.00000000000E+00 -0.00000000000E+00 -0.45593999997E+02  0.45594000000E+02  0.51100000000E-03 0.  1.
    9900012    2    1    2    0    0 -0.30173463005E+01  0.31368902333E+02  0.25691499872E+02  0.50528861077E+02  0.30000003729E+02 0.  0.
        -12    1    1    2    0    0  0.30173463005E+01 -0.31368902333E+02 -0.25691499872E+02  0.40659138923E+02  0.00000000000E+00 0.  1.
         11    1    3    3    0    0 -0.80896389482E+00  0.31685505473E+01  0.97259846376E+01  0.10261038572E+02  0.51100000000E-03 0. -1.
        -11    1    3    3    0    0 -0.71049398999E+01  0.17102585449E+02  0.20214280962E+02  0.27415246763E+02  0.51100000000E-03 0.  1.
        -12    1    3    3    0    0  0.48965574942E+01  0.11097766337E+02 -0.42487657277E+01  0.12852575741E+02  0.00000000000E+00 0.  1.
</event>
<event>
 7    1  0.2985411E-011  0.5052890E+02  0.7816164E-02  0.1300439E+00
        -11   -1    0    0    0    0  0.00000000000E+00  0.00000000000E+00  0.45593999997E+02  0.45594000000E+02  0.51100000000E-03 0.  1.
         11   -1    0    0    0    0 -0.00000000000E+00 -0.00000000000E+00 -0.45593999997E+02  0.45594000000E+02  0.51100000000E-03 0. -1.
    9900012    2    1    2    0    0  0.69030447510E+01  0.11891462986E+02 -0.38263601266E+02  0.50528903840E+02  0.30000133710E+02 0.  0.
        -12    1    1    2    0    0 -0.69030447510E+01 -0.11891462986E+02  0.38263601266E+02  0.40659096160E+02  0.00000000000E+00 0.  1.
         11    1    3    3    0    0 -0.38557220505E-01  0.83918293487E+01 -0.79887680727E+01  0.11586401601E+02  0.51100000000E-03 0. -1.
        -11    1    3    3    0    0  0.29975126978E+01  0.10857269679E+02 -0.28162420013E+02  0.30331292233E+02  0.51100000000E-03 0.  1.
        -12    1    3    3    0    0  0.39440892737E+01 -0.73576360417E+01 -0.21124131794E+01  0.86112100057E+01  0.00000000000E+00 0.  1.
</event>
<event>
 7    1  0.2985411E-011  0.5052887E+02  0.7816164E-02  0.1300439E+00
        -11   -1    0    0    0    0  0.00000000000E+00  0.00000000000E+00  0.45593999997E+02  0.45594000000E+02  0.51100000000E-03 0.  1.
         11   -1    0    0    0    0 -0.00000000000E+00 -0.00000000000E+00 -0.45593999997E+02  0.45594000000E+02  0.51100000000E-03 0. -1.
    9900012    2    1    2    0    0 -0.39225710823E+02 -0.10470656601E+02 -0.22077381258E+01  0.50528866379E+02  0.30000019845E+02 0.  0.
        -12    1    1    2    0    0  0.39225710823E+02  0.10470656601E+02  0.22077381258E+01  0.40659133621E+02  0.00000000000E+00 0.  1.
         11    1    3    3    0    0 -0.30964495735E+01 -0.54450462403E+01 -0.72272695821E+01  0.95639925969E+01  0.51100000000E-03 0. -1.
        -11    1    3    3    0    0 -0.42621265842E+01 -0.63764895635E+01 -0.27300742370E+01  0.81411699266E+01  0.51100000000E-03 0.  1.
        -12    1    3    3    0    0 -0.31867134665E+02  0.13508792033E+01  0.77496056933E+01  0.32823703855E+02  0.00000000000E+00 0.  1.
</event>
<event>
 7    1  0.2985411E-011  0.5052884E+02  0.7816164E-02  0.1300439E+00
        -11   -1    0    0    0    0  0.00000000000E+00  0.00000000000E+00  0.45593999997E+02  0.45594000000E+02  0.51100000000E-03 0.  1.
         11   -1    0    0    0    0 -0.00000000000E+00 -0.00000000000E+00 -0.45593999997E+02  0.45594000000E+02  0.51100000000E-03 0. -1.
    9900012    2    1    2    0    0 -0.54914004378E+01 -0.37473424772E+02 -0.14790333642E+02  0.50528843440E+02  0.29999950121E+02 0.  0.
        -12    1    1    2    0    0  0.54914004378E+01  0.37473424772E+02  0.14790333642E+02  0.40659156560E+02  0.00000000000E+00 0.  1.
         11    1    3    3    0    0 -0.26734966734E+00 -0.51242863910E+01 -0.47631196748E+01  0.70012210477E+01  0.51100000000E-03 0. -1.
        -11    1    3    3    0    0  0.65031727820E+01  0.13231993601E+01 -0.24581020521E+01  0.70770317746E+01  0.51100000000E-03 0.  1.
        -12    1    3    3    0    0 -0.11727223553E+02 -0.33672337741E+02 -0.75691119151E+01  0.36450590618E+02  0.00000000000E+00 0.  1.
</event>
<event>
 7    1  0.2985411E-011  0.5052885E+02  0.7816164E-02  0.1300439E+00
        -11   -1    0    0    0    0  0.00000000000E+00  0.00000000000E+00  0.45593999997E+02  0.45594000000E+02  0.51100000000E-03 0.  1.
         11   -1    0    0    0    0 -0.00000000000E+00 -0.00000000000E+00 -0.45593999997E+02  0.45594000000E+02  0.51100000000E-03 0. -1.
    9900012    2    1    2    0    0  0.73887563962E+01 -0.31008103344E+02 -0.25240244409E+02  0.50528854265E+02  0.29999983023E+02 0.  0.
        -12    1    1    2    0    0 -0.73887563962E+01  0.31008103344E+02  0.25240244409E+02  0.40659145735E+02  0.00000000000E+00 0.  1.
         11    1    3    3    0    0  0.59229700693E+01 -0.15731215897E+02 -0.44734143157E+01  0.17394371617E+02  0.51100000000E-03 0. -1.
        -11    1    3    3    0    0  0.50087945895E+01 -0.44835542082E+01  0.25562192308E+01  0.71919773773E+01  0.51100000000E-03 0.  1.
         12    1    3    3    0    0 -0.35430082626E+01 -0.10793333239E+02 -0.23323049324E+02  0.25942505271E+02  0.00000000000E+00 0. -1.
</event>
<event>
 7    1  0.2985411E-011  0.5052889E+02  0.7816164E-02  0.1300439E+00
        -11   -1    0    0    0    0  0.00000000000E+00  0.00000000000E+00  0.45593999997E+02  0.45594000000E+02  0.51100000000E-03 0.  1.
         11   -1    0    0    0    0 -0.00000000000E+00 -0.00000000000E+00 -0.45593999997E+02  0.45594000000E+02  0.51100000000E-03 0. -1.
    9900012    2    1    2    0    0 -0.32344351509E+02  0.24586049876E+02  0.15911970479E+01  0.50528894856E+02  0.30000106405E+02 0.  0.
        -12    1    1    2    0    0  0.32344351509E+02 -0.24586049876E+02 -0.15911970479E+01  0.40659105144E+02  0.00000000000E+00 0.  1.
         11    1    3    3    0    0 -0.17245111112E+02 -0.13197104214E+01 -0.34370997287E+00  0.17298948802E+02  0.51100000000E-03 0. -1.
        -11    1    3    3    0    0  0.78752464067E+00 -0.44488927425E+00  0.22862831153E+01  0.24587013382E+01  0.51100000000E-03 0.  1.
        -12    1    3    3    0    0 -0.15886765038E+02  0.26350649571E+02 -0.35137609458E+00  0.30771244716E+02  0.00000000000E+00 0.  1.
</event>
<event>
 7    1  0.2985411E-011  0.5052885E+02  0.7816164E-02  0.1300439E+00
        -11   -1    0    0    0    0  0.00000000000E+00  0.00000000000E+00  0.45593999997E+02  0.45594000000E+02  0.51100000000E-03 0.  1.
         11   -1    0    0    0    0 -0.00000000000E+00 -0.00000000000E+00 -0.45593999997E+02  0.45594000000E+02  0.51100000000E-03 0. -1.
    9900012    2    1    2    0    0  0.25502850816E+02  0.14134786423E+02 -0.28336875506E+02  0.50528854652E+02  0.29999984201E+02 0.  0.
        -12    1    1    2    0    0 -0.25502850816E+02 -0.14134786423E+02  0.28336875506E+02  0.40659145348E+02  0.00000000000E+00 0.  1.
         11    1    3    3    0    0  0.19605675737E+02  0.11090743249E+02 -0.17457895668E+02  0.28498512739E+02  0.51100000000E-03 0. -1.
        -11    1    3    3    0    0  0.11971597884E+02  0.13500572297E+01 -0.39904114980E+01  0.12691146307E+02  0.51100000000E-03 0.  1.
        -12    1    3    3    0    0 -0.60744228045E+01  0.16939859441E+01 -0.68885683396E+01  0.93391956054E+01  0.00000000000E+00 0.  1.
</event>
<event>
 7    1  0.2985411E-011  0.5052884E+02  0.7816164E-02  0.1300439E+00
        -11   -1    0    0    0    0  0.00000000000E+00  0.00000000000E+00  0.45593999997E+02  0.45594000000E+02  0.51100000000E-03 0.  1.
         11   -1    0    0    0    0 -0.00000000000E+00 -0.00000000000E+00 -0.45593999997E+02  0.45594000000E+02  0.51100000000E-03 0. -1.
    9900012    2    1    2    0    0 -0.17496778714E+02  0.10685723752E+02 -0.35111898414E+02  0.50528839068E+02  0.29999936830E+02 0.  0.
        -12    1    1    2    0    0  0.17496778714E+02 -0.10685723752E+02  0.35111898414E+02  0.40659160932E+02  0.00000000000E+00 0.  1.
         11    1    3    3    0    0 -0.56106945941E+01 -0.30993982429E+01 -0.15662898444E+02  0.16923727462E+02  0.51100000000E-03 0. -1.
        -11    1    3    3    0    0 -0.16362266046E+02  0.91998371871E+01 -0.19675141453E+02  0.27193233458E+02  0.51100000000E-03 0.  1.
        -12    1    3    3    0    0  0.44761819264E+01  0.45852848076E+01  0.22614148284E+00  0.64118781472E+01  0.00000000000E+00 0.  1.
</event>
<event>
 7    1  0.2985411E-011  0.5052886E+02  0.7816164E-02  0.1300439E+00
        -11   -1    0    0    0    0  0.00000000000E+00  0.00000000000E+00  0.45593999997E+02  0.45594000000E+02  0.51100000000E-03 0. -1.
         11   -1    0    0    0    0 -0.00000000000E+00 -0.00000000000E+00 -0.45593999997E+02  0.45594000000E+02  0.51100000000E-03 0.  1.
    9900012    2    1    2    0    0  0.39368989543E+02 -0.89892422096E+01 -0.47372601538E+01  0.50528862689E+02  0.30000008628E+02 0.  0.
        -12    1    1    2    0    0 -0.39368989543E+02  0.89892422096E+01  0.47372601538E+01  0.40659137311E+02  0.00000000000E+00 0.  1.
         11    1    3    3    0    0  0.72427467302E+01 -0.35514605913E+01 -0.95550813313E+01  0.12504792363E+02  0.51100000000E-03 0. -1.
        -11    1    3    3    0    0  0.18770718005E+02  0.39510933248E+01 -0.38133126344E+01  0.19557411546E+02  0.51100000000E-03 0.  1.
        -12    1    3    3    0    0  0.13355524808E+02 -0.93888749431E+01  0.86311338119E+01  0.18466658779E+02  0.00000000000E+00 0.  1.
</event>
<event>
 7    1  0.2985411E-011  0.5052886E+02  0.7816164E-02  0.1300439E+00
        -11   -1    0    0    0    0  0.00000000000E+00  0.00000000000E+00  0.45593999997E+02  0.45594000000E+02  0.51100000000E-03 0. -1.
         11   -1    0    0    0    0 -0.00000000000E+00 -0.00000000000E+00 -0.45593999997E+02  0.45594000000E+02  0.51100000000E-03 0.  1.
    9900012    2    1    2    0    0  0.19727597720E+02  0.14000113134E+02  0.32680032404E+02  0.50528858378E+02  0.29999995524E+02 0.  0.
        -12    1    1    2    0    0 -0.19727597720E+02 -0.14000113134E+02 -0.32680032404E+02  0.40659141622E+02  0.00000000000E+00 0.  1.
         11    1    3    3    0    0 -0.33907823680E+01  0.10646030661E+02  0.13337865377E+02  0.17399253633E+02  0.51100000000E-03 0. -1.
        -11    1    3    3    0    0  0.22832552415E+01  0.52069158901E+00  0.97335267677E+01  0.10011289519E+02  0.51100000000E-03 0.  1.
        -12    1    3    3    0    0  0.20835124846E+02  0.28333908842E+01  0.96086402589E+01  0.23118315226E+02  0.00000000000E+00 0.  1.
</event>
<event>
 7    1  0.2985411E-011  0.5052889E+02  0.7816164E-02  0.1300439E+00
        -11   -1    0    0    0    0  0.00000000000E+00  0.00000000000E+00  0.45593999997E+02  0.45594000000E+02  0.51100000000E-03 0.  1.
         11   -1    0    0    0    0 -0.00000000000E+00 -0.00000000000E+00 -0.45593999997E+02  0.45594000000E+02  0.51100000000E-03 0. -1.
    9900012    2    1    2    0    0 -0.38782603812E+02 -0.11168308575E+01 -0.12158344882E+02  0.50528892534E+02  0.30000099348E+02 0.  0.
        -12    1    1    2    0    0  0.38782603812E+02  0.11168308575E+01  0.12158344882E+02  0.40659107466E+02  0.00000000000E+00 0.  1.
         11    1    3    3    0    0 -0.31057111858E+02  0.42402936600E+01 -0.17602549530E+02  0.35949604136E+02  0.51100000000E-03 0. -1.
        -11    1    3    3    0    0 -0.26275003399E-01  0.15629621564E+01 -0.14576687432E+01  0.21373674237E+01  0.51100000000E-03 0.  1.
         12    1    3    3    0    0 -0.76992169512E+01 -0.69200866739E+01  0.69018733918E+01  0.12441920975E+02  0.00000000000E+00 0. -1.
</event>
<event>
 7    1  0.2985411E-011  0.5052884E+02  0.7816164E-02  0.1300439E+00
        -11   -1    0    0    0    0  0.00000000000E+00  0.00000000000E+00  0.45593999997E+02  0.45594000000E+02  0.51100000000E-03 0.  1.
         11   -1    0    0    0    0 -0.00000000000E+00 -0.00000000000E+00 -0.45593999997E+02  0.45594000000E+02  0.51100000000E-03 0. -1.
    9900012    2    1    2    0    0 -0.25519544126E+02 -0.31650059130E+02  0.44014411105E+00  0.50528842333E+02  0.29999946755E+02 0.  0.
        -12    1    1    2    0    0  0.25519544126E+02  0.31650059130E+02 -0.44014411105E+00  0.40659157667E+02  0.00000000000E+00 0.  1.
         11    1    3    3    0    0 -0.78981550977E+01 -0.90954167598E+01 -0.28816992960E+01  0.12385945708E+02  0.51100000000E-03 0. -1.
        -11    1    3    3    0    0 -0.12231077545E+02 -0.23409415140E+02  0.11092727139E+02  0.28646964425E+02  0.51100000000E-03 0.  1.
        -12    1    3    3    0    0 -0.53903114833E+01  0.85477276966E+00 -0.77708837322E+01  0.94959322003E+01  0.00000000000E+00 0.  1.
</event>
<event>
 7    1  0.2985411E-011  0.5052885E+02  0.7816164E-02  0.1300439E+00
        -11   -1    0    0    0    0  0.00000000000E+00  0.00000000000E+00  0.45593999997E+02  0.45594000000E+02  0.51100000000E-03 0.  1.
         11   -1    0    0    0    0 -0.00000000000E+00 -0.00000000000E+00 -0.45593999997E+02  0.45594000000E+02  0.51100000000E-03 0. -1.
    9900012    2    1    2    0    0  0.14073261443E+02  0.16346914852E+02 -0.34465758302E+02  0.50528845949E+02  0.29999957746E+02 0.  0.
        -12    1    1    2    0    0 -0.14073261443E+02 -0.16346914852E+02  0.34465758302E+02  0.40659154051E+02  0.00000000000E+00 0.  1.
         11    1    3    3    0    0 -0.32911877297E+01  0.73086857652E+01 -0.20063369256E+02  0.21605267655E+02  0.51100000000E-03 0. -1.
        -11    1    3    3    0    0  0.20437424944E+01 -0.36573062614E+01  0.27491452769E+00  0.41986129533E+01  0.51100000000E-03 0.  1.
         12    1    3    3    0    0  0.15320706678E+02  0.12695535348E+02 -0.14677303574E+02  0.24724965340E+02  0.00000000000E+00 0. -1.
</event>
<event>
 7    1  0.2985411E-011  0.5052886E+02  0.7816164E-02  0.1300439E+00
        -11   -1    0    0    0    0  0.00000000000E+00  0.00000000000E+00  0.45593999997E+02  0.45594000000E+02  0.51100000000E-03 0. -1.
         11   -1    0    0    0    0 -0.00000000000E+00 -0.00000000000E+00 -0.45593999997E+02  0.45594000000E+02  0.51100000000E-03 0.  1.
    9900012    2    1    2    0    0 -0.22565037778E+01 -0.36098731503E+02  0.18572968352E+02  0.50528863526E+02  0.30000011173E+02 0.  0.
        -12    1    1    2    0    0  0.22565037778E+01  0.36098731503E+02 -0.18572968352E+02  0.40659136474E+02  0.00000000000E+00 0.  1.
         11    1    3    3    0    0  0.30043453741E+01 -0.87141038727E+01  0.17347227708E+02  0.19644032347E+02  0.51100000000E-03 0. -1.
        -11    1    3    3    0    0 -0.26464013235E+01 -0.22977594804E+01 -0.37965900460E+01  0.51669366973E+01  0.51100000000E-03 0.  1.
        -12    1    3    3    0    0 -0.26144478284E+01 -0.25086868150E+02  0.50223306904E+01  0.25717894482E+02  0.00000000000E+00 0.  1.
</event>
<event>
 7    1  0.2985411E-011  0.5052887E+02  0.7816164E-02  0.1300439E+00
        -11   -1    0    0    0    0  0.00000000000E+00  0.00000000000E+00  0.45593999997E+02  0.45594000000E+02  0.51100000000E-03 0.  1.
         11   -1    0    0    0    0 -0.00000000000E+00 -0.00000000000E+00 -0.45593999997E+02  0.45594000000E+02  0.51100000000E-03 0. -1.
    9900012    2    1    2    0    0  0.19071293499E+02  0.35839729083E+02 -0.22280619651E+01  0.50528872162E+02  0.30000037424E+02 0.  0.
        -12    1    1    2    0    0 -0.19071293499E+02 -0.35839729083E+02  0.22280619651E+01  0.40659127838E+02  0.00000000000E+00 0.  1.
         11    1    3    3    0    0  0.34500140420E+01  0.18641754089E+01 -0.54622656907E+01  0.67241425908E+01  0.51100000000E-03 0. -1.
        -11    1    3    3    0    0  0.59999058590E+01 -0.14063348120E+01  0.35984182494E+01  0.71361938090E+01  0.51100000000E-03 0.  1.
        -12    1    3    3    0    0  0.96213735975E+01  0.35381888486E+02 -0.36421452383E+00  0.36668535762E+02  0.00000000000E+00 0.  1.
</event>
<event>
 7    1  0.2985411E-011  0.5052886E+02  0.7816164E-02  0.1300439E+00
        -11   -1    0    0    0    0  0.00000000000E+00  0.00000000000E+00  0.45593999997E+02  0.45594000000E+02  0.51100000000E-03 0.  1.
         11   -1    0    0    0    0 -0.00000000000E+00 -0.00000000000E+00 -0.45593999997E+02  0.45594000000E+02  0.51100000000E-03 0. -1.
    9900012    2    1    2    0    0 -0.34253478400E+02 -0.19023304970E+02 -0.10861811685E+02  0.50528857516E+02  0.29999992905E+02 0.  0.
        -12    1    1    2    0    0  0.34253478400E+02  0.19023304970E+02  0.10861811685E+02  0.40659142484E+02  0.00000000000E+00 0.  1.
         11    1    3    3    0    0 -0.11901046208E+02  0.44703857411E+01 -0.68054263770E+01  0.14419884811E+02  0.51100000000E-03 0. -1.
        -11    1    3    3    0    0  0.97360026991E+00  0.14373598972E+01 -0.28930081212E+00  0.17599989150E+01  0.51100000000E-03 0.  1.
        -12    1    3    3    0    0 -0.23326032462E+02 -0.24931050609E+02 -0.37670844955E+01  0.34348973790E+02  0.00000000000E+00 0.  1.
</event>
<event>
 7    1  0.2985411E-011  0.5052886E+02  0.7816164E-02  0.1300439E+00
        -11   -1    0    0    0    0  0.00000000000E+00  0.00000000000E+00  0.45593999997E+02  0.45594000000E+02  0.51100000000E-03 0.  1.
         11   -1    0    0    0    0 -0.00000000000E+00 -0.00000000000E+00 -0.45593999997E+02  0.45594000000E+02  0.51100000000E-03 0. -1.
    9900012    2    1    2    0    0 -0.46645278561E+01  0.35200727702E+02 -0.19806987326E+02  0.50528858374E+02  0.29999995513E+02 0.  0.
        -12    1    1    2    0    0  0.46645278561E+01 -0.35200727702E+02  0.19806987326E+02  0.40659141626E+02  0.00000000000E+00 0.  1.
         11    1    3    3    0    0 -0.66264123705E+01  0.33615904401E+01 -0.83578706261E+00  0.74771767042E+01  0.51100000000E-03 0. -1.
        -11    1    3    3    0    0 -0.51067378518E+01  0.27595750209E+02 -0.77266244490E+01  0.29108502653E+02  0.51100000000E-03 0.  1.
        -12    1    3    3    0    0  0.70686223663E+01  0.42433870529E+01 -0.11244575814E+02  0.13943179016E+02  0.00000000000E+00 0.  1.
</event>
<event>
 7    1  0.2985411E-011  0.5052886E+02  0.7816164E-02  0.1300439E+00
        -11   -1    0    0    0    0  0.00000000000E+00  0.00000000000E+00  0.45593999997E+02  0.45594000000E+02  0.51100000000E-03 0. -1.
         11   -1    0    0    0    0 -0.00000000000E+00 -0.00000000000E+00 -0.45593999997E+02  0.45594000000E+02  0.51100000000E-03 0.  1.
    9900012    2    1    2    0    0  0.38441245250E+02 -0.79644680677E+01  0.10583190695E+02  0.50528855724E+02  0.29999987459E+02 0.  0.
        -12    1    1    2    0    0 -0.38441245250E+02  0.79644680677E+01 -0.10583190695E+02  0.40659144276E+02  0.00000000000E+00 0.  1.
         11    1    3    3    0    0 -0.14610920697E+01  0.49538829038E+01 -0.83002793107E+00  0.52311272674E+01  0.51100000000E-03 0. -1.
        -11    1    3    3    0    0  0.35753329572E+01 -0.57487139955E+01  0.24597511527E+01  0.72028532091E+01  0.51100000000E-03 0.  1.
         12    1    3    3    0    0  0.36327004363E+02 -0.71696369759E+01  0.89534674730E+01  0.38094875247E+02  0.00000000000E+00 0. -1.
</event>
<event>
 7    1  0.2985411E-011  0.5052887E+02  0.7816164E-02  0.1300439E+00
        -11   -1    0    0    0    0  0.00000000000E+00  0.00000000000E+00  0.45593999997E+02  0.45594000000E+02  0.51100000000E-03 0. -1.
         11   -1    0    0    0    0 -0.00000000000E+00 -0.00000000000E+00 -0.45593999997E+02  0.45594000000E+02  0.51100000000E-03 0.  1.
    9900012    2    1    2    0    0 -0.24643085534E+01  0.39326924479E+02  0.10024211684E+02  0.50528872790E+02  0.30000039332E+02 0.  0.
        -12    1    1    2    0    0  0.24643085534E+01 -0.39326924479E+02 -0.10024211684E+02  0.40659127210E+02  0.00000000000E+00 0.  1.
         11    1    3    3    0    0 -0.11953550513E+02  0.16584879855E+02  0.76836603422E+01  0.21839969006E+02  0.51100000000E-03 0. -1.
        -11    1    3    3    0    0 -0.37913365704E+01  0.35067929178E+01 -0.25461245469E+00  0.51707501701E+01  0.51100000000E-03 0.  1.
         12    1    3    3    0    0  0.13280578530E+02  0.19235251705E+02  0.25951637962E+01  0.23518153613E+02  0.00000000000E+00 0. -1.
</event>
<event>
 7    1  0.2985411E-011  0.5052886E+02  0.7816164E-02  0.1300439E+00
        -11   -1    0    0    0    0  0.00000000000E+00  0.00000000000E+00  0.45593999997E+02  0.45594000000E+02  0.51100000000E-03 0. -1.
         11   -1    0    0    0    0 -0.00000000000E+00 -0.00000000000E+00 -0.45593999997E+02  0.45594000000E+02  0.51100000000E-03 0.  1.
    9900012    2    1    2    0    0 -0.40517429484E+02  0.29117370237E+01 -0.17392987632E+01  0.50528862470E+02  0.30000007964E+02 0.  0.
        -12    1    1    2    0    0  0.40517429484E+02 -0.29117370237E+01  0.17392987632E+01  0.40659137530E+02  0.00000000000E+00 0.  1.
         11    1    3    3    0    0 -0.97023436844E+01  0.11951051341E+02  0.96627244754E-01  0.15393909127E+02  0.51100000000E-03 0. -1.
        -11    1    3    3    0    0 -0.21024358932E+02 -0.22999308489E+01  0.45622831404E+01  0.21636260724E+02  0.51100000000E-03 0.  1.
        -12    1    3    3    0    0 -0.97907268679E+01 -0.67393834680E+01 -0.63982091484E+01  0.13498692620E+02  0.00000000000E+00 0.  1.
</event>
<event>
 7    1  0.2985411E-011  0.5052886E+02  0.7816164E-02  0.1300439E+00
        -11   -1    0    0    0    0  0.00000000000E+00  0.00000000000E+00  0.45593999997E+02  0.45594000000E+02  0.51100000000E-03 0.  1.
         11   -1    0    0    0    0 -0.00000000000E+00 -0.00000000000E+00 -0.45593999997E+02  0.45594000000E+02  0.51100000000E-03 0. -1.
    9900012    2    1    2    0    0 -0.32045504254E+02 -0.17052367057E+02 -0.18315787245E+02  0.50528860467E+02  0.30000001877E+02 0.  0.
        -12    1    1    2    0    0  0.32045504254E+02  0.17052367057E+02  0.18315787245E+02  0.40659139533E+02  0.00000000000E+00 0.  1.
         11    1    3    3    0    0 -0.16518396416E+02 -0.80560043628E+01 -0.74079954015E+00  0.18393080511E+02  0.51100000000E-03 0.  1.
        -11    1    3    3    0    0  0.23205482404E-01 -0.94118835332E+01 -0.10979539593E+01  0.94757370846E+01  0.51100000000E-03 0. -1.
         12    1    3    3    0    0 -0.15550313320E+02  0.41552083887E+00 -0.16477033746E+02  0.22660042872E+02  0.00000000000E+00 0. -1.
</event>
<event>
 7    1  0.2985411E-011  0.5052886E+02  0.7816164E-02  0.1300439E+00
        -11   -1    0    0    0    0  0.00000000000E+00  0.00000000000E+00  0.45593999997E+02  0.45594000000E+02  0.51100000000E-03 0.  1.
         11   -1    0    0    0    0 -0.00000000000E+00 -0.00000000000E+00 -0.45593999997E+02  0.45594000000E+02  0.51100000000E-03 0. -1.
    9900012    2    1    2    0    0  0.11543019035E+02  0.87943442913E+01 -0.37981358418E+02  0.50528863668E+02  0.30000011606E+02 0.  0.
        -12    1    1    2    0    0 -0.11543019035E+02 -0.87943442913E+01  0.37981358418E+02  0.40659136332E+02  0.00000000000E+00 0.  1.
         11    1    3    3    0    0 -0.58160837452E+00  0.88763617326E+01 -0.77177254598E+01  0.11776729276E+02  0.51100000000E-03 0. -1.
        -11    1    3    3    0    0 -0.25473941477E+01  0.67282044072E+01 -0.14393925963E+02  0.16091707690E+02  0.51100000000E-03 0.  1.
        -12    1    3    3    0    0  0.14672021557E+02 -0.68102218485E+01 -0.15869706996E+02  0.22660426702E+02  0.00000000000E+00 0.  1.
</event>
<event>
 7    1  0.2985411E-011  0.5052886E+02  0.7816164E-02  0.1300439E+00
        -11   -1    0    0    0    0  0.00000000000E+00  0.00000000000E+00  0.45593999997E+02  0.45594000000E+02  0.51100000000E-03 0.  1.
         11   -1    0    0    0    0 -0.00000000000E+00 -0.00000000000E+00 -0.45593999997E+02  0.45594000000E+02  0.51100000000E-03 0. -1.
    9900012    2    1    2    0    0 -0.19826160462E+02  0.30049485026E+02 -0.18897548155E+02  0.50528861848E+02  0.30000006074E+02 0.  0.
        -12    1    1    2    0    0  0.19826160462E+02 -0.30049485026E+02  0.18897548155E+02  0.40659138152E+02  0.00000000000E+00 0.  1.
         11    1    3    3    0    0 -0.10412543129E+02  0.71198571833E+01 -0.14193507413E+02  0.18988656447E+02  0.51100000000E-03 0.  1.
        -11    1    3    3    0    0  0.15947420011E+01  0.15427057038E+02 -0.85030066606E+01  0.17687238717E+02  0.51100000000E-03 0. -1.
        -12    1    3    3    0    0 -0.11008359334E+02  0.75025708041E+01  0.37989659187E+01  0.13852966684E+02  0.00000000000E+00 0.  1.
</event>
<event>
 7    1  0.2985411E-011  0.5052885E+02  0.7816164E-02  0.1300439E+00
        -11   -1    0    0    0    0  0.00000000000E+00  0.00000000000E+00  0.45593999997E+02  0.45594000000E+02  0.51100000000E-03 0. -1.
         11   -1    0    0    0    0 -0.00000000000E+00 -0.00000000000E+00 -0.45593999997E+02  0.45594000000E+02  0.51100000000E-03 0.  1.
    9900012    2    1    2    0    0 -0.57323922867E+01 -0.45935298833E+01  0.39990066081E+02  0.50528853141E+02  0.29999979607E+02 0.  0.
        -12    1    1    2    0    0  0.57323922867E+01  0.45935298833E+01 -0.39990066081E+02  0.40659146859E+02  0.00000000000E+00 0.  1.
         11    1    3    3    0    0 -0.85347080947E+01 -0.67352389877E+01  0.67352030576E+01  0.12789356785E+02  0.51100000000E-03 0. -1.
        -11    1    3    3    0    0  0.20484743871E+01 -0.40192292524E+01  0.66029910150E+00  0.45592155314E+01  0.51100000000E-03 0.  1.
         12    1    3    3    0    0  0.75384142088E+00  0.61609383568E+01  0.32594563922E+02  0.33180280825E+02  0.00000000000E+00 0. -1.
</event>
<event>
 7    1  0.2985411E-011  0.5052888E+02  0.7816164E-02  0.1300439E+00
        -11   -1    0    0    0    0  0.00000000000E+00  0.00000000000E+00  0.45593999997E+02  0.45594000000E+02  0.51100000000E-03 0.  1.
         11   -1    0    0    0    0 -0.00000000000E+00 -0.00000000000E+00 -0.45593999997E+02  0.45594000000E+02  0.51100000000E-03 0. -1.
    9900012    2    1    2    0    0 -0.11988147875E+01  0.34577513421E+02 -0.21357022825E+02  0.50528880295E+02  0.30000062145E+02 0.  0.
        -12    1    1    2    0    0  0.11988147875E+01 -0.34577513421E+02  0.21357022825E+02  0.40659119705E+02  0.00000000000E+00 0.  1.
         11    1    3    3    0    0 -0.77559506060E+01  0.83264451236E+01 -0.18522916206E+01  0.11528895988E+02  0.51100000000E-03 0. -1.
        -11    1    3    3    0    0 -0.53846066425E+01  0.94632868868E+01 -0.38764504277E+00  0.10894863759E+02  0.51100000000E-03 0.  1.
        -12    1    3    3    0    0  0.11941742461E+02  0.16787781410E+02 -0.19117086161E+02  0.28105120547E+02  0.00000000000E+00 0.  1.
</event>
<event>
 7    1  0.2985411E-011  0.5052886E+02  0.7816164E-02  0.1300439E+00
        -11   -1    0    0    0    0  0.00000000000E+00  0.00000000000E+00  0.45593999997E+02  0.45594000000E+02  0.51100000000E-03 0. -1.
         11   -1    0    0    0    0 -0.00000000000E+00 -0.00000000000E+00 -0.45593999997E+02  0.45594000000E+02  0.51100000000E-03 0.  1.
    9900012    2    1    2    0    0 -0.39747032495E+02  0.18185526201E+00  0.85619149720E+01  0.50528855254E+02  0.29999986031E+02 0.  0.
        -12    1    1    2    0    0  0.39747032495E+02 -0.18185526201E+00 -0.85619149720E+01  0.40659144746E+02  0.00000000000E+00 0.  1.
         11    1    3    3    0    0 -0.49675278497E+01 -0.44812020944E+01  0.10625817400E+01  0.67739637852E+01  0.51100000000E-03 0. -1.
        -11    1    3    3    0    0  0.40252604047E+01  0.15777974747E+00  0.10237269993E+01  0.41563966371E+01  0.51100000000E-03 0.  1.
        -12    1    3    3    0    0 -0.38804765050E+02  0.45052776090E+01  0.64756062327E+01  0.39598494832E+02  0.00000000000E+00 0.  1.
</event>
<event>
 7    1  0.2985411E-011  0.5052886E+02  0.7816164E-02  0.1300439E+00
        -11   -1    0    0    0    0  0.00000000000E+00  0.00000000000E+00  0.45593999997E+02  0.45594000000E+02  0.51100000000E-03 0. -1.
         11   -1    0    0    0    0 -0.00000000000E+00 -0.00000000000E+00 -0.45593999997E+02  0.45594000000E+02  0.51100000000E-03 0.  1.
    9900012    2    1    2    0    0 -0.25896806551E+02 -0.13369286394E+02  0.28351066412E+02  0.50528863574E+02  0.30000011320E+02 0.  0.
        -12    1    1    2    0    0  0.25896806551E+02  0.13369286394E+02 -0.28351066412E+02  0.40659136426E+02  0.00000000000E+00 0.  1.
         11    1    3    3    0    0 -0.34452692690E+01 -0.99703732479E+00  0.33258514433E+01  0.48913445848E+01  0.51100000000E-03 0. -1.
        -11    1    3    3    0    0 -0.91337030578E+01  0.87209391535E+00 -0.48274574193E+01  0.10367710680E+02  0.51100000000E-03 0.  1.
         12    1    3    3    0    0 -0.13317834224E+02 -0.13244342984E+02  0.29852672388E+02  0.35269808309E+02  0.00000000000E+00 0. -1.
</event>
<event>
 7    1  0.2985411E-011  0.5052886E+02  0.7816164E-02  0.1300439E+00
        -11   -1    0    0    0    0  0.00000000000E+00  0.00000000000E+00  0.45593999997E+02  0.45594000000E+02  0.51100000000E-03 0.  1.
         11   -1    0    0    0    0 -0.00000000000E+00 -0.00000000000E+00 -0.45593999997E+02  0.45594000000E+02  0.51100000000E-03 0. -1.
    9900012    2    1    2    0    0  0.37108208920E+02  0.84222657287E-01 -0.16617453916E+02  0.50528855428E+02  0.29999986559E+02 0.  0.
        -12    1    1    2    0    0 -0.37108208920E+02 -0.84222657287E-01  0.16617453916E+02  0.40659144572E+02  0.00000000000E+00 0.  1.
         11    1    3    3    0    0  0.11373460445E+02  0.35817244536E+00  0.27367265577E+01  0.11703570502E+02  0.51100000000E-03 0. -1.
        -11    1    3    3    0    0 -0.86007552849E+00  0.25655059289E+01  0.29475764068E+01  0.40012195042E+01  0.51100000000E-03 0.  1.
        -12    1    3    3    0    0  0.26594824003E+02 -0.28394557170E+01 -0.22301756880E+02  0.34824065422E+02  0.00000000000E+00 0.  1.
</event>
<event>
 7    1  0.2985411E-011  0.5052886E+02  0.7816164E-02  0.1300439E+00
        -11   -1    0    0    0    0  0.00000000000E+00  0.00000000000E+00  0.45593999997E+02  0.45594000000E+02  0.51100000000E-03 0.  1.
         11   -1    0    0    0    0 -0.00000000000E+00 -0.00000000000E+00 -0.45593999997E+02  0.45594000000E+02  0.51100000000E-03 0. -1.
    9900012    2    1    2    0    0  0.12968930583E+02 -0.35346560932E+02 -0.15349042045E+02  0.50528860537E+02  0.30000002088E+02 0.  0.
        -12    1    1    2    0    0 -0.12968930583E+02  0.35346560932E+02  0.15349042045E+02  0.40659139463E+02  0.00000000000E+00 0.  1.
         11    1    3    3    0    0  0.65111740631E+01 -0.28450511767E+01  0.17044446874E+01  0.73071770084E+01  0.51100000000E-03 0. -1.
        -11    1    3    3    0    0  0.56133919038E+01 -0.14498303105E+02  0.34476173343E+01  0.15924730049E+02  0.51100000000E-03 0.  1.
        -12    1    3    3    0    0  0.84436461562E+00 -0.18003206650E+02 -0.20501104067E+02  0.27296953479E+02  0.00000000000E+00 0.  1.
</event>
<event>
 7    1  0.2985411E-011  0.5052886E+02  0.7816164E-02  0.1300439E+00
        -11   -1    0    0    0    0  0.00000000000E+00  0.00000000000E+00  0.45593999997E+02  0.45594000000E+02  0.51100000000E-03 0. -1.
         11   -1    0    0    0    0 -0.00000000000E+00 -0.00000000000E+00 -0.45593999997E+02  0.45594000000E+02  0.51100000000E-03 0.  1.
    9900012    2    1    2    0    0  0.47059978303E+01  0.26712092139E+02  0.30289991907E+02  0.50528857219E+02  0.29999992001E+02 0.  0.
        -12    1    1    2    0    0 -0.47059978303E+01 -0.26712092139E+02 -0.30289991907E+02  0.40659142781E+02  0.00000000000E+00 0.  1.
         11    1    3    3    0    0  0.11851660839E+01  0.43193547010E+01  0.59973412797E+01  0.74852886628E+01  0.51100000000E-03 0. -1.
        -11    1    3    3    0    0  0.13677563310E+02  0.18988180186E+02  0.10684939817E+02  0.25725370046E+02  0.51100000000E-03 0.  1.
         12    1    3    3    0    0 -0.10156731563E+02  0.34045572520E+01  0.13607710810E+02  0.17318198509E+02  0.00000000000E+00 0. -1.
</event>
<event>
 7    1  0.2985411E-011  0.5052886E+02  0.7816164E-02  0.1300439E+00
        -11   -1    0    0    0    0  0.00000000000E+00  0.00000000000E+00  0.45593999997E+02  0.45594000000E+02  0.51100000000E-03 0.  1.
         11   -1    0    0    0    0 -0.00000000000E+00 -0.00000000000E+00 -0.45593999997E+02  0.45594000000E+02  0.51100000000E-03 0. -1.
    9900012    2    1    2    0    0 -0.35151276732E+02 -0.20428936200E+02 -0.46042618478E+00  0.50528859793E+02  0.29999999826E+02 0.  0.
        -12    1    1    2    0    0  0.35151276732E+02  0.20428936200E+02  0.46042618478E+00  0.40659140207E+02  0.00000000000E+00 0.  1.
         11    1    3    3    0    0 -0.11635624190E+02 -0.16576562153E+02  0.35331427669E+01  0.20558532564E+02  0.51100000000E-03 0. -1.
        -11    1    3    3    0    0 -0.45217261058E+01 -0.38099879784E+01  0.60709836336E+01  0.84746007523E+01  0.51100000000E-03 0.  1.
         12    1    3    3    0    0 -0.18993926436E+02 -0.42386068869E-01 -0.10064552585E+02  0.21495726477E+02  0.00000000000E+00 0. -1.
</event>
<event>
 7    1  0.2985411E-011  0.5052886E+02  0.7816164E-02  0.1300439E+00
        -11   -1    0    0    0    0  0.00000000000E+00  0.00000000000E+00  0.45593999997E+02  0.45594000000E+02  0.51100000000E-03 0.  1.
         11   -1    0    0    0    0 -0.00000000000E+00 -0.00000000000E+00 -0.45593999997E+02  0.45594000000E+02  0.51100000000E-03 0. -1.
    9900012    2    1    2    0    0 -0.22292492085E+02 -0.33982434100E+02 -0.11853238949E+01  0.50528855599E+02  0.29999987078E+02 0.  0.
        -12    1    1    2    0    0  0.22292492085E+02  0.33982434100E+02  0.11853238949E+01  0.40659144401E+02  0.00000000000E+00 0.  1.
         11    1    3    3    0    0 -0.48560866599E+01 -0.80940215621E+01  0.11746262158E+01  0.95118089607E+01  0.51100000000E-03 0. -1.
        -11    1    3    3    0    0 -0.13977349236E+02 -0.15697222487E+02  0.11111371367E+02  0.23774601140E+02  0.51100000000E-03 0.  1.
        -12    1    3    3    0    0 -0.34590561890E+01 -0.10191190051E+02 -0.13471321478E+02  0.17242445498E+02  0.00000000000E+00 0.  1.
</event>
<event>
 7    1  0.2985411E-011  0.5052886E+02  0.7816164E-02  0.1300439E+00
        -11   -1    0    0    0    0  0.00000000000E+00  0.00000000000E+00  0.45593999997E+02  0.45594000000E+02  0.51100000000E-03 0.  1.
         11   -1    0    0    0    0 -0.00000000000E+00 -0.00000000000E+00 -0.45593999997E+02  0.45594000000E+02  0.51100000000E-03 0. -1.
    9900012    2    1    2    0    0 -0.12599803406E+02  0.10305703002E+01 -0.38643867045E+02  0.50528861037E+02  0.30000003609E+02 0.  0.
        -12    1    1    2    0    0  0.12599803406E+02 -0.10305703002E+01  0.38643867045E+02  0.40659138963E+02  0.00000000000E+00 0.  1.
         11    1    3    3    0    0 -0.96139772982E+01  0.52494725802E+01 -0.19840912827E+02  0.22663789267E+02  0.51100000000E-03 0. -1.
        -11    1    3    3    0    0  0.45836202946E+01  0.68740077233E-01 -0.18607049675E+02  0.19163418225E+02  0.51100000000E-03 0.  1.
        -12    1    3    3    0    0 -0.75694464028E+01 -0.42876423573E+01 -0.19590454214E+00  0.87016535450E+01  0.00000000000E+00 0.  1.
</event>
<event>
 7    1  0.2985411E-011  0.5052886E+02  0.7816164E-02  0.1300439E+00
        -11   -1    0    0    0    0  0.00000000000E+00  0.00000000000E+00  0.45593999997E+02  0.45594000000E+02  0.51100000000E-03 0. -1.
         11   -1    0    0    0    0 -0.00000000000E+00 -0.00000000000E+00 -0.45593999997E+02  0.45594000000E+02  0.51100000000E-03 0.  1.
    9900012    2    1    2    0    0  0.60079958170E+01  0.38710977131E+02  0.10887131847E+02  0.50528863216E+02  0.30000010232E+02 0.  0.
        -12    1    1    2    0    0 -0.60079958170E+01 -0.38710977131E+02 -0.10887131847E+02  0.40659136784E+02  0.00000000000E+00 0.  1.
         11    1    3    3    0    0 -0.38270237752E+01  0.20597351898E+02  0.85050261009E+01  0.22610450801E+02  0.51100000000E-03 0. -1.
        -11    1    3    3    0    0  0.56281745069E+01  0.18673813462E+02 -0.43288164948E+01  0.19978145810E+02  0.51100000000E-03 0.  1.
        -12    1    3    3    0    0  0.42068450853E+01 -0.56018823011E+00  0.67109222414E+01  0.79402666048E+01  0.00000000000E+00 0.  1.
</event>
<event>
 7    1  0.2985411E-011  0.5052886E+02  0.7816164E-02  0.1300439E+00
        -11   -1    0    0    0    0  0.00000000000E+00  0.00000000000E+00  0.45593999997E+02  0.45594000000E+02  0.51100000000E-03 0.  1.
         11   -1    0    0    0    0 -0.00000000000E+00 -0.00000000000E+00 -0.45593999997E+02  0.45594000000E+02  0.51100000000E-03 0. -1.
    9900012    2    1    2    0    0 -0.27004387637E+02 -0.23853741426E+02 -0.18839519834E+02  0.50528862783E+02  0.30000008915E+02 0.  0.
        -12    1    1    2    0    0  0.27004387637E+02  0.23853741426E+02  0.18839519834E+02  0.40659137217E+02  0.00000000000E+00 0.  1.
         11    1    3    3    0    0 -0.63549410564E+01 -0.63851672216E+01 -0.59316625482E+00  0.90281494640E+01  0.51100000000E-03 0. -1.
        -11    1    3    3    0    0 -0.76532974263E+01 -0.15188988866E+02  0.22172391166E+01  0.17152098817E+02  0.51100000000E-03 0.  1.
        -12    1    3    3    0    0 -0.12996149154E+02 -0.22795853382E+01 -0.20463592695E+02  0.24348614502E+02  0.00000000000E+00 0.  1.
</event>
<event>
 7    1  0.2985411E-011  0.5052887E+02  0.7816164E-02  0.1300439E+00
        -11   -1    0    0    0    0  0.00000000000E+00  0.00000000000E+00  0.45593999997E+02  0.45594000000E+02  0.51100000000E-03 0.  1.
         11   -1    0    0    0    0 -0.00000000000E+00 -0.00000000000E+00 -0.45593999997E+02  0.45594000000E+02  0.51100000000E-03 0. -1.
    9900012    2    1    2    0    0 -0.16511859832E+02  0.27811485656E+02 -0.24638277962E+02  0.50528868302E+02  0.30000025692E+02 0.  0.
        -12    1    1    2    0    0  0.16511859832E+02 -0.27811485656E+02  0.24638277962E+02  0.40659131698E+02  0.00000000000E+00 0.  1.
         11    1    3    3    0    0  0.10673393754E+01  0.83089554871E+01 -0.10658580833E+01  0.84447621839E+01  0.51100000000E-03 0. -1.
        -11    1    3    3    0    0 -0.14315423295E+01 -0.56720796101E+00 -0.14788323399E+02  0.14868273186E+02  0.51100000000E-03 0.  1.
         12    1    3    3    0    0 -0.16147656878E+02  0.20069738130E+02 -0.87840964789E+01  0.27215832932E+02  0.00000000000E+00 0. -1.
</event>
<event>
 7    1  0.2985411E-011  0.5052886E+02  0.7816164E-02  0.1300439E+00
        -11   -1    0    0    0    0  0.00000000000E+00  0.00000000000E+00  0.45593999997E+02  0.45594000000E+02  0.51100000000E-03 0. -1.
         11   -1    0    0    0    0 -0.00000000000E+00 -0.00000000000E+00 -0.45593999997E+02  0.45594000000E+02  0.51100000000E-03 0.  1.
    9900012    2    1    2    0    0  0.33419171419E+02 -0.12076182467E+02  0.19760828307E+02  0.50528861584E+02  0.30000005271E+02 0.  0.
        -12    1    1    2    0    0 -0.33419171419E+02  0.12076182467E+02 -0.19760828307E+02  0.40659138416E+02  0.00000000000E+00 0.  1.
         11    1    3    3    0    0  0.12242958564E+02 -0.13964745989E+01  0.16562984694E+02  0.20643949185E+02  0.51100000000E-03 0. -1.
        -11    1    3    3    0    0 -0.32587451711E+01 -0.83062525738E+00  0.53873385829E+00  0.34058174995E+01  0.51100000000E-03 0.  1.
        -12    1    3    3    0    0  0.24434958027E+02 -0.98490826107E+01  0.26591097550E+01  0.26479094900E+02  0.00000000000E+00 0.  1.
</event>
<event>
 7    1  0.2985411E-011  0.5052886E+02  0.7816164E-02  0.1300439E+00
        -11   -1    0    0    0    0  0.00000000000E+00  0.00000000000E+00  0.45593999997E+02  0.45594000000E+02  0.51100000000E-03 0.  1.
         11   -1    0    0    0    0 -0.00000000000E+00 -0.00000000000E+00 -0.45593999997E+02  0.45594000000E+02  0.51100000000E-03 0. -1.
    9900012    2    1    2    0    0  0.10190480723E+02 -0.31073235318E+02 -0.24161409417E+02  0.50528861352E+02  0.30000004567E+02 0.  0.
        -12    1    1    2    0    0 -0.10190480723E+02  0.31073235318E+02  0.24161409417E+02  0.40659138648E+02  0.00000000000E+00 0.  1.
         11    1    3    3    0    0  0.74504719148E+01 -0.10159659438E+02 -0.20732771043E+02  0.24260585464E+02  0.51100000000E-03 0. -1.
        -11    1    3    3    0    0  0.48446249537E+01 -0.12447232192E+02 -0.88261701209E+01  0.16009536516E+02  0.51100000000E-03 0.  1.
        -12    1    3    3    0    0 -0.21046161450E+01 -0.84663436882E+01  0.53975317467E+01  0.10258739373E+02  0.00000000000E+00 0.  1.
</event>
<event>
 7    1  0.2985411E-011  0.5052885E+02  0.7816164E-02  0.1300439E+00
        -11   -1    0    0    0    0  0.00000000000E+00  0.00000000000E+00  0.45593999997E+02  0.45594000000E+02  0.51100000000E-03 0.  1.
         11   -1    0    0    0    0 -0.00000000000E+00 -0.00000000000E+00 -0.45593999997E+02  0.45594000000E+02  0.51100000000E-03 0. -1.
    9900012    2    1    2    0    0 -0.14256192952E+02 -0.27263029929E+02 -0.26582976965E+02  0.50528849705E+02  0.29999969162E+02 0.  0.
        -12    1    1    2    0    0  0.14256192952E+02  0.27263029929E+02  0.26582976965E+02  0.40659150295E+02  0.00000000000E+00 0.  1.
         11    1    3    3    0    0  0.24113209902E+01 -0.77280378791E+01 -0.75978997132E+01  0.11102482546E+02  0.51100000000E-03 0. -1.
        -11    1    3    3    0    0  0.37471592597E+01 -0.87584919225E+01  0.17946625997E-01  0.95264214486E+01  0.51100000000E-03 0.  1.
         12    1    3    3    0    0 -0.20414673202E+02 -0.10776500128E+02 -0.19003023877E+02  0.29899945710E+02  0.00000000000E+00 0. -1.
</event>
<event>
 7    1  0.2985411E-011  0.5052886E+02  0.7816164E-02  0.1300439E+00
        -11   -1    0    0    0    0  0.00000000000E+00  0.00000000000E+00  0.45593999997E+02  0.45594000000E+02  0.51100000000E-03 0.  1.
         11   -1    0    0    0    0 -0.00000000000E+00 -0.00000000000E+00 -0.45593999997E+02  0.45594000000E+02  0.51100000000E-03 0. -1.
    9900012    2    1    2    0    0  0.26262288447E+02 -0.44022119618E+01 -0.30725853386E+02  0.50528864115E+02  0.30000012964E+02 0.  0.
        -12    1    1    2    0    0 -0.26262288447E+02  0.44022119618E+01  0.30725853386E+02  0.40659135885E+02  0.00000000000E+00 0.  1.
         11    1    3    3    0    0  0.47849687031E+01  0.16447003442E+00 -0.96552846444E+01  0.10777174848E+02  0.51100000000E-03 0.  1.
        -11    1    3    3    0    0  0.23226997791E+02 -0.29849380937E+00 -0.24681661639E+02  0.33893464657E+02  0.51100000000E-03 0. -1.
        -12    1    3    3    0    0 -0.17496780469E+01 -0.42681881869E+01  0.36110928977E+01  0.58582246101E+01  0.00000000000E+00 0.  1.
</event>
<event>
 7    1  0.2985411E-011  0.5052886E+02  0.7816164E-02  0.1300439E+00
        -11   -1    0    0    0    0  0.00000000000E+00  0.00000000000E+00  0.45593999997E+02  0.45594000000E+02  0.51100000000E-03 0.  1.
         11   -1    0    0    0    0 -0.00000000000E+00 -0.00000000000E+00 -0.45593999997E+02  0.45594000000E+02  0.51100000000E-03 0. -1.
    9900012    2    1    2    0    0  0.24926213925E+02  0.22079234582E+01 -0.32046449560E+02  0.50528855936E+02  0.29999988102E+02 0.  0.
        -12    1    1    2    0    0 -0.24926213925E+02 -0.22079234582E+01  0.32046449560E+02  0.40659144064E+02  0.00000000000E+00 0.  1.
         11    1    3    3    0    0  0.21535211096E+02  0.10361816954E+02 -0.25218645106E+02  0.34743526430E+02  0.51100000000E-03 0. -1.
        -11    1    3    3    0    0  0.19400801965E+00 -0.32072551502E+01 -0.89621373648E+01  0.95207158931E+01  0.51100000000E-03 0.  1.
        -12    1    3    3    0    0  0.31969948091E+01 -0.49466383461E+01  0.21343329108E+01  0.62646136122E+01  0.00000000000E+00 0.  1.
</event>
<event>
 7    1  0.2985411E-011  0.5052892E+02  0.7816164E-02  0.1300439E+00
        -11   -1    0    0    0    0  0.00000000000E+00  0.00000000000E+00  0.45593999997E+02  0.45594000000E+02  0.51100000000E-03 0.  1.
         11   -1    0    0    0    0 -0.00000000000E+00 -0.00000000000E+00 -0.45593999997E+02  0.45594000000E+02  0.51100000000E-03 0. -1.
    9900012    2    1    2    0    0  0.18140617977E+02 -0.55446764064E+01 -0.35962966312E+02  0.50528924715E+02  0.30000197164E+02 0.  0.
        -12    1    1    2    0    0 -0.18140617977E+02  0.55446764064E+01  0.35962966312E+02  0.40659075285E+02  0.00000000000E+00 0.  1.
         11    1    3    3    0    0 -0.51887027995E+01 -0.10497076664E+01 -0.75508154212E+01  0.92216775433E+01  0.51100000000E-03 0. -1.
        -11    1    3    3    0    0  0.68763472315E+01  0.32082950153E+01 -0.19796234929E+02  0.21200665692E+02  0.51100000000E-03 0.  1.
        -12    1    3    3    0    0  0.16452973545E+02 -0.77032637552E+01 -0.86159159624E+01  0.20106581480E+02  0.00000000000E+00 0.  1.
</event>
<event>
 7    1  0.2985411E-011  0.5052888E+02  0.7816164E-02  0.1300439E+00
        -11   -1    0    0    0    0  0.00000000000E+00  0.00000000000E+00  0.45593999997E+02  0.45594000000E+02  0.51100000000E-03 0.  1.
         11   -1    0    0    0    0 -0.00000000000E+00 -0.00000000000E+00 -0.45593999997E+02  0.45594000000E+02  0.51100000000E-03 0. -1.
    9900012    2    1    2    0    0 -0.19799263345E+02 -0.32836464527E+02 -0.13524777453E+02  0.50528882489E+02  0.30000068812E+02 0.  0.
        -12    1    1    2    0    0  0.19799263345E+02  0.32836464527E+02  0.13524777453E+02  0.40659117511E+02  0.00000000000E+00 0.  1.
         11    1    3    3    0    0 -0.12748230337E+02 -0.13925931895E+02 -0.17288642776E+02  0.25599729006E+02  0.51100000000E-03 0. -1.
        -11    1    3    3    0    0 -0.29597516945E+01  0.15479458855E+01  0.22157967661E+01  0.40082442699E+01  0.51100000000E-03 0.  1.
        -12    1    3    3    0    0 -0.40912813138E+01 -0.20458478518E+02  0.15480685570E+01  0.20920909213E+02  0.00000000000E+00 0.  1.
</event>
<event>
 7    1  0.2985411E-011  0.5052883E+02  0.7816164E-02  0.1300439E+00
        -11   -1    0    0    0    0  0.00000000000E+00  0.00000000000E+00  0.45593999997E+02  0.45594000000E+02  0.51100000000E-03 0.  1.
         11   -1    0    0    0    0 -0.00000000000E+00 -0.00000000000E+00 -0.45593999997E+02  0.45594000000E+02  0.51100000000E-03 0. -1.
    9900012    2    1    2    0    0  0.20826154451E+02 -0.30893393758E+02 -0.16279981669E+02  0.50528827723E+02  0.29999902348E+02 0.  0.
        -12    1    1    2    0    0 -0.20826154451E+02  0.30893393758E+02  0.16279981669E+02  0.40659172277E+02  0.00000000000E+00 0.  1.
         11    1    3    3    0    0  0.76410130581E+01 -0.80737342930E+01  0.37539278457E+01  0.11732955319E+02  0.51100000000E-03 0. -1.
        -11    1    3    3    0    0  0.30294189497E+01 -0.16640880577E+02 -0.17737544410E+01  0.17007130582E+02  0.51100000000E-03 0.  1.
         12    1    3    3    0    0  0.10155722444E+02 -0.61787788874E+01 -0.18260155073E+02  0.21788741822E+02  0.00000000000E+00 0. -1.
</event>
<event>
 7    1  0.2985411E-011  0.5052886E+02  0.7816164E-02  0.1300439E+00
        -11   -1    0    0    0    0  0.00000000000E+00  0.00000000000E+00  0.45593999997E+02  0.45594000000E+02  0.51100000000E-03 0. -1.
         11   -1    0    0    0    0 -0.00000000000E+00 -0.00000000000E+00 -0.45593999997E+02  0.45594000000E+02  0.51100000000E-03 0.  1.
    9900012    2    1    2    0    0  0.15294632280E+02 -0.37310298118E+02  0.52135703208E+01  0.50528862802E+02  0.30000008972E+02 0.  0.
        -12    1    1    2    0    0 -0.15294632280E+02  0.37310298118E+02 -0.52135703208E+01  0.40659137198E+02  0.00000000000E+00 0.  1.
         11    1    3    3    0    0 -0.14325536789E+01 -0.10405863525E+01  0.32088537642E+01  0.36649382998E+01  0.51100000000E-03 0. -1.
        -11    1    3    3    0    0  0.90511905508E+01 -0.19643367872E+02 -0.11133534094E+02  0.24325738086E+02  0.51100000000E-03 0.  1.
         12    1    3    3    0    0  0.76759954078E+01 -0.16626343894E+02  0.13138250651E+02  0.22538186416E+02  0.00000000000E+00 0. -1.
</event>
<event>
 7    1  0.2985411E-011  0.5052888E+02  0.7816164E-02  0.1300439E+00
        -11   -1    0    0    0    0  0.00000000000E+00  0.00000000000E+00  0.45593999997E+02  0.45594000000E+02  0.51100000000E-03 0. -1.
         11   -1    0    0    0    0 -0.00000000000E+00 -0.00000000000E+00 -0.45593999997E+02  0.45594000000E+02  0.51100000000E-03 0.  1.
    9900012    2    1    2    0    0 -0.47810471880E+01  0.24834089326E+02  0.31836673534E+02  0.50528878187E+02  0.30000055737E+02 0.  0.
        -12    1    1    2    0    0  0.47810471880E+01 -0.24834089326E+02 -0.31836673534E+02  0.40659121813E+02  0.00000000000E+00 0.  1.
         11    1    3    3    0    0  0.73581010592E+00  0.15259479645E+02  0.29233952141E+02  0.32985104117E+02  0.51100000000E-03 0. -1.
        -11    1    3    3    0    0  0.12682277830E+01  0.74509544850E+01  0.60132768387E+01  0.96583965049E+01  0.51100000000E-03 0.  1.
        -12    1    3    3    0    0 -0.67850850769E+01  0.21236551968E+01 -0.34105554458E+01  0.78853775652E+01  0.00000000000E+00 0.  1.
</event>
<event>
 7    1  0.2985411E-011  0.5052887E+02  0.7816164E-02  0.1300439E+00
        -11   -1    0    0    0    0  0.00000000000E+00  0.00000000000E+00  0.45593999997E+02  0.45594000000E+02  0.51100000000E-03 0.  1.
         11   -1    0    0    0    0 -0.00000000000E+00 -0.00000000000E+00 -0.45593999997E+02  0.45594000000E+02  0.51100000000E-03 0. -1.
    9900012    2    1    2    0    0  0.20993807191E+02  0.31942732549E+01 -0.34673071159E+02  0.50528865902E+02  0.30000018394E+02 0.  0.
        -12    1    1    2    0    0 -0.20993807191E+02 -0.31942732549E+01  0.34673071159E+02  0.40659134098E+02  0.00000000000E+00 0.  1.
         11    1    3    3    0    0  0.17136319938E+01 -0.60842376107E+01 -0.12755826130E+02  0.14236066256E+02  0.51100000000E-03 0.  1.
        -11    1    3    3    0    0  0.14158797216E+02  0.28427965579E+01 -0.17924417396E+01  0.14552177794E+02  0.51100000000E-03 0. -1.
         12    1    3    3    0    0  0.51213779811E+01  0.64357143077E+01 -0.20124803290E+02  0.21740621852E+02  0.00000000000E+00 0. -1.
</event>
<event>
 7    1  0.2985411E-011  0.5052886E+02  0.7816164E-02  0.1300439E+00
        -11   -1    0    0    0    0  0.00000000000E+00  0.00000000000E+00  0.45593999997E+02  0.45594000000E+02  0.51100000000E-03 0.  1.
         11   -1    0    0    0    0 -0.00000000000E+00 -0.00000000000E+00 -0.45593999997E+02  0.45594000000E+02  0.51100000000E-03 0. -1.
    9900012    2    1    2    0    0 -0.87502302352E+01  0.39689451730E+02 -0.11605511693E+01  0.50528856049E+02  0.29999988446E+02 0.  0.
        -12    1    1    2    0    0  0.87502302352E+01 -0.39689451730E+02  0.11605511693E+01  0.40659143951E+02  0.00000000000E+00 0.  1.
         11    1    3    3    0    0 -0.18696818547E+00  0.17388061960E+01  0.28764835899E+01  0.33663871128E+01  0.51100000000E-03 0. -1.
        -11    1    3    3    0    0 -0.43786655356E+01 -0.26330372260E+01 -0.37921893260E+01  0.63628843343E+01  0.51100000000E-03 0.  1.
         12    1    3    3    0    0 -0.41845965142E+01  0.40583682760E+02 -0.24484543316E+00  0.40799584602E+02  0.00000000000E+00 0. -1.
</event>
<event>
 7    1  0.2985411E-011  0.5052887E+02  0.7816164E-02  0.1300439E+00
        -11   -1    0    0    0    0  0.00000000000E+00  0.00000000000E+00  0.45593999997E+02  0.45594000000E+02  0.51100000000E-03 0.  1.
         11   -1    0    0    0    0 -0.00000000000E+00 -0.00000000000E+00 -0.45593999997E+02  0.45594000000E+02  0.51100000000E-03 0. -1.
    9900012    2    1    2    0    0  0.40039095610E+02 -0.70577779764E+01  0.47271267188E+00  0.50528869850E+02  0.30000030397E+02 0.  0.
        -12    1    1    2    0    0 -0.40039095610E+02  0.70577779764E+01 -0.47271267188E+00  0.40659130150E+02  0.00000000000E+00 0.  1.
         11    1    3    3    0    0  0.13457377125E+02 -0.97986059746E+01 -0.16550213370E+01  0.16728800734E+02  0.51100000000E-03 0.  1.
        -11    1    3    3    0    0 -0.50345292089E+00  0.24227538486E+01  0.59505969320E+01  0.64445950348E+01  0.51100000000E-03 0. -1.
         12    1    3    3    0    0  0.27085171406E+02  0.31807414950E+00 -0.38228629232E+01  0.27355474081E+02  0.00000000000E+00 0. -1.
</event>
<event>
 7    1  0.2985411E-011  0.5052886E+02  0.7816164E-02  0.1300439E+00
        -11   -1    0    0    0    0  0.00000000000E+00  0.00000000000E+00  0.45593999997E+02  0.45594000000E+02  0.51100000000E-03 0. -1.
         11   -1    0    0    0    0 -0.00000000000E+00 -0.00000000000E+00 -0.45593999997E+02  0.45594000000E+02  0.51100000000E-03 0.  1.
    9900012    2    1    2    0    0 -0.88630988097E+01  0.80160799774E+01  0.38863267285E+02  0.50528860772E+02  0.30000002803E+02 0.  0.
        -12    1    1    2    0    0  0.88630988097E+01 -0.80160799774E+01 -0.38863267285E+02  0.40659139228E+02  0.00000000000E+00 0.  1.
         11    1    3    3    0    0 -0.58731068597E+01  0.23197228640E+01  0.82671359194E+01  0.10402885894E+02  0.51100000000E-03 0. -1.
        -11    1    3    3    0    0 -0.10250593965E+02 -0.40234778228E+01  0.56290798117E+01  0.12367279014E+02  0.51100000000E-03 0.  1.
        -12    1    3    3    0    0  0.72606020148E+01  0.97198349361E+01  0.24967051554E+02  0.27758695864E+02  0.00000000000E+00 0.  1.
</event>
<event>
 7    1  0.2985411E-011  0.5052882E+02  0.7816164E-02  0.1300439E+00
        -11   -1    0    0    0    0  0.00000000000E+00  0.00000000000E+00  0.45593999997E+02  0.45594000000E+02  0.51100000000E-03 0. -1.
         11   -1    0    0    0    0 -0.00000000000E+00 -0.00000000000E+00 -0.45593999997E+02  0.45594000000E+02  0.51100000000E-03 0.  1.
    9900012    2    1    2    0    0 -0.33726130088E+02 -0.22434369846E+02  0.35236898068E+01  0.50528816647E+02  0.29999868680E+02 0.  0.
        -12    1    1    2    0    0  0.33726130088E+02  0.22434369846E+02 -0.35236898068E+01  0.40659183353E+02  0.00000000000E+00 0.  1.
         11    1    3    3    0    0 -0.71577695476E+01 -0.52246428189E+01  0.32160304101E+01  0.94272694531E+01  0.51100000000E-03 0. -1.
        -11    1    3    3    0    0 -0.17954668609E+02 -0.22833356488E+02 -0.50818990401E+01  0.29488268710E+02  0.51100000000E-03 0.  1.
         12    1    3    3    0    0 -0.86136919311E+01  0.56236294614E+01  0.53895584368E+01  0.11613278484E+02  0.00000000000E+00 0. -1.
</event>
<event>
 7    1  0.2985411E-011  0.5052886E+02  0.7816164E-02  0.1300439E+00
        -11   -1    0    0    0    0  0.00000000000E+00  0.00000000000E+00  0.45593999997E+02  0.45594000000E+02  0.51100000000E-03 0.  1.
         11   -1    0    0    0    0 -0.00000000000E+00 -0.00000000000E+00 -0.45593999997E+02  0.45594000000E+02  0.51100000000E-03 0. -1.
    9900012    2    1    2    0    0  0.33982968714E+01 -0.40512633661E+02 -0.58623820206E+00  0.50528861015E+02  0.30000003542E+02 0.  0.
        -12    1    1    2    0    0 -0.33982968714E+01  0.40512633661E+02  0.58623820206E+00  0.40659138985E+02  0.00000000000E+00 0.  1.
         11    1    3    3    0    0  0.67021484679E+00 -0.18219113176E+02 -0.40228000264E+01  0.18669981071E+02  0.51100000000E-03 0. -1.
        -11    1    3    3    0    0  0.94370106363E+01 -0.19276674701E+02 -0.35022915276E+01  0.21746572224E+02  0.51100000000E-03 0.  1.
         12    1    3    3    0    0 -0.67089286116E+01 -0.30168457832E+01  0.69388533519E+01  0.10112307721E+02  0.00000000000E+00 0. -1.
</event>
<event>
 7    1  0.2985411E-011  0.5052891E+02  0.7816164E-02  0.1300439E+00
        -11   -1    0    0    0    0  0.00000000000E+00  0.00000000000E+00  0.45593999997E+02  0.45594000000E+02  0.51100000000E-03 0.  1.
         11   -1    0    0    0    0 -0.00000000000E+00 -0.00000000000E+00 -0.45593999997E+02  0.45594000000E+02  0.51100000000E-03 0. -1.
    9900012    2    1    2    0    0 -0.16538429721E+02  0.36889883602E+02  0.43334233771E+01  0.50528908422E+02  0.30000147638E+02 0.  0.
        -12    1    1    2    0    0  0.16538429721E+02 -0.36889883602E+02 -0.43334233771E+01  0.40659091578E+02  0.00000000000E+00 0.  1.
         11    1    3    3    0    0 -0.87375368247E+01  0.32011615837E+02 -0.74918787704E+01  0.34017882739E+02  0.51100000000E-03 0. -1.
        -11    1    3    3    0    0  0.11121698005E+01  0.29176026517E-01  0.29327866090E+00  0.11505587946E+01  0.51100000000E-03 0.  1.
         12    1    3    3    0    0 -0.89130626970E+01  0.48490917380E+01  0.11532023487E+02  0.15360466888E+02  0.00000000000E+00 0. -1.
</event>
<event>
 7    1  0.2985411E-011  0.5052886E+02  0.7816164E-02  0.1300439E+00
        -11   -1    0    0    0    0  0.00000000000E+00  0.00000000000E+00  0.45593999997E+02  0.45594000000E+02  0.51100000000E-03 0.  1.
         11   -1    0    0    0    0 -0.00000000000E+00 -0.00000000000E+00 -0.45593999997E+02  0.45594000000E+02  0.51100000000E-03 0. -1.
    9900012    2    1    2    0    0  0.37209542069E+01 -0.38341279676E+02  0.13010259206E+02  0.50528855002E+02  0.29999985264E+02 0.  0.
        -12    1    1    2    0    0 -0.37209542069E+01  0.38341279676E+02 -0.13010259206E+02  0.40659144998E+02  0.00000000000E+00 0.  1.
         11    1    3    3    0    0 -0.33927994442E+01 -0.13687936816E+01  0.27796835026E+01  0.45947061764E+01  0.51100000000E-03 0. -1.
        -11    1    3    3    0    0  0.15490357367E+00  0.80189586325E+00  0.73728729591E+01  0.74179706136E+01  0.51100000000E-03 0.  1.
         12    1    3    3    0    0  0.69588500774E+01 -0.37774381857E+02  0.28577027440E+01  0.38516178212E+02  0.00000000000E+00 0. -1.
</event>
<event>
 7    1  0.2985411E-011  0.5052887E+02  0.7816164E-02  0.1300439E+00
        -11   -1    0    0    0    0  0.00000000000E+00  0.00000000000E+00  0.45593999997E+02  0.45594000000E+02  0.51100000000E-03 0.  1.
         11   -1    0    0    0    0 -0.00000000000E+00 -0.00000000000E+00 -0.45593999997E+02  0.45594000000E+02  0.51100000000E-03 0. -1.
    9900012    2    1    2    0    0 -0.38804468917E+02 -0.39277534284E+01 -0.11487001357E+02  0.50528865047E+02  0.30000015798E+02 0.  0.
        -12    1    1    2    0    0  0.38804468917E+02  0.39277534284E+01  0.11487001357E+02  0.40659134953E+02  0.00000000000E+00 0.  1.
         11    1    3    3    0    0 -0.14578364727E+02  0.20521211543E+01 -0.10761772927E+02  0.18236109128E+02  0.51100000000E-03 0. -1.
        -11    1    3    3    0    0 -0.24224079422E+02  0.36682075559E-01 -0.52230709141E+01  0.24780795780E+02  0.51100000000E-03 0.  1.
        -12    1    3    3    0    0 -0.20247678817E-02 -0.60165566583E+01  0.44978424845E+01  0.75119601395E+01  0.00000000000E+00 0.  1.
</event>
<event>
 7    1  0.2985411E-011  0.5052886E+02  0.7816164E-02  0.1300439E+00
        -11   -1    0    0    0    0  0.00000000000E+00  0.00000000000E+00  0.45593999997E+02  0.45594000000E+02  0.51100000000E-03 0. -1.
         11   -1    0    0    0    0 -0.00000000000E+00 -0.00000000000E+00 -0.45593999997E+02  0.45594000000E+02  0.51100000000E-03 0.  1.
    9900012    2    1    2    0    0 -0.39060520119E+02 -0.14051890442E+01  0.11201206329E+02  0.50528858206E+02  0.29999995003E+02 0.  0.
        -12    1    1    2    0    0  0.39060520119E+02  0.14051890442E+01 -0.11201206329E+02  0.40659141794E+02  0.00000000000E+00 0.  1.
         11    1    3    3    0    0 -0.26934624455E+02  0.69852098767E+01  0.68684976529E+01  0.28660834109E+02  0.51100000000E-03 0. -1.
        -11    1    3    3    0    0 -0.14559978304E+02 -0.22074882357E+01  0.22026812554E+01  0.14890190647E+02  0.51100000000E-03 0.  1.
        -12    1    3    3    0    0  0.24340826407E+01 -0.61829106852E+01  0.21300274209E+01  0.69778334501E+01  0.00000000000E+00 0.  1.
</event>
<event>
 7    1  0.2985411E-011  0.5052886E+02  0.7816164E-02  0.1300439E+00
        -11   -1    0    0    0    0  0.00000000000E+00  0.00000000000E+00  0.45593999997E+02  0.45594000000E+02  0.51100000000E-03 0.  1.
         11   -1    0    0    0    0 -0.00000000000E+00 -0.00000000000E+00 -0.45593999997E+02  0.45594000000E+02  0.51100000000E-03 0. -1.
    9900012    2    1    2    0    0 -0.16408763654E+02 -0.38414594665E+01 -0.37002181782E+02  0.50528858443E+02  0.29999995725E+02 0.  0.
        -12    1    1    2    0    0  0.16408763654E+02  0.38414594665E+01  0.37002181782E+02  0.40659141557E+02  0.00000000000E+00 0.  1.
         11    1    3    3    0    0 -0.81304856326E+01 -0.42238523065E+01 -0.13527974431E+02  0.16338660208E+02  0.51100000000E-03 0. -1.
        -11    1    3    3    0    0 -0.42981974316E+01 -0.11138996373E+02 -0.15732667250E+02  0.19750153428E+02  0.51100000000E-03 0.  1.
        -12    1    3    3    0    0 -0.39800805894E+01  0.11521389213E+02 -0.77415401008E+01  0.14440044807E+02  0.00000000000E+00 0.  1.
</event>
<event>
 7    1  0.2985411E-011  0.5052886E+02  0.7816164E-02  0.1300439E+00
        -11   -1    0    0    0    0  0.00000000000E+00  0.00000000000E+00  0.45593999997E+02  0.45594000000E+02  0.51100000000E-03 0.  1.
         11   -1    0    0    0    0 -0.00000000000E+00 -0.00000000000E+00 -0.45593999997E+02  0.45594000000E+02  0.51100000000E-03 0. -1.
    9900012    2    1    2    0    0  0.27580504364E+02  0.30888315166E+01 -0.29714316201E+02  0.50528859719E+02  0.29999999601E+02 0.  0.
        -12    1    1    2    0    0 -0.27580504364E+02 -0.30888315166E+01  0.29714316201E+02  0.40659140281E+02  0.00000000000E+00 0.  1.
         11    1    3    3    0    0  0.19816539136E+02 -0.12924043078E+01 -0.24155988211E+01  0.20005015624E+02  0.51100000000E-03 0. -1.
        -11    1    3    3    0    0 -0.12925536957E+00  0.16828783673E+01  0.28024609554E+00  0.17109426305E+01  0.51100000000E-03 0.  1.
         12    1    3    3    0    0  0.78932205977E+01  0.26983574571E+01 -0.27578963476E+02  0.28812901464E+02  0.00000000000E+00 0. -1.
</event>
<event>
 7    1  0.2985411E-011  0.5052886E+02  0.7816164E-02  0.1300439E+00
        -11   -1    0    0    0    0  0.00000000000E+00  0.00000000000E+00  0.45593999997E+02  0.45594000000E+02  0.51100000000E-03 0. -1.
         11   -1    0    0    0    0 -0.00000000000E+00 -0.00000000000E+00 -0.45593999997E+02  0.45594000000E+02  0.51100000000E-03 0.  1.
    9900012    2    1    2    0    0 -0.10026220222E+02 -0.28647534007E+02  0.27054745337E+02  0.50528861521E+02  0.30000005078E+02 0.  0.
        -12    1    1    2    0    0  0.10026220222E+02  0.28647534007E+02 -0.27054745337E+02  0.40659138479E+02  0.00000000000E+00 0.  1.
         11    1    3    3    0    0  0.12574420762E+01 -0.15228221706E+01  0.76223460475E+01  0.78740273982E+01  0.51100000000E-03 0. -1.
        -11    1    3    3    0    0 -0.79988649877E+01 -0.95853425005E+00  0.13347679093E+02  0.15590419059E+02  0.51100000000E-03 0.  1.
        -12    1    3    3    0    0 -0.32847973109E+01 -0.26166177587E+02  0.60847201961E+01  0.27064415064E+02  0.00000000000E+00 0.  1.
</event>
<event>
 7    1  0.2985411E-011  0.5052886E+02  0.7816164E-02  0.1300439E+00
        -11   -1    0    0    0    0  0.00000000000E+00  0.00000000000E+00  0.45593999997E+02  0.45594000000E+02  0.51100000000E-03 0.  1.
         11   -1    0    0    0    0 -0.00000000000E+00 -0.00000000000E+00 -0.45593999997E+02  0.45594000000E+02  0.51100000000E-03 0. -1.
    9900012    2    1    2    0    0  0.27006623454E+02 -0.21517042848E+02 -0.21466827312E+02  0.50528861813E+02  0.30000005966E+02 0.  0.
        -12    1    1    2    0    0 -0.27006623454E+02  0.21517042848E+02  0.21466827312E+02  0.40659138187E+02  0.00000000000E+00 0.  1.
         11    1    3    3    0    0  0.14043486283E+02 -0.20066192622E+02 -0.47745036467E+01  0.24953305966E+02  0.51100000000E-03 0. -1.
        -11    1    3    3    0    0  0.31057114872E+01 -0.66029661955E+01 -0.28875060718E+01  0.78474389450E+01  0.51100000000E-03 0.  1.
         12    1    3    3    0    0  0.98574256837E+01  0.51521159696E+01 -0.13804817594E+02  0.17728116902E+02  0.00000000000E+00 0. -1.
</event>
<event>
 7    1  0.2985411E-011  0.5052888E+02  0.7816164E-02  0.1300439E+00
        -11   -1    0    0    0    0  0.00000000000E+00  0.00000000000E+00  0.45593999997E+02  0.45594000000E+02  0.51100000000E-03 0. -1.
         11   -1    0    0    0    0 -0.00000000000E+00 -0.00000000000E+00 -0.45593999997E+02  0.45594000000E+02  0.51100000000E-03 0.  1.
    9900012    2    1    2    0    0 -0.16014032045E+02  0.30100743551E+02  0.22150847382E+02  0.50528880182E+02  0.30000061800E+02 0.  0.
        -12    1    1    2    0    0  0.16014032045E+02 -0.30100743551E+02 -0.22150847382E+02  0.40659119818E+02  0.00000000000E+00 0.  1.
         11    1    3    3    0    0 -0.86004528422E+01  0.21810555682E+02  0.89463931682E+01  0.25093945071E+02  0.51100000000E-03 0. -1.
        -11    1    3    3    0    0 -0.68177821516E+01  0.13839216600E+02  0.65776647780E+01  0.16771158093E+02  0.51100000000E-03 0.  1.
        -12    1    3    3    0    0 -0.59579705086E+00 -0.55490287313E+01  0.66267894357E+01  0.86637770177E+01  0.00000000000E+00 0.  1.
</event>
<event>
 7    1  0.2985411E-011  0.5052880E+02  0.7816164E-02  0.1300439E+00
        -11   -1    0    0    0    0  0.00000000000E+00  0.00000000000E+00  0.45593999997E+02  0.45594000000E+02  0.51100000000E-03 0.  1.
         11   -1    0    0    0    0 -0.00000000000E+00 -0.00000000000E+00 -0.45593999997E+02  0.45594000000E+02  0.51100000000E-03 0. -1.
    9900012    2    1    2    0    0 -0.29607418909E+02 -0.14213350372E+01 -0.27830753888E+02  0.50528802889E+02  0.29999826861E+02 0.  0.
        -12    1    1    2    0    0  0.29607418909E+02  0.14213350372E+01  0.27830753888E+02  0.40659197111E+02  0.00000000000E+00 0.  1.
         11    1    3    3    0    0 -0.21154390186E+02 -0.55248032588E+01 -0.15754299734E+02  0.26948648121E+02  0.51100000000E-03 0. -1.
        -11    1    3    3    0    0 -0.10343872941E+02 -0.44967277367E+01 -0.52638594760E+01  0.12446866457E+02  0.51100000000E-03 0.  1.
        -12    1    3    3    0    0  0.18908442175E+01  0.86001959583E+01 -0.68125946785E+01  0.11133288312E+02  0.00000000000E+00 0.  1.
</event>
<event>
 7    1  0.2985411E-011  0.5052884E+02  0.7816164E-02  0.1300439E+00
        -11   -1    0    0    0    0  0.00000000000E+00  0.00000000000E+00  0.45593999997E+02  0.45594000000E+02  0.51100000000E-03 0.  1.
         11   -1    0    0    0    0 -0.00000000000E+00 -0.00000000000E+00 -0.45593999997E+02  0.45594000000E+02  0.51100000000E-03 0. -1.
    9900012    2    1    2    0    0  0.33051750966E+02  0.36983809036E+01 -0.23389558057E+02  0.50528835113E+02  0.29999924809E+02 0.  0.
        -12    1    1    2    0    0 -0.33051750966E+02 -0.36983809036E+01  0.23389558057E+02  0.40659164887E+02  0.00000000000E+00 0.  1.
         11    1    3    3    0    0  0.29361215960E+02 -0.71059187670E+01 -0.12654817310E+02  0.32752396639E+02  0.51100000000E-03 0. -1.
        -11    1    3    3    0    0  0.40221380072E+01  0.90470361821E+00 -0.20550862060E+01  0.46064587658E+01  0.51100000000E-03 0.  1.
        -12    1    3    3    0    0 -0.33160300207E+00  0.98995960524E+01 -0.86796545412E+01  0.13169979708E+02  0.00000000000E+00 0.  1.
</event>
<event>
 7    1  0.2985411E-011  0.5052887E+02  0.7816164E-02  0.1300439E+00
        -11   -1    0    0    0    0  0.00000000000E+00  0.00000000000E+00  0.45593999997E+02  0.45594000000E+02  0.51100000000E-03 0.  1.
         11   -1    0    0    0    0 -0.00000000000E+00 -0.00000000000E+00 -0.45593999997E+02  0.45594000000E+02  0.51100000000E-03 0. -1.
    9900012    2    1    2    0    0  0.34531596075E+02  0.65854954533E+01 -0.20429517087E+02  0.50528867615E+02  0.30000023603E+02 0.  0.
        -12    1    1    2    0    0 -0.34531596075E+02 -0.65854954533E+01  0.20429517087E+02  0.40659132385E+02  0.00000000000E+00 0.  1.
         11    1    3    3    0    0  0.47200917633E+01 -0.44643581188E+01  0.35745546882E+01  0.74153355384E+01  0.51100000000E-03 0. -1.
        -11    1    3    3    0    0  0.77126865187E+01 -0.27466692206E+01 -0.80005244318E+00  0.82261661372E+01  0.51100000000E-03 0.  1.
         12    1    3    3    0    0  0.22098817793E+02  0.13796522793E+02 -0.23204019332E+02  0.34887365940E+02  0.00000000000E+00 0. -1.
</event>
<event>
 7    1  0.2985411E-011  0.5052886E+02  0.7816164E-02  0.1300439E+00
        -11   -1    0    0    0    0  0.00000000000E+00  0.00000000000E+00  0.45593999997E+02  0.45594000000E+02  0.51100000000E-03 0.  1.
         11   -1    0    0    0    0 -0.00000000000E+00 -0.00000000000E+00 -0.45593999997E+02  0.45594000000E+02  0.51100000000E-03 0. -1.
    9900012    2    1    2    0    0 -0.17269498805E+02  0.36804777857E+02  0.58147520850E+00  0.50528863567E+02  0.30000011298E+02 0.  0.
        -12    1    1    2    0    0  0.17269498805E+02 -0.36804777857E+02 -0.58147520850E+00  0.40659136433E+02  0.00000000000E+00 0.  1.
         11    1    3    3    0    0 -0.15225312465E+01  0.62340567055E+01  0.89492012564E+00  0.64793862901E+01  0.51100000000E-03 0. -1.
        -11    1    3    3    0    0 -0.11419214983E+02  0.13090383574E+02  0.12964342021E+02  0.21675580205E+02  0.51100000000E-03 0.  1.
         12    1    3    3    0    0 -0.43277525755E+01  0.17480337578E+02 -0.13277786938E+02  0.22373897072E+02  0.00000000000E+00 0. -1.
</event>
<event>
 7    1  0.2985411E-011  0.5052886E+02  0.7816164E-02  0.1300439E+00
        -11   -1    0    0    0    0  0.00000000000E+00  0.00000000000E+00  0.45593999997E+02  0.45594000000E+02  0.51100000000E-03 0.  1.
         11   -1    0    0    0    0 -0.00000000000E+00 -0.00000000000E+00 -0.45593999997E+02  0.45594000000E+02  0.51100000000E-03 0. -1.
    9900012    2    1    2    0    0  0.12190970683E+02 -0.38773440346E+02 -0.10800089582E+01  0.50528857587E+02  0.29999993121E+02 0.  0.
        -12    1    1    2    0    0 -0.12190970683E+02  0.38773440346E+02  0.10800089582E+01  0.40659142413E+02  0.00000000000E+00 0.  1.
         11    1    3    3    0    0  0.63785160110E+00  0.41822859370E+00 -0.41171767364E+00  0.86676497710E+00  0.51100000000E-03 0. -1.
        -11    1    3    3    0    0  0.48874276851E+01  0.22640076119E+01 -0.51289581658E+01  0.74376671055E+01  0.51100000000E-03 0.  1.
         12    1    3    3    0    0  0.66656913963E+01 -0.41455676551E+02  0.44606668813E+01  0.42224425504E+02  0.00000000000E+00 0. -1.
</event>
<event>
 7    1  0.2985411E-011  0.5052887E+02  0.7816164E-02  0.1300439E+00
        -11   -1    0    0    0    0  0.00000000000E+00  0.00000000000E+00  0.45593999997E+02  0.45594000000E+02  0.51100000000E-03 0. -1.
         11   -1    0    0    0    0 -0.00000000000E+00 -0.00000000000E+00 -0.45593999997E+02  0.45594000000E+02  0.51100000000E-03 0.  1.
    9900012    2    1    2    0    0  0.31491783512E+02  0.12913877799E+02  0.22241052148E+02  0.50528867333E+02  0.30000022746E+02 0.  0.
        -12    1    1    2    0    0 -0.31491783512E+02 -0.12913877799E+02 -0.22241052148E+02  0.40659132667E+02  0.00000000000E+00 0.  1.
         11    1    3    3    0    0  0.85103516857E+01  0.17429019960E+02  0.10027220765E+02  0.21834421886E+02  0.51100000000E-03 0. -1.
        -11    1    3    3    0    0  0.32763577814E+01 -0.51630211457E+01  0.16815080767E+01  0.63418276022E+01  0.51100000000E-03 0.  1.
        -12    1    3    3    0    0  0.19705074045E+02  0.64787898488E+00  0.10532323307E+02  0.22352617845E+02  0.00000000000E+00 0.  1.
</event>
<event>
 7    1  0.2985411E-011  0.5052886E+02  0.7816164E-02  0.1300439E+00
        -11   -1    0    0    0    0  0.00000000000E+00  0.00000000000E+00  0.45593999997E+02  0.45594000000E+02  0.51100000000E-03 0.  1.
         11   -1    0    0    0    0 -0.00000000000E+00 -0.00000000000E+00 -0.45593999997E+02  0.45594000000E+02  0.51100000000E-03 0. -1.
    9900012    2    1    2    0    0  0.33696959753E+01 -0.36693125344E+02 -0.17187937378E+02  0.50528862161E+02  0.30000007024E+02 0.  0.
        -12    1    1    2    0    0 -0.33696959753E+01  0.36693125344E+02  0.17187937378E+02  0.40659137839E+02  0.00000000000E+00 0.  1.
         11    1    3    3    0    0 -0.10071751900E+02 -0.12208626764E+02 -0.87406644566E+01  0.18080098706E+02  0.51100000000E-03 0. -1.
        -11    1    3    3    0    0 -0.12451505615E+01  0.10836465620E+01  0.33152927010E+00  0.16836275450E+01  0.51100000000E-03 0.  1.
        -12    1    3    3    0    0  0.14686598437E+02 -0.25568145142E+02 -0.87788021919E+01  0.30765135910E+02  0.00000000000E+00 0.  1.
</event>
<event>
 7    1  0.2985411E-011  0.5052887E+02  0.7816164E-02  0.1300439E+00
        -11   -1    0    0    0    0  0.00000000000E+00  0.00000000000E+00  0.45593999997E+02  0.45594000000E+02  0.51100000000E-03 0.  1.
         11   -1    0    0    0    0 -0.00000000000E+00 -0.00000000000E+00 -0.45593999997E+02  0.45594000000E+02  0.51100000000E-03 0. -1.
    9900012    2    1    2    0    0 -0.22026431392E+02 -0.82268242346E+01 -0.33171084428E+02  0.50528866230E+02  0.30000019391E+02 0.  0.
        -12    1    1    2    0    0  0.22026431392E+02  0.82268242346E+01  0.33171084428E+02  0.40659133770E+02  0.00000000000E+00 0.  1.
         11    1    3    3    0    0 -0.53724146919E+01 -0.12294287776E+01 -0.12054462480E+02  0.13254599228E+02  0.51100000000E-03 0. -1.
        -11    1    3    3    0    0 -0.11803289759E+02 -0.10152638561E+02 -0.25594202113E+02  0.29957585032E+02  0.51100000000E-03 0.  1.
        -12    1    3    3    0    0 -0.48507269408E+01  0.31552431040E+01  0.44775801658E+01  0.73166819693E+01  0.00000000000E+00 0.  1.
</event>
<event>
 7    1  0.2985411E-011  0.5052887E+02  0.7816164E-02  0.1300439E+00
        -11   -1    0    0    0    0  0.00000000000E+00  0.00000000000E+00  0.45593999997E+02  0.45594000000E+02  0.51100000000E-03 0.  1.
         11   -1    0    0    0    0 -0.00000000000E+00 -0.00000000000E+00 -0.45593999997E+02  0.45594000000E+02  0.51100000000E-03 0. -1.
    9900012    2    1    2    0    0  0.27009629242E+02  0.91403562747E+00 -0.30377773881E+02  0.50528872134E+02  0.30000037337E+02 0.  0.
        -12    1    1    2    0    0 -0.27009629242E+02 -0.91403562747E+00  0.30377773881E+02  0.40659127866E+02  0.00000000000E+00 0.  1.
         11    1    3    3    0    0  0.84302638362E+01  0.10167829652E+02 -0.22206257376E+02  0.25837414249E+02  0.51100000000E-03 0. -1.
        -11    1    3    3    0    0  0.43740803737E+01 -0.39971999324E+00 -0.65336494496E+01  0.78727968715E+01  0.51100000000E-03 0.  1.
        -12    1    3    3    0    0  0.14205285032E+02 -0.88540740311E+01 -0.16378670557E+01  0.16818661013E+02  0.00000000000E+00 0.  1.
</event>
<event>
 7    1  0.2985411E-011  0.5052890E+02  0.7816164E-02  0.1300439E+00
        -11   -1    0    0    0    0  0.00000000000E+00  0.00000000000E+00  0.45593999997E+02  0.45594000000E+02  0.51100000000E-03 0.  1.
         11   -1    0    0    0    0 -0.00000000000E+00 -0.00000000000E+00 -0.45593999997E+02  0.45594000000E+02  0.51100000000E-03 0. -1.
    9900012    2    1    2    0    0 -0.57448062836E+01 -0.13018066897E+02 -0.38087913773E+02  0.50528904578E+02  0.30000135954E+02 0.  0.
        -12    1    1    2    0    0  0.57448062836E+01  0.13018066897E+02  0.38087913773E+02  0.40659095422E+02  0.00000000000E+00 0.  1.
         11    1    3    3    0    0 -0.79035855518E+01  0.10374575347E+01 -0.23009056035E+02  0.24350762670E+02  0.51100000000E-03 0. -1.
        -11    1    3    3    0    0 -0.38858184383E+01 -0.26712749726E+01 -0.12046884724E+02  0.12936874690E+02  0.51100000000E-03 0.  1.
        -12    1    3    3    0    0  0.60445977065E+01 -0.11384249459E+02 -0.30319730135E+01  0.13241267218E+02  0.00000000000E+00 0.  1.
</event>
<event>
 7    1  0.2985411E-011  0.5052887E+02  0.7816164E-02  0.1300439E+00
        -11   -1    0    0    0    0  0.00000000000E+00  0.00000000000E+00  0.45593999997E+02  0.45594000000E+02  0.51100000000E-03 0.  1.
         11   -1    0    0    0    0 -0.00000000000E+00 -0.00000000000E+00 -0.45593999997E+02  0.45594000000E+02  0.51100000000E-03 0. -1.
    9900012    2    1    2    0    0  0.28127781936E+02  0.21272514059E+02 -0.20235438464E+02  0.50528868912E+02  0.30000027544E+02 0.  0.
        -12    1    1    2    0    0 -0.28127781936E+02 -0.21272514059E+02  0.20235438464E+02  0.40659131088E+02  0.00000000000E+00 0.  1.
         11    1    3    3    0    0  0.13809532605E+02  0.88823287964E+01 -0.43467174243E+01  0.16985078989E+02  0.51100000000E-03 0. -1.
        -11    1    3    3    0    0  0.82342522517E+01  0.17998842235E+02 -0.60690454116E+01  0.20702525073E+02  0.51100000000E-03 0.  1.
        -12    1    3    3    0    0  0.60839970794E+01 -0.56086569726E+01 -0.98196756283E+01  0.12841264850E+02  0.00000000000E+00 0.  1.
</event>
<event>
 7    1  0.2985411E-011  0.5052885E+02  0.7816164E-02  0.1300439E+00
        -11   -1    0    0    0    0  0.00000000000E+00  0.00000000000E+00  0.45593999997E+02  0.45594000000E+02  0.51100000000E-03 0. -1.
         11   -1    0    0    0    0 -0.00000000000E+00 -0.00000000000E+00 -0.45593999997E+02  0.45594000000E+02  0.51100000000E-03 0.  1.
    9900012    2    1    2    0    0  0.32188860175E+02 -0.15821731306E+02 -0.19149838854E+02  0.50528853071E+02  0.29999979394E+02 0.  0.
        -12    1    1    2    0    0 -0.32188860175E+02  0.15821731306E+02  0.19149838854E+02  0.40659146929E+02  0.00000000000E+00 0.  1.
         11    1    3    3    0    0  0.11336674773E+02 -0.10655928371E+02 -0.10530019200E+02  0.18786971788E+02  0.51100000000E-03 0. -1.
        -11    1    3    3    0    0  0.51760380307E+01 -0.84659989768E+01  0.46325808906E+01  0.10951041701E+02  0.51100000000E-03 0.  1.
         12    1    3    3    0    0  0.15676147371E+02  0.33001960418E+01 -0.13252400544E+02  0.20790839581E+02  0.00000000000E+00 0. -1.
</event>
<event>
 7    1  0.2985411E-011  0.5052886E+02  0.7816164E-02  0.1300439E+00
        -11   -1    0    0    0    0  0.00000000000E+00  0.00000000000E+00  0.45593999997E+02  0.45594000000E+02  0.51100000000E-03 0.  1.
         11   -1    0    0    0    0 -0.00000000000E+00 -0.00000000000E+00 -0.45593999997E+02  0.45594000000E+02  0.51100000000E-03 0. -1.
    9900012    2    1    2    0    0 -0.40648561665E+02 -0.21903413771E+00 -0.90129263328E+00  0.50528857488E+02  0.29999992820E+02 0.  0.
        -12    1    1    2    0    0  0.40648561665E+02  0.21903413771E+00  0.90129263328E+00  0.40659142512E+02  0.00000000000E+00 0.  1.
         11    1    3    3    0    0 -0.79219540748E+01 -0.43144741148E+01 -0.11078770072E+02  0.14286748749E+02  0.51100000000E-03 0.  1.
        -11    1    3    3    0    0 -0.11933658158E+02  0.56465853007E+01  0.38846551721E+00  0.13207839653E+02  0.51100000000E-03 0. -1.
        -12    1    3    3    0    0 -0.20792949433E+02 -0.15511453236E+01  0.97890119213E+01  0.23034269086E+02  0.00000000000E+00 0.  1.
</event>
<event>
 7    1  0.2985411E-011  0.5052886E+02  0.7816164E-02  0.1300439E+00
        -11   -1    0    0    0    0  0.00000000000E+00  0.00000000000E+00  0.45593999997E+02  0.45594000000E+02  0.51100000000E-03 0.  1.
         11   -1    0    0    0    0 -0.00000000000E+00 -0.00000000000E+00 -0.45593999997E+02  0.45594000000E+02  0.51100000000E-03 0. -1.
    9900012    2    1    2    0    0  0.43511564022E+01  0.33857566519E+02 -0.22088415533E+02  0.50528862363E+02  0.30000007638E+02 0.  0.
        -12    1    1    2    0    0 -0.43511564022E+01 -0.33857566519E+02  0.22088415533E+02  0.40659137637E+02  0.00000000000E+00 0.  1.
         11    1    3    3    0    0 -0.38348186346E+01  0.42415032273E+01 -0.43366312143E+01  0.71765280002E+01  0.51100000000E-03 0. -1.
        -11    1    3    3    0    0 -0.24866532535E+01  0.11791719305E+02  0.45423719755E+01  0.12878712358E+02  0.51100000000E-03 0.  1.
         12    1    3    3    0    0  0.10672628290E+02  0.17824343986E+02 -0.22294156295E+02  0.30473622004E+02  0.00000000000E+00 0. -1.
</event>
<event>
 7    1  0.2985411E-011  0.5052886E+02  0.7816164E-02  0.1300439E+00
        -11   -1    0    0    0    0  0.00000000000E+00  0.00000000000E+00  0.45593999997E+02  0.45594000000E+02  0.51100000000E-03 0.  1.
         11   -1    0    0    0    0 -0.00000000000E+00 -0.00000000000E+00 -0.45593999997E+02  0.45594000000E+02  0.51100000000E-03 0. -1.
    9900012    2    1    2    0    0  0.40403845941E+02 -0.12215897060E+01 -0.43820926782E+01  0.50528858537E+02  0.29999996010E+02 0.  0.
        -12    1    1    2    0    0 -0.40403845941E+02  0.12215897060E+01  0.43820926782E+01  0.40659141463E+02  0.00000000000E+00 0.  1.
         11    1    3    3    0    0  0.20885007378E+01  0.29964576195E+01  0.87378249019E+00  0.37555411991E+01  0.51100000000E-03 0. -1.
        -11    1    3    3    0    0  0.39754306867E+01  0.74613843114E+01 -0.62084141462E+01  0.10489075815E+02  0.51100000000E-03 0.  1.
         12    1    3    3    0    0  0.34339914517E+02 -0.11679431637E+02  0.95253897782E+00  0.36284241523E+02  0.00000000000E+00 0. -1.
</event>
<event>
 7    1  0.2985411E-011  0.5052886E+02  0.7816164E-02  0.1300439E+00
        -11   -1    0    0    0    0  0.00000000000E+00  0.00000000000E+00  0.45593999997E+02  0.45594000000E+02  0.51100000000E-03 0.  1.
         11   -1    0    0    0    0 -0.00000000000E+00 -0.00000000000E+00 -0.45593999997E+02  0.45594000000E+02  0.51100000000E-03 0. -1.
    9900012    2    1    2    0    0 -0.39203273697E+02  0.76045894842E+01 -0.76445303610E+01  0.50528864566E+02  0.30000014336E+02 0.  0.
        -12    1    1    2    0    0  0.39203273697E+02 -0.76045894842E+01  0.76445303610E+01  0.40659135434E+02  0.00000000000E+00 0.  1.
         11    1    3    3    0    0 -0.20130549978E+01  0.10304642132E+00  0.52661980357E+01  0.56387809854E+01  0.51100000000E-03 0. -1.
        -11    1    3    3    0    0 -0.78445602193E+00  0.21128189680E+00  0.40072631218E+01  0.40887857952E+01  0.51100000000E-03 0.  1.
         12    1    3    3    0    0 -0.36405762677E+02  0.72902611661E+01 -0.16917991519E+02  0.40801297786E+02  0.00000000000E+00 0. -1.
</event>
<event>
 7    1  0.2985411E-011  0.5052888E+02  0.7816164E-02  0.1300439E+00
        -11   -1    0    0    0    0  0.00000000000E+00  0.00000000000E+00  0.45593999997E+02  0.45594000000E+02  0.51100000000E-03 0.  1.
         11   -1    0    0    0    0 -0.00000000000E+00 -0.00000000000E+00 -0.45593999997E+02  0.45594000000E+02  0.51100000000E-03 0. -1.
    9900012    2    1    2    0    0 -0.27154503212E+02 -0.25373784083E+02  0.16491463068E+02  0.50528876577E+02  0.30000050844E+02 0.  0.
        -12    1    1    2    0    0  0.27154503212E+02  0.25373784083E+02 -0.16491463068E+02  0.40659123423E+02  0.00000000000E+00 0.  1.
         11    1    3    3    0    0 -0.24645772300E+00  0.23246979466E+01  0.77337331597E+01  0.80793310861E+01  0.51100000000E-03 0. -1.
        -11    1    3    3    0    0 -0.63052676260E+01  0.54472500226E+00 -0.30012024815E+00  0.63358659699E+01  0.51100000000E-03 0.  1.
         12    1    3    3    0    0 -0.20602777863E+02 -0.28243207032E+02  0.90578501569E+01  0.36113679521E+02  0.00000000000E+00 0. -1.
</event>
<event>
 7    1  0.2985411E-011  0.5052886E+02  0.7816164E-02  0.1300439E+00
        -11   -1    0    0    0    0  0.00000000000E+00  0.00000000000E+00  0.45593999997E+02  0.45594000000E+02  0.51100000000E-03 0.  1.
         11   -1    0    0    0    0 -0.00000000000E+00 -0.00000000000E+00 -0.45593999997E+02  0.45594000000E+02  0.51100000000E-03 0. -1.
    9900012    2    1    2    0    0 -0.33815077407E+02  0.22572372654E+02  0.44028404770E+00  0.50528864282E+02  0.30000013473E+02 0.  0.
        -12    1    1    2    0    0  0.33815077407E+02 -0.22572372654E+02 -0.44028404770E+00  0.40659135718E+02  0.00000000000E+00 0.  1.
         11    1    3    3    0    0 -0.42798949691E+01  0.15182165231E+02  0.55024173163E+01  0.16706053951E+02  0.51100000000E-03 0. -1.
        -11    1    3    3    0    0  0.24021382589E+00  0.33777416737E+01 -0.25171909835E+00  0.33956154467E+01  0.51100000000E-03 0.  1.
         12    1    3    3    0    0 -0.29775396264E+02  0.40124657499E+01 -0.48104141702E+01  0.30427194884E+02  0.00000000000E+00 0. -1.
</event>
<event>
 7    1  0.2985411E-011  0.5052885E+02  0.7816164E-02  0.1300439E+00
        -11   -1    0    0    0    0  0.00000000000E+00  0.00000000000E+00  0.45593999997E+02  0.45594000000E+02  0.51100000000E-03 0.  1.
         11   -1    0    0    0    0 -0.00000000000E+00 -0.00000000000E+00 -0.45593999997E+02  0.45594000000E+02  0.51100000000E-03 0. -1.
    9900012    2    1    2    0    0  0.49327434916E+01  0.81375105525E+01 -0.39529929532E+02  0.50528851396E+02  0.29999974304E+02 0.  0.
        -12    1    1    2    0    0 -0.49327434916E+01 -0.81375105525E+01  0.39529929532E+02  0.40659148604E+02  0.00000000000E+00 0.  1.
         11    1    3    3    0    0  0.87053116141E+01 -0.48006178252E+00 -0.18963941375E+02  0.20872086201E+02  0.51100000000E-03 0. -1.
        -11    1    3    3    0    0  0.16963819982E+01 -0.25880806307E+01  0.21330700349E+01  0.37584386745E+01  0.51100000000E-03 0.  1.
        -12    1    3    3    0    0 -0.54689501207E+01  0.11205652966E+02 -0.22699058192E+02  0.25898326521E+02  0.00000000000E+00 0.  1.
</event>
<event>
 7    1  0.2985411E-011  0.5052887E+02  0.7816164E-02  0.1300439E+00
        -11   -1    0    0    0    0  0.00000000000E+00  0.00000000000E+00  0.45593999997E+02  0.45594000000E+02  0.51100000000E-03 0.  1.
         11   -1    0    0    0    0 -0.00000000000E+00 -0.00000000000E+00 -0.45593999997E+02  0.45594000000E+02  0.51100000000E-03 0. -1.
    9900012    2    1    2    0    0  0.38557802087E+02  0.11549960245E+02 -0.57496983734E+01  0.50528871692E+02  0.30000035994E+02 0.  0.
        -12    1    1    2    0    0 -0.38557802087E+02 -0.11549960245E+02  0.57496983734E+01  0.40659128308E+02  0.00000000000E+00 0.  1.
         11    1    3    3    0    0  0.17198475142E+02  0.14817534114E+02  0.25249670236E+01  0.22841241717E+02  0.51100000000E-03 0. -1.
        -11    1    3    3    0    0  0.81550788771E+01  0.57244734881E+01 -0.57798082666E+01  0.11518727884E+02  0.51100000000E-03 0.  1.
         12    1    3    3    0    0  0.13204248068E+02 -0.89920473578E+01 -0.24948571304E+01  0.16168902091E+02  0.00000000000E+00 0. -1.
</event>
<event>
 7    1  0.2985411E-011  0.5052886E+02  0.7816164E-02  0.1300439E+00
        -11   -1    0    0    0    0  0.00000000000E+00  0.00000000000E+00  0.45593999997E+02  0.45594000000E+02  0.51100000000E-03 0.  1.
         11   -1    0    0    0    0 -0.00000000000E+00 -0.00000000000E+00 -0.45593999997E+02  0.45594000000E+02  0.51100000000E-03 0. -1.
    9900012    2    1    2    0    0 -0.36032856249E+02  0.10906239468E+01 -0.18804507971E+02  0.50528859452E+02  0.29999998790E+02 0.  0.
        -12    1    1    2    0    0  0.36032856249E+02 -0.10906239468E+01  0.18804507971E+02  0.40659140548E+02  0.00000000000E+00 0.  1.
         11    1    3    3    0    0 -0.12845493115E+02 -0.46280196589E+01 -0.21574034741E+01  0.13823156273E+02  0.51100000000E-03 0. -1.
        -11    1    3    3    0    0  0.31543673380E+01 -0.25154434525E+01  0.71871915970E+00  0.40980539964E+01  0.51100000000E-03 0.  1.
         12    1    3    3    0    0 -0.26341730472E+02  0.82340870582E+01 -0.17365823657E+02  0.32607649183E+02  0.00000000000E+00 0. -1.
</event>
<event>
 7    1  0.2985411E-011  0.5052886E+02  0.7816164E-02  0.1300439E+00
        -11   -1    0    0    0    0  0.00000000000E+00  0.00000000000E+00  0.45593999997E+02  0.45594000000E+02  0.51100000000E-03 0.  1.
         11   -1    0    0    0    0 -0.00000000000E+00 -0.00000000000E+00 -0.45593999997E+02  0.45594000000E+02  0.51100000000E-03 0. -1.
    9900012    2    1    2    0    0  0.10852447571E+02  0.21594455094E+02 -0.32696633114E+02  0.50528856796E+02  0.29999990718E+02 0.  0.
        -12    1    1    2    0    0 -0.10852447571E+02 -0.21594455094E+02  0.32696633114E+02  0.40659143204E+02  0.00000000000E+00 0.  1.
         11    1    3    3    0    0 -0.39416855711E+01 -0.23155689606E+01 -0.54675218583E+01  0.71268885416E+01  0.51100000000E-03 0. -1.
        -11    1    3    3    0    0  0.17098376778E+02  0.10262808495E+02 -0.15419957940E+02  0.25208229406E+02  0.51100000000E-03 0.  1.
         12    1    3    3    0    0 -0.23042436361E+01  0.13647215560E+02 -0.11809153315E+02  0.18193738849E+02  0.00000000000E+00 0. -1.
</event>
<event>
 7    1  0.2985411E-011  0.5052886E+02  0.7816164E-02  0.1300439E+00
        -11   -1    0    0    0    0  0.00000000000E+00  0.00000000000E+00  0.45593999997E+02  0.45594000000E+02  0.51100000000E-03 0.  1.
         11   -1    0    0    0    0 -0.00000000000E+00 -0.00000000000E+00 -0.45593999997E+02  0.45594000000E+02  0.51100000000E-03 0. -1.
    9900012    2    1    2    0    0 -0.11676911949E+02  0.38803221929E+02 -0.33354168858E+01  0.50528864366E+02  0.30000013726E+02 0.  0.
        -12    1    1    2    0    0  0.11676911949E+02 -0.38803221929E+02  0.33354168858E+01  0.40659135634E+02  0.00000000000E+00 0.  1.
         11    1    3    3    0    0 -0.13341912852E+02  0.73457343417E+01  0.30921327100E+00  0.15233583448E+02  0.51100000000E-03 0. -1.
        -11    1    3    3    0    0 -0.62617657720E+01  0.14849766816E+02  0.15043879496E+01  0.16186057841E+02  0.51100000000E-03 0.  1.
        -12    1    3    3    0    0  0.79267666747E+01  0.16607720771E+02 -0.51490181064E+01  0.19109223076E+02  0.00000000000E+00 0.  1.
</event>
<event>
 7    1  0.2985411E-011  0.5052886E+02  0.7816164E-02  0.1300439E+00
        -11   -1    0    0    0    0  0.00000000000E+00  0.00000000000E+00  0.45593999997E+02  0.45594000000E+02  0.51100000000E-03 0.  1.
         11   -1    0    0    0    0 -0.00000000000E+00 -0.00000000000E+00 -0.45593999997E+02  0.45594000000E+02  0.51100000000E-03 0. -1.
    9900012    2    1    2    0    0  0.13661913598E+02  0.38001952264E+01 -0.38106119634E+02  0.50528859325E+02  0.29999998403E+02 0.  0.
        -12    1    1    2    0    0 -0.13661913598E+02 -0.38001952264E+01  0.38106119634E+02  0.40659140675E+02  0.00000000000E+00 0.  1.
         11    1    3    3    0    0  0.12799618542E+02  0.48986851797E+01 -0.21046893026E+02  0.25115713361E+02  0.51100000000E-03 0. -1.
        -11    1    3    3    0    0 -0.91708689010E+00  0.18053385518E+01 -0.20483677048E+02  0.20583520625E+02  0.51100000000E-03 0.  1.
        -12    1    3    3    0    0  0.17793819459E+01 -0.29038285050E+01  0.34244504404E+01  0.48296253390E+01  0.00000000000E+00 0.  1.
</event>
<event>
 7    1  0.2985411E-011  0.5052887E+02  0.7816164E-02  0.1300439E+00
        -11   -1    0    0    0    0  0.00000000000E+00  0.00000000000E+00  0.45593999997E+02  0.45594000000E+02  0.51100000000E-03 0.  1.
         11   -1    0    0    0    0 -0.00000000000E+00 -0.00000000000E+00 -0.45593999997E+02  0.45594000000E+02  0.51100000000E-03 0. -1.
    9900012    2    1    2    0    0  0.95410484862E+01  0.88397734350E+01 -0.38522617350E+02  0.50528865133E+02  0.30000016059E+02 0.  0.
        -12    1    1    2    0    0 -0.95410484862E+01 -0.88397734350E+01  0.38522617350E+02  0.40659134867E+02  0.00000000000E+00 0.  1.
         11    1    3    3    0    0  0.56235811972E+01 -0.43300036663E+01 -0.31860751163E+01  0.77797604166E+01  0.51100000000E-03 0. -1.
        -11    1    3    3    0    0  0.33802328251E+01  0.51581081181E+01  0.34362263405E+00  0.61765791573E+01  0.51100000000E-03 0.  1.
         12    1    3    3    0    0  0.53723446384E+00  0.80116689831E+01 -0.35680164868E+02  0.36572525559E+02  0.00000000000E+00 0. -1.
</event>
<event>
 7    1  0.2985411E-011  0.5052886E+02  0.7816164E-02  0.1300439E+00
        -11   -1    0    0    0    0  0.00000000000E+00  0.00000000000E+00  0.45593999997E+02  0.45594000000E+02  0.51100000000E-03 0.  1.
         11   -1    0    0    0    0 -0.00000000000E+00 -0.00000000000E+00 -0.45593999997E+02  0.45594000000E+02  0.51100000000E-03 0. -1.
    9900012    2    1    2    0    0 -0.34080070701E+02  0.21680320125E+02 -0.46560020038E+01  0.50528857678E+02  0.29999993398E+02 0.  0.
        -12    1    1    2    0    0  0.34080070701E+02 -0.21680320125E+02  0.46560020038E+01  0.40659142322E+02  0.00000000000E+00 0.  1.
         11    1    3    3    0    0 -0.10347626966E+01 -0.18214723532E+01  0.24083654489E+01  0.31919774073E+01  0.51100000000E-03 0. -1.
        -11    1    3    3    0    0  0.36438600852E+01  0.13753372204E+01  0.10611967893E+00  0.38962200192E+01  0.51100000000E-03 0.  1.
         12    1    3    3    0    0 -0.36689168090E+02  0.22126455258E+02 -0.71704871316E+01  0.43440660252E+02  0.00000000000E+00 0. -1.
</event>
<event>
 7    1  0.2985411E-011  0.5052885E+02  0.7816164E-02  0.1300439E+00
        -11   -1    0    0    0    0  0.00000000000E+00  0.00000000000E+00  0.45593999997E+02  0.45594000000E+02  0.51100000000E-03 0.  1.
         11   -1    0    0    0    0 -0.00000000000E+00 -0.00000000000E+00 -0.45593999997E+02  0.45594000000E+02  0.51100000000E-03 0. -1.
    9900012    2    1    2    0    0  0.33437167627E+02  0.78543767539E+01 -0.21758467168E+02  0.50528852116E+02  0.29999976493E+02 0.  0.
        -12    1    1    2    0    0 -0.33437167627E+02 -0.78543767539E+01  0.21758467168E+02  0.40659147884E+02  0.00000000000E+00 0.  1.
         11    1    3    3    0    0  0.31372060642E+02  0.23308504241E+00 -0.17505239156E+02  0.35926228799E+02  0.51100000000E-03 0. -1.
        -11    1    3    3    0    0 -0.64381600714E+00 -0.22183599735E+01 -0.37252065571E+01  0.43832390053E+01  0.51100000000E-03 0.  1.
        -12    1    3    3    0    0  0.27089229924E+01  0.98396516850E+01 -0.52802145507E+00  0.10219384312E+02  0.00000000000E+00 0.  1.
</event>
<event>
 7    1  0.2985411E-011  0.5052886E+02  0.7816164E-02  0.1300439E+00
        -11   -1    0    0    0    0  0.00000000000E+00  0.00000000000E+00  0.45593999997E+02  0.45594000000E+02  0.51100000000E-03 0.  1.
         11   -1    0    0    0    0 -0.00000000000E+00 -0.00000000000E+00 -0.45593999997E+02  0.45594000000E+02  0.51100000000E-03 0. -1.
    9900012    2    1    2    0    0 -0.73075750368E+01 -0.29613680110E+02 -0.26884843033E+02  0.50528862190E+02  0.30000007112E+02 0.  0.
        -12    1    1    2    0    0  0.73075750368E+01  0.29613680110E+02  0.26884843033E+02  0.40659137810E+02  0.00000000000E+00 0.  1.
         11    1    3    3    0    0  0.77018358933E+01 -0.68347428773E+01 -0.11189706910E+01  0.10357802952E+02  0.51100000000E-03 0. -1.
        -11    1    3    3    0    0 -0.38901000381E+01 -0.10273870554E+02 -0.20965579610E+01  0.11183955026E+02  0.51100000000E-03 0.  1.
         12    1    3    3    0    0 -0.11119310892E+02 -0.12505066679E+02 -0.23669314380E+02  0.28987104212E+02  0.00000000000E+00 0. -1.
</event>
<event>
 7    1  0.2985411E-011  0.5052887E+02  0.7816164E-02  0.1300439E+00
        -11   -1    0    0    0    0  0.00000000000E+00  0.00000000000E+00  0.45593999997E+02  0.45594000000E+02  0.51100000000E-03 0. -1.
         11   -1    0    0    0    0 -0.00000000000E+00 -0.00000000000E+00 -0.45593999997E+02  0.45594000000E+02  0.51100000000E-03 0.  1.
    9900012    2    1    2    0    0  0.43270748212E+01 -0.15288668718E+02  0.37425896363E+02  0.50528872043E+02  0.30000037061E+02 0.  0.
        -12    1    1    2    0    0 -0.43270748212E+01  0.15288668718E+02 -0.37425896363E+02  0.40659127957E+02  0.00000000000E+00 0.  1.
         11    1    3    3    0    0  0.32329407312E+01 -0.60410868676E+01  0.36167281452E+02  0.36810581145E+02  0.51100000000E-03 0. -1.
        -11    1    3    3    0    0 -0.41670027533E+01 -0.17980678000E+01  0.52942836500E+00  0.45691634260E+01  0.51100000000E-03 0.  1.
        -12    1    3    3    0    0  0.52611368432E+01 -0.74495140507E+01  0.72918654548E+00  0.91491274716E+01  0.00000000000E+00 0.  1.
</event>
<event>
 7    1  0.2985411E-011  0.5052887E+02  0.7816164E-02  0.1300439E+00
        -11   -1    0    0    0    0  0.00000000000E+00  0.00000000000E+00  0.45593999997E+02  0.45594000000E+02  0.51100000000E-03 0.  1.
         11   -1    0    0    0    0 -0.00000000000E+00 -0.00000000000E+00 -0.45593999997E+02  0.45594000000E+02  0.51100000000E-03 0. -1.
    9900012    2    1    2    0    0  0.76020405216E+01  0.28981909746E+01 -0.39836850087E+02  0.50528866268E+02  0.30000019507E+02 0.  0.
        -12    1    1    2    0    0 -0.76020405216E+01 -0.28981909746E+01  0.39836850087E+02  0.40659133732E+02  0.00000000000E+00 0.  1.
         11    1    3    3    0    0  0.10567374246E+02  0.66484094125E+01 -0.27325571869E+02  0.30042596832E+02  0.51100000000E-03 0. -1.
        -11    1    3    3    0    0  0.15783793537E+01 -0.49488886962E+01 -0.14485897919E+02  0.15389087676E+02  0.51100000000E-03 0.  1.
        -12    1    3    3    0    0 -0.45437130778E+01  0.11986702583E+01  0.19746197017E+01  0.50971817593E+01  0.00000000000E+00 0.  1.
</event>
<event>
 7    1  0.2985411E-011  0.5052887E+02  0.7816164E-02  0.1300439E+00
        -11   -1    0    0    0    0  0.00000000000E+00  0.00000000000E+00  0.45593999997E+02  0.45594000000E+02  0.51100000000E-03 0.  1.
         11   -1    0    0    0    0 -0.00000000000E+00 -0.00000000000E+00 -0.45593999997E+02  0.45594000000E+02  0.51100000000E-03 0. -1.
    9900012    2    1    2    0    0 -0.27543716565E+01  0.23386936138E+02 -0.33145579585E+02  0.50528870753E+02  0.30000033140E+02 0.  0.
        -12    1    1    2    0    0  0.27543716565E+01 -0.23386936138E+02  0.33145579585E+02  0.40659129247E+02  0.00000000000E+00 0.  1.
         11    1    3    3    0    0 -0.30184168936E+01  0.85079821505E+01 -0.16479297744E+02  0.18789993486E+02  0.51100000000E-03 0. -1.
        -11    1    3    3    0    0  0.42919711935E+01  0.90074030424E+01 -0.21107518120E+02  0.23346983697E+02  0.51100000000E-03 0.  1.
        -12    1    3    3    0    0 -0.40279259564E+01  0.58715509446E+01  0.44412362788E+01  0.83918935700E+01  0.00000000000E+00 0.  1.
</event>
<event>
 7    1  0.2985411E-011  0.5052887E+02  0.7816164E-02  0.1300439E+00
        -11   -1    0    0    0    0  0.00000000000E+00  0.00000000000E+00  0.45593999997E+02  0.45594000000E+02  0.51100000000E-03 0. -1.
         11   -1    0    0    0    0 -0.00000000000E+00 -0.00000000000E+00 -0.45593999997E+02  0.45594000000E+02  0.51100000000E-03 0.  1.
    9900012    2    1    2    0    0 -0.34924499207E+02 -0.51749827488E+01  0.20165911269E+02  0.50528867340E+02  0.30000022766E+02 0.  0.
        -12    1    1    2    0    0  0.34924499207E+02  0.51749827488E+01 -0.20165911269E+02  0.40659132660E+02  0.00000000000E+00 0.  1.
         11    1    3    3    0    0 -0.20036149427E+02  0.77798545681E+01  0.13381722792E+02  0.25318845276E+02  0.51100000000E-03 0. -1.
        -11    1    3    3    0    0 -0.78815038677E+01 -0.78155232936E+01  0.10933898012E+02  0.15580456783E+02  0.51100000000E-03 0.  1.
        -12    1    3    3    0    0 -0.70068459129E+01 -0.51393140232E+01 -0.41497095349E+01  0.96295652809E+01  0.00000000000E+00 0.  1.
</event>
<event>
 7    1  0.2985411E-011  0.5052886E+02  0.7816164E-02  0.1300439E+00
        -11   -1    0    0    0    0  0.00000000000E+00  0.00000000000E+00  0.45593999997E+02  0.45594000000E+02  0.51100000000E-03 0.  1.
         11   -1    0    0    0    0 -0.00000000000E+00 -0.00000000000E+00 -0.45593999997E+02  0.45594000000E+02  0.51100000000E-03 0. -1.
    9900012    2    1    2    0    0 -0.19773623467E+02 -0.27292414056E+02 -0.22744091008E+02  0.50528859259E+02  0.29999998203E+02 0.  0.
        -12    1    1    2    0    0  0.19773623467E+02  0.27292414056E+02  0.22744091008E+02  0.40659140741E+02  0.00000000000E+00 0.  1.
         11    1    3    3    0    0 -0.40165706184E+01 -0.71386588964E+01 -0.14498032969E+02  0.16651914322E+02  0.51100000000E-03 0. -1.
        -11    1    3    3    0    0  0.35469276795E+01 -0.57694480946E+00 -0.50502637032E+01  0.61982840375E+01  0.51100000000E-03 0.  1.
         12    1    3    3    0    0 -0.19303980528E+02 -0.19576810350E+02 -0.31957943361E+01  0.27678660899E+02  0.00000000000E+00 0. -1.
</event>
<event>
 7    1  0.2985411E-011  0.5052886E+02  0.7816164E-02  0.1300439E+00
        -11   -1    0    0    0    0  0.00000000000E+00  0.00000000000E+00  0.45593999997E+02  0.45594000000E+02  0.51100000000E-03 0. -1.
         11   -1    0    0    0    0 -0.00000000000E+00 -0.00000000000E+00 -0.45593999997E+02  0.45594000000E+02  0.51100000000E-03 0.  1.
    9900012    2    1    2    0    0  0.18545193864E+02  0.50099933615E+01  0.35834922654E+02  0.50528856741E+02  0.29999990551E+02 0.  0.
        -12    1    1    2    0    0 -0.18545193864E+02 -0.50099933615E+01 -0.35834922654E+02  0.40659143259E+02  0.00000000000E+00 0.  1.
         11    1    3    3    0    0  0.15389992851E+02  0.42699642777E+01  0.36809952341E+02  0.40125516401E+02  0.51100000000E-03 0. -1.
        -11    1    3    3    0    0  0.36756017932E+01  0.14905275247E+00  0.39605214182E+01  0.54053672799E+01  0.51100000000E-03 0.  1.
        -12    1    3    3    0    0 -0.52040078060E+00  0.59097633137E+00 -0.49355511051E+01  0.49979730599E+01  0.00000000000E+00 0.  1.
</event>
<event>
 7    1  0.2985411E-011  0.5052887E+02  0.7816164E-02  0.1300439E+00
        -11   -1    0    0    0    0  0.00000000000E+00  0.00000000000E+00  0.45593999997E+02  0.45594000000E+02  0.51100000000E-03 0.  1.
         11   -1    0    0    0    0 -0.00000000000E+00 -0.00000000000E+00 -0.45593999997E+02  0.45594000000E+02  0.51100000000E-03 0. -1.
    9900012    2    1    2    0    0 -0.16451988506E+02  0.10275680450E+02 -0.35733839531E+02  0.50528870371E+02  0.30000031981E+02 0.  0.
        -12    1    1    2    0    0  0.16451988506E+02 -0.10275680450E+02  0.35733839531E+02  0.40659129629E+02  0.00000000000E+00 0.  1.
         11    1    3    3    0    0 -0.13175064248E+02  0.10685912305E+02 -0.17868328306E+02  0.24638348087E+02  0.51100000000E-03 0. -1.
        -11    1    3    3    0    0 -0.90696687984E+01  0.44575777921E+01 -0.58092797433E+01  0.11656612856E+02  0.51100000000E-03 0.  1.
        -12    1    3    3    0    0  0.57927445402E+01 -0.48678096469E+01 -0.12056231482E+02  0.14233909428E+02  0.00000000000E+00 0.  1.
</event>
<event>
 7    1  0.2985411E-011  0.5052887E+02  0.7816164E-02  0.1300439E+00
        -11   -1    0    0    0    0  0.00000000000E+00  0.00000000000E+00  0.45593999997E+02  0.45594000000E+02  0.51100000000E-03 0. -1.
         11   -1    0    0    0    0 -0.00000000000E+00 -0.00000000000E+00 -0.45593999997E+02  0.45594000000E+02  0.51100000000E-03 0.  1.
    9900012    2    1    2    0    0  0.84198131185E+01  0.39554042987E+02  0.42129433824E+01  0.50528874806E+02  0.30000045460E+02 0.  0.
        -12    1    1    2    0    0 -0.84198131185E+01 -0.39554042987E+02 -0.42129433824E+01  0.40659125194E+02  0.00000000000E+00 0.  1.
         11    1    3    3    0    0 -0.89065195226E+00  0.29070141660E+01  0.36976158065E+01  0.47871030045E+01  0.51100000000E-03 0. -1.
        -11    1    3    3    0    0 -0.29547522831E+01 -0.28835587442E+01 -0.12524010350E+01  0.43143922746E+01  0.51100000000E-03 0.  1.
         12    1    3    3    0    0  0.12265217354E+02  0.39530587566E+02  0.17677286109E+01  0.41427379527E+02  0.00000000000E+00 0. -1.
</event>
<event>
 7    1  0.2985411E-011  0.5052886E+02  0.7816164E-02  0.1300439E+00
        -11   -1    0    0    0    0  0.00000000000E+00  0.00000000000E+00  0.45593999997E+02  0.45594000000E+02  0.51100000000E-03 0.  1.
         11   -1    0    0    0    0 -0.00000000000E+00 -0.00000000000E+00 -0.45593999997E+02  0.45594000000E+02  0.51100000000E-03 0. -1.
    9900012    2    1    2    0    0 -0.17421105625E+02  0.35659341795E+02 -0.88364173152E+01  0.50528857739E+02  0.29999993582E+02 0.  0.
        -12    1    1    2    0    0  0.17421105625E+02 -0.35659341795E+02  0.88364173152E+01  0.40659142261E+02  0.00000000000E+00 0.  1.
         11    1    3    3    0    0  0.25951076375E+01  0.15323711526E+02 -0.63028506724E+01  0.16771304226E+02  0.51100000000E-03 0. -1.
        -11    1    3    3    0    0  0.14029328075E+01 -0.68260504936E+00 -0.33947421849E+01  0.37361002233E+01  0.51100000000E-03 0.  1.
         12    1    3    3    0    0 -0.21419146070E+02  0.21018235319E+02  0.86117554202E+00  0.30021453289E+02  0.00000000000E+00 0. -1.
</event>
<event>
 7    1  0.2985411E-011  0.5052886E+02  0.7816164E-02  0.1300439E+00
        -11   -1    0    0    0    0  0.00000000000E+00  0.00000000000E+00  0.45593999997E+02  0.45594000000E+02  0.51100000000E-03 0.  1.
         11   -1    0    0    0    0 -0.00000000000E+00 -0.00000000000E+00 -0.45593999997E+02  0.45594000000E+02  0.51100000000E-03 0. -1.
    9900012    2    1    2    0    0  0.25082328033E+02 -0.30022744149E+02 -0.11075989207E+02  0.50528857329E+02  0.29999992338E+02 0.  0.
        -12    1    1    2    0    0 -0.25082328033E+02  0.30022744149E+02  0.11075989207E+02  0.40659142671E+02  0.00000000000E+00 0.  1.
         11    1    3    3    0    0 -0.27589877823E+01  0.73805924723E+00  0.10462182296E+01  0.30415979157E+01  0.51100000000E-03 0. -1.
        -11    1    3    3    0    0  0.11154119510E+02 -0.91813034429E+01  0.49911497605E+01  0.15284707755E+02  0.51100000000E-03 0.  1.
         12    1    3    3    0    0  0.16687196306E+02 -0.21579499953E+02 -0.17113357198E+02  0.32202551659E+02  0.00000000000E+00 0. -1.
</event>
<event>
 7    1  0.2985411E-011  0.5052876E+02  0.7816164E-02  0.1300439E+00
        -11   -1    0    0    0    0  0.00000000000E+00  0.00000000000E+00  0.45593999997E+02  0.45594000000E+02  0.51100000000E-03 0.  1.
         11   -1    0    0    0    0 -0.00000000000E+00 -0.00000000000E+00 -0.45593999997E+02  0.45594000000E+02  0.51100000000E-03 0. -1.
    9900012    2    1    2    0    0 -0.41224253075E+01 -0.27781441201E+01 -0.40354195982E+02  0.50528762322E+02  0.29999703554E+02 0.  0.
        -12    1    1    2    0    0  0.41224253075E+01  0.27781441201E+01  0.40354195982E+02  0.40659237678E+02  0.00000000000E+00 0.  1.
         11    1    3    3    0    0 -0.85764896635E+01  0.33214823820E+01 -0.41117890308E+02  0.42133945030E+02  0.51100000000E-03 0. -1.
        -11    1    3    3    0    0 -0.45327629522E+00 -0.15919514620E+01  0.48815019546E+00  0.17257055750E+01  0.51100000000E-03 0.  1.
        -12    1    3    3    0    0  0.49073406512E+01 -0.45076750401E+01  0.27554413012E+00  0.66691117176E+01  0.00000000000E+00 0.  1.
</event>
<event>
 7    1  0.2985411E-011  0.5052886E+02  0.7816164E-02  0.1300439E+00
        -11   -1    0    0    0    0  0.00000000000E+00  0.00000000000E+00  0.45593999997E+02  0.45594000000E+02  0.51100000000E-03 0.  1.
         11   -1    0    0    0    0 -0.00000000000E+00 -0.00000000000E+00 -0.45593999997E+02  0.45594000000E+02  0.51100000000E-03 0. -1.
    9900012    2    1    2    0    0  0.11826055975E+02 -0.34933771635E+01 -0.38744118613E+02  0.50528855751E+02  0.29999987540E+02 0.  0.
        -12    1    1    2    0    0 -0.11826055975E+02  0.34933771635E+01  0.38744118613E+02  0.40659144249E+02  0.00000000000E+00 0.  1.
         11    1    3    3    0    0 -0.27431590425E+01 -0.81352515533E+01 -0.96111424507E+01  0.12887253347E+02  0.51100000000E-03 0. -1.
        -11    1    3    3    0    0 -0.39031037623E+01  0.69024371136E+00 -0.16517846840E+01  0.42940712924E+01  0.51100000000E-03 0.  1.
         12    1    3    3    0    0  0.18472318780E+02  0.39516306784E+01 -0.27481191479E+02  0.33347531111E+02  0.00000000000E+00 0. -1.
</event>
<event>
 7    1  0.2985411E-011  0.5052886E+02  0.7816164E-02  0.1300439E+00
        -11   -1    0    0    0    0  0.00000000000E+00  0.00000000000E+00  0.45593999997E+02  0.45594000000E+02  0.51100000000E-03 0.  1.
         11   -1    0    0    0    0 -0.00000000000E+00 -0.00000000000E+00 -0.45593999997E+02  0.45594000000E+02  0.51100000000E-03 0. -1.
    9900012    2    1    2    0    0  0.14289293491E+02 -0.78690286103E+01 -0.37243257578E+02  0.50528858903E+02  0.29999997122E+02 0.  0.
        -12    1    1    2    0    0 -0.14289293491E+02  0.78690286103E+01  0.37243257578E+02  0.40659141097E+02  0.00000000000E+00 0.  1.
         11    1    3    3    0    0 -0.12549420127E+01 -0.73347486418E+01 -0.15060901197E+02  0.16798933365E+02  0.51100000000E-03 0. -1.
        -11    1    3    3    0    0  0.11813406312E+01 -0.85457985587E+01 -0.51208657956E+01  0.10032422711E+02  0.51100000000E-03 0.  1.
         12    1    3    3    0    0  0.14362894873E+02  0.80115185902E+01 -0.17061490585E+02  0.23697502827E+02  0.00000000000E+00 0. -1.
</event>
<event>
 7    1  0.2985411E-011  0.5052886E+02  0.7816164E-02  0.1300439E+00
        -11   -1    0    0    0    0  0.00000000000E+00  0.00000000000E+00  0.45593999997E+02  0.45594000000E+02  0.51100000000E-03 0.  1.
         11   -1    0    0    0    0 -0.00000000000E+00 -0.00000000000E+00 -0.45593999997E+02  0.45594000000E+02  0.51100000000E-03 0. -1.
    9900012    2    1    2    0    0 -0.12529566604E+02  0.13944274352E+02 -0.36079533915E+02  0.50528860880E+02  0.30000003129E+02 0.  0.
        -12    1    1    2    0    0  0.12529566604E+02 -0.13944274352E+02  0.36079533915E+02  0.40659139120E+02  0.00000000000E+00 0.  1.
         11    1    3    3    0    0 -0.44140255665E+01  0.21172900636E+01 -0.21140305451E+02  0.21699747780E+02  0.51100000000E-03 0. -1.
        -11    1    3    3    0    0  0.37287924038E+01  0.10388953507E+02 -0.12454580046E+02  0.16641839206E+02  0.51100000000E-03 0.  1.
         12    1    3    3    0    0 -0.11844333441E+02  0.14380307811E+01 -0.24846484186E+01  0.12187273894E+02  0.00000000000E+00 0. -1.
</event>
<event>
 7    1  0.2985411E-011  0.5052887E+02  0.7816164E-02  0.1300439E+00
        -11   -1    0    0    0    0  0.00000000000E+00  0.00000000000E+00  0.45593999997E+02  0.45594000000E+02  0.51100000000E-03 0.  1.
         11   -1    0    0    0    0 -0.00000000000E+00 -0.00000000000E+00 -0.45593999997E+02  0.45594000000E+02  0.51100000000E-03 0. -1.
    9900012    2    1    2    0    0 -0.28931453885E+02  0.26889246526E+02 -0.96490742474E+01  0.50528865276E+02  0.30000016493E+02 0.  0.
        -12    1    1    2    0    0  0.28931453885E+02 -0.26889246526E+02  0.96490742474E+01  0.40659134724E+02  0.00000000000E+00 0.  1.
         11    1    3    3    0    0  0.35258955573E+01  0.11262623577E+02 -0.49722191774E+01  0.12806310676E+02  0.51100000000E-03 0. -1.
        -11    1    3    3    0    0 -0.68380121545E+00 -0.12391184306E+01  0.16871297260E+00  0.14252939751E+01  0.51100000000E-03 0.  1.
        -12    1    3    3    0    0 -0.31773548227E+02  0.16865741380E+02 -0.48455680426E+01  0.36297260625E+02  0.00000000000E+00 0.  1.
</event>
<event>
 7    1  0.2985411E-011  0.5052886E+02  0.7816164E-02  0.1300439E+00
        -11   -1    0    0    0    0  0.00000000000E+00  0.00000000000E+00  0.45593999997E+02  0.45594000000E+02  0.51100000000E-03 0.  1.
         11   -1    0    0    0    0 -0.00000000000E+00 -0.00000000000E+00 -0.45593999997E+02  0.45594000000E+02  0.51100000000E-03 0. -1.
    9900012    2    1    2    0    0 -0.15488935474E+02  0.16696793153E+02 -0.33681975498E+02  0.50528862071E+02  0.30000006751E+02 0.  0.
        -12    1    1    2    0    0  0.15488935474E+02 -0.16696793153E+02  0.33681975498E+02  0.40659137929E+02  0.00000000000E+00 0.  1.
         11    1    3    3    0    0 -0.13602735138E+02  0.24365383716E+01 -0.14343092605E+02  0.19917214368E+02  0.51100000000E-03 0. -1.
        -11    1    3    3    0    0 -0.42905183051E+01 -0.23435475793E+01 -0.10649252084E+02  0.11717821162E+02  0.51100000000E-03 0.  1.
         12    1    3    3    0    0  0.24043179691E+01  0.16603802361E+02 -0.86896308093E+01  0.18893826540E+02  0.00000000000E+00 0. -1.
</event>
<event>
 7    1  0.2985411E-011  0.5052886E+02  0.7816164E-02  0.1300439E+00
        -11   -1    0    0    0    0  0.00000000000E+00  0.00000000000E+00  0.45593999997E+02  0.45594000000E+02  0.51100000000E-03 0. -1.
         11   -1    0    0    0    0 -0.00000000000E+00 -0.00000000000E+00 -0.45593999997E+02  0.45594000000E+02  0.51100000000E-03 0.  1.
    9900012    2    1    2    0    0 -0.54408920577E-01  0.87563993550E+01  0.39705010409E+02  0.50528863984E+02  0.30000012565E+02 0.  0.
        -12    1    1    2    0    0  0.54408920577E-01 -0.87563993550E+01 -0.39705010409E+02  0.40659136016E+02  0.00000000000E+00 0.  1.
         11    1    3    3    0    0 -0.13766276435E+01 -0.23805274612E+01  0.52983901375E+00  0.28004900114E+01  0.51100000000E-03 0. -1.
        -11    1    3    3    0    0  0.63719599922E+01 -0.25535797389E+01  0.10992029252E+01  0.69520422149E+01  0.51100000000E-03 0.  1.
         12    1    3    3    0    0 -0.50497412693E+01  0.13690506555E+02  0.38075968470E+02  0.40776331757E+02  0.00000000000E+00 0. -1.
</event>
<event>
 7    1  0.2985411E-011  0.5052886E+02  0.7816164E-02  0.1300439E+00
        -11   -1    0    0    0    0  0.00000000000E+00  0.00000000000E+00  0.45593999997E+02  0.45594000000E+02  0.51100000000E-03 0. -1.
         11   -1    0    0    0    0 -0.00000000000E+00 -0.00000000000E+00 -0.45593999997E+02  0.45594000000E+02  0.51100000000E-03 0.  1.
    9900012    2    1    2    0    0  0.31417300016E+02 -0.11223917861E+02  0.23240965117E+02  0.50528861641E+02  0.30000005445E+02 0.  0.
        -12    1    1    2    0    0 -0.31417300016E+02  0.11223917861E+02 -0.23240965117E+02  0.40659138359E+02  0.00000000000E+00 0.  1.
         11    1    3    3    0    0  0.11085361136E+02 -0.39017492404E+01  0.38802041585E+01  0.12375979284E+02  0.51100000000E-03 0. -1.
        -11    1    3    3    0    0  0.11811216448E+02 -0.16113561650E+02  0.82337176548E+01  0.21608928935E+02  0.51100000000E-03 0.  1.
         12    1    3    3    0    0  0.85207224326E+01  0.87913930294E+01  0.11127043304E+02  0.16543953423E+02  0.00000000000E+00 0. -1.
</event>
<event>
 7    1  0.2985411E-011  0.5052886E+02  0.7816164E-02  0.1300439E+00
        -11   -1    0    0    0    0  0.00000000000E+00  0.00000000000E+00  0.45593999997E+02  0.45594000000E+02  0.51100000000E-03 0. -1.
         11   -1    0    0    0    0 -0.00000000000E+00 -0.00000000000E+00 -0.45593999997E+02  0.45594000000E+02  0.51100000000E-03 0.  1.
    9900012    2    1    2    0    0  0.84747797341E+01 -0.33560545989E+02  0.21331520025E+02  0.50528857299E+02  0.29999992246E+02 0.  0.
        -12    1    1    2    0    0 -0.84747797341E+01  0.33560545989E+02 -0.21331520025E+02  0.40659142701E+02  0.00000000000E+00 0.  1.
         11    1    3    3    0    0 -0.65814817210E+01 -0.67652499072E+01  0.20879726903E+01  0.96666508247E+01  0.51100000000E-03 0. -1.
        -11    1    3    3    0    0  0.12303224224E+01 -0.11761320393E+02 -0.12954447133E+01  0.11896240074E+02  0.51100000000E-03 0.  1.
         12    1    3    3    0    0  0.13825939033E+02 -0.15033975689E+02  0.20538992047E+02  0.28965966400E+02  0.00000000000E+00 0. -1.
</event>
<event>
 7    1  0.2985411E-011  0.5052886E+02  0.7816164E-02  0.1300439E+00
        -11   -1    0    0    0    0  0.00000000000E+00  0.00000000000E+00  0.45593999997E+02  0.45594000000E+02  0.51100000000E-03 0.  1.
         11   -1    0    0    0    0 -0.00000000000E+00 -0.00000000000E+00 -0.45593999997E+02  0.45594000000E+02  0.51100000000E-03 0. -1.
    9900012    2    1    2    0    0  0.31205729892E+02 -0.18406035719E+02 -0.18454979886E+02  0.50528855745E+02  0.29999987523E+02 0.  0.
        -12    1    1    2    0    0 -0.31205729892E+02  0.18406035719E+02  0.18454979886E+02  0.40659144255E+02  0.00000000000E+00 0.  1.
         11    1    3    3    0    0  0.30307340020E+01 -0.44721724908E+01 -0.47665499346E+01  0.72045592453E+01  0.51100000000E-03 0. -1.
        -11    1    3    3    0    0  0.52837576221E+01 -0.15734079021E+02 -0.11637574525E+02  0.20270976255E+02  0.51100000000E-03 0.  1.
        -12    1    3    3    0    0  0.22891238268E+02  0.18002157924E+01 -0.20508554254E+01  0.23053320245E+02  0.00000000000E+00 0.  1.
</event>
<event>
 7    1  0.2985411E-011  0.5052885E+02  0.7816164E-02  0.1300439E+00
        -11   -1    0    0    0    0  0.00000000000E+00  0.00000000000E+00  0.45593999997E+02  0.45594000000E+02  0.51100000000E-03 0. -1.
         11   -1    0    0    0    0 -0.00000000000E+00 -0.00000000000E+00 -0.45593999997E+02  0.45594000000E+02  0.51100000000E-03 0.  1.
    9900012    2    1    2    0    0  0.28646699118E+02  0.82481195024E+01  0.27649622721E+02  0.50528849956E+02  0.29999969927E+02 0.  0.
        -12    1    1    2    0    0 -0.28646699118E+02 -0.82481195024E+01 -0.27649622721E+02  0.40659150044E+02  0.00000000000E+00 0.  1.
         11    1    3    3    0    0  0.63298809672E+01 -0.87964335812E+01  0.92528908937E+01  0.14249934279E+02  0.51100000000E-03 0.  1.
        -11    1    3    3    0    0  0.14907889906E+01  0.16542162357E+01  0.81179601809E+01  0.84178477611E+01  0.51100000000E-03 0. -1.
         12    1    3    3    0    0  0.20826029160E+02  0.15390336848E+02  0.10278771647E+02  0.27861067916E+02  0.00000000000E+00 0. -1.
</event>
<event>
 7    1  0.2985411E-011  0.5052886E+02  0.7816164E-02  0.1300439E+00
        -11   -1    0    0    0    0  0.00000000000E+00  0.00000000000E+00  0.45593999997E+02  0.45594000000E+02  0.51100000000E-03 0.  1.
         11   -1    0    0    0    0 -0.00000000000E+00 -0.00000000000E+00 -0.45593999997E+02  0.45594000000E+02  0.51100000000E-03 0. -1.
    9900012    2    1    2    0    0 -0.36109478240E+02 -0.36694358402E+01  0.18325024832E+02  0.50528859413E+02  0.29999998672E+02 0.  0.
        -12    1    1    2    0    0  0.36109478240E+02  0.36694358402E+01 -0.18325024832E+02  0.40659140587E+02  0.00000000000E+00 0.  1.
         11    1    3    3    0    0 -0.22084816786E+02  0.40296890885E+01  0.66696496851E+01  0.23419260317E+02  0.51100000000E-03 0. -1.
        -11    1    3    3    0    0 -0.84038734790E+01  0.55383638865E+01  0.41401637218E+01  0.10882992231E+02  0.51100000000E-03 0.  1.
         12    1    3    3    0    0 -0.56207879755E+01 -0.13237488815E+02  0.75152114254E+01  0.16226606865E+02  0.00000000000E+00 0. -1.
</event>
<event>
 7    1  0.2985411E-011  0.5052886E+02  0.7816164E-02  0.1300439E+00
        -11   -1    0    0    0    0  0.00000000000E+00  0.00000000000E+00  0.45593999997E+02  0.45594000000E+02  0.51100000000E-03 0.  1.
         11   -1    0    0    0    0 -0.00000000000E+00 -0.00000000000E+00 -0.45593999997E+02  0.45594000000E+02  0.51100000000E-03 0. -1.
    9900012    2    1    2    0    0 -0.18357120010E+02 -0.58347570450E+01 -0.35806951408E+02  0.50528855715E+02  0.29999987431E+02 0.  0.
        -12    1    1    2    0    0  0.18357120010E+02  0.58347570450E+01  0.35806951408E+02  0.40659144285E+02  0.00000000000E+00 0.  1.
         11    1    3    3    0    0  0.11295266784E+01  0.20544049983E+01 -0.77201015439E+01  0.80682326766E+01  0.51100000000E-03 0. -1.
        -11    1    3    3    0    0  0.19964748169E+01  0.59496622101E+01 -0.60385494296E+01  0.87091028002E+01  0.51100000000E-03 0.  1.
        -12    1    3    3    0    0 -0.21483121505E+02 -0.13838824253E+02 -0.22048300435E+02  0.33751520238E+02  0.00000000000E+00 0.  1.
</event>
<event>
 7    1  0.2985411E-011  0.5052884E+02  0.7816164E-02  0.1300439E+00
        -11   -1    0    0    0    0  0.00000000000E+00  0.00000000000E+00  0.45593999997E+02  0.45594000000E+02  0.51100000000E-03 0.  1.
         11   -1    0    0    0    0 -0.00000000000E+00 -0.00000000000E+00 -0.45593999997E+02  0.45594000000E+02  0.51100000000E-03 0. -1.
    9900012    2    1    2    0    0  0.33316385146E+02  0.12559609946E+02 -0.19632673257E+02  0.50528841371E+02  0.29999943831E+02 0.  0.
        -12    1    1    2    0    0 -0.33316385146E+02 -0.12559609946E+02  0.19632673257E+02  0.40659158629E+02  0.00000000000E+00 0.  1.
         11    1    3    3    0    0  0.21222678267E+02  0.24152862308E+01 -0.96062996930E+01  0.23420432841E+02  0.51100000000E-03 0. -1.
        -11    1    3    3    0    0  0.12748638629E+02 -0.68426269651E+00 -0.67326823789E+00  0.12784728887E+02  0.51100000000E-03 0.  1.
        -12    1    3    3    0    0 -0.65493174985E+00  0.10828586412E+02 -0.93531053259E+01  0.14323679643E+02  0.00000000000E+00 0.  1.
</event>
<event>
 7    1  0.2985411E-011  0.5052887E+02  0.7816164E-02  0.1300439E+00
        -11   -1    0    0    0    0  0.00000000000E+00  0.00000000000E+00  0.45593999997E+02  0.45594000000E+02  0.51100000000E-03 0.  1.
         11   -1    0    0    0    0 -0.00000000000E+00 -0.00000000000E+00 -0.45593999997E+02  0.45594000000E+02  0.51100000000E-03 0. -1.
    9900012    2    1    2    0    0 -0.16962025745E+02 -0.22339962268E+01 -0.36884463669E+02  0.50528871668E+02  0.30000035923E+02 0.  0.
        -12    1    1    2    0    0  0.16962025745E+02  0.22339962268E+01  0.36884463669E+02  0.40659128332E+02  0.00000000000E+00 0.  1.
         11    1    3    3    0    0 -0.39186544569E+01 -0.87060797953E+01 -0.11893744233E+02  0.15251650084E+02  0.51100000000E-03 0. -1.
        -11    1    3    3    0    0  0.31269741693E+01  0.30608616359E+01  0.98948421380E+00  0.44861922250E+01  0.51100000000E-03 0.  1.
        -12    1    3    3    0    0 -0.16170345457E+02  0.34112219327E+01 -0.25980203651E+02  0.30791029359E+02  0.00000000000E+00 0.  1.
</event>
<event>
 7    1  0.2985411E-011  0.5052886E+02  0.7816164E-02  0.1300439E+00
        -11   -1    0    0    0    0  0.00000000000E+00  0.00000000000E+00  0.45593999997E+02  0.45594000000E+02  0.51100000000E-03 0.  1.
         11   -1    0    0    0    0 -0.00000000000E+00 -0.00000000000E+00 -0.45593999997E+02  0.45594000000E+02  0.51100000000E-03 0. -1.
    9900012    2    1    2    0    0  0.24572481258E+02 -0.15227388645E+02 -0.28591705020E+02  0.50528858395E+02  0.29999995577E+02 0.  0.
        -12    1    1    2    0    0 -0.24572481258E+02  0.15227388645E+02  0.28591705020E+02  0.40659141605E+02  0.00000000000E+00 0.  1.
         11    1    3    3    0    0  0.14183713414E+01 -0.18852403632E+00 -0.50068355724E+01  0.52072758026E+01  0.51100000000E-03 0. -1.
        -11    1    3    3    0    0  0.15524287014E+02  0.24683976140E+00 -0.23585805186E+02  0.28237468436E+02  0.51100000000E-03 0.  1.
        -12    1    3    3    0    0  0.76298229032E+01 -0.15285704370E+02  0.93573872422E-03  0.17084114156E+02  0.00000000000E+00 0.  1.
</event>
<event>
 7    1  0.2985411E-011  0.5052886E+02  0.7816164E-02  0.1300439E+00
        -11   -1    0    0    0    0  0.00000000000E+00  0.00000000000E+00  0.45593999997E+02  0.45594000000E+02  0.51100000000E-03 0. -1.
         11   -1    0    0    0    0 -0.00000000000E+00 -0.00000000000E+00 -0.45593999997E+02  0.45594000000E+02  0.51100000000E-03 0.  1.
    9900012    2    1    2    0    0 -0.15518302327E+02 -0.36393975471E+02  0.93715690458E+01  0.50528862477E+02  0.30000007986E+02 0.  0.
        -12    1    1    2    0    0  0.15518302327E+02  0.36393975471E+02 -0.93715690458E+01  0.40659137523E+02  0.00000000000E+00 0.  1.
         11    1    3    3    0    0 -0.85595431147E+01 -0.15083656907E+02  0.80341499453E+01  0.19113609016E+02  0.51100000000E-03 0. -1.
        -11    1    3    3    0    0 -0.96631336956E+01 -0.13311409670E+02  0.10055022444E+02  0.19278829239E+02  0.51100000000E-03 0.  1.
        -12    1    3    3    0    0  0.27043744832E+01 -0.79989088943E+01 -0.87176033433E+01  0.12136424222E+02  0.00000000000E+00 0.  1.
</event>
<event>
 7    1  0.2985411E-011  0.5052885E+02  0.7816164E-02  0.1300439E+00
        -11   -1    0    0    0    0  0.00000000000E+00  0.00000000000E+00  0.45593999997E+02  0.45594000000E+02  0.51100000000E-03 0.  1.
         11   -1    0    0    0    0 -0.00000000000E+00 -0.00000000000E+00 -0.45593999997E+02  0.45594000000E+02  0.51100000000E-03 0. -1.
    9900012    2    1    2    0    0  0.17494831514E+02 -0.30043441318E+02 -0.21082899606E+02  0.50528854021E+02  0.29999982282E+02 0.  0.
        -12    1    1    2    0    0 -0.17494831514E+02  0.30043441318E+02  0.21082899606E+02  0.40659145979E+02  0.00000000000E+00 0.  1.
         11    1    3    3    0    0  0.59510110861E-01 -0.83461079551E+01 -0.12949877817E+02  0.15406504963E+02  0.51100000000E-03 0.  1.
        -11    1    3    3    0    0  0.16148820429E+00 -0.25725842508E+00 -0.75777369157E+01  0.75838220814E+01  0.51100000000E-03 0. -1.
         12    1    3    3    0    0  0.17273833199E+02 -0.21440074938E+02 -0.55528487351E+00  0.27538526976E+02  0.00000000000E+00 0. -1.
</event>
<event>
 7    1  0.2985411E-011  0.5052887E+02  0.7816164E-02  0.1300439E+00
        -11   -1    0    0    0    0  0.00000000000E+00  0.00000000000E+00  0.45593999997E+02  0.45594000000E+02  0.51100000000E-03 0.  1.
         11   -1    0    0    0    0 -0.00000000000E+00 -0.00000000000E+00 -0.45593999997E+02  0.45594000000E+02  0.51100000000E-03 0. -1.
    9900012    2    1    2    0    0  0.18799619187E+02  0.32112372640E+02 -0.16387036143E+02  0.50528866811E+02  0.30000021158E+02 0.  0.
        -12    1    1    2    0    0 -0.18799619187E+02 -0.32112372640E+02  0.16387036143E+02  0.40659133189E+02  0.00000000000E+00 0.  1.
         11    1    3    3    0    0  0.12659275490E+02  0.14118699901E+02  0.27033921899E+00  0.18964915670E+02  0.51100000000E-03 0. -1.
        -11    1    3    3    0    0  0.72374408637E+01  0.11692683887E+01  0.70164229835E+00  0.73647838391E+01  0.51100000000E-03 0.  1.
         12    1    3    3    0    0 -0.10970971672E+01  0.16824404351E+02 -0.17359017660E+02  0.24199167301E+02  0.00000000000E+00 0. -1.
</event>
<event>
 7    1  0.2985411E-011  0.5052886E+02  0.7816164E-02  0.1300439E+00
        -11   -1    0    0    0    0  0.00000000000E+00  0.00000000000E+00  0.45593999997E+02  0.45594000000E+02  0.51100000000E-03 0.  1.
         11   -1    0    0    0    0 -0.00000000000E+00 -0.00000000000E+00 -0.45593999997E+02  0.45594000000E+02  0.51100000000E-03 0. -1.
    9900012    2    1    2    0    0  0.33713152186E+02  0.17829268023E+02 -0.14096311537E+02  0.50528862927E+02  0.30000009354E+02 0.  0.
        -12    1    1    2    0    0 -0.33713152186E+02 -0.17829268023E+02  0.14096311537E+02  0.40659137073E+02  0.00000000000E+00 0.  1.
         11    1    3    3    0    0  0.55206117321E+01 -0.82391743970E+00 -0.30882204898E+01  0.63791143507E+01  0.51100000000E-03 0. -1.
        -11    1    3    3    0    0  0.28452431477E+02  0.79846669922E+01 -0.10757891534E+01  0.29571152945E+02  0.51100000000E-03 0.  1.
         12    1    3    3    0    0 -0.25989102278E+00  0.10668518470E+02 -0.99323018942E+01  0.14578595632E+02  0.00000000000E+00 0. -1.
</event>
<event>
 7    1  0.2985411E-011  0.5052885E+02  0.7816164E-02  0.1300439E+00
        -11   -1    0    0    0    0  0.00000000000E+00  0.00000000000E+00  0.45593999997E+02  0.45594000000E+02  0.51100000000E-03 0.  1.
         11   -1    0    0    0    0 -0.00000000000E+00 -0.00000000000E+00 -0.45593999997E+02  0.45594000000E+02  0.51100000000E-03 0. -1.
    9900012    2    1    2    0    0  0.43678611090E+00  0.22345405626E+02 -0.33965545510E+02  0.50528853225E+02  0.29999979863E+02 0.  0.
        -12    1    1    2    0    0 -0.43678611090E+00 -0.22345405626E+02  0.33965545510E+02  0.40659146775E+02  0.00000000000E+00 0.  1.
         11    1    3    3    0    0 -0.29760357913E+01  0.25018792082E+01 -0.22387615067E+02  0.22722708845E+02  0.51100000000E-03 0. -1.
        -11    1    3    3    0    0 -0.43919707779E+01  0.35422580070E+01 -0.73124158055E+01  0.92362559664E+01  0.51100000000E-03 0.  1.
        -12    1    3    3    0    0  0.78047926802E+01  0.16301268411E+02 -0.42655146373E+01  0.18569888414E+02  0.00000000000E+00 0.  1.
</event>
<event>
 7    1  0.2985411E-011  0.5052886E+02  0.7816164E-02  0.1300439E+00
        -11   -1    0    0    0    0  0.00000000000E+00  0.00000000000E+00  0.45593999997E+02  0.45594000000E+02  0.51100000000E-03 0. -1.
         11   -1    0    0    0    0 -0.00000000000E+00 -0.00000000000E+00 -0.45593999997E+02  0.45594000000E+02  0.51100000000E-03 0.  1.
    9900012    2    1    2    0    0 -0.12891090759E+02 -0.38332699632E+02  0.41940013509E+01  0.50528859215E+02  0.29999998070E+02 0.  0.
        -12    1    1    2    0    0  0.12891090759E+02  0.38332699632E+02 -0.41940013509E+01  0.40659140785E+02  0.00000000000E+00 0.  1.
         11    1    3    3    0    0 -0.65436727816E+01 -0.55676687756E+01 -0.33531484995E+01  0.92229167939E+01  0.51100000000E-03 0.  1.
        -11    1    3    3    0    0 -0.13784844832E+02 -0.24664291608E+02  0.52868898962E+00  0.28260020168E+02  0.51100000000E-03 0. -1.
         12    1    3    3    0    0  0.74374268543E+01 -0.81007392480E+01  0.70184608607E+01  0.13045922253E+02  0.00000000000E+00 0. -1.
</event>
<event>
 7    1  0.2985411E-011  0.5052887E+02  0.7816164E-02  0.1300439E+00
        -11   -1    0    0    0    0  0.00000000000E+00  0.00000000000E+00  0.45593999997E+02  0.45594000000E+02  0.51100000000E-03 0. -1.
         11   -1    0    0    0    0 -0.00000000000E+00 -0.00000000000E+00 -0.45593999997E+02  0.45594000000E+02  0.51100000000E-03 0.  1.
    9900012    2    1    2    0    0  0.23964179653E+02 -0.15558143342E+02  0.28927970475E+02  0.50528865645E+02  0.30000017615E+02 0.  0.
        -12    1    1    2    0    0 -0.23964179653E+02  0.15558143342E+02 -0.28927970475E+02  0.40659134355E+02  0.00000000000E+00 0.  1.
         11    1    3    3    0    0 -0.25273511136E+01 -0.11401814666E+02  0.49521575784E+01  0.12685138796E+02  0.51100000000E-03 0. -1.
        -11    1    3    3    0    0  0.52163451909E+01 -0.31738287421E+01  0.46966832576E+00  0.61240537744E+01  0.51100000000E-03 0.  1.
         12    1    3    3    0    0  0.21275185576E+02 -0.98249993417E+00  0.23506144571E+02  0.31719673075E+02  0.00000000000E+00 0. -1.
</event>
<event>
 7    1  0.2985411E-011  0.5052886E+02  0.7816164E-02  0.1300439E+00
        -11   -1    0    0    0    0  0.00000000000E+00  0.00000000000E+00  0.45593999997E+02  0.45594000000E+02  0.51100000000E-03 0.  1.
         11   -1    0    0    0    0 -0.00000000000E+00 -0.00000000000E+00 -0.45593999997E+02  0.45594000000E+02  0.51100000000E-03 0. -1.
    9900012    2    1    2    0    0 -0.26324364079E+02  0.10183903568E+02 -0.29265704340E+02  0.50528862201E+02  0.30000007146E+02 0.  0.
        -12    1    1    2    0    0  0.26324364079E+02 -0.10183903568E+02  0.29265704340E+02  0.40659137799E+02  0.00000000000E+00 0.  1.
         11    1    3    3    0    0 -0.50438693038E+01  0.17165648401E+01 -0.15288902891E+02  0.16190669050E+02  0.51100000000E-03 0.  1.
        -11    1    3    3    0    0 -0.19973544579E+02 -0.11093498035E+01 -0.14424283150E+02  0.24662381975E+02  0.51100000000E-03 0. -1.
         12    1    3    3    0    0 -0.13069501963E+01  0.95766885317E+01  0.44748170110E+00  0.96758111764E+01  0.00000000000E+00 0. -1.
</event>
<event>
 7    1  0.2985411E-011  0.5052884E+02  0.7816164E-02  0.1300439E+00
        -11   -1    0    0    0    0  0.00000000000E+00  0.00000000000E+00  0.45593999997E+02  0.45594000000E+02  0.51100000000E-03 0.  1.
         11   -1    0    0    0    0 -0.00000000000E+00 -0.00000000000E+00 -0.45593999997E+02  0.45594000000E+02  0.51100000000E-03 0. -1.
    9900012    2    1    2    0    0  0.49711777731E+01 -0.39130023397E+02 -0.98638654745E+01  0.50528841357E+02  0.29999943788E+02 0.  0.
        -12    1    1    2    0    0 -0.49711777731E+01  0.39130023397E+02  0.98638654745E+01  0.40659158643E+02  0.00000000000E+00 0.  1.
         11    1    3    3    0    0  0.90268243767E+01 -0.33069601771E+02 -0.61469828854E+01  0.34826247551E+02  0.51100000000E-03 0. -1.
        -11    1    3    3    0    0  0.37806275734E+01  0.17052587110E+01 -0.32286883799E+00  0.41599635417E+01  0.51100000000E-03 0.  1.
         12    1    3    3    0    0 -0.78362741770E+01 -0.77656803363E+01 -0.33940137511E+01  0.11542630264E+02  0.00000000000E+00 0. -1.
</event>
<event>
 7    1  0.2985411E-011  0.5052888E+02  0.7816164E-02  0.1300439E+00
        -11   -1    0    0    0    0  0.00000000000E+00  0.00000000000E+00  0.45593999997E+02  0.45594000000E+02  0.51100000000E-03 0. -1.
         11   -1    0    0    0    0 -0.00000000000E+00 -0.00000000000E+00 -0.45593999997E+02  0.45594000000E+02  0.51100000000E-03 0.  1.
    9900012    2    1    2    0    0 -0.13631539248E+02  0.35342702905E+02 -0.14772899486E+02  0.50528879619E+02  0.30000060091E+02 0.  0.
        -12    1    1    2    0    0  0.13631539248E+02 -0.35342702905E+02  0.14772899486E+02  0.40659120381E+02  0.00000000000E+00 0.  1.
         11    1    3    3    0    0 -0.96549752021E+01  0.16834727521E+02 -0.15103257055E+02  0.24591359678E+02  0.51100000000E-03 0. -1.
        -11    1    3    3    0    0 -0.57904106891E+01  0.53698116534E+01  0.74741025379E+01  0.10873175348E+02  0.51100000000E-03 0.  1.
         12    1    3    3    0    0  0.18138466432E+01  0.13138163730E+02 -0.71437449694E+01  0.15064344594E+02  0.00000000000E+00 0. -1.
</event>
<event>
 7    1  0.2985411E-011  0.5052884E+02  0.7816164E-02  0.1300439E+00
        -11   -1    0    0    0    0  0.00000000000E+00  0.00000000000E+00  0.45593999997E+02  0.45594000000E+02  0.51100000000E-03 0.  1.
         11   -1    0    0    0    0 -0.00000000000E+00 -0.00000000000E+00 -0.45593999997E+02  0.45594000000E+02  0.51100000000E-03 0. -1.
    9900012    2    1    2    0    0 -0.30836791078E+02  0.23527869883E+02 -0.12194212766E+02  0.50528841496E+02  0.29999944212E+02 0.  0.
        -12    1    1    2    0    0  0.30836791078E+02 -0.23527869883E+02  0.12194212766E+02  0.40659158504E+02  0.00000000000E+00 0.  1.
         11    1    3    3    0    0 -0.13644733808E+02  0.45643538421E+01 -0.14808101464E+02  0.20646838884E+02  0.51100000000E-03 0. -1.
        -11    1    3    3    0    0 -0.45588032618E+01  0.34832447091E+01 -0.58396253611E+01  0.81863853746E+01  0.51100000000E-03 0.  1.
        -12    1    3    3    0    0 -0.12633254008E+02  0.15480271332E+02  0.84535140591E+01  0.21695617237E+02  0.00000000000E+00 0.  1.
</event>
<event>
 7    1  0.2985411E-011  0.5052886E+02  0.7816164E-02  0.1300439E+00
        -11   -1    0    0    0    0  0.00000000000E+00  0.00000000000E+00  0.45593999997E+02  0.45594000000E+02  0.51100000000E-03 0. -1.
         11   -1    0    0    0    0 -0.00000000000E+00 -0.00000000000E+00 -0.45593999997E+02  0.45594000000E+02  0.51100000000E-03 0.  1.
    9900012    2    1    2    0    0  0.32972765798E+02  0.53458994892E+01  0.23181539988E+02  0.50528859306E+02  0.29999998348E+02 0.  0.
        -12    1    1    2    0    0 -0.32972765798E+02 -0.53458994892E+01 -0.23181539988E+02  0.40659140694E+02  0.00000000000E+00 0.  1.
         11    1    3    3    0    0  0.28334259760E+02  0.82453945436E+01  0.41411536484E+01  0.29798757711E+02  0.51100000000E-03 0. -1.
        -11    1    3    3    0    0  0.11252246674E+01 -0.14771222739E+01  0.67201604181E+00  0.19747472207E+01  0.51100000000E-03 0.  1.
         12    1    3    3    0    0  0.35132813707E+01 -0.14223727805E+01  0.18368370298E+02  0.18755354375E+02  0.00000000000E+00 0. -1.
</event>
<event>
 7    1  0.2985411E-011  0.5052886E+02  0.7816164E-02  0.1300439E+00
        -11   -1    0    0    0    0  0.00000000000E+00  0.00000000000E+00  0.45593999997E+02  0.45594000000E+02  0.51100000000E-03 0.  1.
         11   -1    0    0    0    0 -0.00000000000E+00 -0.00000000000E+00 -0.45593999997E+02  0.45594000000E+02  0.51100000000E-03 0. -1.
    9900012    2    1    2    0    0 -0.11854448195E+02 -0.38854816837E+02 -0.17148257904E+01  0.50528863746E+02  0.30000011843E+02 0.  0.
        -12    1    1    2    0    0  0.11854448195E+02  0.38854816837E+02  0.17148257904E+01  0.40659136254E+02  0.00000000000E+00 0.  1.
         11    1    3    3    0    0 -0.27276387838E+00  0.30421929649E+00  0.93314763519E-01  0.41911504378E+00  0.51100000000E-03 0. -1.
        -11    1    3    3    0    0 -0.10136753021E+02 -0.38509033236E+02  0.76251510533E+01  0.40544325515E+02  0.51100000000E-03 0.  1.
         12    1    3    3    0    0 -0.14449312947E+01 -0.65000289735E+00 -0.94332916072E+01  0.95654231876E+01  0.00000000000E+00 0. -1.
</event>
<event>
 7    1  0.2985411E-011  0.5052886E+02  0.7816164E-02  0.1300439E+00
        -11   -1    0    0    0    0  0.00000000000E+00  0.00000000000E+00  0.45593999997E+02  0.45594000000E+02  0.51100000000E-03 0.  1.
         11   -1    0    0    0    0 -0.00000000000E+00 -0.00000000000E+00 -0.45593999997E+02  0.45594000000E+02  0.51100000000E-03 0. -1.
    9900012    2    1    2    0    0  0.13180714192E+02  0.22054615339E+02 -0.31512354904E+02  0.50528858396E+02  0.29999995582E+02 0.  0.
        -12    1    1    2    0    0 -0.13180714192E+02 -0.22054615339E+02  0.31512354904E+02  0.40659141604E+02  0.00000000000E+00 0.  1.
         11    1    3    3    0    0  0.11491458522E+02  0.85856965607E+01 -0.67064710599E+01  0.15834915811E+02  0.51100000000E-03 0. -1.
        -11    1    3    3    0    0  0.35153618832E+01 -0.21989836070E+01  0.11658730849E+01  0.43072680883E+01  0.51100000000E-03 0.  1.
         12    1    3    3    0    0 -0.18261062131E+01  0.15667902385E+02 -0.25971756929E+02  0.30386674498E+02  0.00000000000E+00 0. -1.
</event>
<event>
 7    1  0.2985411E-011  0.5052886E+02  0.7816164E-02  0.1300439E+00
        -11   -1    0    0    0    0  0.00000000000E+00  0.00000000000E+00  0.45593999997E+02  0.45594000000E+02  0.51100000000E-03 0.  1.
         11   -1    0    0    0    0 -0.00000000000E+00 -0.00000000000E+00 -0.45593999997E+02  0.45594000000E+02  0.51100000000E-03 0. -1.
    9900012    2    1    2    0    0  0.61111121538E+01  0.31803718663E+02 -0.24583392202E+02  0.50528863453E+02  0.30000010952E+02 0.  0.
        -12    1    1    2    0    0 -0.61111121538E+01 -0.31803718663E+02  0.24583392202E+02  0.40659136547E+02  0.00000000000E+00 0.  1.
         11    1    3    3    0    0  0.25953674536E+01  0.66222614712E+01  0.27734681945E+01  0.76342914079E+01  0.51100000000E-03 0. -1.
        -11    1    3    3    0    0 -0.23511174020E+01  0.32097113408E-01  0.24910395774E+01  0.34255016713E+01  0.51100000000E-03 0.  1.
        -12    1    3    3    0    0  0.58668621022E+01  0.25149360079E+02 -0.29847899974E+02  0.39469070374E+02  0.00000000000E+00 0.  1.
</event>
<event>
 7    1  0.2985411E-011  0.5052886E+02  0.7816164E-02  0.1300439E+00
        -11   -1    0    0    0    0  0.00000000000E+00  0.00000000000E+00  0.45593999997E+02  0.45594000000E+02  0.51100000000E-03 0.  1.
         11   -1    0    0    0    0 -0.00000000000E+00 -0.00000000000E+00 -0.45593999997E+02  0.45594000000E+02  0.51100000000E-03 0. -1.
    9900012    2    1    2    0    0  0.39408638375E+02 -0.98694708747E+01  0.16487977368E+01  0.50528858741E+02  0.29999996631E+02 0.  0.
        -12    1    1    2    0    0 -0.39408638375E+02  0.98694708747E+01 -0.16487977368E+01  0.40659141259E+02  0.00000000000E+00 0.  1.
         11    1    3    3    0    0  0.91561209709E+01  0.20666698967E+00  0.37022765586E+01  0.98784672119E+01  0.51100000000E-03 0. -1.
        -11    1    3    3    0    0  0.32505214449E+02 -0.69387711772E+01  0.39920109422E+01  0.33476434449E+02  0.51100000000E-03 0.  1.
        -12    1    3    3    0    0 -0.22526970448E+01 -0.31373666872E+01 -0.60454897640E+01  0.71739570805E+01  0.00000000000E+00 0.  1.
</event>
<event>
 7    1  0.2985411E-011  0.5052885E+02  0.7816164E-02  0.1300439E+00
        -11   -1    0    0    0    0  0.00000000000E+00  0.00000000000E+00  0.45593999997E+02  0.45594000000E+02  0.51100000000E-03 0.  1.
         11   -1    0    0    0    0 -0.00000000000E+00 -0.00000000000E+00 -0.45593999997E+02  0.45594000000E+02  0.51100000000E-03 0. -1.
    9900012    2    1    2    0    0  0.27193539282E+02 -0.15847317434E+02 -0.25739857388E+02  0.50528852113E+02  0.29999976483E+02 0.  0.
        -12    1    1    2    0    0 -0.27193539282E+02  0.15847317434E+02  0.25739857388E+02  0.40659147887E+02  0.00000000000E+00 0.  1.
         11    1    3    3    0    0  0.80377499851E+01 -0.35612340332E+01 -0.59892970454E+01  0.10637645041E+02  0.51100000000E-03 0. -1.
        -11    1    3    3    0    0  0.15596758832E+02 -0.19427272248E+02 -0.89697669707E+01  0.26478944708E+02  0.51100000000E-03 0.  1.
        -12    1    3    3    0    0  0.35590304647E+01  0.71411888469E+01 -0.10780793372E+02  0.13412262364E+02  0.00000000000E+00 0.  1.
</event>
<event>
 7    1  0.2985411E-011  0.5052886E+02  0.7816164E-02  0.1300439E+00
        -11   -1    0    0    0    0  0.00000000000E+00  0.00000000000E+00  0.45593999997E+02  0.45594000000E+02  0.51100000000E-03 0.  1.
         11   -1    0    0    0    0 -0.00000000000E+00 -0.00000000000E+00 -0.45593999997E+02  0.45594000000E+02  0.51100000000E-03 0. -1.
    9900012    2    1    2    0    0  0.35728064165E+02 -0.17976957228E+02 -0.73143654953E+01  0.50528862002E+02  0.30000006540E+02 0.  0.
        -12    1    1    2    0    0 -0.35728064165E+02  0.17976957228E+02  0.73143654953E+01  0.40659137998E+02  0.00000000000E+00 0.  1.
         11    1    3    3    0    0  0.76481511954E+00 -0.53866138120E+01 -0.20088362284E+01  0.57996529017E+01  0.51100000000E-03 0. -1.
        -11    1    3    3    0    0 -0.17491517798E+01 -0.52897346886E+01  0.30857822933E+01  0.63688992492E+01  0.51100000000E-03 0.  1.
         12    1    3    3    0    0  0.36712400825E+02 -0.73006087277E+01 -0.83913115602E+01  0.38360309851E+02  0.00000000000E+00 0. -1.
</event>
<event>
 7    1  0.2985411E-011  0.5052886E+02  0.7816164E-02  0.1300439E+00
        -11   -1    0    0    0    0  0.00000000000E+00  0.00000000000E+00  0.45593999997E+02  0.45594000000E+02  0.51100000000E-03 0.  1.
         11   -1    0    0    0    0 -0.00000000000E+00 -0.00000000000E+00 -0.45593999997E+02  0.45594000000E+02  0.51100000000E-03 0. -1.
    9900012    2    1    2    0    0  0.57971234880E+01 -0.36217711112E+02 -0.17545278065E+02  0.50528855625E+02  0.29999987159E+02 0.  0.
        -12    1    1    2    0    0 -0.57971234880E+01  0.36217711112E+02  0.17545278065E+02  0.40659144375E+02  0.00000000000E+00 0.  1.
         11    1    3    3    0    0 -0.70832961321E+01 -0.14215431177E+02 -0.25203630377E+01  0.16081162823E+02  0.51100000000E-03 0. -1.
        -11    1    3    3    0    0 -0.42371691000E+01 -0.24701777751E+01 -0.13059681826E+01  0.50755229659E+01  0.51100000000E-03 0.  1.
        -12    1    3    3    0    0  0.17117588720E+02 -0.19532102160E+02 -0.13718946845E+02  0.29372169836E+02  0.00000000000E+00 0.  1.
</event>
<event>
 7    1  0.2985411E-011  0.5052888E+02  0.7816164E-02  0.1300439E+00
        -11   -1    0    0    0    0  0.00000000000E+00  0.00000000000E+00  0.45593999997E+02  0.45594000000E+02  0.51100000000E-03 0.  1.
         11   -1    0    0    0    0 -0.00000000000E+00 -0.00000000000E+00 -0.45593999997E+02  0.45594000000E+02  0.51100000000E-03 0. -1.
    9900012    2    1    2    0    0 -0.29525478735E+02 -0.25901320153E+02 -0.10513424615E+02  0.50528875841E+02  0.30000048608E+02 0.  0.
        -12    1    1    2    0    0  0.29525478735E+02  0.25901320153E+02  0.10513424615E+02  0.40659124159E+02  0.00000000000E+00 0.  1.
         11    1    3    3    0    0 -0.25953274145E+02 -0.56005253671E+01 -0.91680933118E+01  0.28089006007E+02  0.51100000000E-03 0. -1.
        -11    1    3    3    0    0 -0.47155288930E+01 -0.46872871628E+01 -0.13503084787E+01  0.67845565025E+01  0.51100000000E-03 0.  1.
        -12    1    3    3    0    0  0.11433243024E+01 -0.15613507623E+02  0.49771757737E-02  0.15655313332E+02  0.00000000000E+00 0.  1.
</event>
<event>
 7    1  0.2985411E-011  0.5052886E+02  0.7816164E-02  0.1300439E+00
        -11   -1    0    0    0    0  0.00000000000E+00  0.00000000000E+00  0.45593999997E+02  0.45594000000E+02  0.51100000000E-03 0. -1.
         11   -1    0    0    0    0 -0.00000000000E+00 -0.00000000000E+00 -0.45593999997E+02  0.45594000000E+02  0.51100000000E-03 0.  1.
    9900012    2    1    2    0    0 -0.40609998138E+02 -0.19679369543E+01  0.34776801940E+00  0.50528859980E+02  0.30000000394E+02 0.  0.
        -12    1    1    2    0    0  0.40609998138E+02  0.19679369543E+01 -0.34776801940E+00  0.40659140020E+02  0.00000000000E+00 0.  1.
         11    1    3    3    0    0 -0.29794688962E+01 -0.18127987125E+01  0.15759633894E+01  0.38271575538E+01  0.51100000000E-03 0. -1.
        -11    1    3    3    0    0 -0.18167650349E+02 -0.13695674859E+02  0.16839713716E+01  0.22813828895E+02  0.51100000000E-03 0.  1.
        -12    1    3    3    0    0 -0.19462878893E+02  0.13540536617E+02 -0.29121667416E+01  0.23887873531E+02  0.00000000000E+00 0.  1.
</event>
<event>
 7    1  0.2985411E-011  0.5052886E+02  0.7816164E-02  0.1300439E+00
        -11   -1    0    0    0    0  0.00000000000E+00  0.00000000000E+00  0.45593999997E+02  0.45594000000E+02  0.51100000000E-03 0.  1.
         11   -1    0    0    0    0 -0.00000000000E+00 -0.00000000000E+00 -0.45593999997E+02  0.45594000000E+02  0.51100000000E-03 0. -1.
    9900012    2    1    2    0    0  0.21410090294E+02  0.31041523733E+02 -0.15205188825E+02  0.50528856757E+02  0.29999990597E+02 0.  0.
        -12    1    1    2    0    0 -0.21410090294E+02 -0.31041523733E+02  0.15205188825E+02  0.40659143243E+02  0.00000000000E+00 0.  1.
         11    1    3    3    0    0  0.61444162538E+01  0.17358990558E+01 -0.51958684757E+01  0.82319041607E+01  0.51100000000E-03 0. -1.
        -11    1    3    3    0    0  0.21711071051E+02  0.22957582274E+02 -0.10333418242E+02  0.33244559297E+02  0.51100000000E-03 0.  1.
        -12    1    3    3    0    0 -0.64453970111E+01  0.63480424039E+01  0.32409789246E+00  0.90523932988E+01  0.00000000000E+00 0.  1.
</event>
<event>
 7    1  0.2985411E-011  0.5052886E+02  0.7816164E-02  0.1300439E+00
        -11   -1    0    0    0    0  0.00000000000E+00  0.00000000000E+00  0.45593999997E+02  0.45594000000E+02  0.51100000000E-03 0. -1.
         11   -1    0    0    0    0 -0.00000000000E+00 -0.00000000000E+00 -0.45593999997E+02  0.45594000000E+02  0.51100000000E-03 0.  1.
    9900012    2    1    2    0    0  0.63016635361E+01  0.83069599193E+01  0.39299476002E+02  0.50528863752E+02  0.30000011859E+02 0.  0.
        -12    1    1    2    0    0 -0.63016635361E+01 -0.83069599193E+01 -0.39299476002E+02  0.40659136248E+02  0.00000000000E+00 0.  1.
         11    1    3    3    0    0  0.61283233352E+01 -0.71511972100E+01  0.17670994163E+02  0.20023985702E+02  0.51100000000E-03 0. -1.
        -11    1    3    3    0    0  0.25179856442E+01 -0.15702744513E+01  0.81128252894E+01  0.86385153813E+01  0.51100000000E-03 0.  1.
        -12    1    3    3    0    0 -0.23446454433E+01  0.17028431581E+02  0.13515656550E+02  0.21866362668E+02  0.00000000000E+00 0.  1.
</event>
<event>
 7    1  0.2985411E-011  0.5052886E+02  0.7816164E-02  0.1300439E+00
        -11   -1    0    0    0    0  0.00000000000E+00  0.00000000000E+00  0.45593999997E+02  0.45594000000E+02  0.51100000000E-03 0. -1.
         11   -1    0    0    0    0 -0.00000000000E+00 -0.00000000000E+00 -0.45593999997E+02  0.45594000000E+02  0.51100000000E-03 0.  1.
    9900012    2    1    2    0    0  0.34975216663E+02  0.20268538806E+02  0.43687453065E+01  0.50528863493E+02  0.30000011075E+02 0.  0.
        -12    1    1    2    0    0 -0.34975216663E+02 -0.20268538806E+02 -0.43687453065E+01  0.40659136507E+02  0.00000000000E+00 0.  1.
         11    1    3    3    0    0  0.16593001430E+02  0.20324223215E+02 -0.69561599033E+01  0.27143874200E+02  0.51100000000E-03 0. -1.
        -11    1    3    3    0    0  0.31477857844E+01  0.19590542049E+01 -0.82107246494E+00  0.37974476924E+01  0.51100000000E-03 0.  1.
        -12    1    3    3    0    0  0.15234429448E+02 -0.20147386139E+01  0.12145977675E+02  0.19587541601E+02  0.00000000000E+00 0.  1.
</event>
<event>
 7    1  0.2985411E-011  0.5052885E+02  0.7816164E-02  0.1300439E+00
        -11   -1    0    0    0    0  0.00000000000E+00  0.00000000000E+00  0.45593999997E+02  0.45594000000E+02  0.51100000000E-03 0. -1.
         11   -1    0    0    0    0 -0.00000000000E+00 -0.00000000000E+00 -0.45593999997E+02  0.45594000000E+02  0.51100000000E-03 0.  1.
    9900012    2    1    2    0    0 -0.33415848653E+02 -0.23028874157E+02 -0.24936841313E+01  0.50528850394E+02  0.29999971258E+02 0.  0.
        -12    1    1    2    0    0  0.33415848653E+02  0.23028874157E+02  0.24936841313E+01  0.40659149606E+02  0.00000000000E+00 0.  1.
         11    1    3    3    0    0 -0.20087504023E+02 -0.14553131028E+02  0.10162358991E+01  0.24826078552E+02  0.51100000000E-03 0. -1.
        -11    1    3    3    0    0 -0.17146982882E+02 -0.81121707229E+01 -0.72858853677E+01  0.20320198367E+02  0.51100000000E-03 0.  1.
        -12    1    3    3    0    0  0.38186382523E+01 -0.36357240620E+00  0.37759653372E+01  0.53825734760E+01  0.00000000000E+00 0.  1.
</event>
<event>
 7    1  0.2985411E-011  0.5052886E+02  0.7816164E-02  0.1300439E+00
        -11   -1    0    0    0    0  0.00000000000E+00  0.00000000000E+00  0.45593999997E+02  0.45594000000E+02  0.51100000000E-03 0. -1.
         11   -1    0    0    0    0 -0.00000000000E+00 -0.00000000000E+00 -0.45593999997E+02  0.45594000000E+02  0.51100000000E-03 0.  1.
    9900012    2    1    2    0    0 -0.12511425529E+02  0.31052651485E+02  0.23072992187E+02  0.50528857099E+02  0.29999991638E+02 0.  0.
        -12    1    1    2    0    0  0.12511425529E+02 -0.31052651485E+02 -0.23072992187E+02  0.40659142901E+02  0.00000000000E+00 0.  1.
         11    1    3    3    0    0  0.13319920080E+01  0.41762135371E+01  0.11708366620E+01  0.45371600112E+01  0.51100000000E-03 0.  1.
        -11    1    3    3    0    0  0.57577817053E+01  0.33280065035E+01 -0.22044840203E+01  0.70062420390E+01  0.51100000000E-03 0. -1.
         12    1    3    3    0    0 -0.19601199243E+02  0.23548431444E+02  0.24106639545E+02  0.38985455049E+02  0.00000000000E+00 0. -1.
</event>
<event>
 7    1  0.2985411E-011  0.5052885E+02  0.7816164E-02  0.1300439E+00
        -11   -1    0    0    0    0  0.00000000000E+00  0.00000000000E+00  0.45593999997E+02  0.45594000000E+02  0.51100000000E-03 0.  1.
         11   -1    0    0    0    0 -0.00000000000E+00 -0.00000000000E+00 -0.45593999997E+02  0.45594000000E+02  0.51100000000E-03 0. -1.
    9900012    2    1    2    0    0  0.20313721668E+02  0.11448035997E+02 -0.33308580384E+02  0.50528851664E+02  0.29999975118E+02 0.  0.
        -12    1    1    2    0    0 -0.20313721668E+02 -0.11448035997E+02  0.33308580384E+02  0.40659148336E+02  0.00000000000E+00 0.  1.
         11    1    3    3    0    0  0.87361294657E+01  0.20230247242E+01 -0.67044289222E+01  0.11196515284E+02  0.51100000000E-03 0. -1.
        -11    1    3    3    0    0  0.18594696757E+02  0.78868952815E+01 -0.13213155665E+02  0.24136141936E+02  0.51100000000E-03 0.  1.
         12    1    3    3    0    0 -0.70171045547E+01  0.15381159912E+01 -0.13390995797E+02  0.15196194444E+02  0.00000000000E+00 0. -1.
</event>
<event>
 7    1  0.2985411E-011  0.5052886E+02  0.7816164E-02  0.1300439E+00
        -11   -1    0    0    0    0  0.00000000000E+00  0.00000000000E+00  0.45593999997E+02  0.45594000000E+02  0.51100000000E-03 0. -1.
         11   -1    0    0    0    0 -0.00000000000E+00 -0.00000000000E+00 -0.45593999997E+02  0.45594000000E+02  0.51100000000E-03 0.  1.
    9900012    2    1    2    0    0 -0.21137430676E+00  0.65711760078E+01  0.40124067051E+02  0.50528858470E+02  0.29999995806E+02 0.  0.
        -12    1    1    2    0    0  0.21137430676E+00 -0.65711760078E+01 -0.40124067051E+02  0.40659141530E+02  0.00000000000E+00 0.  1.
         11    1    3    3    0    0  0.43106488718E+01  0.12050513060E+02  0.14305438520E+02  0.19194846450E+02  0.51100000000E-03 0. -1.
        -11    1    3    3    0    0  0.57224093047E+01  0.40962232535E+00  0.10747165880E+02  0.12182583199E+02  0.51100000000E-03 0.  1.
        -12    1    3    3    0    0 -0.10244432483E+02 -0.58889593779E+01  0.15071462651E+02  0.19151428821E+02  0.00000000000E+00 0.  1.
</event>
<event>
 7    1  0.2985411E-011  0.5052886E+02  0.7816164E-02  0.1300439E+00
        -11   -1    0    0    0    0  0.00000000000E+00  0.00000000000E+00  0.45593999997E+02  0.45594000000E+02  0.51100000000E-03 0.  1.
         11   -1    0    0    0    0 -0.00000000000E+00 -0.00000000000E+00 -0.45593999997E+02  0.45594000000E+02  0.51100000000E-03 0. -1.
    9900012    2    1    2    0    0 -0.14679999714E+02 -0.83949088178E+01 -0.36975520518E+02  0.50528855847E+02  0.29999987831E+02 0.  0.
        -12    1    1    2    0    0  0.14679999714E+02  0.83949088178E+01  0.36975520518E+02  0.40659144153E+02  0.00000000000E+00 0.  1.
         11    1    3    3    0    0 -0.91992682111E+01  0.24299133009E+01 -0.11181987271E+02  0.14682229186E+02  0.51100000000E-03 0. -1.
        -11    1    3    3    0    0 -0.12292060928E+02 -0.55761846662E+01 -0.23241948478E+02  0.26877067671E+02  0.51100000000E-03 0.  1.
        -12    1    3    3    0    0  0.68113294246E+01 -0.52486374526E+01 -0.25515847698E+01  0.89695589900E+01  0.00000000000E+00 0.  1.
</event>
<event>
 7    1  0.2985411E-011  0.5052885E+02  0.7816164E-02  0.1300439E+00
        -11   -1    0    0    0    0  0.00000000000E+00  0.00000000000E+00  0.45593999997E+02  0.45594000000E+02  0.51100000000E-03 0. -1.
         11   -1    0    0    0    0 -0.00000000000E+00 -0.00000000000E+00 -0.45593999997E+02  0.45594000000E+02  0.51100000000E-03 0.  1.
    9900012    2    1    2    0    0 -0.25213679914E+02 -0.24495116667E+02 -0.20431002303E+02  0.50528852807E+02  0.29999978593E+02 0.  0.
        -12    1    1    2    0    0  0.25213679914E+02  0.24495116667E+02  0.20431002303E+02  0.40659147193E+02  0.00000000000E+00 0.  1.
         11    1    3    3    0    0 -0.15740359303E+02 -0.25511667585E+01 -0.30713905088E+01  0.16238867040E+02  0.51100000000E-03 0. -1.
        -11    1    3    3    0    0 -0.43182480445E+01  0.17102432005E+01 -0.26239171197E+00  0.46519939435E+01  0.51100000000E-03 0.  1.
        -12    1    3    3    0    0 -0.51550725662E+01 -0.23654193109E+02 -0.17097220082E+02  0.29637991824E+02  0.00000000000E+00 0.  1.
</event>
<event>
 7    1  0.2985411E-011  0.5052885E+02  0.7816164E-02  0.1300439E+00
        -11   -1    0    0    0    0  0.00000000000E+00  0.00000000000E+00  0.45593999997E+02  0.45594000000E+02  0.51100000000E-03 0. -1.
         11   -1    0    0    0    0 -0.00000000000E+00 -0.00000000000E+00 -0.45593999997E+02  0.45594000000E+02  0.51100000000E-03 0.  1.
    9900012    2    1    2    0    0  0.19832478232E+02 -0.34752127576E+02  0.72200102454E+01  0.50528854512E+02  0.29999983774E+02 0.  0.
        -12    1    1    2    0    0 -0.19832478232E+02  0.34752127576E+02 -0.72200102454E+01  0.40659145488E+02  0.00000000000E+00 0.  1.
         11    1    3    3    0    0  0.49672434497E+01 -0.47072773542E+01  0.94292829390E+00  0.69080447022E+01  0.51100000000E-03 0. -1.
        -11    1    3    3    0    0  0.87571218033E+01  0.10950162130E+01 -0.47547382007E+01  0.10024658518E+02  0.51100000000E-03 0.  1.
         12    1    3    3    0    0  0.61081129792E+01 -0.31139866435E+02  0.11031820152E+02  0.33596151292E+02  0.00000000000E+00 0. -1.
</event>
<event>
 7    1  0.2985411E-011  0.5052873E+02  0.7816164E-02  0.1300439E+00
        -11   -1    0    0    0    0  0.00000000000E+00  0.00000000000E+00  0.45593999997E+02  0.45594000000E+02  0.51100000000E-03 0.  1.
         11   -1    0    0    0    0 -0.00000000000E+00 -0.00000000000E+00 -0.45593999997E+02  0.45594000000E+02  0.51100000000E-03 0. -1.
    9900012    2    1    2    0    0  0.10219745776E+02 -0.36643478216E+02 -0.14352289044E+02  0.50528734140E+02  0.29999617888E+02 0.  0.
        -12    1    1    2    0    0 -0.10219745776E+02  0.36643478216E+02  0.14352289044E+02  0.40659265860E+02  0.00000000000E+00 0.  1.
         11    1    3    3    0    0  0.96175427577E+00  0.24851816090E+01 -0.30423387183E+01  0.40443694261E+01  0.51100000000E-03 0. -1.
        -11    1    3    3    0    0  0.36258011031E+01  0.13615998312E+01  0.56601106171E+00  0.39141737982E+01  0.51100000000E-03 0.  1.
         12    1    3    3    0    0  0.56321903973E+01 -0.40490259656E+02 -0.11875961388E+02  0.42570190915E+02  0.00000000000E+00 0. -1.
</event>
<event>
 7    1  0.2985411E-011  0.5052886E+02  0.7816164E-02  0.1300439E+00
        -11   -1    0    0    0    0  0.00000000000E+00  0.00000000000E+00  0.45593999997E+02  0.45594000000E+02  0.51100000000E-03 0.  1.
         11   -1    0    0    0    0 -0.00000000000E+00 -0.00000000000E+00 -0.45593999997E+02  0.45594000000E+02  0.51100000000E-03 0. -1.
    9900012    2    1    2    0    0 -0.15834901024E+02  0.28408196230E+02 -0.24400734183E+02  0.50528861640E+02  0.30000005442E+02 0.  0.
        -12    1    1    2    0    0  0.15834901024E+02 -0.28408196230E+02  0.24400734183E+02  0.40659138360E+02  0.00000000000E+00 0.  1.
         11    1    3    3    0    0  0.12128552081E+01  0.35548125713E+00 -0.14049348919E+01  0.18897690313E+01  0.51100000000E-03 0. -1.
        -11    1    3    3    0    0  0.68713006044E+01  0.31139824872E+01 -0.79215196107E+01  0.10939018792E+02  0.51100000000E-03 0.  1.
        -12    1    3    3    0    0 -0.23919056837E+02  0.24938732486E+02 -0.15074279680E+02  0.37700073817E+02  0.00000000000E+00 0.  1.
</event>
<event>
 7    1  0.2985411E-011  0.5052885E+02  0.7816164E-02  0.1300439E+00
        -11   -1    0    0    0    0  0.00000000000E+00  0.00000000000E+00  0.45593999997E+02  0.45594000000E+02  0.51100000000E-03 0.  1.
         11   -1    0    0    0    0 -0.00000000000E+00 -0.00000000000E+00 -0.45593999997E+02  0.45594000000E+02  0.51100000000E-03 0. -1.
    9900012    2    1    2    0    0 -0.17917877793E+02  0.27834886398E+02 -0.23607940114E+02  0.50528854881E+02  0.29999984896E+02 0.  0.
        -12    1    1    2    0    0  0.17917877793E+02 -0.27834886398E+02  0.23607940114E+02  0.40659145119E+02  0.00000000000E+00 0.  1.
         11    1    3    3    0    0 -0.83795148207E+01  0.38075544681E+01  0.16633083831E+01  0.93530922532E+01  0.51100000000E-03 0. -1.
        -11    1    3    3    0    0 -0.24153506563E+01 -0.20599879511E+01  0.11426773954E+01  0.33738970113E+01  0.51100000000E-03 0.  1.
         12    1    3    3    0    0 -0.71230123158E+01  0.26087319881E+02 -0.26413925893E+02  0.37801865616E+02  0.00000000000E+00 0. -1.
</event>
<event>
 7    1  0.2985411E-011  0.5052887E+02  0.7816164E-02  0.1300439E+00
        -11   -1    0    0    0    0  0.00000000000E+00  0.00000000000E+00  0.45593999997E+02  0.45594000000E+02  0.51100000000E-03 0.  1.
         11   -1    0    0    0    0 -0.00000000000E+00 -0.00000000000E+00 -0.45593999997E+02  0.45594000000E+02  0.51100000000E-03 0. -1.
    9900012    2    1    2    0    0 -0.29395223078E+02  0.66927231133E+00 -0.28082699355E+02  0.50528867345E+02  0.30000022782E+02 0.  0.
        -12    1    1    2    0    0  0.29395223078E+02 -0.66927231133E+00  0.28082699355E+02  0.40659132655E+02  0.00000000000E+00 0.  1.
         11    1    3    3    0    0  0.18780227269E+01 -0.12703034751E+01 -0.13645003953E+01  0.26462240780E+01  0.51100000000E-03 0. -1.
        -11    1    3    3    0    0 -0.10182241578E+01  0.67929009812E+01 -0.12142773271E+02  0.13950886250E+02  0.51100000000E-03 0.  1.
        -12    1    3    3    0    0 -0.30255021647E+02 -0.48533251948E+01 -0.14575425688E+02  0.33931757017E+02  0.00000000000E+00 0.  1.
</event>
<event>
 7    1  0.2985411E-011  0.5052886E+02  0.7816164E-02  0.1300439E+00
        -11   -1    0    0    0    0  0.00000000000E+00  0.00000000000E+00  0.45593999997E+02  0.45594000000E+02  0.51100000000E-03 0.  1.
         11   -1    0    0    0    0 -0.00000000000E+00 -0.00000000000E+00 -0.45593999997E+02  0.45594000000E+02  0.51100000000E-03 0. -1.
    9900012    2    1    2    0    0  0.16815860058E+02  0.17642410020E+02 -0.32544393116E+02  0.50528864445E+02  0.30000013967E+02 0.  0.
        -12    1    1    2    0    0 -0.16815860058E+02 -0.17642410020E+02  0.32544393116E+02  0.40659135555E+02  0.00000000000E+00 0.  1.
         11    1    3    3    0    0 -0.33077657358E+01  0.32736508016E+01 -0.33715019381E+01  0.57467494562E+01  0.51100000000E-03 0. -1.
        -11    1    3    3    0    0  0.62525424960E+01  0.17547511591E+02 -0.10765195271E+02  0.21515084944E+02  0.51100000000E-03 0.  1.
         12    1    3    3    0    0  0.13871083297E+02 -0.31787523722E+01 -0.18407695907E+02  0.23267030044E+02  0.00000000000E+00 0. -1.
</event>
<event>
 7    1  0.2985411E-011  0.5052886E+02  0.7816164E-02  0.1300439E+00
        -11   -1    0    0    0    0  0.00000000000E+00  0.00000000000E+00  0.45593999997E+02  0.45594000000E+02  0.51100000000E-03 0.  1.
         11   -1    0    0    0    0 -0.00000000000E+00 -0.00000000000E+00 -0.45593999997E+02  0.45594000000E+02  0.51100000000E-03 0. -1.
    9900012    2    1    2    0    0  0.32997431590E+02  0.14683562738E+02 -0.18674262109E+02  0.50528861156E+02  0.30000003969E+02 0.  0.
        -12    1    1    2    0    0 -0.32997431590E+02 -0.14683562738E+02  0.18674262109E+02  0.40659138844E+02  0.00000000000E+00 0.  1.
         11    1    3    3    0    0  0.68443512055E+01 -0.56923885907E+01 -0.60298742040E+01  0.10752107443E+02  0.51100000000E-03 0.  1.
        -11    1    3    3    0    0  0.10959748031E+02  0.13928104468E+02 -0.14853924824E+02  0.23124602784E+02  0.51100000000E-03 0. -1.
         12    1    3    3    0    0  0.15193332354E+02  0.64478468605E+01  0.22095369185E+01  0.16652150929E+02  0.00000000000E+00 0. -1.
</event>
<event>
 7    1  0.2985411E-011  0.5052894E+02  0.7816164E-02  0.1300439E+00
        -11   -1    0    0    0    0  0.00000000000E+00  0.00000000000E+00  0.45593999997E+02  0.45594000000E+02  0.51100000000E-03 0.  1.
         11   -1    0    0    0    0 -0.00000000000E+00 -0.00000000000E+00 -0.45593999997E+02  0.45594000000E+02  0.51100000000E-03 0. -1.
    9900012    2    1    2    0    0 -0.30789043133E+02  0.26451359076E+02  0.23494511834E+01  0.50528935883E+02  0.30000231109E+02 0.  0.
        -12    1    1    2    0    0  0.30789043133E+02 -0.26451359076E+02 -0.23494511834E+01  0.40659064117E+02  0.00000000000E+00 0.  1.
         11    1    3    3    0    0 -0.11398051656E+02  0.15166574618E+02 -0.42458708363E+01  0.19441398782E+02  0.51100000000E-03 0. -1.
        -11    1    3    3    0    0 -0.16130889564E+02  0.15878773327E+02  0.29607839912E+00  0.22636888108E+02  0.51100000000E-03 0.  1.
        -12    1    3    3    0    0 -0.32601019122E+01 -0.45939888695E+01  0.62992436205E+01  0.84506489929E+01  0.00000000000E+00 0.  1.
</event>
<event>
 7    1  0.2985411E-011  0.5052886E+02  0.7816164E-02  0.1300439E+00
        -11   -1    0    0    0    0  0.00000000000E+00  0.00000000000E+00  0.45593999997E+02  0.45594000000E+02  0.51100000000E-03 0. -1.
         11   -1    0    0    0    0 -0.00000000000E+00 -0.00000000000E+00 -0.45593999997E+02  0.45594000000E+02  0.51100000000E-03 0.  1.
    9900012    2    1    2    0    0  0.18368564349E+02 -0.32860645710E+02  0.15360315026E+02  0.50528862400E+02  0.30000007750E+02 0.  0.
        -12    1    1    2    0    0 -0.18368564349E+02  0.32860645710E+02 -0.15360315026E+02  0.40659137600E+02  0.00000000000E+00 0.  1.
         11    1    3    3    0    0  0.12017796836E+02 -0.26739342732E+02  0.66998522366E+01  0.30071712801E+02  0.51100000000E-03 0. -1.
        -11    1    3    3    0    0 -0.43013228363E+01 -0.65630066579E+01  0.31451187316E+01  0.84537687826E+01  0.51100000000E-03 0.  1.
        -12    1    3    3    0    0  0.10652090349E+02  0.44170367954E+00  0.55153440576E+01  0.12003380816E+02  0.00000000000E+00 0.  1.
</event>
<event>
 7    1  0.2985411E-011  0.5052886E+02  0.7816164E-02  0.1300439E+00
        -11   -1    0    0    0    0  0.00000000000E+00  0.00000000000E+00  0.45593999997E+02  0.45594000000E+02  0.51100000000E-03 0.  1.
         11   -1    0    0    0    0 -0.00000000000E+00 -0.00000000000E+00 -0.45593999997E+02  0.45594000000E+02  0.51100000000E-03 0. -1.
    9900012    2    1    2    0    0 -0.19058511576E+02  0.20348415466E+02 -0.29595279379E+02  0.50528862811E+02  0.30000009000E+02 0.  0.
        -12    1    1    2    0    0  0.19058511576E+02 -0.20348415466E+02  0.29595279379E+02  0.40659137189E+02  0.00000000000E+00 0.  1.
         11    1    3    3    0    0  0.46780869360E+01  0.13569030383E+01 -0.84489844285E+01  0.97524879580E+01  0.51100000000E-03 0. -1.
        -11    1    3    3    0    0  0.19677607528E-01 -0.25087672302E+01 -0.24488877717E+00  0.25207679381E+01  0.51100000000E-03 0.  1.
         12    1    3    3    0    0 -0.23756276119E+02  0.21500279657E+02 -0.20901406173E+02  0.38255606915E+02  0.00000000000E+00 0. -1.
</event>
<event>
 7    1  0.2985411E-011  0.5052886E+02  0.7816164E-02  0.1300439E+00
        -11   -1    0    0    0    0  0.00000000000E+00  0.00000000000E+00  0.45593999997E+02  0.45594000000E+02  0.51100000000E-03 0.  1.
         11   -1    0    0    0    0 -0.00000000000E+00 -0.00000000000E+00 -0.45593999997E+02  0.45594000000E+02  0.51100000000E-03 0. -1.
    9900012    2    1    2    0    0  0.31049056154E+02 -0.91480477613E+00 -0.26235185344E+02  0.50528859505E+02  0.29999998950E+02 0.  0.
        -12    1    1    2    0    0 -0.31049056154E+02  0.91480477613E+00  0.26235185344E+02  0.40659140495E+02  0.00000000000E+00 0.  1.
         11    1    3    3    0    0  0.55454795143E+01  0.49205159208E+01 -0.31423003565E+01  0.80521967042E+01  0.51100000000E-03 0. -1.
        -11    1    3    3    0    0 -0.28814637333E+01  0.32380169091E+01  0.63929534233E+00  0.43813565873E+01  0.51100000000E-03 0.  1.
         12    1    3    3    0    0  0.28385040373E+02 -0.90733376061E+01 -0.23732180329E+02  0.38095306213E+02  0.00000000000E+00 0. -1.
</event>
<event>
 7    1  0.2985411E-011  0.5052886E+02  0.7816164E-02  0.1300439E+00
        -11   -1    0    0    0    0  0.00000000000E+00  0.00000000000E+00  0.45593999997E+02  0.45594000000E+02  0.51100000000E-03 0. -1.
         11   -1    0    0    0    0 -0.00000000000E+00 -0.00000000000E+00 -0.45593999997E+02  0.45594000000E+02  0.51100000000E-03 0.  1.
    9900012    2    1    2    0    0  0.14637080494E+02  0.37863867664E+02  0.22911169206E+01  0.50528858143E+02  0.29999994810E+02 0.  0.
        -12    1    1    2    0    0 -0.14637080494E+02 -0.37863867664E+02 -0.22911169206E+01  0.40659141857E+02  0.00000000000E+00 0.  1.
         11    1    3    3    0    0 -0.14549502009E+01  0.22569038555E+02  0.92026016890E+00  0.22634603165E+02  0.51100000000E-03 0. -1.
        -11    1    3    3    0    0  0.22914202345E+00  0.10754688021E+02 -0.22782355792E+01  0.10995734542E+02  0.51100000000E-03 0.  1.
        -12    1    3    3    0    0  0.15862888671E+02  0.45401410879E+01  0.36490923309E+01  0.16898520436E+02  0.00000000000E+00 0.  1.
</event>
<event>
 7    1  0.2985411E-011  0.5052886E+02  0.7816164E-02  0.1300439E+00
        -11   -1    0    0    0    0  0.00000000000E+00  0.00000000000E+00  0.45593999997E+02  0.45594000000E+02  0.51100000000E-03 0.  1.
         11   -1    0    0    0    0 -0.00000000000E+00 -0.00000000000E+00 -0.45593999997E+02  0.45594000000E+02  0.51100000000E-03 0. -1.
    9900012    2    1    2    0    0 -0.41864816448E+00  0.34182673314E+02 -0.22012160722E+02  0.50528860303E+02  0.30000001378E+02 0.  0.
        -12    1    1    2    0    0  0.41864816448E+00 -0.34182673314E+02  0.22012160722E+02  0.40659139697E+02  0.00000000000E+00 0.  1.
         11    1    3    3    0    0 -0.81912412318E+00  0.41534501651E+01 -0.16795675504E+02  0.17320993866E+02  0.51100000000E-03 0. -1.
        -11    1    3    3    0    0 -0.24127133716E+01  0.13607147657E+02 -0.85026193453E+01  0.16225602890E+02  0.51100000000E-03 0.  1.
        -12    1    3    3    0    0  0.28131893303E+01  0.16422075493E+02  0.32861341267E+01  0.16982263547E+02  0.00000000000E+00 0.  1.
</event>
<event>
 7    1  0.2985411E-011  0.5052886E+02  0.7816164E-02  0.1300439E+00
        -11   -1    0    0    0    0  0.00000000000E+00  0.00000000000E+00  0.45593999997E+02  0.45594000000E+02  0.51100000000E-03 0.  1.
         11   -1    0    0    0    0 -0.00000000000E+00 -0.00000000000E+00 -0.45593999997E+02  0.45594000000E+02  0.51100000000E-03 0. -1.
    9900012    2    1    2    0    0 -0.27982091192E+02 -0.30639456172E+01 -0.29339061395E+02  0.50528859407E+02  0.29999998653E+02 0.  0.
        -12    1    1    2    0    0  0.27982091192E+02  0.30639456172E+01  0.29339061395E+02  0.40659140593E+02  0.00000000000E+00 0.  1.
         11    1    3    3    0    0 -0.12854643753E+02 -0.14968194345E+01 -0.21490701378E+02  0.25086501956E+02  0.51100000000E-03 0. -1.
        -11    1    3    3    0    0 -0.88560220588E+01 -0.67524557259E+01 -0.11945579416E+02  0.16331615134E+02  0.51100000000E-03 0.  1.
        -12    1    3    3    0    0 -0.62714253803E+01  0.51853295432E+01  0.40972193981E+01  0.91107423171E+01  0.00000000000E+00 0.  1.
</event>
<event>
 7    1  0.2985411E-011  0.5052886E+02  0.7816164E-02  0.1300439E+00
        -11   -1    0    0    0    0  0.00000000000E+00  0.00000000000E+00  0.45593999997E+02  0.45594000000E+02  0.51100000000E-03 0. -1.
         11   -1    0    0    0    0 -0.00000000000E+00 -0.00000000000E+00 -0.45593999997E+02  0.45594000000E+02  0.51100000000E-03 0.  1.
    9900012    2    1    2    0    0 -0.39570801967E+02 -0.87639392647E+01  0.32419836781E+01  0.50528862553E+02  0.30000008215E+02 0.  0.
        -12    1    1    2    0    0  0.39570801967E+02  0.87639392647E+01 -0.32419836781E+01  0.40659137447E+02  0.00000000000E+00 0.  1.
         11    1    3    3    0    0 -0.14982275640E+01 -0.19927556482E+01  0.14892864962E+01  0.29040894331E+01  0.51100000000E-03 0. -1.
        -11    1    3    3    0    0 -0.36526598305E+01 -0.99038630553E+01  0.70007128248E+01  0.12666428367E+02  0.51100000000E-03 0.  1.
        -12    1    3    3    0    0 -0.34419914573E+02  0.31326794387E+01 -0.52480156429E+01  0.34958344753E+02  0.00000000000E+00 0.  1.
</event>
<event>
 7    1  0.2985411E-011  0.5052886E+02  0.7816164E-02  0.1300439E+00
        -11   -1    0    0    0    0  0.00000000000E+00  0.00000000000E+00  0.45593999997E+02  0.45594000000E+02  0.51100000000E-03 0.  1.
         11   -1    0    0    0    0 -0.00000000000E+00 -0.00000000000E+00 -0.45593999997E+02  0.45594000000E+02  0.51100000000E-03 0. -1.
    9900012    2    1    2    0    0 -0.39633400618E+02  0.59111639156E+00 -0.90559433251E+01  0.50528856223E+02  0.29999988977E+02 0.  0.
        -12    1    1    2    0    0  0.39633400618E+02 -0.59111639156E+00  0.90559433251E+01  0.40659143777E+02  0.00000000000E+00 0.  1.
         11    1    3    3    0    0 -0.22220966152E+02  0.96245895418E+01  0.27042035597E+01  0.24366304146E+02  0.51100000000E-03 0. -1.
        -11    1    3    3    0    0 -0.10308861633E+01  0.29087239978E+01 -0.18425029834E+01  0.35941924102E+01  0.51100000000E-03 0.  1.
        -12    1    3    3    0    0 -0.16381548303E+02 -0.11942197148E+02 -0.99176439015E+01  0.22568359668E+02  0.00000000000E+00 0.  1.
</event>
<event>
 7    1  0.2985411E-011  0.5052886E+02  0.7816164E-02  0.1300439E+00
        -11   -1    0    0    0    0  0.00000000000E+00  0.00000000000E+00  0.45593999997E+02  0.45594000000E+02  0.51100000000E-03 0.  1.
         11   -1    0    0    0    0 -0.00000000000E+00 -0.00000000000E+00 -0.45593999997E+02  0.45594000000E+02  0.51100000000E-03 0. -1.
    9900012    2    1    2    0    0  0.29143967622E+02  0.13030848129E+01 -0.28321316907E+02  0.50528857484E+02  0.29999992808E+02 0.  0.
        -12    1    1    2    0    0 -0.29143967622E+02 -0.13030848129E+01  0.28321316907E+02  0.40659142516E+02  0.00000000000E+00 0.  1.
         11    1    3    3    0    0  0.14932748446E+02  0.27937633547E+01 -0.42216223906E+01  0.15767504105E+02  0.51100000000E-03 0. -1.
        -11    1    3    3    0    0 -0.20478421375E+01  0.11842032752E+01  0.25188134647E+01  0.34554907536E+01  0.51100000000E-03 0.  1.
         12    1    3    3    0    0  0.16259061314E+02 -0.26748818169E+01 -0.26618507982E+02  0.31305862625E+02  0.00000000000E+00 0. -1.
</event>
<event>
 7    1  0.2985411E-011  0.5052885E+02  0.7816164E-02  0.1300439E+00
        -11   -1    0    0    0    0  0.00000000000E+00  0.00000000000E+00  0.45593999997E+02  0.45594000000E+02  0.51100000000E-03 0.  1.
         11   -1    0    0    0    0 -0.00000000000E+00 -0.00000000000E+00 -0.45593999997E+02  0.45594000000E+02  0.51100000000E-03 0. -1.
    9900012    2    1    2    0    0  0.19198420977E+02 -0.24973519929E+02 -0.25708178690E+02  0.50528849527E+02  0.29999968622E+02 0.  0.
        -12    1    1    2    0    0 -0.19198420977E+02  0.24973519929E+02  0.25708178690E+02  0.40659150473E+02  0.00000000000E+00 0.  1.
         11    1    3    3    0    0  0.10739115655E+02 -0.11003991999E+02 -0.82903980455E+01  0.17468461437E+02  0.51100000000E-03 0. -1.
        -11    1    3    3    0    0  0.23529776658E+01  0.26990957563E+01  0.39163550847E+01  0.53065487097E+01  0.51100000000E-03 0.  1.
         12    1    3    3    0    0  0.61063276560E+01 -0.16668623686E+02 -0.21334135729E+02  0.27753839381E+02  0.00000000000E+00 0. -1.
</event>
<event>
 7    1  0.2985411E-011  0.5052889E+02  0.7816164E-02  0.1300439E+00
        -11   -1    0    0    0    0  0.00000000000E+00  0.00000000000E+00  0.45593999997E+02  0.45594000000E+02  0.51100000000E-03 0.  1.
         11   -1    0    0    0    0 -0.00000000000E+00 -0.00000000000E+00 -0.45593999997E+02  0.45594000000E+02  0.51100000000E-03 0. -1.
    9900012    2    1    2    0    0 -0.27031178127E+02 -0.82791258525E+00 -0.30361051909E+02  0.50528886591E+02  0.30000081283E+02 0.  0.
        -12    1    1    2    0    0  0.27031178127E+02  0.82791258525E+00  0.30361051909E+02  0.40659113409E+02  0.00000000000E+00 0.  1.
         11    1    3    3    0    0 -0.10181388600E+02  0.14933487996E+01 -0.15352457114E+02  0.18482118498E+02  0.51100000000E-03 0. -1.
        -11    1    3    3    0    0 -0.19001348597E+02 -0.71572114826E+01 -0.16908649350E+02  0.26423083617E+02  0.51100000000E-03 0.  1.
        -12    1    3    3    0    0  0.21515590708E+01  0.48359500978E+01  0.19000545550E+01  0.56236844769E+01  0.00000000000E+00 0.  1.
</event>
<event>
 7    1  0.2985411E-011  0.5052886E+02  0.7816164E-02  0.1300439E+00
        -11   -1    0    0    0    0  0.00000000000E+00  0.00000000000E+00  0.45593999997E+02  0.45594000000E+02  0.51100000000E-03 0.  1.
         11   -1    0    0    0    0 -0.00000000000E+00 -0.00000000000E+00 -0.45593999997E+02  0.45594000000E+02  0.51100000000E-03 0. -1.
    9900012    2    1    2    0    0  0.63796651137E+01 -0.22923159950E+02 -0.32969593452E+02  0.50528862264E+02  0.30000007338E+02 0.  0.
        -12    1    1    2    0    0 -0.63796651137E+01  0.22923159950E+02  0.32969593452E+02  0.40659137736E+02  0.00000000000E+00 0.  1.
         11    1    3    3    0    0  0.23532951375E+00  0.37960589145E+01 -0.10129756464E+02  0.10820231492E+02  0.51100000000E-03 0. -1.
        -11    1    3    3    0    0  0.18223073994E+01  0.20926726095E+01 -0.14596302212E+00  0.27787386299E+01  0.51100000000E-03 0.  1.
         12    1    3    3    0    0  0.43220282005E+01 -0.28811891473E+02 -0.22693873966E+02  0.36929892142E+02  0.00000000000E+00 0. -1.
</event>
<event>
 7    1  0.2985411E-011  0.5052882E+02  0.7816164E-02  0.1300439E+00
        -11   -1    0    0    0    0  0.00000000000E+00  0.00000000000E+00  0.45593999997E+02  0.45594000000E+02  0.51100000000E-03 0.  1.
         11   -1    0    0    0    0 -0.00000000000E+00 -0.00000000000E+00 -0.45593999997E+02  0.45594000000E+02  0.51100000000E-03 0. -1.
    9900012    2    1    2    0    0  0.25895248797E+02 -0.27712410028E+02 -0.14650156182E+02  0.50528823226E+02  0.29999888677E+02 0.  0.
        -12    1    1    2    0    0 -0.25895248797E+02  0.27712410028E+02  0.14650156182E+02  0.40659176774E+02  0.00000000000E+00 0.  1.
         11    1    3    3    0    0  0.55575966143E+01  0.19108363656E+01  0.12560291021E+01  0.60096410134E+01  0.51100000000E-03 0. -1.
        -11    1    3    3    0    0 -0.33089688882E+01 -0.10170212925E+02 -0.63715582037E+01  0.12449066642E+02  0.51100000000E-03 0.  1.
         12    1    3    3    0    0  0.23646621071E+02 -0.19453033468E+02 -0.95346270804E+01  0.32070115571E+02  0.00000000000E+00 0. -1.
</event>
<event>
 7    1  0.2985411E-011  0.5052886E+02  0.7816164E-02  0.1300439E+00
        -11   -1    0    0    0    0  0.00000000000E+00  0.00000000000E+00  0.45593999997E+02  0.45594000000E+02  0.51100000000E-03 0.  1.
         11   -1    0    0    0    0 -0.00000000000E+00 -0.00000000000E+00 -0.45593999997E+02  0.45594000000E+02  0.51100000000E-03 0. -1.
    9900012    2    1    2    0    0  0.24715908263E+02 -0.17326141061E+02 -0.27241404893E+02  0.50528862947E+02  0.30000009414E+02 0.  0.
        -12    1    1    2    0    0 -0.24715908263E+02  0.17326141061E+02  0.27241404893E+02  0.40659137053E+02  0.00000000000E+00 0.  1.
         11    1    3    3    0    0  0.47700827931E+01 -0.86391478412E+00 -0.10357858172E+01  0.49571051156E+01  0.51100000000E-03 0. -1.
        -11    1    3    3    0    0 -0.34443308581E+01  0.40519377042E+01 -0.74475300899E+00  0.53699414824E+01  0.51100000000E-03 0.  1.
         12    1    3    3    0    0  0.23390156328E+02 -0.20514163981E+02 -0.25460866067E+02  0.40201816349E+02  0.00000000000E+00 0. -1.
</event>
<event>
 7    1  0.2985411E-011  0.5052876E+02  0.7816164E-02  0.1300439E+00
        -11   -1    0    0    0    0  0.00000000000E+00  0.00000000000E+00  0.45593999997E+02  0.45594000000E+02  0.51100000000E-03 0. -1.
         11   -1    0    0    0    0 -0.00000000000E+00 -0.00000000000E+00 -0.45593999997E+02  0.45594000000E+02  0.51100000000E-03 0.  1.
    9900012    2    1    2    0    0 -0.37539204604E+02 -0.55159776065E+00 -0.15610174853E+02  0.50528761181E+02  0.29999700084E+02 0.  0.
        -12    1    1    2    0    0  0.37539204604E+02  0.55159776065E+00  0.15610174853E+02  0.40659238819E+02  0.00000000000E+00 0.  1.
         11    1    3    3    0    0 -0.18792838134E+02  0.23209283543E+00  0.25219840166E-01  0.18794288188E+02  0.51100000000E-03 0. -1.
        -11    1    3    3    0    0 -0.12835253359E+02 -0.10191570614E+02 -0.10727234033E+02  0.19587888876E+02  0.51100000000E-03 0.  1.
         12    1    3    3    0    0 -0.59111131118E+01  0.94078800175E+01 -0.49081606601E+01  0.12146584117E+02  0.00000000000E+00 0. -1.
</event>
<event>
 7    1  0.2985411E-011  0.5052887E+02  0.7816164E-02  0.1300439E+00
        -11   -1    0    0    0    0  0.00000000000E+00  0.00000000000E+00  0.45593999997E+02  0.45594000000E+02  0.51100000000E-03 0.  1.
         11   -1    0    0    0    0 -0.00000000000E+00 -0.00000000000E+00 -0.45593999997E+02  0.45594000000E+02  0.51100000000E-03 0. -1.
    9900012    2    1    2    0    0 -0.99532546497E+01 -0.38383931984E+02  0.89873044268E+01  0.50528866297E+02  0.30000019595E+02 0.  0.
        -12    1    1    2    0    0  0.99532546497E+01  0.38383931984E+02 -0.89873044268E+01  0.40659133703E+02  0.00000000000E+00 0.  1.
         11    1    3    3    0    0 -0.37879686867E+01 -0.56606054662E+01 -0.91642541537E+01  0.11418174787E+02  0.51100000000E-03 0. -1.
        -11    1    3    3    0    0 -0.69794163256E+01 -0.12400929263E+02  0.62159796167E+01  0.15528480340E+02  0.51100000000E-03 0.  1.
        -12    1    3    3    0    0  0.81413036252E+00 -0.20322397255E+02  0.11935578964E+02  0.23582211169E+02  0.00000000000E+00 0.  1.
</event>
<event>
 7    1  0.2985411E-011  0.5052885E+02  0.7816164E-02  0.1300439E+00
        -11   -1    0    0    0    0  0.00000000000E+00  0.00000000000E+00  0.45593999997E+02  0.45594000000E+02  0.51100000000E-03 0. -1.
         11   -1    0    0    0    0 -0.00000000000E+00 -0.00000000000E+00 -0.45593999997E+02  0.45594000000E+02  0.51100000000E-03 0.  1.
    9900012    2    1    2    0    0 -0.35305353119E+02  0.97102116879E+01 -0.17675121226E+02  0.50528854900E+02  0.29999984955E+02 0.  0.
        -12    1    1    2    0    0  0.35305353119E+02 -0.97102116879E+01  0.17675121226E+02  0.40659145100E+02  0.00000000000E+00 0.  1.
         11    1    3    3    0    0 -0.26997527852E+02  0.16857036265E+00 -0.13609842776E+00  0.26998397158E+02  0.51100000000E-03 0. -1.
        -11    1    3    3    0    0 -0.12865784879E+01 -0.16317398916E+01 -0.82700314430E+00  0.22364690342E+01  0.51100000000E-03 0.  1.
        -12    1    3    3    0    0 -0.70212467793E+01  0.11173381217E+02 -0.16712019654E+02  0.21293988708E+02  0.00000000000E+00 0.  1.
</event>
<event>
 7    1  0.2985411E-011  0.5052886E+02  0.7816164E-02  0.1300439E+00
        -11   -1    0    0    0    0  0.00000000000E+00  0.00000000000E+00  0.45593999997E+02  0.45594000000E+02  0.51100000000E-03 0.  1.
         11   -1    0    0    0    0 -0.00000000000E+00 -0.00000000000E+00 -0.45593999997E+02  0.45594000000E+02  0.51100000000E-03 0. -1.
    9900012    2    1    2    0    0 -0.13876653688E+02  0.30609446758E+02 -0.22883746057E+02  0.50528861027E+02  0.30000003578E+02 0.  0.
        -12    1    1    2    0    0  0.13876653688E+02 -0.30609446758E+02  0.22883746057E+02  0.40659138973E+02  0.00000000000E+00 0.  1.
         11    1    3    3    0    0 -0.75443023883E+01  0.14607600425E+02 -0.78193601260E+01  0.18205517893E+02  0.51100000000E-03 0. -1.
        -11    1    3    3    0    0 -0.90162741172E+01  0.17539330889E+02 -0.30971094026E+01  0.19962800753E+02  0.51100000000E-03 0.  1.
        -12    1    3    3    0    0  0.26839228173E+01 -0.15374845563E+01 -0.11967276528E+02  0.12360542381E+02  0.00000000000E+00 0.  1.
</event>
<event>
 7    1  0.2985411E-011  0.5052886E+02  0.7816164E-02  0.1300439E+00
        -11   -1    0    0    0    0  0.00000000000E+00  0.00000000000E+00  0.45593999997E+02  0.45594000000E+02  0.51100000000E-03 0. -1.
         11   -1    0    0    0    0 -0.00000000000E+00 -0.00000000000E+00 -0.45593999997E+02  0.45594000000E+02  0.51100000000E-03 0.  1.
    9900012    2    1    2    0    0  0.96797411100E+01  0.38716181514E+02 -0.77798135172E+01  0.50528860838E+02  0.30000003004E+02 0.  0.
        -12    1    1    2    0    0 -0.96797411100E+01 -0.38716181514E+02  0.77798135172E+01  0.40659139162E+02  0.00000000000E+00 0.  1.
         11    1    3    3    0    0  0.15703808345E+02  0.12855528098E+02 -0.35177364037E+01  0.20597297611E+02  0.51100000000E-03 0. -1.
        -11    1    3    3    0    0 -0.99501913038E+00  0.31519904737E+00  0.27722781968E+01  0.29622525501E+01  0.51100000000E-03 0.  1.
        -12    1    3    3    0    0 -0.50290481049E+01  0.25545454369E+02 -0.70343553103E+01  0.26969310677E+02  0.00000000000E+00 0.  1.
</event>
<event>
 7    1  0.2985411E-011  0.5052885E+02  0.7816164E-02  0.1300439E+00
        -11   -1    0    0    0    0  0.00000000000E+00  0.00000000000E+00  0.45593999997E+02  0.45594000000E+02  0.51100000000E-03 0.  1.
         11   -1    0    0    0    0 -0.00000000000E+00 -0.00000000000E+00 -0.45593999997E+02  0.45594000000E+02  0.51100000000E-03 0. -1.
    9900012    2    1    2    0    0 -0.23107639723E+02 -0.16996854801E+02 -0.28815107579E+02  0.50528849597E+02  0.29999968836E+02 0.  0.
        -12    1    1    2    0    0  0.23107639723E+02  0.16996854801E+02  0.28815107579E+02  0.40659150403E+02  0.00000000000E+00 0.  1.
         11    1    3    3    0    0 -0.16389297679E+01  0.25156605707E+01 -0.11334650198E+02  0.11725567545E+02  0.51100000000E-03 0. -1.
        -11    1    3    3    0    0 -0.34550036998E+01 -0.37525469726E+01  0.41245208490E+01  0.65597508979E+01  0.51100000000E-03 0.  1.
        -12    1    3    3    0    0 -0.18013706255E+02 -0.15759968399E+02 -0.21604978230E+02  0.32243531154E+02  0.00000000000E+00 0.  1.
</event>
<event>
 7    1  0.2985411E-011  0.5052888E+02  0.7816164E-02  0.1300439E+00
        -11   -1    0    0    0    0  0.00000000000E+00  0.00000000000E+00  0.45593999997E+02  0.45594000000E+02  0.51100000000E-03 0.  1.
         11   -1    0    0    0    0 -0.00000000000E+00 -0.00000000000E+00 -0.45593999997E+02  0.45594000000E+02  0.51100000000E-03 0. -1.
    9900012    2    1    2    0    0 -0.31888470492E+02  0.19195903207E+02 -0.16364794017E+02  0.50528883759E+02  0.30000072674E+02 0.  0.
        -12    1    1    2    0    0  0.31888470492E+02 -0.19195903207E+02  0.16364794017E+02  0.40659116241E+02  0.00000000000E+00 0.  1.
         11    1    3    3    0    0 -0.13317997683E+01  0.48459786308E+01 -0.12836627401E+01  0.51870020054E+01  0.51100000000E-03 0. -1.
        -11    1    3    3    0    0 -0.26316449066E+02  0.20973361973E+02 -0.76249952800E+01  0.34504752675E+02  0.51100000000E-03 0.  1.
        -12    1    3    3    0    0 -0.42402216579E+01 -0.66234373969E+01 -0.74561359972E+01  0.10837129079E+02  0.00000000000E+00 0.  1.
</event>
<event>
 7    1  0.2985411E-011  0.5052886E+02  0.7816164E-02  0.1300439E+00
        -11   -1    0    0    0    0  0.00000000000E+00  0.00000000000E+00  0.45593999997E+02  0.45594000000E+02  0.51100000000E-03 0.  1.
         11   -1    0    0    0    0 -0.00000000000E+00 -0.00000000000E+00 -0.45593999997E+02  0.45594000000E+02  0.51100000000E-03 0. -1.
    9900012    2    1    2    0    0 -0.32224520197E+02  0.11603271767E+02 -0.21911419808E+02  0.50528856679E+02  0.29999990362E+02 0.  0.
        -12    1    1    2    0    0  0.32224520197E+02 -0.11603271767E+02  0.21911419808E+02  0.40659143321E+02  0.00000000000E+00 0.  1.
         11    1    3    3    0    0 -0.62022001548E+01 -0.59993181624E+01  0.10718418458E+01  0.86952832258E+01  0.51100000000E-03 0.  1.
        -11    1    3    3    0    0 -0.11182793740E+00  0.51643679339E+01 -0.77256353017E+01  0.92934731247E+01  0.51100000000E-03 0. -1.
         12    1    3    3    0    0 -0.25910492104E+02  0.12438221995E+02 -0.15257626352E+02  0.32540100329E+02  0.00000000000E+00 0. -1.
</event>
<event>
 7    1  0.2985411E-011  0.5052884E+02  0.7816164E-02  0.1300439E+00
        -11   -1    0    0    0    0  0.00000000000E+00  0.00000000000E+00  0.45593999997E+02  0.45594000000E+02  0.51100000000E-03 0.  1.
         11   -1    0    0    0    0 -0.00000000000E+00 -0.00000000000E+00 -0.45593999997E+02  0.45594000000E+02  0.51100000000E-03 0. -1.
    9900012    2    1    2    0    0 -0.19150615510E+02 -0.35816066369E+02  0.19053175417E+01  0.50528844580E+02  0.29999953585E+02 0.  0.
        -12    1    1    2    0    0  0.19150615510E+02  0.35816066369E+02 -0.19053175417E+01  0.40659155420E+02  0.00000000000E+00 0.  1.
         11    1    3    3    0    0 -0.13984654067E+02 -0.60791109846E+01 -0.64570035071E-01  0.15248944530E+02  0.51100000000E-03 0. -1.
        -11    1    3    3    0    0 -0.61228738623E+01 -0.21603432079E+02 -0.66217340436E+01  0.23410365737E+02  0.51100000000E-03 0.  1.
        -12    1    3    3    0    0  0.95691241942E+00 -0.81335233053E+01  0.85916216203E+01  0.11869534313E+02  0.00000000000E+00 0.  1.
</event>
<event>
 7    1  0.2985411E-011  0.5052883E+02  0.7816164E-02  0.1300439E+00
        -11   -1    0    0    0    0  0.00000000000E+00  0.00000000000E+00  0.45593999997E+02  0.45594000000E+02  0.51100000000E-03 0.  1.
         11   -1    0    0    0    0 -0.00000000000E+00 -0.00000000000E+00 -0.45593999997E+02  0.45594000000E+02  0.51100000000E-03 0. -1.
    9900012    2    1    2    0    0  0.29098718439E+02  0.10515865867E+02 -0.26378955373E+02  0.50528829616E+02  0.29999908102E+02 0.  0.
        -12    1    1    2    0    0 -0.29098718439E+02 -0.10515865867E+02  0.26378955373E+02  0.40659170384E+02  0.00000000000E+00 0.  1.
         11    1    3    3    0    0  0.19941289457E+02  0.31825822561E+01 -0.61423017589E+01  0.21107148698E+02  0.51100000000E-03 0. -1.
        -11    1    3    3    0    0  0.13116355832E+02  0.45054783495E+01 -0.74547976617E+01  0.15745225749E+02  0.51100000000E-03 0.  1.
        -12    1    3    3    0    0 -0.39589268496E+01  0.28278052614E+01 -0.12781855952E+02  0.13676455169E+02  0.00000000000E+00 0.  1.
</event>
<event>
 7    1  0.2985411E-011  0.5052885E+02  0.7816164E-02  0.1300439E+00
        -11   -1    0    0    0    0  0.00000000000E+00  0.00000000000E+00  0.45593999997E+02  0.45594000000E+02  0.51100000000E-03 0.  1.
         11   -1    0    0    0    0 -0.00000000000E+00 -0.00000000000E+00 -0.45593999997E+02  0.45594000000E+02  0.51100000000E-03 0. -1.
    9900012    2    1    2    0    0  0.40058773972E+01 -0.22214505484E+02 -0.33817673643E+02  0.50528851481E+02  0.29999974562E+02 0.  0.
        -12    1    1    2    0    0 -0.40058773972E+01  0.22214505484E+02  0.33817673643E+02  0.40659148519E+02  0.00000000000E+00 0.  1.
         11    1    3    3    0    0  0.72504410220E+01 -0.16839093190E+02 -0.28949758505E+02  0.34266783804E+02  0.51100000000E-03 0. -1.
        -11    1    3    3    0    0 -0.28526749851E+01  0.26545843068E+01 -0.69405571183E+01  0.79596423152E+01  0.51100000000E-03 0.  1.
        -12    1    3    3    0    0 -0.39188863969E+00 -0.80299966011E+01  0.20726419801E+01  0.83024253623E+01  0.00000000000E+00 0.  1.
</event>
<event>
 7    1  0.2985411E-011  0.5052886E+02  0.7816164E-02  0.1300439E+00
        -11   -1    0    0    0    0  0.00000000000E+00  0.00000000000E+00  0.45593999997E+02  0.45594000000E+02  0.51100000000E-03 0. -1.
         11   -1    0    0    0    0 -0.00000000000E+00 -0.00000000000E+00 -0.45593999997E+02  0.45594000000E+02  0.51100000000E-03 0.  1.
    9900012    2    1    2    0    0  0.10006466545E+02 -0.39189446794E+02  0.41501661518E+01  0.50528855987E+02  0.29999988259E+02 0.  0.
        -12    1    1    2    0    0 -0.10006466545E+02  0.39189446794E+02 -0.41501661518E+01  0.40659144013E+02  0.00000000000E+00 0.  1.
         11    1    3    3    0    0  0.12479602741E+02 -0.18949560919E+02 -0.34953316809E+01  0.22957432073E+02  0.51100000000E-03 0. -1.
        -11    1    3    3    0    0  0.20285470529E+01 -0.17390227309E+02  0.11542439903E+02  0.20970525225E+02  0.51100000000E-03 0.  1.
        -12    1    3    3    0    0 -0.45016832484E+01 -0.28496585662E+01 -0.38969420704E+01  0.66008986898E+01  0.00000000000E+00 0.  1.
</event>
<event>
 7    1  0.2985411E-011  0.5052886E+02  0.7816164E-02  0.1300439E+00
        -11   -1    0    0    0    0  0.00000000000E+00  0.00000000000E+00  0.45593999997E+02  0.45594000000E+02  0.51100000000E-03 0.  1.
         11   -1    0    0    0    0 -0.00000000000E+00 -0.00000000000E+00 -0.45593999997E+02  0.45594000000E+02  0.51100000000E-03 0. -1.
    9900012    2    1    2    0    0 -0.39731068399E+02  0.79340069640E-02 -0.86375651936E+01  0.50528863369E+02  0.30000010697E+02 0.  0.
        -12    1    1    2    0    0  0.39731068399E+02 -0.79340069640E-02  0.86375651936E+01  0.40659136631E+02  0.00000000000E+00 0.  1.
         11    1    3    3    0    0 -0.22630526063E+02 -0.77882590521E+01 -0.14483311814E+01  0.23976975465E+02  0.51100000000E-03 0. -1.
        -11    1    3    3    0    0 -0.91921881148E+01 -0.41804542063E+01 -0.68379819485E+01  0.12195512170E+02  0.51100000000E-03 0.  1.
        -12    1    3    3    0    0 -0.79083542208E+01  0.11976647265E+02 -0.35125206361E+00  0.14356375734E+02  0.00000000000E+00 0.  1.
</event>
<event>
 7    1  0.2985411E-011  0.5052887E+02  0.7816164E-02  0.1300439E+00
        -11   -1    0    0    0    0  0.00000000000E+00  0.00000000000E+00  0.45593999997E+02  0.45594000000E+02  0.51100000000E-03 0.  1.
         11   -1    0    0    0    0 -0.00000000000E+00 -0.00000000000E+00 -0.45593999997E+02  0.45594000000E+02  0.51100000000E-03 0. -1.
    9900012    2    1    2    0    0 -0.10087161075E+02  0.34025522437E+02 -0.19841320700E+02  0.50528868151E+02  0.30000025230E+02 0.  0.
        -12    1    1    2    0    0  0.10087161075E+02 -0.34025522437E+02  0.19841320700E+02  0.40659131849E+02  0.00000000000E+00 0.  1.
         11    1    3    3    0    0  0.40450477910E+01  0.43720544002E+00  0.30273335503E+00  0.40798539157E+01  0.51100000000E-03 0. -1.
        -11    1    3    3    0    0 -0.57403990908E+01  0.37426356411E+01  0.32748695273E+01  0.75950163888E+01  0.51100000000E-03 0.  1.
         12    1    3    3    0    0 -0.83918097753E+01  0.29845681356E+02 -0.23418923582E+02  0.38853997846E+02  0.00000000000E+00 0. -1.
</event>
<event>
 7    1  0.2985411E-011  0.5052887E+02  0.7816164E-02  0.1300439E+00
        -11   -1    0    0    0    0  0.00000000000E+00  0.00000000000E+00  0.45593999997E+02  0.45594000000E+02  0.51100000000E-03 0. -1.
         11   -1    0    0    0    0 -0.00000000000E+00 -0.00000000000E+00 -0.45593999997E+02  0.45594000000E+02  0.51100000000E-03 0.  1.
    9900012    2    1    2    0    0 -0.23847329656E+02 -0.32260257056E+02  0.66140691347E+01  0.50528865386E+02  0.30000016828E+02 0.  0.
        -12    1    1    2    0    0  0.23847329656E+02  0.32260257056E+02 -0.66140691347E+01  0.40659134614E+02  0.00000000000E+00 0.  1.
         11    1    3    3    0    0 -0.23840037425E+02 -0.14192401904E+02  0.21282908573E+01  0.27826269575E+02  0.51100000000E-03 0. -1.
        -11    1    3    3    0    0 -0.58286907106E+01 -0.47961059953E+01  0.30431996371E+01  0.81386320971E+01  0.51100000000E-03 0.  1.
        -12    1    3    3    0    0  0.58213984794E+01 -0.13271749157E+02  0.14425786403E+01  0.14563963714E+02  0.00000000000E+00 0.  1.
</event>
<event>
 7    1  0.2985411E-011  0.5052885E+02  0.7816164E-02  0.1300439E+00
        -11   -1    0    0    0    0  0.00000000000E+00  0.00000000000E+00  0.45593999997E+02  0.45594000000E+02  0.51100000000E-03 0.  1.
         11   -1    0    0    0    0 -0.00000000000E+00 -0.00000000000E+00 -0.45593999997E+02  0.45594000000E+02  0.51100000000E-03 0. -1.
    9900012    2    1    2    0    0  0.10201899513E+01  0.27555297934E+02 -0.29880278583E+02  0.50528852444E+02  0.29999977488E+02 0.  0.
        -12    1    1    2    0    0 -0.10201899513E+01 -0.27555297934E+02  0.29880278583E+02  0.40659147556E+02  0.00000000000E+00 0.  1.
         11    1    3    3    0    0 -0.33158013156E+01  0.10033916725E+02 -0.73560377028E+01  0.12875764605E+02  0.51100000000E-03 0. -1.
        -11    1    3    3    0    0  0.28433016138E+01  0.17955676948E+02 -0.27205481793E+02  0.32720466662E+02  0.51100000000E-03 0.  1.
         12    1    3    3    0    0  0.14926896531E+01 -0.43429573947E+00  0.46812409127E+01  0.49326211766E+01  0.00000000000E+00 0. -1.
</event>
<event>
 7    1  0.2985411E-011  0.5052884E+02  0.7816164E-02  0.1300439E+00
        -11   -1    0    0    0    0  0.00000000000E+00  0.00000000000E+00  0.45593999997E+02  0.45594000000E+02  0.51100000000E-03 0.  1.
         11   -1    0    0    0    0 -0.00000000000E+00 -0.00000000000E+00 -0.45593999997E+02  0.45594000000E+02  0.51100000000E-03 0. -1.
    9900012    2    1    2    0    0 -0.98953049447E+00 -0.19278305419E+02 -0.35784561857E+02  0.50528842388E+02  0.29999946922E+02 0.  0.
        -12    1    1    2    0    0  0.98953049447E+00  0.19278305419E+02  0.35784561857E+02  0.40659157612E+02  0.00000000000E+00 0.  1.
         11    1    3    3    0    0 -0.65151861962E+01 -0.17940937901E+01 -0.97136541852E+01  0.11833068139E+02  0.51100000000E-03 0. -1.
        -11    1    3    3    0    0 -0.26742488024E+01 -0.42852169459E+01 -0.22083195675E+02  0.22653525607E+02  0.51100000000E-03 0.  1.
        -12    1    3    3    0    0  0.81999045041E+01 -0.13198994683E+02 -0.39877119968E+01  0.16042248642E+02  0.00000000000E+00 0.  1.
</event>
<event>
 7    1  0.2985411E-011  0.5052888E+02  0.7816164E-02  0.1300439E+00
        -11   -1    0    0    0    0  0.00000000000E+00  0.00000000000E+00  0.45593999997E+02  0.45594000000E+02  0.51100000000E-03 0. -1.
         11   -1    0    0    0    0 -0.00000000000E+00 -0.00000000000E+00 -0.45593999997E+02  0.45594000000E+02  0.51100000000E-03 0.  1.
    9900012    2    1    2    0    0  0.26669878935E+02 -0.26052158677E+02 -0.16222422430E+02  0.50528875518E+02  0.30000047625E+02 0.  0.
        -12    1    1    2    0    0 -0.26669878935E+02  0.26052158677E+02  0.16222422430E+02  0.40659124482E+02  0.00000000000E+00 0.  1.
         11    1    3    3    0    0  0.38414131614E+01 -0.18376916490E+02 -0.28873301724E+00  0.18776338348E+02  0.51100000000E-03 0. -1.
        -11    1    3    3    0    0  0.24766190654E+01 -0.22366122118E+01  0.21664186419E+01  0.39786236533E+01  0.51100000000E-03 0.  1.
        -12    1    3    3    0    0  0.20351846708E+02 -0.54386299750E+01 -0.18100108055E+02  0.27773913517E+02  0.00000000000E+00 0.  1.
</event>
<event>
 7    1  0.2985411E-011  0.5052885E+02  0.7816164E-02  0.1300439E+00
        -11   -1    0    0    0    0  0.00000000000E+00  0.00000000000E+00  0.45593999997E+02  0.45594000000E+02  0.51100000000E-03 0.  1.
         11   -1    0    0    0    0 -0.00000000000E+00 -0.00000000000E+00 -0.45593999997E+02  0.45594000000E+02  0.51100000000E-03 0. -1.
    9900012    2    1    2    0    0  0.68335846682E+01 -0.22441240291E+02 -0.33209328733E+02  0.50528847770E+02  0.29999963281E+02 0.  0.
        -12    1    1    2    0    0 -0.68335846682E+01  0.22441240291E+02  0.33209328733E+02  0.40659152230E+02  0.00000000000E+00 0.  1.
         11    1    3    3    0    0 -0.10766293342E+01 -0.45365492232E+01 -0.42333274734E+01  0.62976560192E+01  0.51100000000E-03 0. -1.
        -11    1    3    3    0    0 -0.21655344895E+01 -0.21177742473E+02 -0.12631501976E+02  0.24753608996E+02  0.51100000000E-03 0.  1.
        -12    1    3    3    0    0  0.10075748492E+02  0.32730514052E+01 -0.16344499283E+02  0.19477582755E+02  0.00000000000E+00 0.  1.
</event>
<event>
 7    1  0.2985411E-011  0.5052886E+02  0.7816164E-02  0.1300439E+00
        -11   -1    0    0    0    0  0.00000000000E+00  0.00000000000E+00  0.45593999997E+02  0.45594000000E+02  0.51100000000E-03 0. -1.
         11   -1    0    0    0    0 -0.00000000000E+00 -0.00000000000E+00 -0.45593999997E+02  0.45594000000E+02  0.51100000000E-03 0.  1.
    9900012    2    1    2    0    0 -0.39767496388E+02 -0.84667652039E+01  0.16047025761E+00  0.50528860404E+02  0.30000001683E+02 0.  0.
        -12    1    1    2    0    0  0.39767496388E+02  0.84667652039E+01 -0.16047025761E+00  0.40659139596E+02  0.00000000000E+00 0.  1.
         11    1    3    3    0    0 -0.27090562025E+02 -0.10152652374E+02 -0.59659942319E+01  0.29539261813E+02  0.51100000000E-03 0. -1.
        -11    1    3    3    0    0 -0.14495546404E+02 -0.20517639921E+01  0.14174397355E+01  0.14708491993E+02  0.51100000000E-03 0.  1.
        -12    1    3    3    0    0  0.18186120404E+01  0.37376511617E+01  0.47090247540E+01  0.62811065979E+01  0.00000000000E+00 0.  1.
</event>
<event>
 7    1  0.2985411E-011  0.5052886E+02  0.7816164E-02  0.1300439E+00
        -11   -1    0    0    0    0  0.00000000000E+00  0.00000000000E+00  0.45593999997E+02  0.45594000000E+02  0.51100000000E-03 0.  1.
         11   -1    0    0    0    0 -0.00000000000E+00 -0.00000000000E+00 -0.45593999997E+02  0.45594000000E+02  0.51100000000E-03 0. -1.
    9900012    2    1    2    0    0  0.21996276546E+02  0.23809105502E+01 -0.34112474602E+02  0.50528857850E+02  0.29999993920E+02 0.  0.
        -12    1    1    2    0    0 -0.21996276546E+02 -0.23809105502E+01  0.34112474602E+02  0.40659142150E+02  0.00000000000E+00 0.  1.
         11    1    3    3    0    0  0.12628224799E+02 -0.69689199365E+01 -0.21368443089E+02  0.25780773203E+02  0.51100000000E-03 0. -1.
        -11    1    3    3    0    0 -0.15786943320E+01  0.27617912350E+01 -0.11476318862E+02  0.11909057960E+02  0.51100000000E-03 0.  1.
        -12    1    3    3    0    0  0.10946746079E+02  0.65880392517E+01 -0.12677126515E+01  0.12839026687E+02  0.00000000000E+00 0.  1.
</event>
<event>
 7    1  0.2985411E-011  0.5052886E+02  0.7816164E-02  0.1300439E+00
        -11   -1    0    0    0    0  0.00000000000E+00  0.00000000000E+00  0.45593999997E+02  0.45594000000E+02  0.51100000000E-03 0. -1.
         11   -1    0    0    0    0 -0.00000000000E+00 -0.00000000000E+00 -0.45593999997E+02  0.45594000000E+02  0.51100000000E-03 0.  1.
    9900012    2    1    2    0    0 -0.32253592402E+02 -0.24731381394E+02 -0.11091544361E+01  0.50528859920E+02  0.30000000214E+02 0.  0.
        -12    1    1    2    0    0  0.32253592402E+02  0.24731381394E+02  0.11091544361E+01  0.40659140080E+02  0.00000000000E+00 0.  1.
         11    1    3    3    0    0 -0.87444652602E+01  0.14477562076E+01 -0.32189378569E+01  0.94299115537E+01  0.51100000000E-03 0. -1.
        -11    1    3    3    0    0 -0.84403370082E+01  0.23348550127E+01  0.11630336265E+01  0.88342223325E+01  0.51100000000E-03 0.  1.
         12    1    3    3    0    0 -0.15068790133E+02 -0.28513992614E+02  0.94674979430E+00  0.32264726034E+02  0.00000000000E+00 0. -1.
</event>
<event>
 7    1  0.2985411E-011  0.5052885E+02  0.7816164E-02  0.1300439E+00
        -11   -1    0    0    0    0  0.00000000000E+00  0.00000000000E+00  0.45593999997E+02  0.45594000000E+02  0.51100000000E-03 0.  1.
         11   -1    0    0    0    0 -0.00000000000E+00 -0.00000000000E+00 -0.45593999997E+02  0.45594000000E+02  0.51100000000E-03 0. -1.
    9900012    2    1    2    0    0  0.26646235261E+02  0.28656556411E+02 -0.11042932710E+02  0.50528850454E+02  0.29999971440E+02 0.  0.
        -12    1    1    2    0    0 -0.26646235261E+02 -0.28656556411E+02  0.11042932710E+02  0.40659149546E+02  0.00000000000E+00 0.  1.
         11    1    3    3    0    0  0.20313259615E+02  0.16926862797E+02 -0.47449128968E+01  0.26863756234E+02  0.51100000000E-03 0.  1.
        -11    1    3    3    0    0  0.36861317848E+01  0.15582035109E+02 -0.24043286048E+00  0.16013906266E+02  0.51100000000E-03 0. -1.
        -12    1    3    3    0    0  0.26468438617E+01 -0.38523414951E+01 -0.60575869523E+01  0.76511879540E+01  0.00000000000E+00 0.  1.
</event>
<event>
 7    1  0.2985411E-011  0.5052885E+02  0.7816164E-02  0.1300439E+00
        -11   -1    0    0    0    0  0.00000000000E+00  0.00000000000E+00  0.45593999997E+02  0.45594000000E+02  0.51100000000E-03 0.  1.
         11   -1    0    0    0    0 -0.00000000000E+00 -0.00000000000E+00 -0.45593999997E+02  0.45594000000E+02  0.51100000000E-03 0. -1.
    9900012    2    1    2    0    0 -0.23825558263E+02 -0.16413489806E+02 -0.28567575470E+02  0.50528852907E+02  0.29999978895E+02 0.  0.
        -12    1    1    2    0    0  0.23825558263E+02  0.16413489806E+02  0.28567575470E+02  0.40659147093E+02  0.00000000000E+00 0.  1.
         11    1    3    3    0    0 -0.13978140424E+02 -0.15960754226E+02 -0.72363434368E+01  0.22416483930E+02  0.51100000000E-03 0. -1.
        -11    1    3    3    0    0 -0.87899930339E+01 -0.32283629188E+01 -0.34395419397E+01  0.99758084227E+01  0.51100000000E-03 0.  1.
        -12    1    3    3    0    0 -0.10574248044E+01  0.27756273390E+01 -0.17891690093E+02  0.18136560554E+02  0.00000000000E+00 0.  1.
</event>
<event>
 7    1  0.2985411E-011  0.5052888E+02  0.7816164E-02  0.1300439E+00
        -11   -1    0    0    0    0  0.00000000000E+00  0.00000000000E+00  0.45593999997E+02  0.45594000000E+02  0.51100000000E-03 0.  1.
         11   -1    0    0    0    0 -0.00000000000E+00 -0.00000000000E+00 -0.45593999997E+02  0.45594000000E+02  0.51100000000E-03 0. -1.
    9900012    2    1    2    0    0 -0.12846740203E+02  0.38215982023E+02  0.52596606172E+01  0.50528879921E+02  0.30000061007E+02 0.  0.
        -12    1    1    2    0    0  0.12846740203E+02 -0.38215982023E+02 -0.52596606172E+01  0.40659120079E+02  0.00000000000E+00 0.  1.
         11    1    3    3    0    0 -0.43588296922E+01  0.13672042215E+02  0.95741771760E+01  0.17250768200E+02  0.51100000000E-03 0. -1.
        -11    1    3    3    0    0  0.43797310255E+01  0.12408413341E+02 -0.77338678581E+01  0.15263141151E+02  0.51100000000E-03 0.  1.
         12    1    3    3    0    0 -0.12867641536E+02  0.12135526466E+02  0.34193512993E+01  0.18014970570E+02  0.00000000000E+00 0. -1.
</event>
<event>
 7    1  0.2985411E-011  0.5052885E+02  0.7816164E-02  0.1300439E+00
        -11   -1    0    0    0    0  0.00000000000E+00  0.00000000000E+00  0.45593999997E+02  0.45594000000E+02  0.51100000000E-03 0. -1.
         11   -1    0    0    0    0 -0.00000000000E+00 -0.00000000000E+00 -0.45593999997E+02  0.45594000000E+02  0.51100000000E-03 0.  1.
    9900012    2    1    2    0    0 -0.65652694364E+01 -0.16019881979E+02  0.36788953998E+02  0.50528849521E+02  0.29999968605E+02 0.  0.
        -12    1    1    2    0    0  0.65652694364E+01  0.16019881979E+02 -0.36788953998E+02  0.40659150479E+02  0.00000000000E+00 0.  1.
         11    1    3    3    0    0 -0.81171140318E+01 -0.19686242736E+02  0.25161936150E+02  0.32962990221E+02  0.51100000000E-03 0. -1.
        -11    1    3    3    0    0 -0.49851682305E+00  0.19744845045E+01  0.13912145171E+02  0.14060401544E+02  0.51100000000E-03 0.  1.
        -12    1    3    3    0    0  0.20503614185E+01  0.16918762527E+01 -0.22851273221E+01  0.35054577560E+01  0.00000000000E+00 0.  1.
</event>
<event>
 7    1  0.2985411E-011  0.5052885E+02  0.7816164E-02  0.1300439E+00
        -11   -1    0    0    0    0  0.00000000000E+00  0.00000000000E+00  0.45593999997E+02  0.45594000000E+02  0.51100000000E-03 0.  1.
         11   -1    0    0    0    0 -0.00000000000E+00 -0.00000000000E+00 -0.45593999997E+02  0.45594000000E+02  0.51100000000E-03 0. -1.
    9900012    2    1    2    0    0 -0.24381915493E+02 -0.18649106296E+02 -0.26662691551E+02  0.50528854786E+02  0.29999984609E+02 0.  0.
        -12    1    1    2    0    0  0.24381915493E+02  0.18649106296E+02  0.26662691551E+02  0.40659145214E+02  0.00000000000E+00 0.  1.
         11    1    3    3    0    0 -0.47095853357E+01 -0.41996100608E+01 -0.10153317030E+02  0.11954361784E+02  0.51100000000E-03 0. -1.
        -11    1    3    3    0    0  0.45042743546E+01 -0.31058287999E+01 -0.95024540778E+01  0.10965003135E+02  0.51100000000E-03 0.  1.
         12    1    3    3    0    0 -0.24176604512E+02 -0.11343667435E+02 -0.70069204431E+01  0.27609489867E+02  0.00000000000E+00 0. -1.
</event>
<event>
 7    1  0.2985411E-011  0.5052888E+02  0.7816164E-02  0.1300439E+00
        -11   -1    0    0    0    0  0.00000000000E+00  0.00000000000E+00  0.45593999997E+02  0.45594000000E+02  0.51100000000E-03 0. -1.
         11   -1    0    0    0    0 -0.00000000000E+00 -0.00000000000E+00 -0.45593999997E+02  0.45594000000E+02  0.51100000000E-03 0.  1.
    9900012    2    1    2    0    0 -0.35705358338E+02 -0.43800086578E+01  0.18950126781E+02  0.50528875625E+02  0.30000047951E+02 0.  0.
        -12    1    1    2    0    0  0.35705358338E+02  0.43800086578E+01 -0.18950126781E+02  0.40659124375E+02  0.00000000000E+00 0.  1.
         11    1    3    3    0    0  0.25143593434E+01 -0.17709783396E+00  0.70508080682E+01  0.74878075046E+01  0.51100000000E-03 0. -1.
        -11    1    3    3    0    0 -0.90076491856E+00  0.15059665345E+01 -0.21351777253E+01  0.27637468808E+01  0.51100000000E-03 0.  1.
         12    1    3    3    0    0 -0.37318952763E+02 -0.57088773584E+01  0.14034496438E+02  0.40277321240E+02  0.00000000000E+00 0. -1.
</event>
<event>
 7    1  0.2985411E-011  0.5052885E+02  0.7816164E-02  0.1300439E+00
        -11   -1    0    0    0    0  0.00000000000E+00  0.00000000000E+00  0.45593999997E+02  0.45594000000E+02  0.51100000000E-03 0.  1.
         11   -1    0    0    0    0 -0.00000000000E+00 -0.00000000000E+00 -0.45593999997E+02  0.45594000000E+02  0.51100000000E-03 0. -1.
    9900012    2    1    2    0    0  0.34896482866E+01 -0.26860486220E+02 -0.30323311001E+02  0.50528849059E+02  0.29999967199E+02 0.  0.
        -12    1    1    2    0    0 -0.34896482866E+01  0.26860486220E+02  0.30323311001E+02  0.40659150941E+02  0.00000000000E+00 0.  1.
         11    1    3    3    0    0 -0.71338261786E+01 -0.97679962066E+01 -0.13031913419E+02  0.17780213538E+02  0.51100000000E-03 0. -1.
        -11    1    3    3    0    0 -0.51137261260E+01 -0.13965675376E+01 -0.15859697467E+01  0.55331632976E+01  0.51100000000E-03 0.  1.
        -12    1    3    3    0    0  0.15737200591E+02 -0.15695922476E+02 -0.15705427836E+02  0.27215472223E+02  0.00000000000E+00 0.  1.
</event>
<event>
 7    1  0.2985411E-011  0.5052886E+02  0.7816164E-02  0.1300439E+00
        -11   -1    0    0    0    0  0.00000000000E+00  0.00000000000E+00  0.45593999997E+02  0.45594000000E+02  0.51100000000E-03 0. -1.
         11   -1    0    0    0    0 -0.00000000000E+00 -0.00000000000E+00 -0.45593999997E+02  0.45594000000E+02  0.51100000000E-03 0.  1.
    9900012    2    1    2    0    0 -0.12328088884E+01  0.40100063765E+02  0.66053260783E+01  0.50528864934E+02  0.30000015453E+02 0.  0.
        -12    1    1    2    0    0  0.12328088884E+01 -0.40100063765E+02 -0.66053260783E+01  0.40659135066E+02  0.00000000000E+00 0.  1.
         11    1    3    3    0    0  0.16593734847E+01  0.48137595687E+01 -0.37995725627E+00  0.51058955458E+01  0.51100000000E-03 0. -1.
        -11    1    3    3    0    0 -0.11909408410E+02  0.32954770827E+02  0.83176912397E+01  0.36014370975E+02  0.51100000000E-03 0.  1.
        -12    1    3    3    0    0  0.90172260374E+01  0.23315333699E+01 -0.13324079051E+01  0.94085984126E+01  0.00000000000E+00 0.  1.
</event>
<event>
 7    1  0.2985411E-011  0.5052886E+02  0.7816164E-02  0.1300439E+00
        -11   -1    0    0    0    0  0.00000000000E+00  0.00000000000E+00  0.45593999997E+02  0.45594000000E+02  0.51100000000E-03 0.  1.
         11   -1    0    0    0    0 -0.00000000000E+00 -0.00000000000E+00 -0.45593999997E+02  0.45594000000E+02  0.51100000000E-03 0. -1.
    9900012    2    1    2    0    0 -0.82982964672E+01  0.15887364714E+02 -0.36495148834E+02  0.50528856253E+02  0.29999989066E+02 0.  0.
        -12    1    1    2    0    0  0.82982964672E+01 -0.15887364714E+02  0.36495148834E+02  0.40659143747E+02  0.00000000000E+00 0.  1.
         11    1    3    3    0    0 -0.47361450552E+01  0.76889248735E+01 -0.12356167985E+01  0.91146796339E+01  0.51100000000E-03 0. -1.
        -11    1    3    3    0    0  0.58187071976E+01  0.10547565635E+02 -0.19048603548E+02  0.22537918974E+02  0.51100000000E-03 0.  1.
        -12    1    3    3    0    0 -0.93808586096E+01 -0.23491257949E+01 -0.16210928488E+02  0.18876257645E+02  0.00000000000E+00 0.  1.
</event>
<event>
 7    1  0.2985411E-011  0.5052885E+02  0.7816164E-02  0.1300439E+00
        -11   -1    0    0    0    0  0.00000000000E+00  0.00000000000E+00  0.45593999997E+02  0.45594000000E+02  0.51100000000E-03 0.  1.
         11   -1    0    0    0    0 -0.00000000000E+00 -0.00000000000E+00 -0.45593999997E+02  0.45594000000E+02  0.51100000000E-03 0. -1.
    9900012    2    1    2    0    0  0.14670640964E+02 -0.15513394606E+02 -0.34601633795E+02  0.50528853676E+02  0.29999981233E+02 0.  0.
        -12    1    1    2    0    0 -0.14670640964E+02  0.15513394606E+02  0.34601633795E+02  0.40659146324E+02  0.00000000000E+00 0.  1.
         11    1    3    3    0    0  0.79969535803E+01 -0.13276735737E+00 -0.18812962326E+02  0.20442515635E+02  0.51100000000E-03 0. -1.
        -11    1    3    3    0    0  0.12318646210E+02 -0.44831413865E+01 -0.10155167558E+02  0.16582371047E+02  0.51100000000E-03 0.  1.
        -12    1    3    3    0    0 -0.56449588259E+01 -0.10897485862E+02 -0.56335039105E+01  0.13503966994E+02  0.00000000000E+00 0.  1.
</event>
<event>
 7    1  0.2985411E-011  0.5052885E+02  0.7816164E-02  0.1300439E+00
        -11   -1    0    0    0    0  0.00000000000E+00  0.00000000000E+00  0.45593999997E+02  0.45594000000E+02  0.51100000000E-03 0.  1.
         11   -1    0    0    0    0 -0.00000000000E+00 -0.00000000000E+00 -0.45593999997E+02  0.45594000000E+02  0.51100000000E-03 0. -1.
    9900012    2    1    2    0    0 -0.25073658728E+02 -0.31938737075E+02  0.20964710910E+01  0.50528849996E+02  0.29999970048E+02 0.  0.
        -12    1    1    2    0    0  0.25073658728E+02  0.31938737075E+02 -0.20964710910E+01  0.40659150004E+02  0.00000000000E+00 0.  1.
         11    1    3    3    0    0 -0.21594078600E+02 -0.11763732621E+02 -0.95420056210E+00  0.24608944202E+02  0.51100000000E-03 0. -1.
        -11    1    3    3    0    0 -0.33051370565E+01 -0.57475670288E+01  0.82492931927E+01  0.10583444437E+02  0.51100000000E-03 0.  1.
        -12    1    3    3    0    0 -0.17444307227E+00 -0.14427437426E+02 -0.51986215396E+01  0.15336461357E+02  0.00000000000E+00 0.  1.
</event>
<event>
 7    1  0.2985411E-011  0.5052886E+02  0.7816164E-02  0.1300439E+00
        -11   -1    0    0    0    0  0.00000000000E+00  0.00000000000E+00  0.45593999997E+02  0.45594000000E+02  0.51100000000E-03 0.  1.
         11   -1    0    0    0    0 -0.00000000000E+00 -0.00000000000E+00 -0.45593999997E+02  0.45594000000E+02  0.51100000000E-03 0. -1.
    9900012    2    1    2    0    0 -0.82160423156E+01 -0.77631174766E+01 -0.39056320908E+02  0.50528861456E+02  0.30000004881E+02 0.  0.
        -12    1    1    2    0    0  0.82160423156E+01  0.77631174766E+01  0.39056320908E+02  0.40659138544E+02  0.00000000000E+00 0.  1.
         11    1    3    3    0    0 -0.33166306648E+01  0.43382938381E+01 -0.65556268270E+00  0.55000540983E+01  0.51100000000E-03 0. -1.
        -11    1    3    3    0    0 -0.32439948234E+01 -0.16427238388E+02 -0.20148772228E+02  0.26198295480E+02  0.51100000000E-03 0.  1.
         12    1    3    3    0    0 -0.16554168274E+01  0.43258270732E+01 -0.18251985997E+02  0.18830511878E+02  0.00000000000E+00 0. -1.
</event>
<event>
 7    1  0.2985411E-011  0.5052886E+02  0.7816164E-02  0.1300439E+00
        -11   -1    0    0    0    0  0.00000000000E+00  0.00000000000E+00  0.45593999997E+02  0.45594000000E+02  0.51100000000E-03 0.  1.
         11   -1    0    0    0    0 -0.00000000000E+00 -0.00000000000E+00 -0.45593999997E+02  0.45594000000E+02  0.51100000000E-03 0. -1.
    9900012    2    1    2    0    0  0.14374044747E+02 -0.20940432178E+01 -0.37975884438E+02  0.50528856155E+02  0.29999988769E+02 0.  0.
        -12    1    1    2    0    0 -0.14374044747E+02  0.20940432178E+01  0.37975884438E+02  0.40659143845E+02  0.00000000000E+00 0.  1.
         11    1    3    3    0    0  0.10819190704E+02 -0.62643214611E+01 -0.18916545007E+02  0.22674485355E+02  0.51100000000E-03 0. -1.
        -11    1    3    3    0    0  0.67564655692E+01 -0.51857012095E+01 -0.14824762395E+02  0.17097219200E+02  0.51100000000E-03 0.  1.
        -12    1    3    3    0    0 -0.32016115258E+01  0.93559794528E+01 -0.42345770351E+01  0.10757151600E+02  0.00000000000E+00 0.  1.
</event>
<event>
 7    1  0.2985411E-011  0.5052887E+02  0.7816164E-02  0.1300439E+00
        -11   -1    0    0    0    0  0.00000000000E+00  0.00000000000E+00  0.45593999997E+02  0.45594000000E+02  0.51100000000E-03 0. -1.
         11   -1    0    0    0    0 -0.00000000000E+00 -0.00000000000E+00 -0.45593999997E+02  0.45594000000E+02  0.51100000000E-03 0.  1.
    9900012    2    1    2    0    0 -0.39371522024E+02  0.66624939969E+01  0.76589576633E+01  0.50528865661E+02  0.30000017662E+02 0.  0.
        -12    1    1    2    0    0  0.39371522024E+02 -0.66624939969E+01 -0.76589576633E+01  0.40659134339E+02  0.00000000000E+00 0.  1.
         11    1    3    3    0    0 -0.11525820551E+02  0.14354437476E+00  0.47296499283E+01  0.12459323138E+02  0.51100000000E-03 0. -1.
        -11    1    3    3    0    0 -0.10561139614E+02 -0.26303906467E+00  0.13155448048E+02  0.16872245645E+02  0.51100000000E-03 0.  1.
        -12    1    3    3    0    0 -0.17284561859E+02  0.67819886868E+01 -0.10226140313E+02  0.21197296877E+02  0.00000000000E+00 0.  1.
</event>
<event>
 7    1  0.2985411E-011  0.5052886E+02  0.7816164E-02  0.1300439E+00
        -11   -1    0    0    0    0  0.00000000000E+00  0.00000000000E+00  0.45593999997E+02  0.45594000000E+02  0.51100000000E-03 0.  1.
         11   -1    0    0    0    0 -0.00000000000E+00 -0.00000000000E+00 -0.45593999997E+02  0.45594000000E+02  0.51100000000E-03 0. -1.
    9900012    2    1    2    0    0 -0.19776893709E+02 -0.30315543068E+02  0.18520483796E+02  0.50528855932E+02  0.29999988091E+02 0.  0.
        -12    1    1    2    0    0  0.19776893709E+02  0.30315543068E+02 -0.18520483796E+02  0.40659144068E+02  0.00000000000E+00 0.  1.
         11    1    3    3    0    0 -0.11325854708E+02 -0.11876655441E+02 -0.12314470726E+01  0.16457411446E+02  0.51100000000E-03 0. -1.
        -11    1    3    3    0    0 -0.12687790242E+02 -0.81226436051E+01  0.56434467197E+01  0.16087443908E+02  0.51100000000E-03 0.  1.
         12    1    3    3    0    0  0.42367512416E+01 -0.10316244022E+02  0.14108484149E+02  0.17984000578E+02  0.00000000000E+00 0. -1.
</event>
<event>
 7    1  0.2985411E-011  0.5052886E+02  0.7816164E-02  0.1300439E+00
        -11   -1    0    0    0    0  0.00000000000E+00  0.00000000000E+00  0.45593999997E+02  0.45594000000E+02  0.51100000000E-03 0.  1.
         11   -1    0    0    0    0 -0.00000000000E+00 -0.00000000000E+00 -0.45593999997E+02  0.45594000000E+02  0.51100000000E-03 0. -1.
    9900012    2    1    2    0    0 -0.74331883088E+01 -0.22831109726E+02 -0.32812407079E+02  0.50528856894E+02  0.29999991015E+02 0.  0.
        -12    1    1    2    0    0  0.74331883088E+01  0.22831109726E+02  0.32812407079E+02  0.40659143106E+02  0.00000000000E+00 0.  1.
         11    1    3    3    0    0  0.64110080128E+01 -0.68949681538E+01 -0.23817152233E+01  0.97115486535E+01  0.51100000000E-03 0.  1.
        -11    1    3    3    0    0 -0.99103437344E+01 -0.19455189674E+02 -0.23118115923E+02  0.31798845927E+02  0.51100000000E-03 0. -1.
         12    1    3    3    0    0 -0.39338525873E+01  0.35190481020E+01 -0.73125759333E+01  0.90184623136E+01  0.00000000000E+00 0. -1.
</event>
<event>
 7    1  0.2985411E-011  0.5052886E+02  0.7816164E-02  0.1300439E+00
        -11   -1    0    0    0    0  0.00000000000E+00  0.00000000000E+00  0.45593999997E+02  0.45594000000E+02  0.51100000000E-03 0. -1.
         11   -1    0    0    0    0 -0.00000000000E+00 -0.00000000000E+00 -0.45593999997E+02  0.45594000000E+02  0.51100000000E-03 0.  1.
    9900012    2    1    2    0    0 -0.15527389125E+02 -0.87010099593E+01  0.36556239799E+02  0.50528855204E+02  0.29999985877E+02 0.  0.
        -12    1    1    2    0    0  0.15527389125E+02  0.87010099593E+01 -0.36556239799E+02  0.40659144796E+02  0.00000000000E+00 0.  1.
         11    1    3    3    0    0 -0.10293170760E+02 -0.11887038322E+02  0.29599415197E+02  0.33516808092E+02  0.51100000000E-03 0. -1.
        -11    1    3    3    0    0 -0.16555597963E+01  0.13754898821E+01  0.11064053568E+02  0.11271474272E+02  0.51100000000E-03 0.  1.
         12    1    3    3    0    0 -0.35786585682E+01  0.18105384809E+01 -0.41072289669E+01  0.57405728395E+01  0.00000000000E+00 0. -1.
</event>
<event>
 7    1  0.2985411E-011  0.5052886E+02  0.7816164E-02  0.1300439E+00
        -11   -1    0    0    0    0  0.00000000000E+00  0.00000000000E+00  0.45593999997E+02  0.45594000000E+02  0.51100000000E-03 0.  1.
         11   -1    0    0    0    0 -0.00000000000E+00 -0.00000000000E+00 -0.45593999997E+02  0.45594000000E+02  0.51100000000E-03 0. -1.
    9900012    2    1    2    0    0  0.19710454625E+02  0.34652604323E+02 -0.79912786158E+01  0.50528861521E+02  0.30000005080E+02 0.  0.
        -12    1    1    2    0    0 -0.19710454625E+02 -0.34652604323E+02  0.79912786158E+01  0.40659138479E+02  0.00000000000E+00 0.  1.
         11    1    3    3    0    0  0.18300877060E+02  0.21311034900E+02  0.22348600187E+01  0.28179370277E+02  0.51100000000E-03 0. -1.
        -11    1    3    3    0    0  0.32411287943E+01  0.12051088920E+02 -0.62995407846E+00  0.12495219182E+02  0.51100000000E-03 0.  1.
         12    1    3    3    0    0 -0.18315512287E+01  0.12904805041E+01 -0.95961845560E+01  0.98542720618E+01  0.00000000000E+00 0. -1.
</event>
<event>
 7    1  0.2985411E-011  0.5052886E+02  0.7816164E-02  0.1300439E+00
        -11   -1    0    0    0    0  0.00000000000E+00  0.00000000000E+00  0.45593999997E+02  0.45594000000E+02  0.51100000000E-03 0. -1.
         11   -1    0    0    0    0 -0.00000000000E+00 -0.00000000000E+00 -0.45593999997E+02  0.45594000000E+02  0.51100000000E-03 0.  1.
    9900012    2    1    2    0    0 -0.14591222744E+02  0.35000840862E+02  0.14669794254E+02  0.50528861966E+02  0.30000006431E+02 0.  0.
        -12    1    1    2    0    0  0.14591222744E+02 -0.35000840862E+02 -0.14669794254E+02  0.40659138034E+02  0.00000000000E+00 0.  1.
         11    1    3    3    0    0 -0.19321216995E+02  0.18860210167E+02  0.53619676763E+01  0.27527579831E+02  0.51100000000E-03 0. -1.
        -11    1    3    3    0    0  0.39714178231E+01  0.96714347549E+01 -0.13181406725E+01  0.10537851054E+02  0.51100000000E-03 0.  1.
        -12    1    3    3    0    0  0.75857642730E+00  0.64691959398E+01  0.10625967251E+02  0.12463431081E+02  0.00000000000E+00 0.  1.
</event>
<event>
 7    1  0.2985411E-011  0.5052885E+02  0.7816164E-02  0.1300439E+00
        -11   -1    0    0    0    0  0.00000000000E+00  0.00000000000E+00  0.45593999997E+02  0.45594000000E+02  0.51100000000E-03 0.  1.
         11   -1    0    0    0    0 -0.00000000000E+00 -0.00000000000E+00 -0.45593999997E+02  0.45594000000E+02  0.51100000000E-03 0. -1.
    9900012    2    1    2    0    0 -0.21511682924E+02 -0.30438890100E+02 -0.16244636975E+02  0.50528846502E+02  0.29999959427E+02 0.  0.
        -12    1    1    2    0    0  0.21511682924E+02  0.30438890100E+02  0.16244636975E+02  0.40659153498E+02  0.00000000000E+00 0.  1.
         11    1    3    3    0    0 -0.60572107024E+01 -0.56332951028E+01 -0.57530166701E+00  0.82918506666E+01  0.51100000000E-03 0. -1.
        -11    1    3    3    0    0 -0.12650274433E+02  0.10690540894E+01 -0.83714108024E+01  0.15206999670E+02  0.51100000000E-03 0.  1.
         12    1    3    3    0    0 -0.28041977882E+01 -0.25874649087E+02 -0.72979245054E+01  0.27029996165E+02  0.00000000000E+00 0. -1.
</event>
<event>
 7    1  0.2985411E-011  0.5052884E+02  0.7816164E-02  0.1300439E+00
        -11   -1    0    0    0    0  0.00000000000E+00  0.00000000000E+00  0.45593999997E+02  0.45594000000E+02  0.51100000000E-03 0. -1.
         11   -1    0    0    0    0 -0.00000000000E+00 -0.00000000000E+00 -0.45593999997E+02  0.45594000000E+02  0.51100000000E-03 0.  1.
    9900012    2    1    2    0    0 -0.35036185297E+02  0.17716350756E+00  0.20630106583E+02  0.50528844024E+02  0.29999951895E+02 0.  0.
        -12    1    1    2    0    0  0.35036185297E+02 -0.17716350756E+00 -0.20630106583E+02  0.40659155976E+02  0.00000000000E+00 0.  1.
         11    1    3    3    0    0  0.27853291853E+00 -0.18128683706E+01  0.36538899493E+01  0.40883963040E+01  0.51100000000E-03 0. -1.
        -11    1    3    3    0    0  0.25234691342E+01  0.15033336564E+01  0.65663679293E+01  0.71934064668E+01  0.51100000000E-03 0.  1.
        -12    1    3    3    0    0 -0.37838187349E+02  0.48669822182E+00  0.10409848705E+02  0.39247041253E+02  0.00000000000E+00 0.  1.
</event>
<event>
 7    1  0.2985411E-011  0.5052885E+02  0.7816164E-02  0.1300439E+00
        -11   -1    0    0    0    0  0.00000000000E+00  0.00000000000E+00  0.45593999997E+02  0.45594000000E+02  0.51100000000E-03 0.  1.
         11   -1    0    0    0    0 -0.00000000000E+00 -0.00000000000E+00 -0.45593999997E+02  0.45594000000E+02  0.51100000000E-03 0. -1.
    9900012    2    1    2    0    0  0.20604949329E+02  0.26865973517E+02 -0.22512702611E+02  0.50528852828E+02  0.29999978657E+02 0.  0.
        -12    1    1    2    0    0 -0.20604949329E+02 -0.26865973517E+02  0.22512702611E+02  0.40659147172E+02  0.00000000000E+00 0.  1.
         11    1    3    3    0    0  0.34928797295E+01  0.32017094450E+00  0.18846019812E+01  0.39817638212E+01  0.51100000000E-03 0. -1.
        -11    1    3    3    0    0 -0.57654479499E+01  0.20410991976E+01 -0.38715725102E+01  0.72384770470E+01  0.51100000000E-03 0.  1.
         12    1    3    3    0    0  0.22877517549E+02  0.24504703375E+02 -0.20525732082E+02  0.39308611960E+02  0.00000000000E+00 0. -1.
</event>
<event>
 7    1  0.2985411E-011  0.5052885E+02  0.7816164E-02  0.1300439E+00
        -11   -1    0    0    0    0  0.00000000000E+00  0.00000000000E+00  0.45593999997E+02  0.45594000000E+02  0.51100000000E-03 0.  1.
         11   -1    0    0    0    0 -0.00000000000E+00 -0.00000000000E+00 -0.45593999997E+02  0.45594000000E+02  0.51100000000E-03 0. -1.
    9900012    2    1    2    0    0 -0.33055178846E+02 -0.52716769232E+01 -0.23080970235E+02  0.50528848347E+02  0.29999965036E+02 0.  0.
        -12    1    1    2    0    0  0.33055178846E+02  0.52716769232E+01  0.23080970235E+02  0.40659151653E+02  0.00000000000E+00 0.  1.
         11    1    3    3    0    0 -0.20167338083E+02  0.53708298753E+01 -0.25580274351E+02  0.33013902754E+02  0.51100000000E-03 0. -1.
        -11    1    3    3    0    0 -0.66846021998E+01 -0.84074344535E+01  0.16446985492E+01  0.10866181217E+02  0.51100000000E-03 0.  1.
        -12    1    3    3    0    0 -0.62032385632E+01 -0.22350723451E+01  0.85460556696E+00  0.66487643765E+01  0.00000000000E+00 0.  1.
</event>
<event>
 7    1  0.2985411E-011  0.5052883E+02  0.7816164E-02  0.1300439E+00
        -11   -1    0    0    0    0  0.00000000000E+00  0.00000000000E+00  0.45593999997E+02  0.45594000000E+02  0.51100000000E-03 0.  1.
         11   -1    0    0    0    0 -0.00000000000E+00 -0.00000000000E+00 -0.45593999997E+02  0.45594000000E+02  0.51100000000E-03 0. -1.
    9900012    2    1    2    0    0 -0.53205966528E+01 -0.36993278756E+02 -0.16011132879E+02  0.50528833777E+02  0.29999920750E+02 0.  0.
        -12    1    1    2    0    0  0.53205966528E+01  0.36993278756E+02  0.16011132879E+02  0.40659166223E+02  0.00000000000E+00 0.  1.
         11    1    3    3    0    0  0.73580803845E+01 -0.20304306827E+02 -0.44658418014E+01  0.22053343645E+02  0.51100000000E-03 0. -1.
        -11    1    3    3    0    0  0.74934037783E+00  0.18399962399E+01  0.11612901822E+01  0.23012371266E+01  0.51100000000E-03 0.  1.
         12    1    3    3    0    0 -0.13428017415E+02 -0.18528968168E+02 -0.12706581260E+02  0.26174253006E+02  0.00000000000E+00 0. -1.
</event>
<event>
 7    1  0.2985411E-011  0.5052887E+02  0.7816164E-02  0.1300439E+00
        -11   -1    0    0    0    0  0.00000000000E+00  0.00000000000E+00  0.45593999997E+02  0.45594000000E+02  0.51100000000E-03 0. -1.
         11   -1    0    0    0    0 -0.00000000000E+00 -0.00000000000E+00 -0.45593999997E+02  0.45594000000E+02  0.51100000000E-03 0.  1.
    9900012    2    1    2    0    0  0.42597888676E+01 -0.38538901797E+02 -0.12238139319E+02  0.50528870559E+02  0.30000032552E+02 0.  0.
        -12    1    1    2    0    0 -0.42597888676E+01  0.38538901797E+02  0.12238139319E+02  0.40659129441E+02  0.00000000000E+00 0.  1.
         11    1    3    3    0    0 -0.38024757165E+01 -0.12183664525E+02 -0.13313317111E+02  0.18443018071E+02  0.51100000000E-03 0. -1.
        -11    1    3    3    0    0  0.10815306788E+02 -0.94105092601E+01 -0.24946472047E+01  0.14551694416E+02  0.51100000000E-03 0.  1.
         12    1    3    3    0    0 -0.27530422037E+01 -0.16944728012E+02  0.35698249968E+01  0.17534158072E+02  0.00000000000E+00 0. -1.
</event>
<event>
 7    1  0.2985411E-011  0.5052886E+02  0.7816164E-02  0.1300439E+00
        -11   -1    0    0    0    0  0.00000000000E+00  0.00000000000E+00  0.45593999997E+02  0.45594000000E+02  0.51100000000E-03 0.  1.
         11   -1    0    0    0    0 -0.00000000000E+00 -0.00000000000E+00 -0.45593999997E+02  0.45594000000E+02  0.51100000000E-03 0. -1.
    9900012    2    1    2    0    0 -0.10617345176E+02  0.39155668639E+02 -0.26965157390E+01  0.50528860778E+02  0.30000002821E+02 0.  0.
        -12    1    1    2    0    0  0.10617345176E+02 -0.39155668639E+02  0.26965157390E+01  0.40659139222E+02  0.00000000000E+00 0.  1.
         11    1    3    3    0    0  0.66783284227E+00  0.81198889670E+01  0.48816878122E+01  0.94978667973E+01  0.51100000000E-03 0. -1.
        -11    1    3    3    0    0  0.43363638672E+01  0.62425095099E+01  0.50458330151E+01  0.91232344948E+01  0.51100000000E-03 0.  1.
        -12    1    3    3    0    0 -0.15621541886E+02  0.24793270162E+02 -0.12624036566E+02  0.31907759486E+02  0.00000000000E+00 0.  1.
</event>
<event>
 7    1  0.2985411E-011  0.5052887E+02  0.7816164E-02  0.1300439E+00
        -11   -1    0    0    0    0  0.00000000000E+00  0.00000000000E+00  0.45593999997E+02  0.45594000000E+02  0.51100000000E-03 0. -1.
         11   -1    0    0    0    0 -0.00000000000E+00 -0.00000000000E+00 -0.45593999997E+02  0.45594000000E+02  0.51100000000E-03 0.  1.
    9900012    2    1    2    0    0 -0.31615102620E+01 -0.28341855339E+02  0.28981178040E+02  0.50528873204E+02  0.30000040591E+02 0.  0.
        -12    1    1    2    0    0  0.31615102620E+01  0.28341855339E+02 -0.28981178040E+02  0.40659126796E+02  0.00000000000E+00 0.  1.
         11    1    3    3    0    0 -0.78758524110E+01 -0.22351295630E+02  0.18244580414E+02  0.29907761238E+02  0.51100000000E-03 0. -1.
        -11    1    3    3    0    0 -0.44958319120E+01 -0.67254074113E+01  0.32073065897E+01  0.87023229801E+01  0.51100000000E-03 0.  1.
         12    1    3    3    0    0  0.92101740609E+01  0.73484770141E+00  0.75292910364E+01  0.11918788986E+02  0.00000000000E+00 0. -1.
</event>
<event>
 7    1  0.2985411E-011  0.5052886E+02  0.7816164E-02  0.1300439E+00
        -11   -1    0    0    0    0  0.00000000000E+00  0.00000000000E+00  0.45593999997E+02  0.45594000000E+02  0.51100000000E-03 0.  1.
         11   -1    0    0    0    0 -0.00000000000E+00 -0.00000000000E+00 -0.45593999997E+02  0.45594000000E+02  0.51100000000E-03 0. -1.
    9900012    2    1    2    0    0 -0.18779003168E+02  0.28462130754E+02 -0.22145474036E+02  0.50528857519E+02  0.29999992914E+02 0.  0.
        -12    1    1    2    0    0  0.18779003168E+02 -0.28462130754E+02  0.22145474036E+02  0.40659142481E+02  0.00000000000E+00 0.  1.
         11    1    3    3    0    0 -0.13415470751E+02  0.53582490138E+01 -0.85395626134E+01  0.16781234098E+02  0.51100000000E-03 0. -1.
        -11    1    3    3    0    0 -0.99388252686E+01  0.42895450401E+01 -0.83872277573E+01  0.13694014535E+02  0.51100000000E-03 0.  1.
        -12    1    3    3    0    0  0.45752928519E+01  0.18814336700E+02 -0.52186836657E+01  0.20053608886E+02  0.00000000000E+00 0.  1.
</event>
<event>
 7    1  0.2985411E-011  0.5052883E+02  0.7816164E-02  0.1300439E+00
        -11   -1    0    0    0    0  0.00000000000E+00  0.00000000000E+00  0.45593999997E+02  0.45594000000E+02  0.51100000000E-03 0.  1.
         11   -1    0    0    0    0 -0.00000000000E+00 -0.00000000000E+00 -0.45593999997E+02  0.45594000000E+02  0.51100000000E-03 0. -1.
    9900012    2    1    2    0    0  0.21719478299E+02  0.33714283492E+02  0.66917253982E+01  0.50528833287E+02  0.29999919260E+02 0.  0.
        -12    1    1    2    0    0 -0.21719478299E+02 -0.33714283492E+02 -0.66917253982E+01  0.40659166713E+02  0.00000000000E+00 0.  1.
         11    1    3    3    0    0  0.10067246567E+02  0.59726582898E+01  0.10597879548E+02  0.15790413283E+02  0.51100000000E-03 0. -1.
        -11    1    3    3    0    0  0.73565636204E+01  0.23595684192E+02  0.37829748531E+01  0.25003724518E+02  0.51100000000E-03 0.  1.
         12    1    3    3    0    0  0.42956681120E+01  0.41459410101E+01 -0.76891290025E+01  0.97346954860E+01  0.00000000000E+00 0. -1.
</event>
<event>
 7    1  0.2985411E-011  0.5052886E+02  0.7816164E-02  0.1300439E+00
        -11   -1    0    0    0    0  0.00000000000E+00  0.00000000000E+00  0.45593999997E+02  0.45594000000E+02  0.51100000000E-03 0.  1.
         11   -1    0    0    0    0 -0.00000000000E+00 -0.00000000000E+00 -0.45593999997E+02  0.45594000000E+02  0.51100000000E-03 0. -1.
    9900012    2    1    2    0    0  0.10419201596E+02 -0.31183058451E+02 -0.23921177825E+02  0.50528860255E+02  0.30000001231E+02 0.  0.
        -12    1    1    2    0    0 -0.10419201596E+02  0.31183058451E+02  0.23921177825E+02  0.40659139745E+02  0.00000000000E+00 0.  1.
         11    1    3    3    0    0  0.49973859901E+01 -0.23897092847E+02 -0.13906117524E+02  0.28096708315E+02  0.51100000000E-03 0. -1.
        -11    1    3    3    0    0 -0.50274628923E+01 -0.35081797999E+01  0.16229975815E+01  0.63416740734E+01  0.51100000000E-03 0.  1.
        -12    1    3    3    0    0  0.10449278498E+02 -0.37777858044E+01 -0.11638057882E+02  0.16090477867E+02  0.00000000000E+00 0.  1.
</event>
<event>
 7    1  0.2985411E-011  0.5052886E+02  0.7816164E-02  0.1300439E+00
        -11   -1    0    0    0    0  0.00000000000E+00  0.00000000000E+00  0.45593999997E+02  0.45594000000E+02  0.51100000000E-03 0. -1.
         11   -1    0    0    0    0 -0.00000000000E+00 -0.00000000000E+00 -0.45593999997E+02  0.45594000000E+02  0.51100000000E-03 0.  1.
    9900012    2    1    2    0    0 -0.34063864866E+02 -0.17122795052E+02  0.14129007364E+02  0.50528857743E+02  0.29999993595E+02 0.  0.
        -12    1    1    2    0    0  0.34063864866E+02  0.17122795052E+02 -0.14129007364E+02  0.40659142257E+02  0.00000000000E+00 0.  1.
         11    1    3    3    0    0 -0.15730254437E+02 -0.10235745979E+02 -0.57832528793E+01  0.19638162198E+02  0.51100000000E-03 0. -1.
        -11    1    3    3    0    0 -0.39455642859E+01  0.24071580625E+01  0.10203911418E+02  0.11201861272E+02  0.51100000000E-03 0.  1.
        -12    1    3    3    0    0 -0.14388046143E+02 -0.92942071361E+01  0.97083488257E+01  0.19688834273E+02  0.00000000000E+00 0.  1.
</event>
<event>
 7    1  0.2985411E-011  0.5052887E+02  0.7816164E-02  0.1300439E+00
        -11   -1    0    0    0    0  0.00000000000E+00  0.00000000000E+00  0.45593999997E+02  0.45594000000E+02  0.51100000000E-03 0.  1.
         11   -1    0    0    0    0 -0.00000000000E+00 -0.00000000000E+00 -0.45593999997E+02  0.45594000000E+02  0.51100000000E-03 0. -1.
    9900012    2    1    2    0    0  0.22827339895E+02 -0.27065040040E+02 -0.19989029572E+02  0.50528866434E+02  0.30000020013E+02 0.  0.
        -12    1    1    2    0    0 -0.22827339895E+02  0.27065040040E+02  0.19989029572E+02  0.40659133566E+02  0.00000000000E+00 0.  1.
         11    1    3    3    0    0  0.21135668273E+01 -0.33814771890E+01 -0.11360601852E+01  0.41463460684E+01  0.51100000000E-03 0. -1.
        -11    1    3    3    0    0 -0.41430432111E+01  0.21369689015E+01 -0.74191266812E+01  0.87621278299E+01  0.51100000000E-03 0.  1.
        -12    1    3    3    0    0  0.24856816279E+02 -0.25820531753E+02 -0.11433842706E+02  0.37620392536E+02  0.00000000000E+00 0.  1.
</event>
<event>
 7    1  0.2985411E-011  0.5052885E+02  0.7816164E-02  0.1300439E+00
        -11   -1    0    0    0    0  0.00000000000E+00  0.00000000000E+00  0.45593999997E+02  0.45594000000E+02  0.51100000000E-03 0.  1.
         11   -1    0    0    0    0 -0.00000000000E+00 -0.00000000000E+00 -0.45593999997E+02  0.45594000000E+02  0.51100000000E-03 0. -1.
    9900012    2    1    2    0    0  0.10477264446E+02 -0.23689248435E+02 -0.31340278206E+02  0.50528848512E+02  0.29999965538E+02 0.  0.
        -12    1    1    2    0    0 -0.10477264446E+02  0.23689248435E+02  0.31340278206E+02  0.40659151488E+02  0.00000000000E+00 0.  1.
         11    1    3    3    0    0  0.10303480695E+02 -0.99012778398E+01 -0.57388846227E+01  0.15399084852E+02  0.51100000000E-03 0. -1.
        -11    1    3    3    0    0  0.62993425709E+01  0.12512217410E+01 -0.24997304975E+01  0.68917287738E+01  0.51100000000E-03 0.  1.
         12    1    3    3    0    0 -0.61255588193E+01 -0.15039192336E+02 -0.23101663086E+02  0.28238034887E+02  0.00000000000E+00 0. -1.
</event>
<event>
 7    1  0.2985411E-011  0.5052883E+02  0.7816164E-02  0.1300439E+00
        -11   -1    0    0    0    0  0.00000000000E+00  0.00000000000E+00  0.45593999997E+02  0.45594000000E+02  0.51100000000E-03 0. -1.
         11   -1    0    0    0    0 -0.00000000000E+00 -0.00000000000E+00 -0.45593999997E+02  0.45594000000E+02  0.51100000000E-03 0.  1.
    9900012    2    1    2    0    0  0.13817217229E+02 -0.68918819383E+01  0.37613226829E+02  0.50528826852E+02  0.29999899698E+02 0.  0.
        -12    1    1    2    0    0 -0.13817217229E+02  0.68918819383E+01 -0.37613226829E+02  0.40659173148E+02  0.00000000000E+00 0.  1.
         11    1    3    3    0    0 -0.30318777959E+01 -0.45019762201E+01  0.20253498900E+02  0.20968173283E+02  0.51100000000E-03 0. -1.
        -11    1    3    3    0    0 -0.26694032549E+01 -0.73298035025E+00  0.67224530266E+01  0.72700996477E+01  0.51100000000E-03 0.  1.
         12    1    3    3    0    0  0.19518498280E+02 -0.16569253679E+01  0.10637274902E+02  0.22290553921E+02  0.00000000000E+00 0. -1.
</event>
<event>
 7    1  0.2985411E-011  0.5052886E+02  0.7816164E-02  0.1300439E+00
        -11   -1    0    0    0    0  0.00000000000E+00  0.00000000000E+00  0.45593999997E+02  0.45594000000E+02  0.51100000000E-03 0.  1.
         11   -1    0    0    0    0 -0.00000000000E+00 -0.00000000000E+00 -0.45593999997E+02  0.45594000000E+02  0.51100000000E-03 0. -1.
    9900012    2    1    2    0    0  0.11401866750E+02  0.26321069563E+02 -0.28816050327E+02  0.50528855583E+02  0.29999987029E+02 0.  0.
        -12    1    1    2    0    0 -0.11401866750E+02 -0.26321069563E+02  0.28816050327E+02  0.40659144417E+02  0.00000000000E+00 0.  1.
         11    1    3    3    0    0  0.20209178755E+00  0.20558482957E+01 -0.53577066868E+01  0.57421576527E+01  0.51100000000E-03 0. -1.
        -11    1    3    3    0    0  0.16625731705E+02  0.95035966906E+01 -0.21730837037E+02  0.28964850826E+02  0.51100000000E-03 0.  1.
        -12    1    3    3    0    0 -0.54259567426E+01  0.14761624577E+02 -0.17275066032E+01  0.15821847104E+02  0.00000000000E+00 0.  1.
</event>
<event>
 7    1  0.2985411E-011  0.5052886E+02  0.7816164E-02  0.1300439E+00
        -11   -1    0    0    0    0  0.00000000000E+00  0.00000000000E+00  0.45593999997E+02  0.45594000000E+02  0.51100000000E-03 0.  1.
         11   -1    0    0    0    0 -0.00000000000E+00 -0.00000000000E+00 -0.45593999997E+02  0.45594000000E+02  0.51100000000E-03 0. -1.
    9900012    2    1    2    0    0  0.37531935168E+02  0.95459661652E+01 -0.12385227945E+02  0.50528862051E+02  0.30000006691E+02 0.  0.
        -12    1    1    2    0    0 -0.37531935168E+02 -0.95459661652E+01  0.12385227945E+02  0.40659137949E+02  0.00000000000E+00 0.  1.
         11    1    3    3    0    0  0.13169042098E+02  0.14521673990E+02 -0.14500568188E+01  0.19657195891E+02  0.51100000000E-03 0. -1.
        -11    1    3    3    0    0  0.39873054186E+01 -0.18388832408E+01  0.35744565709E+01  0.56618756709E+01  0.51100000000E-03 0.  1.
         12    1    3    3    0    0  0.20375587652E+02 -0.31368245841E+01 -0.14509627697E+02  0.25209790490E+02  0.00000000000E+00 0. -1.
</event>
<event>
 7    1  0.2985411E-011  0.5052886E+02  0.7816164E-02  0.1300439E+00
        -11   -1    0    0    0    0  0.00000000000E+00  0.00000000000E+00  0.45593999997E+02  0.45594000000E+02  0.51100000000E-03 0. -1.
         11   -1    0    0    0    0 -0.00000000000E+00 -0.00000000000E+00 -0.45593999997E+02  0.45594000000E+02  0.51100000000E-03 0.  1.
    9900012    2    1    2    0    0  0.25752229064E+02 -0.31438922317E+02  0.12579616524E+01  0.50528860735E+02  0.30000002691E+02 0.  0.
        -12    1    1    2    0    0 -0.25752229064E+02  0.31438922317E+02 -0.12579616524E+01  0.40659139265E+02  0.00000000000E+00 0.  1.
         11    1    3    3    0    0  0.12871523739E+02 -0.67762712106E+01 -0.50406202919E+01  0.15394863691E+02  0.51100000000E-03 0. -1.
        -11    1    3    3    0    0  0.13348059386E+02 -0.12122834024E+02 -0.44936119165E+01  0.18582958388E+02  0.51100000000E-03 0.  1.
         12    1    3    3    0    0 -0.46735405988E+00 -0.12539817082E+02  0.10792193861E+02  0.16551038656E+02  0.00000000000E+00 0. -1.
</event>
<event>
 7    1  0.2985411E-011  0.5052886E+02  0.7816164E-02  0.1300439E+00
        -11   -1    0    0    0    0  0.00000000000E+00  0.00000000000E+00  0.45593999997E+02  0.45594000000E+02  0.51100000000E-03 0. -1.
         11   -1    0    0    0    0 -0.00000000000E+00 -0.00000000000E+00 -0.45593999997E+02  0.45594000000E+02  0.51100000000E-03 0.  1.
    9900012    2    1    2    0    0 -0.34886954104E+02 -0.53291716033E+00  0.20875385443E+02  0.50528864683E+02  0.30000014691E+02 0.  0.
        -12    1    1    2    0    0  0.34886954104E+02  0.53291716033E+00 -0.20875385443E+02  0.40659135317E+02  0.00000000000E+00 0.  1.
         11    1    3    3    0    0 -0.24035509179E+02  0.38764019797E+01  0.35455261326E+01  0.24602905309E+02  0.51100000000E-03 0. -1.
        -11    1    3    3    0    0 -0.13546059241E+02 -0.79651080122E+00  0.84986942228E+01  0.16011182160E+02  0.51100000000E-03 0.  1.
        -12    1    3    3    0    0  0.26946143165E+01 -0.36128083388E+01  0.88311650874E+01  0.99147772143E+01  0.00000000000E+00 0.  1.
</event>
<event>
 7    1  0.2985411E-011  0.5052886E+02  0.7816164E-02  0.1300439E+00
        -11   -1    0    0    0    0  0.00000000000E+00  0.00000000000E+00  0.45593999997E+02  0.45594000000E+02  0.51100000000E-03 0.  1.
         11   -1    0    0    0    0 -0.00000000000E+00 -0.00000000000E+00 -0.45593999997E+02  0.45594000000E+02  0.51100000000E-03 0. -1.
    9900012    2    1    2    0    0 -0.28482925448E+02  0.19712216392E+01 -0.28948277639E+02  0.50528861604E+02  0.30000005333E+02 0.  0.
        -12    1    1    2    0    0  0.28482925448E+02 -0.19712216392E+01  0.28948277639E+02  0.40659138396E+02  0.00000000000E+00 0.  1.
         11    1    3    3    0    0 -0.20498788697E+01 -0.66141426967E+01 -0.17950964088E+01  0.71534088636E+01  0.51100000000E-03 0. -1.
        -11    1    3    3    0    0 -0.16339944344E+02 -0.11454900216E+01 -0.23914303576E+02  0.28986200930E+02  0.51100000000E-03 0.  1.
        -12    1    3    3    0    0 -0.10093102234E+02  0.97308543575E+01 -0.32388776545E+01  0.14389251811E+02  0.00000000000E+00 0.  1.
</event>
<event>
 7    1  0.2985411E-011  0.5052885E+02  0.7816164E-02  0.1300439E+00
        -11   -1    0    0    0    0  0.00000000000E+00  0.00000000000E+00  0.45593999997E+02  0.45594000000E+02  0.51100000000E-03 0.  1.
         11   -1    0    0    0    0 -0.00000000000E+00 -0.00000000000E+00 -0.45593999997E+02  0.45594000000E+02  0.51100000000E-03 0. -1.
    9900012    2    1    2    0    0  0.63102850788E+01 -0.32085371004E+02  0.24163514799E+02  0.50528853702E+02  0.29999981313E+02 0.  0.
        -12    1    1    2    0    0 -0.63102850788E+01  0.32085371004E+02 -0.24163514799E+02  0.40659146298E+02  0.00000000000E+00 0.  1.
         11    1    3    3    0    0 -0.57827751878E+01 -0.73995970543E+01 -0.16803295680E+01  0.95403371616E+01  0.51100000000E-03 0. -1.
        -11    1    3    3    0    0  0.12816489310E+01 -0.26499088152E+01 -0.22335172551E+01  0.36950291340E+01  0.51100000000E-03 0.  1.
        -12    1    3    3    0    0  0.10811411336E+02 -0.22035865135E+02  0.28077361622E+02  0.37293487406E+02  0.00000000000E+00 0.  1.
</event>
<event>
 7    1  0.2985411E-011  0.5052886E+02  0.7816164E-02  0.1300439E+00
        -11   -1    0    0    0    0  0.00000000000E+00  0.00000000000E+00  0.45593999997E+02  0.45594000000E+02  0.51100000000E-03 0.  1.
         11   -1    0    0    0    0 -0.00000000000E+00 -0.00000000000E+00 -0.45593999997E+02  0.45594000000E+02  0.51100000000E-03 0. -1.
    9900012    2    1    2    0    0 -0.14607415835E+02  0.28335623043E+02 -0.25236509467E+02  0.50528861536E+02  0.30000005124E+02 0.  0.
        -12    1    1    2    0    0  0.14607415835E+02 -0.28335623043E+02  0.25236509467E+02  0.40659138464E+02  0.00000000000E+00 0.  1.
         11    1    3    3    0    0 -0.10398859987E+02 -0.19087661723E+01 -0.92788121413E+01  0.14066841591E+02  0.51100000000E-03 0.  1.
        -11    1    3    3    0    0 -0.22775296406E+01  0.76630620736E+01 -0.10416663570E+02  0.13130747953E+02  0.51100000000E-03 0. -1.
         12    1    3    3    0    0 -0.19310262077E+01  0.22581327141E+02 -0.55410337556E+01  0.23331271992E+02  0.00000000000E+00 0. -1.
</event>
<event>
 7    1  0.2985411E-011  0.5052886E+02  0.7816164E-02  0.1300439E+00
        -11   -1    0    0    0    0  0.00000000000E+00  0.00000000000E+00  0.45593999997E+02  0.45594000000E+02  0.51100000000E-03 0. -1.
         11   -1    0    0    0    0 -0.00000000000E+00 -0.00000000000E+00 -0.45593999997E+02  0.45594000000E+02  0.51100000000E-03 0.  1.
    9900012    2    1    2    0    0 -0.19855908602E+02  0.31964583462E+02  0.15400458241E+02  0.50528858146E+02  0.29999994819E+02 0.  0.
        -12    1    1    2    0    0  0.19855908602E+02 -0.31964583462E+02 -0.15400458241E+02  0.40659141854E+02  0.00000000000E+00 0.  1.
         11    1    3    3    0    0 -0.13835719695E+02  0.23495154619E+02  0.11302337643E+02  0.29515966298E+02  0.51100000000E-03 0. -1.
        -11    1    3    3    0    0 -0.11901253442E+02  0.25544707301E+01  0.14329602567E+01  0.12256366899E+02  0.51100000000E-03 0.  1.
         12    1    3    3    0    0  0.58810645346E+01  0.59149581131E+01  0.26651603416E+01  0.87565249492E+01  0.00000000000E+00 0. -1.
</event>
<event>
 7    1  0.2985411E-011  0.5052885E+02  0.7816164E-02  0.1300439E+00
        -11   -1    0    0    0    0  0.00000000000E+00  0.00000000000E+00  0.45593999997E+02  0.45594000000E+02  0.51100000000E-03 0.  1.
         11   -1    0    0    0    0 -0.00000000000E+00 -0.00000000000E+00 -0.45593999997E+02  0.45594000000E+02  0.51100000000E-03 0. -1.
    9900012    2    1    2    0    0 -0.86620866091E+01  0.39691140802E+02 -0.16576896338E+01  0.50528851737E+02  0.29999975339E+02 0.  0.
        -12    1    1    2    0    0  0.86620866091E+01 -0.39691140802E+02  0.16576896338E+01  0.40659148263E+02  0.00000000000E+00 0.  1.
         11    1    3    3    0    0  0.25612217958E+00  0.17653919471E+02  0.65997995235E+01  0.18848974118E+02  0.51100000000E-03 0. -1.
        -11    1    3    3    0    0  0.30462924934E+01  0.14123143492E+02  0.12000677516E+01  0.14497697849E+02  0.51100000000E-03 0.  1.
         12    1    3    3    0    0 -0.11964501282E+02  0.79140778381E+01 -0.94575569089E+01  0.17182179770E+02  0.00000000000E+00 0. -1.
</event>
<event>
 7    1  0.2985411E-011  0.5052894E+02  0.7816164E-02  0.1300439E+00
        -11   -1    0    0    0    0  0.00000000000E+00  0.00000000000E+00  0.45593999997E+02  0.45594000000E+02  0.51100000000E-03 0.  1.
         11   -1    0    0    0    0 -0.00000000000E+00 -0.00000000000E+00 -0.45593999997E+02  0.45594000000E+02  0.51100000000E-03 0. -1.
    9900012    2    1    2    0    0  0.34642245168E+02 -0.23022240086E+01 -0.21160663914E+02  0.50528940948E+02  0.30000246506E+02 0.  0.
        -12    1    1    2    0    0 -0.34642245168E+02  0.23022240086E+01  0.21160663914E+02  0.40659059052E+02  0.00000000000E+00 0.  1.
         11    1    3    3    0    0  0.21174994541E+02 -0.80236347650E+00 -0.16038304576E+02  0.26575390776E+02  0.51100000000E-03 0. -1.
        -11    1    3    3    0    0  0.17401935060E+02 -0.41375055677E+01 -0.64819940407E+01  0.19025313221E+02  0.51100000000E-03 0.  1.
        -12    1    3    3    0    0 -0.39346844332E+01  0.26376450356E+01  0.13596347026E+01  0.49282369512E+01  0.00000000000E+00 0.  1.
</event>
<event>
 7    1  0.2985411E-011  0.5052887E+02  0.7816164E-02  0.1300439E+00
        -11   -1    0    0    0    0  0.00000000000E+00  0.00000000000E+00  0.45593999997E+02  0.45594000000E+02  0.51100000000E-03 0.  1.
         11   -1    0    0    0    0 -0.00000000000E+00 -0.00000000000E+00 -0.45593999997E+02  0.45594000000E+02  0.51100000000E-03 0. -1.
    9900012    2    1    2    0    0  0.35247345989E+02  0.66089460049E+01 -0.19160151433E+02  0.50528868559E+02  0.30000026473E+02 0.  0.
        -12    1    1    2    0    0 -0.35247345989E+02 -0.66089460049E+01  0.19160151433E+02  0.40659131441E+02  0.00000000000E+00 0.  1.
         11    1    3    3    0    0  0.63765976810E+01  0.32911781498E+01 -0.17635325363E+01  0.73893774343E+01  0.51100000000E-03 0. -1.
        -11    1    3    3    0    0  0.13613161249E+02  0.14581071287E+02 -0.12542471622E+02  0.23563518280E+02  0.51100000000E-03 0.  1.
        -12    1    3    3    0    0  0.15257587059E+02 -0.11263303432E+02 -0.48541472745E+01  0.19575972845E+02  0.00000000000E+00 0.  1.
</event>
<event>
 7    1  0.2985411E-011  0.5052887E+02  0.7816164E-02  0.1300439E+00
        -11   -1    0    0    0    0  0.00000000000E+00  0.00000000000E+00  0.45593999997E+02  0.45594000000E+02  0.51100000000E-03 0.  1.
         11   -1    0    0    0    0 -0.00000000000E+00 -0.00000000000E+00 -0.45593999997E+02  0.45594000000E+02  0.51100000000E-03 0. -1.
    9900012    2    1    2    0    0 -0.22344381792E+02  0.37303298905E+01 -0.33763564063E+02  0.50528867976E+02  0.30000024699E+02 0.  0.
        -12    1    1    2    0    0  0.22344381792E+02 -0.37303298905E+01  0.33763564063E+02  0.40659132024E+02  0.00000000000E+00 0.  1.
         11    1    3    3    0    0 -0.25282500452E+01 -0.95777263323E+00 -0.40864964152E+01  0.48998806027E+01  0.51100000000E-03 0. -1.
        -11    1    3    3    0    0 -0.20776792398E+02  0.10410347345E+02 -0.10331615965E+02  0.25432119906E+02  0.51100000000E-03 0.  1.
         12    1    3    3    0    0  0.96066065164E+00 -0.57222448215E+01 -0.19345451683E+02  0.20196867467E+02  0.00000000000E+00 0. -1.
</event>
<event>
 7    1  0.2985411E-011  0.5052887E+02  0.7816164E-02  0.1300439E+00
        -11   -1    0    0    0    0  0.00000000000E+00  0.00000000000E+00  0.45593999997E+02  0.45594000000E+02  0.51100000000E-03 0.  1.
         11   -1    0    0    0    0 -0.00000000000E+00 -0.00000000000E+00 -0.45593999997E+02  0.45594000000E+02  0.51100000000E-03 0. -1.
    9900012    2    1    2    0    0 -0.23351531858E+02  0.32966324910E+01 -0.33121042048E+02  0.50528865082E+02  0.30000015904E+02 0.  0.
        -12    1    1    2    0    0  0.23351531858E+02 -0.32966324910E+01  0.33121042048E+02  0.40659134918E+02  0.00000000000E+00 0.  1.
         11    1    3    3    0    0  0.38462288117E+00  0.14239823698E+01 -0.40270711350E-01  0.14755617715E+01  0.51100000000E-03 0. -1.
        -11    1    3    3    0    0 -0.46021536311E+01  0.61905737056E+01  0.27627423559E+01  0.81936418298E+01  0.51100000000E-03 0.  1.
         12    1    3    3    0    0 -0.19134001108E+02 -0.43179235844E+01 -0.35843513693E+02  0.40859661481E+02  0.00000000000E+00 0. -1.
</event>
<event>
 7    1  0.2985411E-011  0.5052887E+02  0.7816164E-02  0.1300439E+00
        -11   -1    0    0    0    0  0.00000000000E+00  0.00000000000E+00  0.45593999997E+02  0.45594000000E+02  0.51100000000E-03 0.  1.
         11   -1    0    0    0    0 -0.00000000000E+00 -0.00000000000E+00 -0.45593999997E+02  0.45594000000E+02  0.51100000000E-03 0. -1.
    9900012    2    1    2    0    0 -0.10775759091E+02 -0.24482305914E+02 -0.30621310067E+02  0.50528869204E+02  0.30000028432E+02 0.  0.
        -12    1    1    2    0    0  0.10775759091E+02  0.24482305914E+02  0.30621310067E+02  0.40659130796E+02  0.00000000000E+00 0.  1.
         11    1    3    3    0    0  0.48055225846E+01 -0.64676826362E+01 -0.35098660202E+01  0.87888068436E+01  0.51100000000E-03 0. -1.
        -11    1    3    3    0    0  0.83953290758E+00 -0.26976690449E+01  0.30368696330E+01  0.41478682727E+01  0.51100000000E-03 0.  1.
         12    1    3    3    0    0 -0.16420814584E+02 -0.15316954233E+02 -0.30148313680E+02  0.37592194088E+02  0.00000000000E+00 0. -1.
</event>
<event>
 7    1  0.2985411E-011  0.5052886E+02  0.7816164E-02  0.1300439E+00
        -11   -1    0    0    0    0  0.00000000000E+00  0.00000000000E+00  0.45593999997E+02  0.45594000000E+02  0.51100000000E-03 0.  1.
         11   -1    0    0    0    0 -0.00000000000E+00 -0.00000000000E+00 -0.45593999997E+02  0.45594000000E+02  0.51100000000E-03 0. -1.
    9900012    2    1    2    0    0 -0.22713094598E+02  0.13935602817E+01 -0.33694786614E+02  0.50528864231E+02  0.30000013318E+02 0.  0.
        -12    1    1    2    0    0  0.22713094598E+02 -0.13935602817E+01  0.33694786614E+02  0.40659135769E+02  0.00000000000E+00 0.  1.
         11    1    3    3    0    0 -0.79251656599E+01 -0.45294921638E+01 -0.10194443231E+02  0.13683976872E+02  0.51100000000E-03 0. -1.
        -11    1    3    3    0    0 -0.18463798879E+02 -0.14350857403E+01 -0.21506712586E+02  0.28381508534E+02  0.51100000000E-03 0.  1.
        -12    1    3    3    0    0  0.36758699410E+01  0.73581381858E+01 -0.19936307972E+01  0.84633788253E+01  0.00000000000E+00 0.  1.
</event>
<event>
 7    1  0.2985411E-011  0.5052886E+02  0.7816164E-02  0.1300439E+00
        -11   -1    0    0    0    0  0.00000000000E+00  0.00000000000E+00  0.45593999997E+02  0.45594000000E+02  0.51100000000E-03 0. -1.
         11   -1    0    0    0    0 -0.00000000000E+00 -0.00000000000E+00 -0.45593999997E+02  0.45594000000E+02  0.51100000000E-03 0.  1.
    9900012    2    1    2    0    0  0.31426140252E+02 -0.21292260775E+02  0.14567191000E+02  0.50528859408E+02  0.29999998658E+02 0.  0.
        -12    1    1    2    0    0 -0.31426140252E+02  0.21292260775E+02 -0.14567191000E+02  0.40659140592E+02  0.00000000000E+00 0.  1.
         11    1    3    3    0    0  0.10072674075E+02 -0.10389266615E+02  0.15084808270E+02  0.20903278801E+02  0.51100000000E-03 0. -1.
        -11    1    3    3    0    0 -0.20184479925E+01 -0.42044819010E+01  0.22084646457E+01  0.51603407549E+01  0.51100000000E-03 0.  1.
         12    1    3    3    0    0  0.23371914170E+02 -0.66985122592E+01 -0.27260819163E+01  0.24465239853E+02  0.00000000000E+00 0. -1.
</event>
<event>
 7    1  0.2985411E-011  0.5052886E+02  0.7816164E-02  0.1300439E+00
        -11   -1    0    0    0    0  0.00000000000E+00  0.00000000000E+00  0.45593999997E+02  0.45594000000E+02  0.51100000000E-03 0.  1.
         11   -1    0    0    0    0 -0.00000000000E+00 -0.00000000000E+00 -0.45593999997E+02  0.45594000000E+02  0.51100000000E-03 0. -1.
    9900012    2    1    2    0    0 -0.31432540358E+01  0.31417815646E+02 -0.25616522785E+02  0.50528862952E+02  0.30000009429E+02 0.  0.
        -12    1    1    2    0    0  0.31432540358E+01 -0.31417815646E+02  0.25616522785E+02  0.40659137048E+02  0.00000000000E+00 0.  1.
         11    1    3    3    0    0 -0.12902740321E+01  0.31772188902E+01 -0.17027336561E+02  0.17369217529E+02  0.51100000000E-03 0. -1.
        -11    1    3    3    0    0  0.56273277697E+00 -0.16636282344E+01 -0.15520308660E+01  0.23437421255E+01  0.51100000000E-03 0.  1.
        -12    1    3    3    0    0 -0.24157127807E+01  0.29904224990E+02 -0.70371553580E+01  0.30815903297E+02  0.00000000000E+00 0.  1.
</event>
<event>
 7    1  0.2985411E-011  0.5052886E+02  0.7816164E-02  0.1300439E+00
        -11   -1    0    0    0    0  0.00000000000E+00  0.00000000000E+00  0.45593999997E+02  0.45594000000E+02  0.51100000000E-03 0.  1.
         11   -1    0    0    0    0 -0.00000000000E+00 -0.00000000000E+00 -0.45593999997E+02  0.45594000000E+02  0.51100000000E-03 0. -1.
    9900012    2    1    2    0    0 -0.31889694746E+02  0.17277820772E+02 -0.18376334067E+02  0.50528863568E+02  0.30000011303E+02 0.  0.
        -12    1    1    2    0    0  0.31889694746E+02 -0.17277820772E+02  0.18376334067E+02  0.40659136432E+02  0.00000000000E+00 0.  1.
         11    1    3    3    0    0 -0.19396308939E+02  0.88652560798E+01 -0.12624088472E+02  0.24782598246E+02  0.51100000000E-03 0. -1.
        -11    1    3    3    0    0 -0.15099981969E+02 -0.47924095117E+00 -0.65075594375E+01  0.16449542773E+02  0.51100000000E-03 0.  1.
        -12    1    3    3    0    0  0.26065961624E+01  0.88918056432E+01  0.75531384250E+00  0.92967225489E+01  0.00000000000E+00 0.  1.
</event>
<event>
 7    1  0.2985411E-011  0.5052886E+02  0.7816164E-02  0.1300439E+00
        -11   -1    0    0    0    0  0.00000000000E+00  0.00000000000E+00  0.45593999997E+02  0.45594000000E+02  0.51100000000E-03 0.  1.
         11   -1    0    0    0    0 -0.00000000000E+00 -0.00000000000E+00 -0.45593999997E+02  0.45594000000E+02  0.51100000000E-03 0. -1.
    9900012    2    1    2    0    0  0.22685512618E+02 -0.24192722675E+02 -0.23521161418E+02  0.50528863909E+02  0.30000012339E+02 0.  0.
        -12    1    1    2    0    0 -0.22685512618E+02  0.24192722675E+02  0.23521161418E+02  0.40659136091E+02  0.00000000000E+00 0.  1.
         11    1    3    3    0    0  0.96945705447E+01 -0.12421522492E+02 -0.15579351014E+02  0.22158409179E+02  0.51100000000E-03 0. -1.
        -11    1    3    3    0    0 -0.98342886346E+00 -0.79378545232E+01 -0.10960576869E+02  0.13568747633E+02  0.51100000000E-03 0.  1.
         12    1    3    3    0    0  0.13974370937E+02 -0.38333456598E+01  0.30187664651E+01  0.14801707097E+02  0.00000000000E+00 0. -1.
</event>
<event>
 7    1  0.2985411E-011  0.5052885E+02  0.7816164E-02  0.1300439E+00
        -11   -1    0    0    0    0  0.00000000000E+00  0.00000000000E+00  0.45593999997E+02  0.45594000000E+02  0.51100000000E-03 0.  1.
         11   -1    0    0    0    0 -0.00000000000E+00 -0.00000000000E+00 -0.45593999997E+02  0.45594000000E+02  0.51100000000E-03 0. -1.
    9900012    2    1    2    0    0 -0.39773927052E+02 -0.20682820618E+01 -0.81806612408E+01  0.50528852417E+02  0.29999977406E+02 0.  0.
        -12    1    1    2    0    0  0.39773927052E+02  0.20682820618E+01  0.81806612408E+01  0.40659147583E+02  0.00000000000E+00 0.  1.
         11    1    3    3    0    0 -0.53360938814E+01  0.32107402589E+01 -0.19031551759E+01  0.65118930279E+01  0.51100000000E-03 0. -1.
        -11    1    3    3    0    0 -0.13966814698E+01  0.63453510912E+01  0.38545920726E+01  0.75546065355E+01  0.51100000000E-03 0.  1.
         12    1    3    3    0    0 -0.33041151701E+02 -0.11624373412E+02 -0.10132098138E+02  0.36462352854E+02  0.00000000000E+00 0. -1.
</event>
<event>
 7    1  0.2985411E-011  0.5052886E+02  0.7816164E-02  0.1300439E+00
        -11   -1    0    0    0    0  0.00000000000E+00  0.00000000000E+00  0.45593999997E+02  0.45594000000E+02  0.51100000000E-03 0. -1.
         11   -1    0    0    0    0 -0.00000000000E+00 -0.00000000000E+00 -0.45593999997E+02  0.45594000000E+02  0.51100000000E-03 0.  1.
    9900012    2    1    2    0    0 -0.27643517244E+02 -0.43482997295E+01  0.29497356024E+02  0.50528858733E+02  0.29999996605E+02 0.  0.
        -12    1    1    2    0    0  0.27643517244E+02  0.43482997295E+01 -0.29497356024E+02  0.40659141267E+02  0.00000000000E+00 0.  1.
         11    1    3    3    0    0 -0.88364648259E+01  0.91879397699E+01  0.36009385032E+01  0.13246437491E+02  0.51100000000E-03 0. -1.
        -11    1    3    3    0    0 -0.54383271713E+00 -0.94944522256E+00 -0.16103858894E+01  0.19469317473E+01  0.51100000000E-03 0.  1.
         12    1    3    3    0    0 -0.18263219701E+02 -0.12586794277E+02  0.27506803410E+02  0.35335489495E+02  0.00000000000E+00 0. -1.
</event>
<event>
 7    1  0.2985411E-011  0.5052895E+02  0.7816164E-02  0.1300438E+00
        -11   -1    0    0    0    0  0.00000000000E+00  0.00000000000E+00  0.45593999997E+02  0.45594000000E+02  0.51100000000E-03 0.  1.
         11   -1    0    0    0    0 -0.00000000000E+00 -0.00000000000E+00 -0.45593999997E+02  0.45594000000E+02  0.51100000000E-03 0. -1.
    9900012    2    1    2    0    0 -0.18939991102E+00  0.10378889098E+02 -0.39311588899E+02  0.50528951400E+02  0.30000278276E+02 0.  0.
        -12    1    1    2    0    0  0.18939991102E+00 -0.10378889098E+02  0.39311588899E+02  0.40659048600E+02  0.00000000000E+00 0.  1.
         11    1    3    3    0    0  0.51022117541E+01 -0.33771562072E+01 -0.24849987483E+01  0.66040114984E+01  0.51100000000E-03 0.  1.
        -11    1    3    3    0    0 -0.10169939905E+02  0.21692619032E+01 -0.22975682879E+02  0.25219345331E+02  0.51100000000E-03 0. -1.
         12    1    3    3    0    0  0.48783282401E+01  0.11586783402E+02 -0.13850907272E+02  0.18705594571E+02  0.00000000000E+00 0. -1.
</event>
<event>
 7    1  0.2985411E-011  0.5052885E+02  0.7816164E-02  0.1300439E+00
        -11   -1    0    0    0    0  0.00000000000E+00  0.00000000000E+00  0.45593999997E+02  0.45594000000E+02  0.51100000000E-03 0. -1.
         11   -1    0    0    0    0 -0.00000000000E+00 -0.00000000000E+00 -0.45593999997E+02  0.45594000000E+02  0.51100000000E-03 0.  1.
    9900012    2    1    2    0    0  0.23928156255E+02  0.28194487220E+02  0.16902082535E+02  0.50528853853E+02  0.29999981773E+02 0.  0.
        -12    1    1    2    0    0 -0.23928156255E+02 -0.28194487220E+02 -0.16902082535E+02  0.40659146147E+02  0.00000000000E+00 0.  1.
         11    1    3    3    0    0  0.85942587198E+01  0.14573266552E+02  0.99501870735E+01  0.19627725390E+02  0.51100000000E-03 0. -1.
        -11    1    3    3    0    0  0.50126804864E+01 -0.18092765241E+01  0.10707961674E+02  0.11960806439E+02  0.51100000000E-03 0.  1.
        -12    1    3    3    0    0  0.10321217049E+02  0.15430497192E+02 -0.37560662131E+01  0.18940322024E+02  0.00000000000E+00 0.  1.
</event>
<event>
 7    1  0.2985411E-011  0.5052886E+02  0.7816164E-02  0.1300439E+00
        -11   -1    0    0    0    0  0.00000000000E+00  0.00000000000E+00  0.45593999997E+02  0.45594000000E+02  0.51100000000E-03 0. -1.
         11   -1    0    0    0    0 -0.00000000000E+00 -0.00000000000E+00 -0.45593999997E+02  0.45594000000E+02  0.51100000000E-03 0.  1.
    9900012    2    1    2    0    0  0.23154151402E+02  0.23648461227E+02  0.23617821964E+02  0.50528856381E+02  0.29999989456E+02 0.  0.
        -12    1    1    2    0    0 -0.23154151402E+02 -0.23648461227E+02 -0.23617821964E+02  0.40659143619E+02  0.00000000000E+00 0.  1.
         11    1    3    3    0    0  0.10385916058E+02  0.10842639830E+02  0.63851461480E+01  0.16315642262E+02  0.51100000000E-03 0. -1.
        -11    1    3    3    0    0  0.19325509886E+02  0.12275831657E+02  0.12291795747E+02  0.25985757987E+02  0.51100000000E-03 0.  1.
         12    1    3    3    0    0 -0.65572745421E+01  0.52998974011E+00  0.49408800681E+01  0.82274561313E+01  0.00000000000E+00 0. -1.
</event>
<event>
 7    1  0.2985411E-011  0.5052886E+02  0.7816164E-02  0.1300439E+00
        -11   -1    0    0    0    0  0.00000000000E+00  0.00000000000E+00  0.45593999997E+02  0.45594000000E+02  0.51100000000E-03 0. -1.
         11   -1    0    0    0    0 -0.00000000000E+00 -0.00000000000E+00 -0.45593999997E+02  0.45594000000E+02  0.51100000000E-03 0.  1.
    9900012    2    1    2    0    0  0.29149449173E+02  0.28339940523E+02  0.56806702279E+00  0.50528864297E+02  0.30000013518E+02 0.  0.
        -12    1    1    2    0    0 -0.29149449173E+02 -0.28339940523E+02 -0.56806702279E+00  0.40659135703E+02  0.00000000000E+00 0.  1.
         11    1    3    3    0    0  0.22531922949E+02  0.53623275114E+01 -0.19317419932E+01  0.23241637970E+02  0.51100000000E-03 0.  1.
        -11    1    3    3    0    0  0.74940732155E+01  0.46893901634E+01  0.13399610984E+01  0.89413091586E+01  0.51100000000E-03 0. -1.
        -12    1    3    3    0    0 -0.87654699142E+00  0.18288222848E+02  0.11598479175E+01  0.18345917169E+02  0.00000000000E+00 0.  1.
</event>
<event>
 7    1  0.2985411E-011  0.5052885E+02  0.7816164E-02  0.1300439E+00
        -11   -1    0    0    0    0  0.00000000000E+00  0.00000000000E+00  0.45593999997E+02  0.45594000000E+02  0.51100000000E-03 0.  1.
         11   -1    0    0    0    0 -0.00000000000E+00 -0.00000000000E+00 -0.45593999997E+02  0.45594000000E+02  0.51100000000E-03 0. -1.
    9900012    2    1    2    0    0  0.37144366675E+02 -0.14863512704E+02 -0.72483450622E+01  0.50528849840E+02  0.29999969574E+02 0.  0.
        -12    1    1    2    0    0 -0.37144366675E+02  0.14863512704E+02  0.72483450622E+01  0.40659150160E+02  0.00000000000E+00 0.  1.
         11    1    3    3    0    0  0.14972637405E+02 -0.16090861726E+02 -0.25970774800E+01  0.22132340899E+02  0.51100000000E-03 0. -1.
        -11    1    3    3    0    0 -0.15810553269E+01  0.28192788580E+01 -0.31966204537E+01  0.45460369347E+01  0.51100000000E-03 0.  1.
         12    1    3    3    0    0  0.23752784596E+02 -0.15919298361E+01 -0.14546471284E+01  0.23850472007E+02  0.00000000000E+00 0. -1.
</event>
<event>
 7    1  0.2985411E-011  0.5052886E+02  0.7816164E-02  0.1300439E+00
        -11   -1    0    0    0    0  0.00000000000E+00  0.00000000000E+00  0.45593999997E+02  0.45594000000E+02  0.51100000000E-03 0. -1.
         11   -1    0    0    0    0 -0.00000000000E+00 -0.00000000000E+00 -0.45593999997E+02  0.45594000000E+02  0.51100000000E-03 0.  1.
    9900012    2    1    2    0    0 -0.54831478851E+01 -0.24240319821E+02  0.32179309232E+02  0.50528856398E+02  0.29999989509E+02 0.  0.
        -12    1    1    2    0    0  0.54831478851E+01  0.24240319821E+02 -0.32179309232E+02  0.40659143602E+02  0.00000000000E+00 0.  1.
         11    1    3    3    0    0  0.39117000215E+01 -0.91159031842E+01  0.99812688774E+01  0.14072200133E+02  0.51100000000E-03 0. -1.
        -11    1    3    3    0    0  0.58307865827E+01 -0.10528251998E+02  0.50011676403E+01  0.13032798638E+02  0.51100000000E-03 0.  1.
        -12    1    3    3    0    0 -0.15225634489E+02 -0.45961646387E+01  0.17196872714E+02  0.23423857627E+02  0.00000000000E+00 0.  1.
</event>
<event>
 7    1  0.2985411E-011  0.5052886E+02  0.7816164E-02  0.1300439E+00
        -11   -1    0    0    0    0  0.00000000000E+00  0.00000000000E+00  0.45593999997E+02  0.45594000000E+02  0.51100000000E-03 0.  1.
         11   -1    0    0    0    0 -0.00000000000E+00 -0.00000000000E+00 -0.45593999997E+02  0.45594000000E+02  0.51100000000E-03 0. -1.
    9900012    2    1    2    0    0 -0.21663350052E+00  0.25638796472E+02 -0.31555831581E+02  0.50528864232E+02  0.30000013321E+02 0.  0.
        -12    1    1    2    0    0  0.21663350052E+00 -0.25638796472E+02  0.31555831581E+02  0.40659135768E+02  0.00000000000E+00 0.  1.
         11    1    3    3    0    0  0.74386903557E+01  0.20482373280E+02 -0.29327563436E+02  0.36537209892E+02  0.51100000000E-03 0. -1.
        -11    1    3    3    0    0  0.19738546797E+01 -0.65826169678E+00 -0.17732446883E+01  0.27338265753E+01  0.51100000000E-03 0.  1.
        -12    1    3    3    0    0 -0.96291785359E+01  0.58146848888E+01 -0.45502345688E+00  0.11257827765E+02  0.00000000000E+00 0.  1.
</event>
<event>
 7    1  0.2985411E-011  0.5052886E+02  0.7816164E-02  0.1300439E+00
        -11   -1    0    0    0    0  0.00000000000E+00  0.00000000000E+00  0.45593999997E+02  0.45594000000E+02  0.51100000000E-03 0.  1.
         11   -1    0    0    0    0 -0.00000000000E+00 -0.00000000000E+00 -0.45593999997E+02  0.45594000000E+02  0.51100000000E-03 0. -1.
    9900012    2    1    2    0    0  0.32979383256E+02 -0.10577623130E+02 -0.21298825412E+02  0.50528858408E+02  0.29999995617E+02 0.  0.
        -12    1    1    2    0    0 -0.32979383256E+02  0.10577623130E+02  0.21298825412E+02  0.40659141592E+02  0.00000000000E+00 0.  1.
         11    1    3    3    0    0  0.12522585451E+02 -0.40631336263E+01 -0.17057944356E+02  0.21547567547E+02  0.51100000000E-03 0. -1.
        -11    1    3    3    0    0  0.16523813260E+02 -0.26915695369E+01 -0.11183630080E+02  0.20133418320E+02  0.51100000000E-03 0.  1.
        -12    1    3    3    0    0  0.39329845446E+01 -0.38229199665E+01  0.69427490238E+01  0.88478725412E+01  0.00000000000E+00 0.  1.
</event>
<event>
 7    1  0.2985411E-011  0.5052883E+02  0.7816164E-02  0.1300439E+00
        -11   -1    0    0    0    0  0.00000000000E+00  0.00000000000E+00  0.45593999997E+02  0.45594000000E+02  0.51100000000E-03 0. -1.
         11   -1    0    0    0    0 -0.00000000000E+00 -0.00000000000E+00 -0.45593999997E+02  0.45594000000E+02  0.51100000000E-03 0.  1.
    9900012    2    1    2    0    0 -0.37000540361E+02  0.16179877252E+02 -0.47264540662E+01  0.50528833962E+02  0.29999921311E+02 0.  0.
        -12    1    1    2    0    0  0.37000540361E+02 -0.16179877252E+02  0.47264540662E+01  0.40659166038E+02  0.00000000000E+00 0.  1.
         11    1    3    3    0    0 -0.37723291457E+01  0.71003468070E+00 -0.57143216034E+01  0.68839006442E+01  0.51100000000E-03 0.  1.
        -11    1    3    3    0    0 -0.24179162624E+02  0.27354093264E+01 -0.80087316635E+01  0.25617457963E+02  0.51100000000E-03 0. -1.
        -12    1    3    3    0    0 -0.90490485907E+01  0.12734433245E+02  0.89965992007E+01  0.18027475354E+02  0.00000000000E+00 0.  1.
</event>
<event>
 7    1  0.2985411E-011  0.5052885E+02  0.7816164E-02  0.1300439E+00
        -11   -1    0    0    0    0  0.00000000000E+00  0.00000000000E+00  0.45593999997E+02  0.45594000000E+02  0.51100000000E-03 0. -1.
         11   -1    0    0    0    0 -0.00000000000E+00 -0.00000000000E+00 -0.45593999997E+02  0.45594000000E+02  0.51100000000E-03 0.  1.
    9900012    2    1    2    0    0  0.33927407136E+02  0.22241458205E+02 -0.27230003081E+01  0.50528854058E+02  0.29999982395E+02 0.  0.
        -12    1    1    2    0    0 -0.33927407136E+02 -0.22241458205E+02  0.27230003081E+01  0.40659145942E+02  0.00000000000E+00 0.  1.
         11    1    3    3    0    0  0.17945458605E+02  0.18356707672E+02 -0.44358419590E+01  0.26051581435E+02  0.51100000000E-03 0. -1.
        -11    1    3    3    0    0 -0.18919241061E+01  0.83090837457E+00 -0.47875545481E+01  0.52144476564E+01  0.51100000000E-03 0.  1.
         12    1    3    3    0    0  0.17873872637E+02  0.30538421584E+01  0.65003961989E+01  0.19262824967E+02  0.00000000000E+00 0. -1.
</event>
<event>
 7    1  0.2985411E-011  0.5052884E+02  0.7816164E-02  0.1300439E+00
        -11   -1    0    0    0    0  0.00000000000E+00  0.00000000000E+00  0.45593999997E+02  0.45594000000E+02  0.51100000000E-03 0.  1.
         11   -1    0    0    0    0 -0.00000000000E+00 -0.00000000000E+00 -0.45593999997E+02  0.45594000000E+02  0.51100000000E-03 0. -1.
    9900012    2    1    2    0    0 -0.11452669340E+02  0.77649840818E+00 -0.39005133897E+02  0.50528842912E+02  0.29999948515E+02 0.  0.
        -12    1    1    2    0    0  0.11452669340E+02 -0.77649840818E+00  0.39005133897E+02  0.40659157088E+02  0.00000000000E+00 0.  1.
         11    1    3    3    0    0 -0.82742240927E+01  0.75592564326E+01 -0.31676710615E+02  0.33600880015E+02  0.51100000000E-03 0. -1.
        -11    1    3    3    0    0 -0.17217268325E+00  0.22218779755E+01 -0.70897448291E+01  0.74317472491E+01  0.51100000000E-03 0.  1.
        -12    1    3    3    0    0 -0.30062725641E+01 -0.90046360000E+01 -0.23867845274E+00  0.94962156476E+01  0.00000000000E+00 0.  1.
</event>
<event>
 7    1  0.2985411E-011  0.5052886E+02  0.7816164E-02  0.1300439E+00
        -11   -1    0    0    0    0  0.00000000000E+00  0.00000000000E+00  0.45593999997E+02  0.45594000000E+02  0.51100000000E-03 0. -1.
         11   -1    0    0    0    0 -0.00000000000E+00 -0.00000000000E+00 -0.45593999997E+02  0.45594000000E+02  0.51100000000E-03 0.  1.
    9900012    2    1    2    0    0 -0.13584903113E+02 -0.26306919247E+02 -0.27866865332E+02  0.50528858638E+02  0.29999996317E+02 0.  0.
        -12    1    1    2    0    0  0.13584903113E+02  0.26306919247E+02  0.27866865332E+02  0.40659141362E+02  0.00000000000E+00 0.  1.
         11    1    3    3    0    0 -0.65652878714E+01 -0.12828713306E+02 -0.66963809785E+01  0.15890890737E+02  0.51100000000E-03 0. -1.
        -11    1    3    3    0    0  0.34253161100E+01 -0.13378667116E+02 -0.37238002468E+01  0.14303433601E+02  0.51100000000E-03 0.  1.
        -12    1    3    3    0    0 -0.10444931351E+02 -0.99538825397E-01 -0.17446684106E+02  0.20334534301E+02  0.00000000000E+00 0.  1.
</event>
<event>
 7    1  0.2985411E-011  0.5052880E+02  0.7816164E-02  0.1300439E+00
        -11   -1    0    0    0    0  0.00000000000E+00  0.00000000000E+00  0.45593999997E+02  0.45594000000E+02  0.51100000000E-03 0.  1.
         11   -1    0    0    0    0 -0.00000000000E+00 -0.00000000000E+00 -0.45593999997E+02  0.45594000000E+02  0.51100000000E-03 0. -1.
    9900012    2    1    2    0    0 -0.17983978204E+02 -0.26467663823E+02 -0.25084060701E+02  0.50528796840E+02  0.29999808475E+02 0.  0.
        -12    1    1    2    0    0  0.17983978204E+02  0.26467663823E+02  0.25084060701E+02  0.40659203160E+02  0.00000000000E+00 0.  1.
         11    1    3    3    0    0 -0.62433657180E+01 -0.51347191515E+01 -0.22526165945E+02  0.23932678678E+02  0.51100000000E-03 0. -1.
        -11    1    3    3    0    0 -0.31094477494E+00 -0.46824476154E+01 -0.42475812587E+01  0.63296089243E+01  0.51100000000E-03 0.  1.
         12    1    3    3    0    0 -0.11429667711E+02 -0.16650497056E+02  0.16896865023E+01  0.20266509238E+02  0.00000000000E+00 0. -1.
</event>
<event>
 7    1  0.2985411E-011  0.5052888E+02  0.7816164E-02  0.1300439E+00
        -11   -1    0    0    0    0  0.00000000000E+00  0.00000000000E+00  0.45593999997E+02  0.45594000000E+02  0.51100000000E-03 0.  1.
         11   -1    0    0    0    0 -0.00000000000E+00 -0.00000000000E+00 -0.45593999997E+02  0.45594000000E+02  0.51100000000E-03 0. -1.
    9900012    2    1    2    0    0 -0.32866973344E+02  0.20364559190E+02 -0.12578201404E+02  0.50528876075E+02  0.30000049317E+02 0.  0.
        -12    1    1    2    0    0  0.32866973344E+02 -0.20364559190E+02  0.12578201404E+02  0.40659123925E+02  0.00000000000E+00 0.  1.
         11    1    3    3    0    0 -0.17981140051E+02 -0.13944376632E+01 -0.94314609732E+01  0.20352353925E+02  0.51100000000E-03 0. -1.
        -11    1    3    3    0    0 -0.74439940894E+01  0.18358444142E+01  0.26853796278E+01  0.81237083110E+01  0.51100000000E-03 0.  1.
         12    1    3    3    0    0 -0.74418392040E+01  0.19923152439E+02 -0.58321200585E+01  0.22052813839E+02  0.00000000000E+00 0. -1.
</event>
<event>
 7    1  0.2985411E-011  0.5052886E+02  0.7816164E-02  0.1300439E+00
        -11   -1    0    0    0    0  0.00000000000E+00  0.00000000000E+00  0.45593999997E+02  0.45594000000E+02  0.51100000000E-03 0.  1.
         11   -1    0    0    0    0 -0.00000000000E+00 -0.00000000000E+00 -0.45593999997E+02  0.45594000000E+02  0.51100000000E-03 0. -1.
    9900012    2    1    2    0    0  0.28933077301E+01 -0.40109491820E+02 -0.60019233685E+01  0.50528860218E+02  0.30000001120E+02 0.  0.
        -12    1    1    2    0    0 -0.28933077301E+01  0.40109491820E+02  0.60019233685E+01  0.40659139782E+02  0.00000000000E+00 0.  1.
         11    1    3    3    0    0 -0.36659734233E+01 -0.13099640319E+02 -0.12179805078E+02  0.18258904393E+02  0.51100000000E-03 0. -1.
        -11    1    3    3    0    0  0.11059840484E+01  0.14191762343E+01  0.25142336756E+01  0.30917039211E+01  0.51100000000E-03 0.  1.
        -12    1    3    3    0    0  0.54532971050E+01 -0.28429027735E+02  0.36636480342E+01  0.29178251905E+02  0.00000000000E+00 0.  1.
</event>
<event>
 7    1  0.2985411E-011  0.5052886E+02  0.7816164E-02  0.1300439E+00
        -11   -1    0    0    0    0  0.00000000000E+00  0.00000000000E+00  0.45593999997E+02  0.45594000000E+02  0.51100000000E-03 0.  1.
         11   -1    0    0    0    0 -0.00000000000E+00 -0.00000000000E+00 -0.45593999997E+02  0.45594000000E+02  0.51100000000E-03 0. -1.
    9900012    2    1    2    0    0 -0.11039339716E+02 -0.39024373595E+02 -0.28977297690E+01  0.50528860884E+02  0.30000003143E+02 0.  0.
        -12    1    1    2    0    0  0.11039339716E+02  0.39024373595E+02  0.28977297690E+01  0.40659139116E+02  0.00000000000E+00 0.  1.
         11    1    3    3    0    0 -0.68814984756E+01 -0.10850102161E+02 -0.94851889800E+01  0.15970239460E+02  0.51100000000E-03 0. -1.
        -11    1    3    3    0    0  0.52597303609E+01 -0.18244598665E+02 -0.80421328492E+00  0.19004654777E+02  0.51100000000E-03 0.  1.
         12    1    3    3    0    0 -0.94175716011E+01 -0.99296727690E+01  0.73916724959E+01  0.15553966647E+02  0.00000000000E+00 0. -1.
</event>
<event>
 7    1  0.2985411E-011  0.5052886E+02  0.7816164E-02  0.1300439E+00
        -11   -1    0    0    0    0  0.00000000000E+00  0.00000000000E+00  0.45593999997E+02  0.45594000000E+02  0.51100000000E-03 0. -1.
         11   -1    0    0    0    0 -0.00000000000E+00 -0.00000000000E+00 -0.45593999997E+02  0.45594000000E+02  0.51100000000E-03 0.  1.
    9900012    2    1    2    0    0  0.12628585367E+02 -0.20495627164E+02  0.32766043228E+02  0.50528862158E+02  0.30000007016E+02 0.  0.
        -12    1    1    2    0    0 -0.12628585367E+02  0.20495627164E+02 -0.32766043228E+02  0.40659137842E+02  0.00000000000E+00 0.  1.
         11    1    3    3    0    0  0.80941604400E+00 -0.72720000556E+01 -0.15016861677E+00  0.73184486071E+01  0.51100000000E-03 0. -1.
        -11    1    3    3    0    0  0.65378111743E+01 -0.15955568309E+02  0.10886014848E+02  0.20391872267E+02  0.51100000000E-03 0.  1.
        -12    1    3    3    0    0  0.52813581483E+01  0.27319412006E+01  0.22030196997E+02  0.22818541284E+02  0.00000000000E+00 0.  1.
</event>
<event>
 7    1  0.2985411E-011  0.5052886E+02  0.7816164E-02  0.1300439E+00
        -11   -1    0    0    0    0  0.00000000000E+00  0.00000000000E+00  0.45593999997E+02  0.45594000000E+02  0.51100000000E-03 0.  1.
         11   -1    0    0    0    0 -0.00000000000E+00 -0.00000000000E+00 -0.45593999997E+02  0.45594000000E+02  0.51100000000E-03 0. -1.
    9900012    2    1    2    0    0  0.31885171133E+02  0.93318781877E+01 -0.23439656624E+02  0.50528860912E+02  0.30000003228E+02 0.  0.
        -12    1    1    2    0    0 -0.31885171133E+02 -0.93318781877E+01  0.23439656624E+02  0.40659139088E+02  0.00000000000E+00 0.  1.
         11    1    3    3    0    0  0.28495317710E+01 -0.27608768944E+01  0.93949917596E+00  0.40773682079E+01  0.51100000000E-03 0. -1.
        -11    1    3    3    0    0  0.24612804074E+02  0.15527894223E+02 -0.95956200905E+01  0.30642805820E+02  0.51100000000E-03 0.  1.
         12    1    3    3    0    0  0.44228352889E+01 -0.34351391405E+01 -0.14783535710E+02  0.15808686884E+02  0.00000000000E+00 0. -1.
</event>
<event>
 7    1  0.2985411E-011  0.5052886E+02  0.7816164E-02  0.1300439E+00
        -11   -1    0    0    0    0  0.00000000000E+00  0.00000000000E+00  0.45593999997E+02  0.45594000000E+02  0.51100000000E-03 0.  1.
         11   -1    0    0    0    0 -0.00000000000E+00 -0.00000000000E+00 -0.45593999997E+02  0.45594000000E+02  0.51100000000E-03 0. -1.
    9900012    2    1    2    0    0 -0.64679301873E+01  0.14902457141E+02 -0.37272616662E+02  0.50528864463E+02  0.30000014023E+02 0.  0.
        -12    1    1    2    0    0  0.64679301873E+01 -0.14902457141E+02  0.37272616662E+02  0.40659135537E+02  0.00000000000E+00 0.  1.
         11    1    3    3    0    0 -0.72285310957E+01  0.81559217281E+00 -0.12905645285E+02  0.14814605391E+02  0.51100000000E-03 0. -1.
        -11    1    3    3    0    0 -0.73457018835E+01 -0.15523050108E+01 -0.31606314392E+01  0.81460774833E+01  0.51100000000E-03 0.  1.
        -12    1    3    3    0    0  0.81063027920E+01  0.15639169979E+02 -0.21206339938E+02  0.27568181589E+02  0.00000000000E+00 0.  1.
</event>
<event>
 7    1  0.2985411E-011  0.5052885E+02  0.7816164E-02  0.1300439E+00
        -11   -1    0    0    0    0  0.00000000000E+00  0.00000000000E+00  0.45593999997E+02  0.45594000000E+02  0.51100000000E-03 0. -1.
         11   -1    0    0    0    0 -0.00000000000E+00 -0.00000000000E+00 -0.45593999997E+02  0.45594000000E+02  0.51100000000E-03 0.  1.
    9900012    2    1    2    0    0  0.12027948169E+02  0.34700845469E+02  0.17445512874E+02  0.50528854253E+02  0.29999982988E+02 0.  0.
        -12    1    1    2    0    0 -0.12027948169E+02 -0.34700845469E+02 -0.17445512874E+02  0.40659145747E+02  0.00000000000E+00 0.  1.
         11    1    3    3    0    0 -0.53564058333E-01 -0.10005791985E+01 -0.15119487775E+01  0.18138404582E+01  0.51100000000E-03 0.  1.
        -11    1    3    3    0    0  0.11466919344E+02  0.72356572922E+01 -0.15196016434E+01  0.13643832494E+02  0.51100000000E-03 0. -1.
        -12    1    3    3    0    0  0.61459288357E+00  0.28465767375E+02  0.20477063295E+02  0.35071181301E+02  0.00000000000E+00 0.  1.
</event>
<event>
 7    1  0.2985411E-011  0.5052890E+02  0.7816164E-02  0.1300439E+00
        -11   -1    0    0    0    0  0.00000000000E+00  0.00000000000E+00  0.45593999997E+02  0.45594000000E+02  0.51100000000E-03 0.  1.
         11   -1    0    0    0    0 -0.00000000000E+00 -0.00000000000E+00 -0.45593999997E+02  0.45594000000E+02  0.51100000000E-03 0. -1.
    9900012    2    1    2    0    0 -0.37150208788E+02 -0.15993754151E+02  0.41501620786E+01  0.50528904706E+02  0.30000136345E+02 0.  0.
        -12    1    1    2    0    0  0.37150208788E+02  0.15993754151E+02 -0.41501620786E+01  0.40659095294E+02  0.00000000000E+00 0.  1.
         11    1    3    3    0    0 -0.39978004949E+01 -0.83352412689E+00 -0.59894625358E+01  0.72491953343E+01  0.51100000000E-03 0. -1.
        -11    1    3    3    0    0 -0.91738577379E+00  0.41821403018E+01  0.23649460342E+01  0.48913049555E+01  0.51100000000E-03 0.  1.
         12    1    3    3    0    0 -0.32235022519E+02 -0.19342370326E+02  0.77746785801E+01  0.38388404417E+02  0.00000000000E+00 0. -1.
</event>
<event>
 7    1  0.2985411E-011  0.5052884E+02  0.7816164E-02  0.1300439E+00
        -11   -1    0    0    0    0  0.00000000000E+00  0.00000000000E+00  0.45593999997E+02  0.45594000000E+02  0.51100000000E-03 0. -1.
         11   -1    0    0    0    0 -0.00000000000E+00 -0.00000000000E+00 -0.45593999997E+02  0.45594000000E+02  0.51100000000E-03 0.  1.
    9900012    2    1    2    0    0 -0.37638098002E+02  0.12160253564E+02  0.94164282735E+01  0.50528839785E+02  0.29999939011E+02 0.  0.
        -12    1    1    2    0    0  0.37638098002E+02 -0.12160253564E+02 -0.94164282735E+01  0.40659160215E+02  0.00000000000E+00 0.  1.
         11    1    3    3    0    0 -0.63644979824E+01  0.40006949801E+01  0.57313788856E+01  0.94530999721E+01  0.51100000000E-03 0. -1.
        -11    1    3    3    0    0 -0.21580290727E+01  0.91977474102E+01  0.69935935602E+01  0.11754403347E+02  0.51100000000E-03 0.  1.
         12    1    3    3    0    0 -0.29115570947E+02 -0.10381888266E+01 -0.33085441723E+01  0.29321336466E+02  0.00000000000E+00 0. -1.
</event>
<event>
 7    1  0.2985411E-011  0.5052886E+02  0.7816164E-02  0.1300439E+00
        -11   -1    0    0    0    0  0.00000000000E+00  0.00000000000E+00  0.45593999997E+02  0.45594000000E+02  0.51100000000E-03 0. -1.
         11   -1    0    0    0    0 -0.00000000000E+00 -0.00000000000E+00 -0.45593999997E+02  0.45594000000E+02  0.51100000000E-03 0.  1.
    9900012    2    1    2    0    0 -0.25573627397E+02  0.15079183194E+02  0.27780808465E+02  0.50528861999E+02  0.30000006533E+02 0.  0.
        -12    1    1    2    0    0  0.25573627397E+02 -0.15079183194E+02 -0.27780808465E+02  0.40659138001E+02  0.00000000000E+00 0.  1.
         11    1    3    3    0    0 -0.94229966219E+01  0.15866315929E+02  0.25785098494E+02  0.31708108602E+02  0.51100000000E-03 0. -1.
        -11    1    3    3    0    0 -0.22381187514E+01 -0.15673891029E+01  0.38946954211E+01  0.47575767813E+01  0.51100000000E-03 0.  1.
        -12    1    3    3    0    0 -0.13912512023E+02  0.78025636713E+00 -0.18989854501E+01  0.14063176616E+02  0.00000000000E+00 0.  1.
</event>
<event>
 7    1  0.2985411E-011  0.5052886E+02  0.7816164E-02  0.1300439E+00
        -11   -1    0    0    0    0  0.00000000000E+00  0.00000000000E+00  0.45593999997E+02  0.45594000000E+02  0.51100000000E-03 0. -1.
         11   -1    0    0    0    0 -0.00000000000E+00 -0.00000000000E+00 -0.45593999997E+02  0.45594000000E+02  0.51100000000E-03 0.  1.
    9900012    2    1    2    0    0 -0.21886523235E+01  0.23684671998E+02  0.32975924816E+02  0.50528861985E+02  0.30000006490E+02 0.  0.
        -12    1    1    2    0    0  0.21886523235E+01 -0.23684671998E+02 -0.32975924816E+02  0.40659138015E+02  0.00000000000E+00 0.  1.
         11    1    3    3    0    0  0.42293716234E+01  0.37018325371E+01  0.18518839775E+01  0.59178224871E+01  0.51100000000E-03 0. -1.
        -11    1    3    3    0    0 -0.71859534631E+01  0.21642299610E+02  0.34156839246E+02  0.41069657012E+02  0.51100000000E-03 0.  1.
         12    1    3    3    0    0  0.76792951632E+00 -0.16594601494E+01 -0.30327984072E+01  0.35413824854E+01  0.00000000000E+00 0. -1.
</event>
<event>
 7    1  0.2985411E-011  0.5052886E+02  0.7816164E-02  0.1300439E+00
        -11   -1    0    0    0    0  0.00000000000E+00  0.00000000000E+00  0.45593999997E+02  0.45594000000E+02  0.51100000000E-03 0.  1.
         11   -1    0    0    0    0 -0.00000000000E+00 -0.00000000000E+00 -0.45593999997E+02  0.45594000000E+02  0.51100000000E-03 0. -1.
    9900012    2    1    2    0    0 -0.57839128170E+01  0.10124682365E+02 -0.38951288628E+02  0.50528859254E+02  0.29999998188E+02 0.  0.
        -12    1    1    2    0    0  0.57839128170E+01 -0.10124682365E+02  0.38951288628E+02  0.40659140746E+02  0.00000000000E+00 0.  1.
         11    1    3    3    0    0 -0.60954828010E+01  0.41015613216E+01 -0.49799291341E+01  0.88756639354E+01  0.51100000000E-03 0. -1.
        -11    1    3    3    0    0  0.48538467208E+01 -0.17833757709E+01  0.12268826240E+01  0.53146494112E+01  0.51100000000E-03 0.  1.
         12    1    3    3    0    0 -0.45422767368E+01  0.78064968144E+01 -0.35198242118E+02  0.36338545907E+02  0.00000000000E+00 0. -1.
</event>
<event>
 7    1  0.2985411E-011  0.5052885E+02  0.7816164E-02  0.1300439E+00
        -11   -1    0    0    0    0  0.00000000000E+00  0.00000000000E+00  0.45593999997E+02  0.45594000000E+02  0.51100000000E-03 0.  1.
         11   -1    0    0    0    0 -0.00000000000E+00 -0.00000000000E+00 -0.45593999997E+02  0.45594000000E+02  0.51100000000E-03 0. -1.
    9900012    2    1    2    0    0 -0.14280797817E+02  0.38068299239E+02  0.17271640109E+00  0.50528850671E+02  0.29999972098E+02 0.  0.
        -12    1    1    2    0    0  0.14280797817E+02 -0.38068299239E+02 -0.17271640109E+00  0.40659149329E+02  0.00000000000E+00 0.  1.
         11    1    3    3    0    0  0.35636893990E+01  0.93954736367E+01  0.52842807713E+01  0.11353344464E+02  0.51100000000E-03 0. -1.
        -11    1    3    3    0    0 -0.26984822614E+01 -0.28134065021E+01 -0.37881624293E+00  0.39167032908E+01  0.51100000000E-03 0.  1.
         12    1    3    3    0    0 -0.15146004955E+02  0.31486232104E+02 -0.47327481273E+01  0.35258802916E+02  0.00000000000E+00 0. -1.
</event>
<event>
 7    1  0.2985411E-011  0.5052885E+02  0.7816164E-02  0.1300439E+00
        -11   -1    0    0    0    0  0.00000000000E+00  0.00000000000E+00  0.45593999997E+02  0.45594000000E+02  0.51100000000E-03 0. -1.
         11   -1    0    0    0    0 -0.00000000000E+00 -0.00000000000E+00 -0.45593999997E+02  0.45594000000E+02  0.51100000000E-03 0.  1.
    9900012    2    1    2    0    0 -0.15146902144E+02 -0.36400350167E+02  0.99374095915E+01  0.50528852859E+02  0.29999978750E+02 0.  0.
        -12    1    1    2    0    0  0.15146902144E+02  0.36400350167E+02 -0.99374095915E+01  0.40659147141E+02  0.00000000000E+00 0.  1.
         11    1    3    3    0    0 -0.92091844568E+01 -0.18889809867E+01  0.39821372959E+01  0.10209541872E+02  0.51100000000E-03 0. -1.
        -11    1    3    3    0    0  0.71589909682E+00 -0.17733959158E+01 -0.48456609722E+01  0.52094025674E+01  0.51100000000E-03 0.  1.
         12    1    3    3    0    0 -0.66536167838E+01 -0.32737973265E+02  0.10800933268E+02  0.35109908420E+02  0.00000000000E+00 0. -1.
</event>
<event>
 7    1  0.2985411E-011  0.5052882E+02  0.7816164E-02  0.1300439E+00
        -11   -1    0    0    0    0  0.00000000000E+00  0.00000000000E+00  0.45593999997E+02  0.45594000000E+02  0.51100000000E-03 0. -1.
         11   -1    0    0    0    0 -0.00000000000E+00 -0.00000000000E+00 -0.45593999997E+02  0.45594000000E+02  0.51100000000E-03 0.  1.
    9900012    2    1    2    0    0 -0.21430777533E+02  0.20794940415E+02  0.27594584456E+02  0.50528820670E+02  0.29999880907E+02 0.  0.
        -12    1    1    2    0    0  0.21430777533E+02 -0.20794940415E+02 -0.27594584456E+02  0.40659179330E+02  0.00000000000E+00 0.  1.
         11    1    3    3    0    0 -0.52412363723E+01  0.16030017952E+02  0.13799928138E+02  0.21791513282E+02  0.51100000000E-03 0. -1.
        -11    1    3    3    0    0 -0.50378788837E+00 -0.11299866320E+01 -0.40639330716E+01  0.42480847799E+01  0.51100000000E-03 0.  1.
         12    1    3    3    0    0 -0.15685753272E+02  0.58949090954E+01  0.17858589390E+02  0.24489222608E+02  0.00000000000E+00 0. -1.
</event>
<event>
 7    1  0.2985411E-011  0.5052887E+02  0.7816164E-02  0.1300439E+00
        -11   -1    0    0    0    0  0.00000000000E+00  0.00000000000E+00  0.45593999997E+02  0.45594000000E+02  0.51100000000E-03 0. -1.
         11   -1    0    0    0    0 -0.00000000000E+00 -0.00000000000E+00 -0.45593999997E+02  0.45594000000E+02  0.51100000000E-03 0.  1.
    9900012    2    1    2    0    0  0.26200464626E+02 -0.30679557897E+02  0.50463171563E+01  0.50528868968E+02  0.30000027716E+02 0.  0.
        -12    1    1    2    0    0 -0.26200464626E+02  0.30679557897E+02 -0.50463171563E+01  0.40659131032E+02  0.00000000000E+00 0.  1.
         11    1    3    3    0    0 -0.17887784517E+01 -0.19131963954E+01 -0.14349063424E+01  0.29864703697E+01  0.51100000000E-03 0. -1.
        -11    1    3    3    0    0  0.34833904026E+01 -0.44362352693E+01 -0.82543077443E+01  0.99973890922E+01  0.51100000000E-03 0.  1.
         12    1    3    3    0    0  0.24505852675E+02 -0.24330126233E+02  0.14735531243E+02  0.37545009507E+02  0.00000000000E+00 0. -1.
</event>
<event>
 7    1  0.2985411E-011  0.5052885E+02  0.7816164E-02  0.1300439E+00
        -11   -1    0    0    0    0  0.00000000000E+00  0.00000000000E+00  0.45593999997E+02  0.45594000000E+02  0.51100000000E-03 0.  1.
         11   -1    0    0    0    0 -0.00000000000E+00 -0.00000000000E+00 -0.45593999997E+02  0.45594000000E+02  0.51100000000E-03 0. -1.
    9900012    2    1    2    0    0  0.71622667146E+01 -0.40018532271E+02 -0.62112242805E+00  0.50528846262E+02  0.29999958697E+02 0.  0.
        -12    1    1    2    0    0 -0.71622667146E+01  0.40018532271E+02  0.62112242805E+00  0.40659153738E+02  0.00000000000E+00 0.  1.
         11    1    3    3    0    0  0.51881174961E+01 -0.29604224722E+01 -0.20767660261E+01  0.63240510558E+01  0.51100000000E-03 0. -1.
        -11    1    3    3    0    0 -0.20109851207E+01  0.29317269619E+01  0.18653383591E+01  0.40147940906E+01  0.51100000000E-03 0.  1.
        -12    1    3    3    0    0  0.39851343392E+01 -0.39989836761E+02 -0.40969476103E+00  0.40190001115E+02  0.00000000000E+00 0.  1.
</event>
<event>
 7    1  0.2985411E-011  0.5052886E+02  0.7816164E-02  0.1300439E+00
        -11   -1    0    0    0    0  0.00000000000E+00  0.00000000000E+00  0.45593999997E+02  0.45594000000E+02  0.51100000000E-03 0. -1.
         11   -1    0    0    0    0 -0.00000000000E+00 -0.00000000000E+00 -0.45593999997E+02  0.45594000000E+02  0.51100000000E-03 0.  1.
    9900012    2    1    2    0    0 -0.18048683532E+02  0.29043545582E+02  0.21997343984E+02  0.50528860073E+02  0.30000000678E+02 0.  0.
        -12    1    1    2    0    0  0.18048683532E+02 -0.29043545582E+02 -0.21997343984E+02  0.40659139927E+02  0.00000000000E+00 0.  1.
         11    1    3    3    0    0 -0.60729499237E+01  0.24612948729E+02  0.19211094993E+02  0.31807925695E+02  0.51100000000E-03 0. -1.
        -11    1    3    3    0    0  0.27239898796E+00  0.60990101302E+01  0.30216667422E+00  0.61125633524E+01  0.51100000000E-03 0.  1.
         12    1    3    3    0    0 -0.12248132597E+02 -0.16684132776E+01  0.24840823175E+01  0.12608371026E+02  0.00000000000E+00 0. -1.
</event>
<event>
 7    1  0.2985411E-011  0.5052886E+02  0.7816164E-02  0.1300439E+00
        -11   -1    0    0    0    0  0.00000000000E+00  0.00000000000E+00  0.45593999997E+02  0.45594000000E+02  0.51100000000E-03 0.  1.
         11   -1    0    0    0    0 -0.00000000000E+00 -0.00000000000E+00 -0.45593999997E+02  0.45594000000E+02  0.51100000000E-03 0. -1.
    9900012    2    1    2    0    0 -0.15354518596E+01 -0.32189657171E+02 -0.24791808173E+02  0.50528863343E+02  0.30000010617E+02 0.  0.
        -12    1    1    2    0    0  0.15354518596E+01  0.32189657171E+02  0.24791808173E+02  0.40659136657E+02  0.00000000000E+00 0.  1.
         11    1    3    3    0    0  0.76162429310E+01 -0.20766091089E+01 -0.47064704830E+01  0.91907739850E+01  0.51100000000E-03 0. -1.
        -11    1    3    3    0    0  0.11203840899E+01  0.15231908577E+01 -0.39278573381E+01  0.43592928816E+01  0.51100000000E-03 0.  1.
         12    1    3    3    0    0 -0.10272078880E+02 -0.31636238920E+02 -0.16157480352E+02  0.36978796476E+02  0.00000000000E+00 0. -1.
</event>
<event>
 7    1  0.2985411E-011  0.5052878E+02  0.7816164E-02  0.1300439E+00
        -11   -1    0    0    0    0  0.00000000000E+00  0.00000000000E+00  0.45593999997E+02  0.45594000000E+02  0.51100000000E-03 0.  1.
         11   -1    0    0    0    0 -0.00000000000E+00 -0.00000000000E+00 -0.45593999997E+02  0.45594000000E+02  0.51100000000E-03 0. -1.
    9900012    2    1    2    0    0  0.17309000017E+02  0.17179233751E+02 -0.32533744767E+02  0.50528780844E+02  0.29999759851E+02 0.  0.
        -12    1    1    2    0    0 -0.17309000017E+02 -0.17179233751E+02  0.32533744767E+02  0.40659219156E+02  0.00000000000E+00 0.  1.
         11    1    3    3    0    0  0.65030488860E+00  0.76642834451E+01 -0.17993998302E+02  0.19569060078E+02  0.51100000000E-03 0. -1.
        -11    1    3    3    0    0 -0.20112010724E+01 -0.38476769733E+01 -0.17729092799E+01  0.46896434215E+01  0.51100000000E-03 0.  1.
        -12    1    3    3    0    0  0.18669896201E+02  0.13362627279E+02 -0.12766837184E+02  0.26270077344E+02  0.00000000000E+00 0.  1.
</event>
<event>
 7    1  0.2985411E-011  0.5052886E+02  0.7816164E-02  0.1300439E+00
        -11   -1    0    0    0    0  0.00000000000E+00  0.00000000000E+00  0.45593999997E+02  0.45594000000E+02  0.51100000000E-03 0. -1.
         11   -1    0    0    0    0 -0.00000000000E+00 -0.00000000000E+00 -0.45593999997E+02  0.45594000000E+02  0.51100000000E-03 0.  1.
    9900012    2    1    2    0    0 -0.38070930936E+02 -0.10714664151E+02 -0.94321839527E+01  0.50528857063E+02  0.29999991529E+02 0.  0.
        -12    1    1    2    0    0  0.38070930936E+02  0.10714664151E+02  0.94321839527E+01  0.40659142937E+02  0.00000000000E+00 0.  1.
         11    1    3    3    0    0 -0.76797430468E+01 -0.83445106052E+01  0.40771431449E+01  0.12051240890E+02  0.51100000000E-03 0. -1.
        -11    1    3    3    0    0 -0.79924081397E+01 -0.93819812352E+01 -0.26025491772E+01  0.12596563906E+02  0.51100000000E-03 0.  1.
         12    1    3    3    0    0 -0.22398779750E+02  0.70118276891E+01 -0.10906777920E+02  0.25881052267E+02  0.00000000000E+00 0. -1.
</event>
<event>
 7    1  0.2985411E-011  0.5052886E+02  0.7816164E-02  0.1300439E+00
        -11   -1    0    0    0    0  0.00000000000E+00  0.00000000000E+00  0.45593999997E+02  0.45594000000E+02  0.51100000000E-03 0. -1.
         11   -1    0    0    0    0 -0.00000000000E+00 -0.00000000000E+00 -0.45593999997E+02  0.45594000000E+02  0.51100000000E-03 0.  1.
    9900012    2    1    2    0    0 -0.11543629953E+02  0.21709764311E+02  0.32382034936E+02  0.50528862705E+02  0.30000008678E+02 0.  0.
        -12    1    1    2    0    0  0.11543629953E+02 -0.21709764311E+02 -0.32382034936E+02  0.40659137295E+02  0.00000000000E+00 0.  1.
         11    1    3    3    0    0 -0.25540665195E+01  0.12318316750E+02  0.23290692859E+02  0.26471126864E+02  0.51100000000E-03 0.  1.
        -11    1    3    3    0    0  0.37194658596E+01  0.23561523905E+01  0.84368698369E+01  0.95166513687E+01  0.51100000000E-03 0. -1.
        -12    1    3    3    0    0 -0.12709029293E+02  0.70352951713E+01  0.65447224036E+00  0.14541084472E+02  0.00000000000E+00 0.  1.
</event>
<event>
 7    1  0.2985411E-011  0.5052888E+02  0.7816164E-02  0.1300439E+00
        -11   -1    0    0    0    0  0.00000000000E+00  0.00000000000E+00  0.45593999997E+02  0.45594000000E+02  0.51100000000E-03 0. -1.
         11   -1    0    0    0    0 -0.00000000000E+00 -0.00000000000E+00 -0.45593999997E+02  0.45594000000E+02  0.51100000000E-03 0.  1.
    9900012    2    1    2    0    0  0.20237522300E+02  0.34407302656E+02  0.77294419739E+01  0.50528879767E+02  0.30000060538E+02 0.  0.
        -12    1    1    2    0    0 -0.20237522300E+02 -0.34407302656E+02 -0.77294419739E+01  0.40659120233E+02  0.00000000000E+00 0.  1.
         11    1    3    3    0    0  0.10288825589E+02  0.98900835941E+01  0.39734781577E+01  0.14814257134E+02  0.51100000000E-03 0. -1.
        -11    1    3    3    0    0  0.11500715579E+02  0.44436620283E+01  0.85679839915E+01  0.15014091414E+02  0.51100000000E-03 0.  1.
        -12    1    3    3    0    0 -0.15520188679E+01  0.20073557034E+02 -0.48120201753E+01  0.20700531218E+02  0.00000000000E+00 0.  1.
</event>
<event>
 7    1  0.2985411E-011  0.5052886E+02  0.7816164E-02  0.1300439E+00
        -11   -1    0    0    0    0  0.00000000000E+00  0.00000000000E+00  0.45593999997E+02  0.45594000000E+02  0.51100000000E-03 0. -1.
         11   -1    0    0    0    0 -0.00000000000E+00 -0.00000000000E+00 -0.45593999997E+02  0.45594000000E+02  0.51100000000E-03 0.  1.
    9900012    2    1    2    0    0 -0.34425657580E+01 -0.14729491454E+02  0.37740651667E+02  0.50528856309E+02  0.29999989236E+02 0.  0.
        -12    1    1    2    0    0  0.34425657580E+01  0.14729491454E+02 -0.37740651667E+02  0.40659143691E+02  0.00000000000E+00 0.  1.
         11    1    3    3    0    0 -0.10750776178E+01 -0.52268083389E+00  0.16695717485E+02  0.16738457807E+02  0.51100000000E-03 0. -1.
        -11    1    3    3    0    0 -0.10136328724E+02 -0.60487055966E+00  0.48282022385E+01  0.11243778970E+02  0.51100000000E-03 0.  1.
         12    1    3    3    0    0  0.77688405843E+01 -0.13601940060E+02  0.16216731943E+02  0.22546619532E+02  0.00000000000E+00 0. -1.
</event>
<event>
 7    1  0.2985411E-011  0.5052886E+02  0.7816164E-02  0.1300439E+00
        -11   -1    0    0    0    0  0.00000000000E+00  0.00000000000E+00  0.45593999997E+02  0.45594000000E+02  0.51100000000E-03 0.  1.
         11   -1    0    0    0    0 -0.00000000000E+00 -0.00000000000E+00 -0.45593999997E+02  0.45594000000E+02  0.51100000000E-03 0. -1.
    9900012    2    1    2    0    0 -0.63728480699E+01 -0.39933357667E+02 -0.42283771782E+01  0.50528863012E+02  0.30000009610E+02 0.  0.
        -12    1    1    2    0    0  0.63728480699E+01  0.39933357667E+02  0.42283771782E+01  0.40659136988E+02  0.00000000000E+00 0.  1.
         11    1    3    3    0    0 -0.55628311972E+01 -0.28867597879E+02 -0.99365153721E+01  0.31032525457E+02  0.51100000000E-03 0. -1.
        -11    1    3    3    0    0 -0.56771024109E+01 -0.81178901767E+01 -0.18075136642E+01  0.10069594759E+02  0.51100000000E-03 0.  1.
        -12    1    3    3    0    0  0.48670855382E+01 -0.29478696109E+01  0.75156518580E+01  0.94267427954E+01  0.00000000000E+00 0.  1.
</event>
<event>
 7    1  0.2985411E-011  0.5052886E+02  0.7816164E-02  0.1300439E+00
        -11   -1    0    0    0    0  0.00000000000E+00  0.00000000000E+00  0.45593999997E+02  0.45594000000E+02  0.51100000000E-03 0.  1.
         11   -1    0    0    0    0 -0.00000000000E+00 -0.00000000000E+00 -0.45593999997E+02  0.45594000000E+02  0.51100000000E-03 0. -1.
    9900012    2    1    2    0    0  0.11742833119E+02 -0.30947111624E+01 -0.38803272433E+02  0.50528864269E+02  0.30000013432E+02 0.  0.
        -12    1    1    2    0    0 -0.11742833119E+02  0.30947111624E+01  0.38803272433E+02  0.40659135731E+02  0.00000000000E+00 0.  1.
         11    1    3    3    0    0  0.10655168914E+02 -0.84632141392E+01 -0.32357749524E+02  0.35102458214E+02  0.51100000000E-03 0. -1.
        -11    1    3    3    0    0  0.30430722747E+01  0.60022080995E+01 -0.95622528025E+01  0.11692881162E+02  0.51100000000E-03 0.  1.
        -12    1    3    3    0    0 -0.19554080696E+01 -0.63370512276E+00  0.31167298932E+01  0.37335248932E+01  0.00000000000E+00 0.  1.
</event>
<event>
 7    1  0.2985411E-011  0.5052886E+02  0.7816164E-02  0.1300439E+00
        -11   -1    0    0    0    0  0.00000000000E+00  0.00000000000E+00  0.45593999997E+02  0.45594000000E+02  0.51100000000E-03 0. -1.
         11   -1    0    0    0    0 -0.00000000000E+00 -0.00000000000E+00 -0.45593999997E+02  0.45594000000E+02  0.51100000000E-03 0.  1.
    9900012    2    1    2    0    0  0.34219973843E+02 -0.14781601285E+02  0.16237722413E+02  0.50528856188E+02  0.29999988870E+02 0.  0.
        -12    1    1    2    0    0 -0.34219973843E+02  0.14781601285E+02 -0.16237722413E+02  0.40659143812E+02  0.00000000000E+00 0.  1.
         11    1    3    3    0    0  0.20505961526E+02 -0.37935404796E+01 -0.59217536475E+00  0.20862312417E+02  0.51100000000E-03 0. -1.
        -11    1    3    3    0    0  0.61870804676E+01 -0.14808150293E+01 -0.25103515451E+01  0.68391990031E+01  0.51100000000E-03 0.  1.
         12    1    3    3    0    0  0.75269318493E+01 -0.95072457758E+01  0.19340249322E+02  0.22827344768E+02  0.00000000000E+00 0. -1.
</event>
<event>
 7    1  0.2985411E-011  0.5052886E+02  0.7816164E-02  0.1300439E+00
        -11   -1    0    0    0    0  0.00000000000E+00  0.00000000000E+00  0.45593999997E+02  0.45594000000E+02  0.51100000000E-03 0.  1.
         11   -1    0    0    0    0 -0.00000000000E+00 -0.00000000000E+00 -0.45593999997E+02  0.45594000000E+02  0.51100000000E-03 0. -1.
    9900012    2    1    2    0    0 -0.81658418411E+01  0.21440455352E+02 -0.33567715529E+02  0.50528860505E+02  0.30000001990E+02 0.  0.
        -12    1    1    2    0    0  0.81658418411E+01 -0.21440455352E+02  0.33567715529E+02  0.40659139495E+02  0.00000000000E+00 0.  1.
         11    1    3    3    0    0 -0.54237247665E+01  0.80113151780E+00 -0.66871409090E+01  0.86473380788E+01  0.51100000000E-03 0.  1.
        -11    1    3    3    0    0 -0.52660036900E+01 -0.19348872062E+01  0.12270590224E+01  0.57428440227E+01  0.51100000000E-03 0. -1.
         12    1    3    3    0    0  0.25238866154E+01  0.22574211040E+02 -0.28107633643E+02  0.36138678403E+02  0.00000000000E+00 0. -1.
</event>
<event>
 7    1  0.2985411E-011  0.5052884E+02  0.7816164E-02  0.1300439E+00
        -11   -1    0    0    0    0  0.00000000000E+00  0.00000000000E+00  0.45593999997E+02  0.45594000000E+02  0.51100000000E-03 0. -1.
         11   -1    0    0    0    0 -0.00000000000E+00 -0.00000000000E+00 -0.45593999997E+02  0.45594000000E+02  0.51100000000E-03 0.  1.
    9900012    2    1    2    0    0 -0.96635419168E+01  0.38748276089E+02  0.76390053399E+01  0.50528839349E+02  0.29999937686E+02 0.  0.
        -12    1    1    2    0    0  0.96635419168E+01 -0.38748276089E+02 -0.76390053399E+01  0.40659160651E+02  0.00000000000E+00 0.  1.
         11    1    3    3    0    0 -0.11986631321E+01  0.17784523147E+02 -0.77539888019E+01  0.19438374404E+02  0.51100000000E-03 0. -1.
        -11    1    3    3    0    0 -0.84200347282E+01  0.19137454378E+02  0.63298683941E+01  0.21845053881E+02  0.51100000000E-03 0.  1.
        -12    1    3    3    0    0 -0.44844056478E-01  0.18262985640E+01  0.90631257477E+01  0.92454110646E+01  0.00000000000E+00 0.  1.
</event>
<event>
 7    1  0.2985411E-011  0.5052886E+02  0.7816164E-02  0.1300439E+00
        -11   -1    0    0    0    0  0.00000000000E+00  0.00000000000E+00  0.45593999997E+02  0.45594000000E+02  0.51100000000E-03 0.  1.
         11   -1    0    0    0    0 -0.00000000000E+00 -0.00000000000E+00 -0.45593999997E+02  0.45594000000E+02  0.51100000000E-03 0. -1.
    9900012    2    1    2    0    0 -0.27279742928E+02 -0.21058167911E+02 -0.21576260789E+02  0.50528857859E+02  0.29999993950E+02 0.  0.
        -12    1    1    2    0    0  0.27279742928E+02  0.21058167911E+02  0.21576260789E+02  0.40659142141E+02  0.00000000000E+00 0.  1.
         11    1    3    3    0    0 -0.76158167966E+01 -0.41314342250E+01  0.55045220004E-01  0.86644356119E+01  0.51100000000E-03 0.  1.
        -11    1    3    3    0    0 -0.44486050868E+01  0.64589893570E+01 -0.60780082141E+01  0.99222383989E+01  0.51100000000E-03 0. -1.
         12    1    3    3    0    0 -0.15215321044E+02 -0.23385723043E+02 -0.15553297795E+02  0.31942183849E+02  0.00000000000E+00 0. -1.
</event>
<event>
 7    1  0.2985411E-011  0.5052885E+02  0.7816164E-02  0.1300439E+00
        -11   -1    0    0    0    0  0.00000000000E+00  0.00000000000E+00  0.45593999997E+02  0.45594000000E+02  0.51100000000E-03 0.  1.
         11   -1    0    0    0    0 -0.00000000000E+00 -0.00000000000E+00 -0.45593999997E+02  0.45594000000E+02  0.51100000000E-03 0. -1.
    9900012    2    1    2    0    0  0.12597676396E+02  0.30666561397E+02 -0.23537778893E+02  0.50528850062E+02  0.29999970247E+02 0.  0.
        -12    1    1    2    0    0 -0.12597676396E+02 -0.30666561397E+02  0.23537778893E+02  0.40659149938E+02  0.00000000000E+00 0.  1.
         11    1    3    3    0    0  0.16129757171E+01  0.11371855911E+01 -0.28561564389E+01  0.34716727376E+01  0.51100000000E-03 0. -1.
        -11    1    3    3    0    0 -0.83711879476E+01  0.22104367977E+01 -0.27959758421E+01  0.90983679669E+01  0.51100000000E-03 0.  1.
        -12    1    3    3    0    0  0.19355888627E+02  0.27318939008E+02 -0.17885646612E+02  0.37958809357E+02  0.00000000000E+00 0.  1.
</event>
<event>
 7    1  0.2985411E-011  0.5052879E+02  0.7816164E-02  0.1300439E+00
        -11   -1    0    0    0    0  0.00000000000E+00  0.00000000000E+00  0.45593999997E+02  0.45594000000E+02  0.51100000000E-03 0.  1.
         11   -1    0    0    0    0 -0.00000000000E+00 -0.00000000000E+00 -0.45593999997E+02  0.45594000000E+02  0.51100000000E-03 0. -1.
    9900012    2    1    2    0    0 -0.32336095618E+02  0.14870789385E+02  0.19657262654E+02  0.50528789091E+02  0.29999784919E+02 0.  0.
        -12    1    1    2    0    0  0.32336095618E+02 -0.14870789385E+02 -0.19657262654E+02  0.40659210909E+02  0.00000000000E+00 0.  1.
         11    1    3    3    0    0  0.10053353658E+01 -0.25931351654E+00 -0.72909755515E+00  0.12686710384E+01  0.51100000000E-03 0. -1.
        -11    1    3    3    0    0 -0.90667734077E+01  0.17349373852E+02  0.42634488942E+01  0.20034573862E+02  0.51100000000E-03 0.  1.
         12    1    3    3    0    0 -0.24274657576E+02 -0.22192709503E+01  0.16122911315E+02  0.29225544191E+02  0.00000000000E+00 0. -1.
</event>
<event>
 7    1  0.2985411E-011  0.5052886E+02  0.7816164E-02  0.1300439E+00
        -11   -1    0    0    0    0  0.00000000000E+00  0.00000000000E+00  0.45593999997E+02  0.45594000000E+02  0.51100000000E-03 0. -1.
         11   -1    0    0    0    0 -0.00000000000E+00 -0.00000000000E+00 -0.45593999997E+02  0.45594000000E+02  0.51100000000E-03 0.  1.
    9900012    2    1    2    0    0 -0.23273567615E+02  0.10016941566E+02  0.31798865989E+02  0.50528856550E+02  0.29999989970E+02 0.  0.
        -12    1    1    2    0    0  0.23273567615E+02 -0.10016941566E+02 -0.31798865989E+02  0.40659143450E+02  0.00000000000E+00 0.  1.
         11    1    3    3    0    0 -0.47754659915E+01  0.42702740080E-01  0.23308136574E+02  0.23792354439E+02  0.51100000000E-03 0. -1.
        -11    1    3    3    0    0 -0.81412791677E+01 -0.42320128743E+00  0.88815850362E+01  0.12055790262E+02  0.51100000000E-03 0.  1.
        -12    1    3    3    0    0 -0.10356822456E+02  0.10397440113E+02 -0.39085562092E+00  0.14680711850E+02  0.00000000000E+00 0.  1.
</event>
<event>
 7    1  0.2985411E-011  0.5052890E+02  0.7816164E-02  0.1300439E+00
        -11   -1    0    0    0    0  0.00000000000E+00  0.00000000000E+00  0.45593999997E+02  0.45594000000E+02  0.51100000000E-03 0.  1.
         11   -1    0    0    0    0 -0.00000000000E+00 -0.00000000000E+00 -0.45593999997E+02  0.45594000000E+02  0.51100000000E-03 0. -1.
    9900012    2    1    2    0    0  0.36007958551E+02 -0.18658541357E+02  0.29065677934E+01  0.50528900392E+02  0.30000123233E+02 0.  0.
        -12    1    1    2    0    0 -0.36007958551E+02  0.18658541357E+02 -0.29065677934E+01  0.40659099608E+02  0.00000000000E+00 0.  1.
         11    1    3    3    0    0  0.12741769855E+02 -0.68519015417E+01 -0.82121513518E+01  0.16635524754E+02  0.51100000000E-03 0. -1.
        -11    1    3    3    0    0  0.87069713493E+01 -0.93279904053E+01 -0.33768982038E+01  0.13199477142E+02  0.51100000000E-03 0.  1.
        -12    1    3    3    0    0  0.14559217347E+02 -0.24786494101E+01  0.14495617349E+02  0.20693898496E+02  0.00000000000E+00 0.  1.
</event>
<event>
 7    1  0.2985411E-011  0.5052883E+02  0.7816164E-02  0.1300439E+00
        -11   -1    0    0    0    0  0.00000000000E+00  0.00000000000E+00  0.45593999997E+02  0.45594000000E+02  0.51100000000E-03 0.  1.
         11   -1    0    0    0    0 -0.00000000000E+00 -0.00000000000E+00 -0.45593999997E+02  0.45594000000E+02  0.51100000000E-03 0. -1.
    9900012    2    1    2    0    0  0.35037563018E+02  0.14716793965E+02 -0.14455211392E+02  0.50528831498E+02  0.29999913822E+02 0.  0.
        -12    1    1    2    0    0 -0.35037563018E+02 -0.14716793965E+02  0.14455211392E+02  0.40659168502E+02  0.00000000000E+00 0.  1.
         11    1    3    3    0    0  0.69016439257E+01 -0.58045469539E+01 -0.26941962302E+01  0.94119152039E+01  0.51100000000E-03 0. -1.
        -11    1    3    3    0    0  0.13369742277E+02 -0.62623482023E+00 -0.61071244649E+01  0.14711870993E+02  0.51100000000E-03 0.  1.
         12    1    3    3    0    0  0.14766176815E+02  0.21147575739E+02 -0.56538906969E+01  0.26405045302E+02  0.00000000000E+00 0. -1.
</event>
<event>
 7    1  0.2985411E-011  0.5052886E+02  0.7816164E-02  0.1300439E+00
        -11   -1    0    0    0    0  0.00000000000E+00  0.00000000000E+00  0.45593999997E+02  0.45594000000E+02  0.51100000000E-03 0.  1.
         11   -1    0    0    0    0 -0.00000000000E+00 -0.00000000000E+00 -0.45593999997E+02  0.45594000000E+02  0.51100000000E-03 0. -1.
    9900012    2    1    2    0    0  0.32441270064E+02 -0.14276982402E+02 -0.19922290624E+02  0.50528857196E+02  0.29999991933E+02 0.  0.
        -12    1    1    2    0    0 -0.32441270064E+02  0.14276982402E+02  0.19922290624E+02  0.40659142804E+02  0.00000000000E+00 0.  1.
         11    1    3    3    0    0  0.23219889823E+02 -0.29302071041E+00 -0.14044998617E+02  0.27138738566E+02  0.51100000000E-03 0. -1.
        -11    1    3    3    0    0  0.11606610798E+02 -0.42917831690E+01 -0.14103352760E+01  0.12454792765E+02  0.51100000000E-03 0.  1.
         12    1    3    3    0    0 -0.23852305573E+01 -0.96921785228E+01 -0.44669567302E+01  0.10935325864E+02  0.00000000000E+00 0. -1.
</event>
<event>
 7    1  0.2985411E-011  0.5052886E+02  0.7816164E-02  0.1300439E+00
        -11   -1    0    0    0    0  0.00000000000E+00  0.00000000000E+00  0.45593999997E+02  0.45594000000E+02  0.51100000000E-03 0. -1.
         11   -1    0    0    0    0 -0.00000000000E+00 -0.00000000000E+00 -0.45593999997E+02  0.45594000000E+02  0.51100000000E-03 0.  1.
    9900012    2    1    2    0    0  0.13684235979E+02  0.33316414330E+02  0.18865944931E+02  0.50528860114E+02  0.30000000801E+02 0.  0.
        -12    1    1    2    0    0 -0.13684235979E+02 -0.33316414330E+02 -0.18865944931E+02  0.40659139886E+02  0.00000000000E+00 0.  1.
         11    1    3    3    0    0 -0.15938357642E+01  0.13159710838E+02  0.11174092417E+02  0.17337204025E+02  0.51100000000E-03 0. -1.
        -11    1    3    3    0    0  0.10585437109E+02  0.23918533813E+02  0.73421509721E+01  0.27167166207E+02  0.51100000000E-03 0.  1.
         12    1    3    3    0    0  0.46926346343E+01 -0.37618303203E+01  0.34970154120E+00  0.60244898819E+01  0.00000000000E+00 0. -1.
</event>
<event>
 7    1  0.2985411E-011  0.5052885E+02  0.7816164E-02  0.1300439E+00
        -11   -1    0    0    0    0  0.00000000000E+00  0.00000000000E+00  0.45593999997E+02  0.45594000000E+02  0.51100000000E-03 0.  1.
         11   -1    0    0    0    0 -0.00000000000E+00 -0.00000000000E+00 -0.45593999997E+02  0.45594000000E+02  0.51100000000E-03 0. -1.
    9900012    2    1    2    0    0  0.98818742230E+01  0.34822976361E+02 -0.18516889327E+02  0.50528852061E+02  0.29999976325E+02 0.  0.
        -12    1    1    2    0    0 -0.98818742230E+01 -0.34822976361E+02  0.18516889327E+02  0.40659147939E+02  0.00000000000E+00 0.  1.
         11    1    3    3    0    0  0.56604145679E+01  0.19792014213E+02 -0.15258821352E+02  0.25624124356E+02  0.51100000000E-03 0. -1.
        -11    1    3    3    0    0  0.26896093443E+01  0.13608165428E+02 -0.10480658414E+02  0.17385636767E+02  0.51100000000E-03 0.  1.
        -12    1    3    3    0    0  0.15318503108E+01  0.14227967191E+01  0.72225904394E+01  0.75190909380E+01  0.00000000000E+00 0.  1.
</event>
<event>
 7    1  0.2985411E-011  0.5052885E+02  0.7816164E-02  0.1300439E+00
        -11   -1    0    0    0    0  0.00000000000E+00  0.00000000000E+00  0.45593999997E+02  0.45594000000E+02  0.51100000000E-03 0.  1.
         11   -1    0    0    0    0 -0.00000000000E+00 -0.00000000000E+00 -0.45593999997E+02  0.45594000000E+02  0.51100000000E-03 0. -1.
    9900012    2    1    2    0    0 -0.23617852537E+02  0.15696232783E+02 -0.29137462039E+02  0.50528851263E+02  0.29999973898E+02 0.  0.
        -12    1    1    2    0    0  0.23617852537E+02 -0.15696232783E+02  0.29137462039E+02  0.40659148737E+02  0.00000000000E+00 0.  1.
         11    1    3    3    0    0  0.87795244843E+00 -0.19244476803E+01  0.15323076324E+01  0.26119468442E+01  0.51100000000E-03 0.  1.
        -11    1    3    3    0    0 -0.53186915148E+01  0.83942874308E+01  0.75298247415E+00  0.99659181096E+01  0.51100000000E-03 0. -1.
         12    1    3    3    0    0 -0.19177113470E+02  0.92263930320E+01 -0.31422752145E+02  0.37950986309E+02  0.00000000000E+00 0. -1.
</event>
<event>
 7    1  0.2985411E-011  0.5052885E+02  0.7816164E-02  0.1300439E+00
        -11   -1    0    0    0    0  0.00000000000E+00  0.00000000000E+00  0.45593999997E+02  0.45594000000E+02  0.51100000000E-03 0.  1.
         11   -1    0    0    0    0 -0.00000000000E+00 -0.00000000000E+00 -0.45593999997E+02  0.45594000000E+02  0.51100000000E-03 0. -1.
    9900012    2    1    2    0    0 -0.23995144121E+02 -0.19977642729E+02 -0.26044071948E+02  0.50528845631E+02  0.29999956780E+02 0.  0.
        -12    1    1    2    0    0  0.23995144121E+02  0.19977642729E+02  0.26044071948E+02  0.40659154369E+02  0.00000000000E+00 0.  1.
         11    1    3    3    0    0 -0.23284757485E+01  0.60734270301E+00 -0.26983871150E+01  0.36155162500E+01  0.51100000000E-03 0. -1.
        -11    1    3    3    0    0 -0.21398784376E+02 -0.16009201947E+02 -0.39881309530E+01  0.27020505335E+02  0.51100000000E-03 0.  1.
         12    1    3    3    0    0 -0.26788399625E+00 -0.45757834845E+01 -0.19357553880E+02  0.19892824046E+02  0.00000000000E+00 0. -1.
</event>
<event>
 7    1  0.2985411E-011  0.5052887E+02  0.7816164E-02  0.1300439E+00
        -11   -1    0    0    0    0  0.00000000000E+00  0.00000000000E+00  0.45593999997E+02  0.45594000000E+02  0.51100000000E-03 0. -1.
         11   -1    0    0    0    0 -0.00000000000E+00 -0.00000000000E+00 -0.45593999997E+02  0.45594000000E+02  0.51100000000E-03 0.  1.
    9900012    2    1    2    0    0 -0.14935245170E+02 -0.20270194377E+02  0.31925271003E+02  0.50528865024E+02  0.30000015726E+02 0.  0.
        -12    1    1    2    0    0  0.14935245170E+02  0.20270194377E+02 -0.31925271003E+02  0.40659134976E+02  0.00000000000E+00 0.  1.
         11    1    3    3    0    0 -0.69700390391E+01 -0.15579476002E+02  0.27888814915E+02  0.32696903742E+02  0.51100000000E-03 0. -1.
        -11    1    3    3    0    0 -0.81114708350E+01 -0.91231010831E+01  0.51657554237E+01  0.13255638869E+02  0.51100000000E-03 0.  1.
        -12    1    3    3    0    0  0.14626470370E+00  0.44323827079E+01 -0.11292993351E+01  0.45763224122E+01  0.00000000000E+00 0.  1.
</event>
<event>
 7    1  0.2985411E-011  0.5052886E+02  0.7816164E-02  0.1300439E+00
        -11   -1    0    0    0    0  0.00000000000E+00  0.00000000000E+00  0.45593999997E+02  0.45594000000E+02  0.51100000000E-03 0.  1.
         11   -1    0    0    0    0 -0.00000000000E+00 -0.00000000000E+00 -0.45593999997E+02  0.45594000000E+02  0.51100000000E-03 0. -1.
    9900012    2    1    2    0    0 -0.38317174755E+02 -0.11245786159E+02 -0.76480036893E+01  0.50528861446E+02  0.30000004850E+02 0.  0.
        -12    1    1    2    0    0  0.38317174755E+02  0.11245786159E+02  0.76480036893E+01  0.40659138554E+02  0.00000000000E+00 0.  1.
         11    1    3    3    0    0 -0.14164426809E+02  0.64379655295E+01 -0.44617409763E+00  0.15565264487E+02  0.51100000000E-03 0. -1.
        -11    1    3    3    0    0 -0.17061317750E+02 -0.13667382188E+02  0.28250395825E+01  0.22042385264E+02  0.51100000000E-03 0.  1.
         12    1    3    3    0    0 -0.70914301967E+01 -0.40163695001E+01 -0.10026869174E+02  0.12921211694E+02  0.00000000000E+00 0. -1.
</event>
<event>
 7    1  0.2985411E-011  0.5052886E+02  0.7816164E-02  0.1300439E+00
        -11   -1    0    0    0    0  0.00000000000E+00  0.00000000000E+00  0.45593999997E+02  0.45594000000E+02  0.51100000000E-03 0. -1.
         11   -1    0    0    0    0 -0.00000000000E+00 -0.00000000000E+00 -0.45593999997E+02  0.45594000000E+02  0.51100000000E-03 0.  1.
    9900012    2    1    2    0    0 -0.39221369416E+02 -0.91049770855E+01 -0.56523530709E+01  0.50528861767E+02  0.30000005828E+02 0.  0.
        -12    1    1    2    0    0  0.39221369416E+02  0.91049770855E+01  0.56523530709E+01  0.40659138233E+02  0.00000000000E+00 0.  1.
         11    1    3    3    0    0 -0.52102998446E+01  0.14497212728E+01  0.63728552539E+01  0.83583611185E+01  0.51100000000E-03 0. -1.
        -11    1    3    3    0    0 -0.21300444160E+01  0.10431666383E+01  0.40004963806E+01  0.46507265456E+01  0.51100000000E-03 0.  1.
        -12    1    3    3    0    0 -0.31881025155E+02 -0.11597864997E+02 -0.16025704705E+02  0.37519774103E+02  0.00000000000E+00 0.  1.
</event>
<event>
 7    1  0.2985411E-011  0.5052887E+02  0.7816164E-02  0.1300439E+00
        -11   -1    0    0    0    0  0.00000000000E+00  0.00000000000E+00  0.45593999997E+02  0.45594000000E+02  0.51100000000E-03 0.  1.
         11   -1    0    0    0    0 -0.00000000000E+00 -0.00000000000E+00 -0.45593999997E+02  0.45594000000E+02  0.51100000000E-03 0. -1.
    9900012    2    1    2    0    0  0.29847690516E+02 -0.27599893825E+02  0.72536624169E+00  0.50528869113E+02  0.30000028156E+02 0.  0.
        -12    1    1    2    0    0 -0.29847690516E+02  0.27599893825E+02 -0.72536624169E+00  0.40659130887E+02  0.00000000000E+00 0.  1.
         11    1    3    3    0    0  0.21828904609E+02 -0.81503165021E+01  0.63841356008E+01  0.24159592776E+02  0.51100000000E-03 0. -1.
        -11    1    3    3    0    0 -0.30441656962E+01 -0.65736344334E+00 -0.31315627334E+01  0.44165322253E+01  0.51100000000E-03 0.  1.
         12    1    3    3    0    0  0.11062951604E+02 -0.18792213880E+02 -0.25272066257E+01  0.21952744111E+02  0.00000000000E+00 0. -1.
</event>
<event>
 7    1  0.2985411E-011  0.5052887E+02  0.7816164E-02  0.1300439E+00
        -11   -1    0    0    0    0  0.00000000000E+00  0.00000000000E+00  0.45593999997E+02  0.45594000000E+02  0.51100000000E-03 0. -1.
         11   -1    0    0    0    0 -0.00000000000E+00 -0.00000000000E+00 -0.45593999997E+02  0.45594000000E+02  0.51100000000E-03 0.  1.
    9900012    2    1    2    0    0 -0.26979767270E+02 -0.21225602598E+02  0.21788321541E+02  0.50528868146E+02  0.30000025216E+02 0.  0.
        -12    1    1    2    0    0  0.26979767270E+02  0.21225602598E+02 -0.21788321541E+02  0.40659131854E+02  0.00000000000E+00 0.  1.
         11    1    3    3    0    0 -0.60546129188E+01 -0.70275153253E+01  0.62378160336E+01  0.11178311964E+02  0.51100000000E-03 0. -1.
        -11    1    3    3    0    0 -0.71027871718E+01 -0.16555490292E+02 -0.52051119016E+00  0.18022341040E+02  0.51100000000E-03 0.  1.
        -12    1    3    3    0    0 -0.13822367179E+02  0.23574030189E+01  0.16071016697E+02  0.21328215141E+02  0.00000000000E+00 0.  1.
</event>
<event>
 7    1  0.2985411E-011  0.5052884E+02  0.7816164E-02  0.1300439E+00
        -11   -1    0    0    0    0  0.00000000000E+00  0.00000000000E+00  0.45593999997E+02  0.45594000000E+02  0.51100000000E-03 0.  1.
         11   -1    0    0    0    0 -0.00000000000E+00 -0.00000000000E+00 -0.45593999997E+02  0.45594000000E+02  0.51100000000E-03 0. -1.
    9900012    2    1    2    0    0 -0.38116945733E+02 -0.43085675371E+01 -0.13479697924E+02  0.50528836674E+02  0.29999929554E+02 0.  0.
        -12    1    1    2    0    0  0.38116945733E+02  0.43085675371E+01  0.13479697924E+02  0.40659163326E+02  0.00000000000E+00 0.  1.
         11    1    3    3    0    0 -0.11188369291E+02 -0.92591337963E+01 -0.64888974016E+01  0.15906506713E+02  0.51100000000E-03 0. -1.
        -11    1    3    3    0    0 -0.30814670306E+01 -0.51943941353E+01  0.31279759302E+01  0.68015735807E+01  0.51100000000E-03 0.  1.
         12    1    3    3    0    0 -0.23847109412E+02  0.10144960394E+02 -0.10118776452E+02  0.27820756381E+02  0.00000000000E+00 0. -1.
</event>
<event>
 7    1  0.2985411E-011  0.5052886E+02  0.7816164E-02  0.1300439E+00
        -11   -1    0    0    0    0  0.00000000000E+00  0.00000000000E+00  0.45593999997E+02  0.45594000000E+02  0.51100000000E-03 0.  1.
         11   -1    0    0    0    0 -0.00000000000E+00 -0.00000000000E+00 -0.45593999997E+02  0.45594000000E+02  0.51100000000E-03 0. -1.
    9900012    2    1    2    0    0  0.24810383095E+02  0.25480696120E+02 -0.19706465760E+02  0.50528858631E+02  0.29999996296E+02 0.  0.
        -12    1    1    2    0    0 -0.24810383095E+02 -0.25480696120E+02  0.19706465760E+02  0.40659141369E+02  0.00000000000E+00 0.  1.
         11    1    3    3    0    0  0.14270552993E+01 -0.26318566361E+00  0.16909384128E+01  0.22282339414E+01  0.51100000000E-03 0.  1.
        -11    1    3    3    0    0  0.15613136048E+02  0.69944176405E+01  0.21169308858E+01  0.17238714918E+02  0.51100000000E-03 0. -1.
         12    1    3    3    0    0  0.77701917480E+01  0.18749464143E+02 -0.23514335058E+02  0.31061909772E+02  0.00000000000E+00 0. -1.
</event>
<event>
 7    1  0.2985411E-011  0.5052885E+02  0.7816164E-02  0.1300439E+00
        -11   -1    0    0    0    0  0.00000000000E+00  0.00000000000E+00  0.45593999997E+02  0.45594000000E+02  0.51100000000E-03 0.  1.
         11   -1    0    0    0    0 -0.00000000000E+00 -0.00000000000E+00 -0.45593999997E+02  0.45594000000E+02  0.51100000000E-03 0. -1.
    9900012    2    1    2    0    0 -0.30824530201E+02  0.92500610311E+01 -0.24848557378E+02  0.50528854719E+02  0.29999984405E+02 0.  0.
        -12    1    1    2    0    0  0.30824530201E+02 -0.92500610311E+01  0.24848557378E+02  0.40659145281E+02  0.00000000000E+00 0.  1.
         11    1    3    3    0    0 -0.47964873768E+01 -0.48479378619E+00  0.51000701842E+01  0.70179792188E+01  0.51100000000E-03 0. -1.
        -11    1    3    3    0    0 -0.51889782425E+01 -0.21872224655E+01 -0.70590468032E+00  0.56751862519E+01  0.51100000000E-03 0.  1.
         12    1    3    3    0    0 -0.20839064581E+02  0.11922077283E+02 -0.29242722882E+02  0.37835689249E+02  0.00000000000E+00 0. -1.
</event>
<event>
 7    1  0.2985411E-011  0.5052882E+02  0.7816164E-02  0.1300439E+00
        -11   -1    0    0    0    0  0.00000000000E+00  0.00000000000E+00  0.45593999997E+02  0.45594000000E+02  0.51100000000E-03 0. -1.
         11   -1    0    0    0    0 -0.00000000000E+00 -0.00000000000E+00 -0.45593999997E+02  0.45594000000E+02  0.51100000000E-03 0.  1.
    9900012    2    1    2    0    0  0.33849493750E+02 -0.87744512572E+01  0.20745838605E+02  0.50528818486E+02  0.29999874269E+02 0.  0.
        -12    1    1    2    0    0 -0.33849493750E+02  0.87744512572E+01 -0.20745838605E+02  0.40659181514E+02  0.00000000000E+00 0.  1.
         11    1    3    3    0    0  0.13107280808E+01  0.84736795412E+00  0.43390107773E+01  0.46111880614E+01  0.51100000000E-03 0. -1.
        -11    1    3    3    0    0  0.16823687898E+02 -0.15255114574E+02  0.18232969658E+02  0.29123807752E+02  0.51100000000E-03 0.  1.
        -12    1    3    3    0    0  0.15715077771E+02  0.56332953622E+01 -0.18261418304E+01  0.16793822673E+02  0.00000000000E+00 0.  1.
</event>
<event>
 7    1  0.2985411E-011  0.5052886E+02  0.7816164E-02  0.1300439E+00
        -11   -1    0    0    0    0  0.00000000000E+00  0.00000000000E+00  0.45593999997E+02  0.45594000000E+02  0.51100000000E-03 0.  1.
         11   -1    0    0    0    0 -0.00000000000E+00 -0.00000000000E+00 -0.45593999997E+02  0.45594000000E+02  0.51100000000E-03 0. -1.
    9900012    2    1    2    0    0 -0.10101112794E+02 -0.36579780691E+02 -0.14596316791E+02  0.50528864508E+02  0.30000014158E+02 0.  0.
        -12    1    1    2    0    0  0.10101112794E+02  0.36579780691E+02  0.14596316791E+02  0.40659135492E+02  0.00000000000E+00 0.  1.
         11    1    3    3    0    0 -0.30066077484E+01 -0.15350849951E+02 -0.13079446880E+02  0.20390199001E+02  0.51100000000E-03 0. -1.
        -11    1    3    3    0    0  0.18099354724E+01 -0.78339556793E+01 -0.92799933757E+01  0.12278640206E+02  0.51100000000E-03 0.  1.
         12    1    3    3    0    0 -0.89044405176E+01 -0.13394975061E+02  0.77631234642E+01  0.17860025300E+02  0.00000000000E+00 0. -1.
</event>
<event>
 7    1  0.2985411E-011  0.5052884E+02  0.7816164E-02  0.1300439E+00
        -11   -1    0    0    0    0  0.00000000000E+00  0.00000000000E+00  0.45593999997E+02  0.45594000000E+02  0.51100000000E-03 0. -1.
         11   -1    0    0    0    0 -0.00000000000E+00 -0.00000000000E+00 -0.45593999997E+02  0.45594000000E+02  0.51100000000E-03 0.  1.
    9900012    2    1    2    0    0  0.32530109169E+02 -0.22189120687E+02  0.10129273505E+02  0.50528840378E+02  0.29999940814E+02 0.  0.
        -12    1    1    2    0    0 -0.32530109169E+02  0.22189120687E+02 -0.10129273505E+02  0.40659159622E+02  0.00000000000E+00 0.  1.
         11    1    3    3    0    0  0.67669967466E+01  0.22392426062E+01 -0.78002962450E+00  0.71704183207E+01  0.51100000000E-03 0. -1.
        -11    1    3    3    0    0  0.87824242757E+01 -0.25321875517E+00 -0.46799368268E+01  0.99547428324E+01  0.51100000000E-03 0.  1.
         12    1    3    3    0    0  0.16980688146E+02 -0.24175144538E+02  0.15589239957E+02  0.33403679225E+02  0.00000000000E+00 0. -1.
</event>
<event>
 7    1  0.2985411E-011  0.5052885E+02  0.7816164E-02  0.1300439E+00
        -11   -1    0    0    0    0  0.00000000000E+00  0.00000000000E+00  0.45593999997E+02  0.45594000000E+02  0.51100000000E-03 0.  1.
         11   -1    0    0    0    0 -0.00000000000E+00 -0.00000000000E+00 -0.45593999997E+02  0.45594000000E+02  0.51100000000E-03 0. -1.
    9900012    2    1    2    0    0 -0.98591211228E+01  0.39387839244E+02 -0.21359049498E+01  0.50528852940E+02  0.29999978998E+02 0.  0.
        -12    1    1    2    0    0  0.98591211228E+01 -0.39387839244E+02  0.21359049498E+01  0.40659147060E+02  0.00000000000E+00 0.  1.
         11    1    3    3    0    0 -0.12017157962E+02  0.36884362934E+02 -0.33026446254E+01  0.38932965162E+02  0.51100000000E-03 0. -1.
        -11    1    3    3    0    0 -0.42694730446E+01  0.27632919639E+01  0.18853095291E+00  0.50891774127E+01  0.51100000000E-03 0.  1.
        -12    1    3    3    0    0  0.64275098836E+01 -0.25981565365E+00  0.97820872268E+00  0.65067103657E+01  0.00000000000E+00 0.  1.
</event>
<event>
 7    1  0.2985411E-011  0.5052886E+02  0.7816164E-02  0.1300439E+00
        -11   -1    0    0    0    0  0.00000000000E+00  0.00000000000E+00  0.45593999997E+02  0.45594000000E+02  0.51100000000E-03 0.  1.
         11   -1    0    0    0    0 -0.00000000000E+00 -0.00000000000E+00 -0.45593999997E+02  0.45594000000E+02  0.51100000000E-03 0. -1.
    9900012    2    1    2    0    0 -0.18673796491E+02 -0.36093207625E+02  0.13174201814E+01  0.50528857018E+02  0.29999991392E+02 0.  0.
        -12    1    1    2    0    0  0.18673796491E+02  0.36093207625E+02 -0.13174201814E+01  0.40659142982E+02  0.00000000000E+00 0.  1.
         11    1    3    3    0    0 -0.34648707530E+01  0.37371722234E+01  0.36749127969E+01  0.62830541848E+01  0.51100000000E-03 0.  1.
        -11    1    3    3    0    0 -0.71541243192E+01 -0.10513925519E+02  0.37020193823E+01  0.13244964038E+02  0.51100000000E-03 0. -1.
         12    1    3    3    0    0 -0.80548014190E+01 -0.29316454330E+02 -0.60595119979E+01  0.31000838795E+02  0.00000000000E+00 0. -1.
</event>
<event>
 7    1  0.2985411E-011  0.5052887E+02  0.7816164E-02  0.1300439E+00
        -11   -1    0    0    0    0  0.00000000000E+00  0.00000000000E+00  0.45593999997E+02  0.45594000000E+02  0.51100000000E-03 0.  1.
         11   -1    0    0    0    0 -0.00000000000E+00 -0.00000000000E+00 -0.45593999997E+02  0.45594000000E+02  0.51100000000E-03 0. -1.
    9900012    2    1    2    0    0  0.12584105207E+02  0.31677141232E+02 -0.22166722531E+02  0.50528873494E+02  0.30000041472E+02 0.  0.
        -12    1    1    2    0    0 -0.12584105207E+02 -0.31677141232E+02  0.22166722531E+02  0.40659126506E+02  0.00000000000E+00 0.  1.
         11    1    3    3    0    0  0.41864520992E+01  0.25745032185E+01  0.58678853923E-01  0.49150677991E+01  0.51100000000E-03 0. -1.
        -11    1    3    3    0    0  0.36289151786E+01  0.12532927635E+02  0.45060922907E+01  0.13803918591E+02  0.51100000000E-03 0.  1.
         12    1    3    3    0    0  0.47687379291E+01  0.16569710379E+02 -0.26731493675E+02  0.31809887104E+02  0.00000000000E+00 0. -1.
</event>
<event>
 7    1  0.2985411E-011  0.5052887E+02  0.7816164E-02  0.1300439E+00
        -11   -1    0    0    0    0  0.00000000000E+00  0.00000000000E+00  0.45593999997E+02  0.45594000000E+02  0.51100000000E-03 0. -1.
         11   -1    0    0    0    0 -0.00000000000E+00 -0.00000000000E+00 -0.45593999997E+02  0.45594000000E+02  0.51100000000E-03 0.  1.
    9900012    2    1    2    0    0 -0.66749995699E+01 -0.40086290648E+02 -0.13033428430E+01  0.50528867941E+02  0.30000024595E+02 0.  0.
        -12    1    1    2    0    0  0.66749995699E+01  0.40086290648E+02  0.13033428430E+01  0.40659132059E+02  0.00000000000E+00 0.  1.
         11    1    3    3    0    0 -0.49431986414E+01 -0.17790274932E+02  0.49179601168E+01  0.19107993796E+02  0.51100000000E-03 0. -1.
        -11    1    3    3    0    0 -0.68412791352E+01 -0.10059209658E+02  0.58410213408E+01  0.13494751932E+02  0.51100000000E-03 0.  1.
         12    1    3    3    0    0  0.51094782067E+01 -0.12236806058E+02 -0.12062324301E+02  0.17926122213E+02  0.00000000000E+00 0. -1.
</event>
<event>
 7    1  0.2985411E-011  0.5052887E+02  0.7816164E-02  0.1300439E+00
        -11   -1    0    0    0    0  0.00000000000E+00  0.00000000000E+00  0.45593999997E+02  0.45594000000E+02  0.51100000000E-03 0. -1.
         11   -1    0    0    0    0 -0.00000000000E+00 -0.00000000000E+00 -0.45593999997E+02  0.45594000000E+02  0.51100000000E-03 0.  1.
    9900012    2    1    2    0    0  0.32901266158E+02  0.22758291566E+02  0.72616668035E+01  0.50528868743E+02  0.30000027031E+02 0.  0.
        -12    1    1    2    0    0 -0.32901266158E+02 -0.22758291566E+02 -0.72616668035E+01  0.40659131257E+02  0.00000000000E+00 0.  1.
         11    1    3    3    0    0  0.10835556367E+02  0.96385778630E+01  0.43234594101E+01  0.15132870400E+02  0.51100000000E-03 0. -1.
        -11    1    3    3    0    0  0.10396170437E+02  0.72418035119E+01  0.13559329606E+02  0.18557464737E+02  0.51100000000E-03 0.  1.
        -12    1    3    3    0    0  0.11669539353E+02  0.58779101914E+01 -0.10621122212E+02  0.16838533606E+02  0.00000000000E+00 0.  1.
</event>
<event>
 7    1  0.2985411E-011  0.5052886E+02  0.7816164E-02  0.1300439E+00
        -11   -1    0    0    0    0  0.00000000000E+00  0.00000000000E+00  0.45593999997E+02  0.45594000000E+02  0.51100000000E-03 0.  1.
         11   -1    0    0    0    0 -0.00000000000E+00 -0.00000000000E+00 -0.45593999997E+02  0.45594000000E+02  0.51100000000E-03 0. -1.
    9900012    2    1    2    0    0 -0.24716874377E+01 -0.27996258125E+02 -0.29381390044E+02  0.50528858485E+02  0.29999995850E+02 0.  0.
        -12    1    1    2    0    0  0.24716874377E+01  0.27996258125E+02  0.29381390044E+02  0.40659141515E+02  0.00000000000E+00 0.  1.
         11    1    3    3    0    0  0.23533872764E+01 -0.65774598150E+00  0.11997540408E+01  0.27222181155E+01  0.51100000000E-03 0. -1.
        -11    1    3    3    0    0 -0.42271558948E+00 -0.19846430741E+02 -0.45532080757E+01  0.20366423488E+02  0.51100000000E-03 0.  1.
         12    1    3    3    0    0 -0.44023591247E+01 -0.74920814027E+01 -0.26027936009E+02  0.27440216882E+02  0.00000000000E+00 0. -1.
</event>
<event>
 7    1  0.2985411E-011  0.5052891E+02  0.7816164E-02  0.1300439E+00
        -11   -1    0    0    0    0  0.00000000000E+00  0.00000000000E+00  0.45593999997E+02  0.45594000000E+02  0.51100000000E-03 0. -1.
         11   -1    0    0    0    0 -0.00000000000E+00 -0.00000000000E+00 -0.45593999997E+02  0.45594000000E+02  0.51100000000E-03 0.  1.
    9900012    2    1    2    0    0  0.20904289375E+02  0.34722088730E+02 -0.32478701005E+01  0.50528912206E+02  0.30000159141E+02 0.  0.
        -12    1    1    2    0    0 -0.20904289375E+02 -0.34722088730E+02  0.32478701005E+01  0.40659087794E+02  0.00000000000E+00 0.  1.
         11    1    3    3    0    0  0.32402661173E+01  0.35042665548E+01  0.70480012062E+01  0.85119639251E+01  0.51100000000E-03 0.  1.
        -11    1    3    3    0    0  0.13272586159E+02  0.20096240016E+02  0.28440014936E+01  0.24250953608E+02  0.51100000000E-03 0. -1.
         12    1    3    3    0    0  0.43914370990E+01  0.11121582159E+02 -0.13139872800E+02  0.17765994673E+02  0.00000000000E+00 0. -1.
</event>
<event>
 7    1  0.2985411E-011  0.5052886E+02  0.7816164E-02  0.1300439E+00
        -11   -1    0    0    0    0  0.00000000000E+00  0.00000000000E+00  0.45593999997E+02  0.45594000000E+02  0.51100000000E-03 0.  1.
         11   -1    0    0    0    0 -0.00000000000E+00 -0.00000000000E+00 -0.45593999997E+02  0.45594000000E+02  0.51100000000E-03 0. -1.
    9900012    2    1    2    0    0  0.21968103587E+02  0.92920785361E+00 -0.34200942957E+02  0.50528862016E+02  0.30000006584E+02 0.  0.
        -12    1    1    2    0    0 -0.21968103587E+02 -0.92920785361E+00  0.34200942957E+02  0.40659137984E+02  0.00000000000E+00 0.  1.
         11    1    3    3    0    0  0.82455824004E+01 -0.21406019831E+01 -0.95108392838E+01  0.12768236766E+02  0.51100000000E-03 0. -1.
        -11    1    3    3    0    0  0.21010505324E+02  0.21242090543E+01 -0.16864939886E+02  0.27025539693E+02  0.51100000000E-03 0.  1.
         12    1    3    3    0    0 -0.72879841372E+01  0.94560078240E+00 -0.78251637871E+01  0.10735085557E+02  0.00000000000E+00 0. -1.
</event>
<event>
 7    1  0.2985411E-011  0.5052886E+02  0.7816164E-02  0.1300439E+00
        -11   -1    0    0    0    0  0.00000000000E+00  0.00000000000E+00  0.45593999997E+02  0.45594000000E+02  0.51100000000E-03 0.  1.
         11   -1    0    0    0    0 -0.00000000000E+00 -0.00000000000E+00 -0.45593999997E+02  0.45594000000E+02  0.51100000000E-03 0. -1.
    9900012    2    1    2    0    0 -0.38710373318E+02 -0.62189798720E+01  0.10770186892E+02  0.50528860329E+02  0.30000001456E+02 0.  0.
        -12    1    1    2    0    0  0.38710373318E+02  0.62189798720E+01 -0.10770186892E+02  0.40659139671E+02  0.00000000000E+00 0.  1.
         11    1    3    3    0    0 -0.39788160224E+02 -0.12098705851E+01  0.11889981131E+02  0.41544351389E+02  0.51100000000E-03 0. -1.
        -11    1    3    3    0    0 -0.22673431863E+01 -0.26149694550E+01 -0.28872850603E+01  0.45072525618E+01  0.51100000000E-03 0.  1.
        -12    1    3    3    0    0  0.33451300918E+01 -0.23941398319E+01  0.17674908222E+01  0.44772563778E+01  0.00000000000E+00 0.  1.
</event>
<event>
 7    1  0.2985411E-011  0.5052880E+02  0.7816164E-02  0.1300439E+00
        -11   -1    0    0    0    0  0.00000000000E+00  0.00000000000E+00  0.45593999997E+02  0.45594000000E+02  0.51100000000E-03 0. -1.
         11   -1    0    0    0    0 -0.00000000000E+00 -0.00000000000E+00 -0.45593999997E+02  0.45594000000E+02  0.51100000000E-03 0.  1.
    9900012    2    1    2    0    0 -0.39323872210E+02 -0.67604063727E+01  0.78166610866E+01  0.50528804110E+02  0.29999830571E+02 0.  0.
        -12    1    1    2    0    0  0.39323872210E+02  0.67604063727E+01 -0.78166610866E+01  0.40659195890E+02  0.00000000000E+00 0.  1.
         11    1    3    3    0    0  0.41561734272E+01 -0.11443216986E+01  0.13943078940E+01  0.45307112545E+01  0.51100000000E-03 0. -1.
        -11    1    3    3    0    0  0.57639268435E+00 -0.42454541846E+00  0.11086921572E+01  0.13197219023E+01  0.51100000000E-03 0.  1.
         12    1    3    3    0    0 -0.44056438321E+02 -0.51915392557E+01  0.53136610354E+01  0.44678370953E+02  0.00000000000E+00 0. -1.
</event>
<event>
 7    1  0.2985411E-011  0.5052886E+02  0.7816164E-02  0.1300439E+00
        -11   -1    0    0    0    0  0.00000000000E+00  0.00000000000E+00  0.45593999997E+02  0.45594000000E+02  0.51100000000E-03 0.  1.
         11   -1    0    0    0    0 -0.00000000000E+00 -0.00000000000E+00 -0.45593999997E+02  0.45594000000E+02  0.51100000000E-03 0. -1.
    9900012    2    1    2    0    0  0.31319979851E+02  0.25880805949E+02 -0.15518018173E+01  0.50528863963E+02  0.30000012502E+02 0.  0.
        -12    1    1    2    0    0 -0.31319979851E+02 -0.25880805949E+02  0.15518018173E+01  0.40659136037E+02  0.00000000000E+00 0.  1.
         11    1    3    3    0    0  0.11361471787E+02  0.69334521345E+01  0.54379517665E+01  0.14378008184E+02  0.51100000000E-03 0. -1.
        -11    1    3    3    0    0  0.11665616904E+02  0.56040446703E+01  0.73472193692E+01  0.14881988010E+02  0.51100000000E-03 0.  1.
         12    1    3    3    0    0  0.82928911596E+01  0.13343309144E+02 -0.14336972953E+02  0.21268867769E+02  0.00000000000E+00 0. -1.
</event>
<event>
 7    1  0.2985411E-011  0.5052886E+02  0.7816164E-02  0.1300439E+00
        -11   -1    0    0    0    0  0.00000000000E+00  0.00000000000E+00  0.45593999997E+02  0.45594000000E+02  0.51100000000E-03 0. -1.
         11   -1    0    0    0    0 -0.00000000000E+00 -0.00000000000E+00 -0.45593999997E+02  0.45594000000E+02  0.51100000000E-03 0.  1.
    9900012    2    1    2    0    0 -0.17386433429E+02 -0.35365699855E+02  0.10007239511E+02  0.50528860360E+02  0.30000001551E+02 0.  0.
        -12    1    1    2    0    0  0.17386433429E+02  0.35365699855E+02 -0.10007239511E+02  0.40659139640E+02  0.00000000000E+00 0.  1.
         11    1    3    3    0    0 -0.79366682166E+01 -0.28758916382E+02  0.18942881559E+02  0.35339761400E+02  0.51100000000E-03 0. -1.
        -11    1    3    3    0    0 -0.60555289538E-01  0.50181317217E+00 -0.39613729090E+00  0.64219032787E+00  0.51100000000E-03 0.  1.
        -12    1    3    3    0    0 -0.93892099229E+01 -0.71085966456E+01 -0.85395047572E+01  0.14546908632E+02  0.00000000000E+00 0.  1.
</event>
<event>
 7    1  0.2985411E-011  0.5052886E+02  0.7816164E-02  0.1300439E+00
        -11   -1    0    0    0    0  0.00000000000E+00  0.00000000000E+00  0.45593999997E+02  0.45594000000E+02  0.51100000000E-03 0.  1.
         11   -1    0    0    0    0 -0.00000000000E+00 -0.00000000000E+00 -0.45593999997E+02  0.45594000000E+02  0.51100000000E-03 0. -1.
    9900012    2    1    2    0    0 -0.14360279669E+02  0.15812657801E+02 -0.34596355579E+02  0.50528860827E+02  0.30000002969E+02 0.  0.
        -12    1    1    2    0    0  0.14360279669E+02 -0.15812657801E+02  0.34596355579E+02  0.40659139173E+02  0.00000000000E+00 0.  1.
         11    1    3    3    0    0 -0.30452535905E+01  0.37049094993E+01  0.30814675753E+01  0.57004707268E+01  0.51100000000E-03 0. -1.
        -11    1    3    3    0    0  0.30307694931E+01  0.11459496888E+01 -0.17309567414E+02  0.17610221143E+02  0.51100000000E-03 0.  1.
        -12    1    3    3    0    0 -0.14345795572E+02  0.10961798613E+02 -0.20368255741E+02  0.27218168957E+02  0.00000000000E+00 0.  1.
</event>
<event>
 7    1  0.2985411E-011  0.5052889E+02  0.7816164E-02  0.1300439E+00
        -11   -1    0    0    0    0  0.00000000000E+00  0.00000000000E+00  0.45593999997E+02  0.45594000000E+02  0.51100000000E-03 0.  1.
         11   -1    0    0    0    0 -0.00000000000E+00 -0.00000000000E+00 -0.45593999997E+02  0.45594000000E+02  0.51100000000E-03 0. -1.
    9900012    2    1    2    0    0 -0.11482214361E+02 -0.30652970516E+01 -0.38883488009E+02  0.50528893611E+02  0.30000102619E+02 0.  0.
        -12    1    1    2    0    0  0.11482214361E+02  0.30652970516E+01  0.38883488009E+02  0.40659106389E+02  0.00000000000E+00 0.  1.
         11    1    3    3    0    0  0.12109521051E+01 -0.16458913789E+00 -0.24663077405E+01  0.27524840993E+01  0.51100000000E-03 0. -1.
        -11    1    3    3    0    0  0.40123394934E+01  0.53117463458E+01  0.24257080080E+00  0.66612580124E+01  0.51100000000E-03 0.  1.
         12    1    3    3    0    0 -0.16705505959E+02 -0.82124542595E+01 -0.36659751069E+02  0.41115151499E+02  0.00000000000E+00 0. -1.
</event>
<event>
 7    1  0.2985411E-011  0.5052885E+02  0.7816164E-02  0.1300439E+00
        -11   -1    0    0    0    0  0.00000000000E+00  0.00000000000E+00  0.45593999997E+02  0.45594000000E+02  0.51100000000E-03 0.  1.
         11   -1    0    0    0    0 -0.00000000000E+00 -0.00000000000E+00 -0.45593999997E+02  0.45594000000E+02  0.51100000000E-03 0. -1.
    9900012    2    1    2    0    0  0.12999536957E+02 -0.11726360418E+02 -0.36697019984E+02  0.50528846474E+02  0.29999959342E+02 0.  0.
        -12    1    1    2    0    0 -0.12999536957E+02  0.11726360418E+02  0.36697019984E+02  0.40659153526E+02  0.00000000000E+00 0.  1.
         11    1    3    3    0    0 -0.61673094148E+01 -0.10531780830E+00 -0.14679804119E+02  0.15923047651E+02  0.51100000000E-03 0. -1.
        -11    1    3    3    0    0  0.18536750692E+01  0.33107783712E+01 -0.24853098439E+01  0.45358714672E+01  0.51100000000E-03 0.  1.
         12    1    3    3    0    0  0.17313171303E+02 -0.14931820981E+02 -0.19531906021E+02  0.30069927356E+02  0.00000000000E+00 0. -1.
</event>
<event>
 7    1  0.2985411E-011  0.5052886E+02  0.7816164E-02  0.1300439E+00
        -11   -1    0    0    0    0  0.00000000000E+00  0.00000000000E+00  0.45593999997E+02  0.45594000000E+02  0.51100000000E-03 0.  1.
         11   -1    0    0    0    0 -0.00000000000E+00 -0.00000000000E+00 -0.45593999997E+02  0.45594000000E+02  0.51100000000E-03 0. -1.
    9900012    2    1    2    0    0  0.71860190248E+01  0.20111168399E+01 -0.39968512508E+02  0.50528862620E+02  0.30000008420E+02 0.  0.
        -12    1    1    2    0    0 -0.71860190248E+01 -0.20111168399E+01  0.39968512508E+02  0.40659137380E+02  0.00000000000E+00 0.  1.
         11    1    3    3    0    0 -0.32216307702E+01  0.60888223654E+01 -0.15116235702E+02  0.16611840497E+02  0.51100000000E-03 0.  1.
        -11    1    3    3    0    0 -0.27454351440E+00  0.13434310655E+01 -0.21409058654E+02  0.21452924600E+02  0.51100000000E-03 0. -1.
        -12    1    3    3    0    0  0.10682193309E+02 -0.54211365911E+01 -0.34432181516E+01  0.12464097524E+02  0.00000000000E+00 0.  1.
</event>
<event>
 7    1  0.2985411E-011  0.5052891E+02  0.7816164E-02  0.1300439E+00
        -11   -1    0    0    0    0  0.00000000000E+00  0.00000000000E+00  0.45593999997E+02  0.45594000000E+02  0.51100000000E-03 0. -1.
         11   -1    0    0    0    0 -0.00000000000E+00 -0.00000000000E+00 -0.45593999997E+02  0.45594000000E+02  0.51100000000E-03 0.  1.
    9900012    2    1    2    0    0  0.94613219371E+01  0.12726820981E-01  0.39542944343E+02  0.50528914643E+02  0.30000166548E+02 0.  0.
        -12    1    1    2    0    0 -0.94613219371E+01 -0.12726820981E-01 -0.39542944343E+02  0.40659085357E+02  0.00000000000E+00 0.  1.
         11    1    3    3    0    0  0.14803891122E+02  0.41090315654E+01  0.11859185148E+02  0.19408235504E+02  0.51100000000E-03 0.  1.
        -11    1    3    3    0    0 -0.57338807869E+01  0.32793048466E+01  0.15847326532E+02  0.17168837691E+02  0.51100000000E-03 0. -1.
        -12    1    3    3    0    0  0.39131160211E+00 -0.73756095910E+01  0.11836432663E+02  0.13951841448E+02  0.00000000000E+00 0.  1.
</event>
<event>
 7    1  0.2985411E-011  0.5052886E+02  0.7816164E-02  0.1300439E+00
        -11   -1    0    0    0    0  0.00000000000E+00  0.00000000000E+00  0.45593999997E+02  0.45594000000E+02  0.51100000000E-03 0.  1.
         11   -1    0    0    0    0 -0.00000000000E+00 -0.00000000000E+00 -0.45593999997E+02  0.45594000000E+02  0.51100000000E-03 0. -1.
    9900012    2    1    2    0    0 -0.29477301595E+02 -0.14312391964E+02 -0.24070937135E+02  0.50528857269E+02  0.29999992156E+02 0.  0.
        -12    1    1    2    0    0  0.29477301595E+02  0.14312391964E+02  0.24070937135E+02  0.40659142731E+02  0.00000000000E+00 0.  1.
         11    1    3    3    0    0 -0.90382386017E+00  0.67359217420E+00 -0.10670126961E+02  0.10729502953E+02  0.51100000000E-03 0. -1.
        -11    1    3    3    0    0 -0.55103613905E+01  0.45986879476E+01 -0.18404175928E+01  0.74093961069E+01  0.51100000000E-03 0.  1.
         12    1    3    3    0    0 -0.23063116344E+02 -0.19584672085E+02 -0.11560392581E+02  0.32389958209E+02  0.00000000000E+00 0. -1.
</event>
<event>
 7    1  0.2985411E-011  0.5052887E+02  0.7816164E-02  0.1300439E+00
        -11   -1    0    0    0    0  0.00000000000E+00  0.00000000000E+00  0.45593999997E+02  0.45594000000E+02  0.51100000000E-03 0.  1.
         11   -1    0    0    0    0 -0.00000000000E+00 -0.00000000000E+00 -0.45593999997E+02  0.45594000000E+02  0.51100000000E-03 0. -1.
    9900012    2    1    2    0    0 -0.18907911136E+02  0.12057788578E+02 -0.33915569571E+02  0.50528865378E+02  0.30000016801E+02 0.  0.
        -12    1    1    2    0    0  0.18907911136E+02 -0.12057788578E+02  0.33915569571E+02  0.40659134622E+02  0.00000000000E+00 0.  1.
         11    1    3    3    0    0 -0.12694026335E+02  0.53670981171E+01 -0.23525851968E+02  0.27265541584E+02  0.51100000000E-03 0. -1.
        -11    1    3    3    0    0 -0.80269027548E+01  0.12411275723E+02 -0.79722541789E+01  0.16793682439E+02  0.51100000000E-03 0.  1.
        -12    1    3    3    0    0  0.18130179543E+01 -0.57205852623E+01 -0.24174634243E+01  0.64696413543E+01  0.00000000000E+00 0.  1.
</event>
<event>
 7    1  0.2985411E-011  0.5052886E+02  0.7816164E-02  0.1300439E+00
        -11   -1    0    0    0    0  0.00000000000E+00  0.00000000000E+00  0.45593999997E+02  0.45594000000E+02  0.51100000000E-03 0.  1.
         11   -1    0    0    0    0 -0.00000000000E+00 -0.00000000000E+00 -0.45593999997E+02  0.45594000000E+02  0.51100000000E-03 0. -1.
    9900012    2    1    2    0    0 -0.23281294817E+02  0.18597347839E+02 -0.27663798008E+02  0.50528858897E+02  0.29999997104E+02 0.  0.
        -12    1    1    2    0    0  0.23281294817E+02 -0.18597347839E+02  0.27663798008E+02  0.40659141103E+02  0.00000000000E+00 0.  1.
         11    1    3    3    0    0 -0.10259413340E+02  0.40777050181E+00 -0.26558914774E+01  0.10605451365E+02  0.51100000000E-03 0. -1.
        -11    1    3    3    0    0 -0.11554284996E+02  0.11281285462E+02 -0.25090187726E+01  0.16342095304E+02  0.51100000000E-03 0.  1.
         12    1    3    3    0    0 -0.14675964806E+01  0.69082918747E+01 -0.22498887758E+02  0.23581312228E+02  0.00000000000E+00 0. -1.
</event>
<event>
 7    1  0.2985411E-011  0.5052886E+02  0.7816164E-02  0.1300439E+00
        -11   -1    0    0    0    0  0.00000000000E+00  0.00000000000E+00  0.45593999997E+02  0.45594000000E+02  0.51100000000E-03 0. -1.
         11   -1    0    0    0    0 -0.00000000000E+00 -0.00000000000E+00 -0.45593999997E+02  0.45594000000E+02  0.51100000000E-03 0.  1.
    9900012    2    1    2    0    0  0.27351508631E+02  0.29432558637E+02  0.62277518471E+01  0.50528862954E+02  0.30000009434E+02 0.  0.
        -12    1    1    2    0    0 -0.27351508631E+02 -0.29432558637E+02 -0.62277518471E+01  0.40659137046E+02  0.00000000000E+00 0.  1.
         11    1    3    3    0    0  0.37857557249E+01  0.35498941532E+01 -0.78093153197E+01  0.93765185934E+01  0.51100000000E-03 0. -1.
        -11    1    3    3    0    0  0.18189873380E+02  0.23626135133E+02  0.47591564252E+01  0.30194624109E+02  0.51100000000E-03 0.  1.
        -12    1    3    3    0    0  0.53758795254E+01  0.22565293502E+01  0.92779107416E+01  0.10957720251E+02  0.00000000000E+00 0.  1.
</event>
<event>
 7    1  0.2985411E-011  0.5052884E+02  0.7816164E-02  0.1300439E+00
        -11   -1    0    0    0    0  0.00000000000E+00  0.00000000000E+00  0.45593999997E+02  0.45594000000E+02  0.51100000000E-03 0.  1.
         11   -1    0    0    0    0 -0.00000000000E+00 -0.00000000000E+00 -0.45593999997E+02  0.45594000000E+02  0.51100000000E-03 0. -1.
    9900012    2    1    2    0    0 -0.25667625362E+02 -0.15360251946E+02 -0.27539114030E+02  0.50528841952E+02  0.29999945598E+02 0.  0.
        -12    1    1    2    0    0  0.25667625362E+02  0.15360251946E+02  0.27539114030E+02  0.40659158048E+02  0.00000000000E+00 0.  1.
         11    1    3    3    0    0 -0.90426788306E+01 -0.78294367111E+01 -0.27188619227E+02  0.29703385925E+02  0.51100000000E-03 0. -1.
        -11    1    3    3    0    0  0.62793998990E+00 -0.94576169554E+00 -0.19846848481E+01  0.22864269118E+01  0.51100000000E-03 0.  1.
        -12    1    3    3    0    0 -0.17252886522E+02 -0.65850535397E+01  0.16341900453E+01  0.18539029116E+02  0.00000000000E+00 0.  1.
</event>
<event>
 7    1  0.2985411E-011  0.5052884E+02  0.7816164E-02  0.1300439E+00
        -11   -1    0    0    0    0  0.00000000000E+00  0.00000000000E+00  0.45593999997E+02  0.45594000000E+02  0.51100000000E-03 0. -1.
         11   -1    0    0    0    0 -0.00000000000E+00 -0.00000000000E+00 -0.45593999997E+02  0.45594000000E+02  0.51100000000E-03 0.  1.
    9900012    2    1    2    0    0  0.27739996980E+01  0.30463451704E+02  0.26785256909E+02  0.50528844184E+02  0.29999952380E+02 0.  0.
        -12    1    1    2    0    0 -0.27739996980E+01 -0.30463451704E+02 -0.26785256909E+02  0.40659155816E+02  0.00000000000E+00 0.  1.
         11    1    3    3    0    0  0.60060245274E+01  0.10909700342E+02  0.12082787244E+02  0.17351877132E+02  0.51100000000E-03 0. -1.
        -11    1    3    3    0    0  0.30652069299E+01  0.20763576646E+02  0.16292894297E+02  0.26570284407E+02  0.51100000000E-03 0.  1.
        -12    1    3    3    0    0 -0.62972317593E+01 -0.12098252839E+01 -0.15904246321E+01  0.66066826439E+01  0.00000000000E+00 0.  1.
</event>
<event>
 7    1  0.2985411E-011  0.5052887E+02  0.7816164E-02  0.1300439E+00
        -11   -1    0    0    0    0  0.00000000000E+00  0.00000000000E+00  0.45593999997E+02  0.45594000000E+02  0.51100000000E-03 0.  1.
         11   -1    0    0    0    0 -0.00000000000E+00 -0.00000000000E+00 -0.45593999997E+02  0.45594000000E+02  0.51100000000E-03 0. -1.
    9900012    2    1    2    0    0  0.27573574666E+02  0.16784605897E+02 -0.24721242353E+02  0.50528870172E+02  0.30000031374E+02 0.  0.
        -12    1    1    2    0    0 -0.27573574666E+02 -0.16784605897E+02  0.24721242353E+02  0.40659129828E+02  0.00000000000E+00 0.  1.
         11    1    3    3    0    0  0.86335924559E+01  0.51925003269E+01 -0.11001241490E+02  0.14917382241E+02  0.51100000000E-03 0. -1.
        -11    1    3    3    0    0  0.21344386652E+02  0.16703439759E+02 -0.10218268905E+02  0.28965509852E+02  0.51100000000E-03 0.  1.
        -12    1    3    3    0    0 -0.24044044428E+01 -0.51113341888E+01 -0.35017319574E+01  0.66459780781E+01  0.00000000000E+00 0.  1.
</event>
<event>
 7    1  0.2985411E-011  0.5052890E+02  0.7816164E-02  0.1300439E+00
        -11   -1    0    0    0    0  0.00000000000E+00  0.00000000000E+00  0.45593999997E+02  0.45594000000E+02  0.51100000000E-03 0.  1.
         11   -1    0    0    0    0 -0.00000000000E+00 -0.00000000000E+00 -0.45593999997E+02  0.45594000000E+02  0.51100000000E-03 0. -1.
    9900012    2    1    2    0    0 -0.26569984684E+02 -0.98049450526E+01 -0.29172953208E+02  0.50528902218E+02  0.30000128782E+02 0.  0.
        -12    1    1    2    0    0  0.26569984684E+02  0.98049450526E+01  0.29172953208E+02  0.40659097782E+02  0.00000000000E+00 0.  1.
         11    1    3    3    0    0 -0.11588934420E+02 -0.19173025811E+01  0.63634859136E+00  0.11763689471E+02  0.51100000000E-03 0. -1.
        -11    1    3    3    0    0 -0.14786819610E+02 -0.17871508187E+01 -0.97597672331E+01  0.17807217608E+02  0.51100000000E-03 0.  1.
        -12    1    3    3    0    0 -0.19423065372E+00 -0.61004916528E+01 -0.20049534566E+02  0.20957995139E+02  0.00000000000E+00 0.  1.
</event>
<event>
 7    1  0.2985411E-011  0.5052886E+02  0.7816164E-02  0.1300439E+00
        -11   -1    0    0    0    0  0.00000000000E+00  0.00000000000E+00  0.45593999997E+02  0.45594000000E+02  0.51100000000E-03 0.  1.
         11   -1    0    0    0    0 -0.00000000000E+00 -0.00000000000E+00 -0.45593999997E+02  0.45594000000E+02  0.51100000000E-03 0. -1.
    9900012    2    1    2    0    0 -0.15420718560E+02  0.12633862920E+02 -0.35436594622E+02  0.50528864598E+02  0.30000014432E+02 0.  0.
        -12    1    1    2    0    0  0.15420718560E+02 -0.12633862920E+02  0.35436594622E+02  0.40659135402E+02  0.00000000000E+00 0.  1.
         11    1    3    3    0    0 -0.11803522959E+02  0.17407693961E+02 -0.30987268054E+02  0.37450790979E+02  0.51100000000E-03 0. -1.
        -11    1    3    3    0    0  0.11377753418E+01 -0.52684103193E+01 -0.59874837314E+01  0.80560934525E+01  0.51100000000E-03 0.  1.
        -12    1    3    3    0    0 -0.47549709430E+01  0.49457927827E+00  0.15381571628E+01  0.50219801661E+01  0.00000000000E+00 0.  1.
</event>
<event>
 7    1  0.2985411E-011  0.5052886E+02  0.7816164E-02  0.1300439E+00
        -11   -1    0    0    0    0  0.00000000000E+00  0.00000000000E+00  0.45593999997E+02  0.45594000000E+02  0.51100000000E-03 0.  1.
         11   -1    0    0    0    0 -0.00000000000E+00 -0.00000000000E+00 -0.45593999997E+02  0.45594000000E+02  0.51100000000E-03 0. -1.
    9900012    2    1    2    0    0 -0.23293247163E+02 -0.32891584500E+02  0.53603992286E+01  0.50528861123E+02  0.30000003870E+02 0.  0.
        -12    1    1    2    0    0  0.23293247163E+02  0.32891584500E+02 -0.53603992286E+01  0.40659138877E+02  0.00000000000E+00 0.  1.
         11    1    3    3    0    0  0.32887600936E+01  0.79608475733E+00 -0.11046646101E+01  0.35594912637E+01  0.51100000000E-03 0. -1.
        -11    1    3    3    0    0  0.20299810598E+00 -0.31814567781E+01 -0.39327689011E+01  0.50625632789E+01  0.51100000000E-03 0.  1.
        -12    1    3    3    0    0 -0.26785005363E+02 -0.30506212479E+02  0.10397832740E+02  0.41906806581E+02  0.00000000000E+00 0.  1.
</event>
<event>
 7    1  0.2985411E-011  0.5052886E+02  0.7816164E-02  0.1300439E+00
        -11   -1    0    0    0    0  0.00000000000E+00  0.00000000000E+00  0.45593999997E+02  0.45594000000E+02  0.51100000000E-03 0.  1.
         11   -1    0    0    0    0 -0.00000000000E+00 -0.00000000000E+00 -0.45593999997E+02  0.45594000000E+02  0.51100000000E-03 0. -1.
    9900012    2    1    2    0    0 -0.53373864316E+00  0.38241322680E+02  0.13801537360E+02  0.50528855017E+02  0.29999985309E+02 0.  0.
        -12    1    1    2    0    0  0.53373864316E+00 -0.38241322680E+02 -0.13801537360E+02  0.40659144983E+02  0.00000000000E+00 0.  1.
         11    1    3    3    0    0  0.11469540124E+02  0.19936363855E+02  0.20659766354E-01  0.23000203945E+02  0.51100000000E-03 0. -1.
        -11    1    3    3    0    0 -0.54699797479E+01  0.23238146676E+01  0.64532498416E+01  0.87729827785E+01  0.51100000000E-03 0.  1.
        -12    1    3    3    0    0 -0.65332990197E+01  0.15981144158E+02  0.73276277515E+01  0.18755668293E+02  0.00000000000E+00 0.  1.
</event>
<event>
 7    1  0.2985411E-011  0.5052887E+02  0.7816164E-02  0.1300439E+00
        -11   -1    0    0    0    0  0.00000000000E+00  0.00000000000E+00  0.45593999997E+02  0.45594000000E+02  0.51100000000E-03 0.  1.
         11   -1    0    0    0    0 -0.00000000000E+00 -0.00000000000E+00 -0.45593999997E+02  0.45594000000E+02  0.51100000000E-03 0. -1.
    9900012    2    1    2    0    0 -0.38047734922E+02  0.99102394204E+01 -0.10359638573E+02  0.50528867085E+02  0.30000021991E+02 0.  0.
        -12    1    1    2    0    0  0.38047734922E+02 -0.99102394204E+01  0.10359638573E+02  0.40659132915E+02  0.00000000000E+00 0.  1.
         11    1    3    3    0    0 -0.18365526348E+02 -0.36556800426E+01  0.10180459937E+01  0.18753478945E+02  0.51100000000E-03 0. -1.
        -11    1    3    3    0    0  0.16651705803E+01 -0.10794301620E+01 -0.46074021538E+01  0.50165842368E+01  0.51100000000E-03 0.  1.
         12    1    3    3    0    0 -0.21347379154E+02  0.14645349625E+02 -0.67702824125E+01  0.26758803903E+02  0.00000000000E+00 0. -1.
</event>
<event>
 7    1  0.2985411E-011  0.5052886E+02  0.7816164E-02  0.1300439E+00
        -11   -1    0    0    0    0  0.00000000000E+00  0.00000000000E+00  0.45593999997E+02  0.45594000000E+02  0.51100000000E-03 0.  1.
         11   -1    0    0    0    0 -0.00000000000E+00 -0.00000000000E+00 -0.45593999997E+02  0.45594000000E+02  0.51100000000E-03 0. -1.
    9900012    2    1    2    0    0 -0.86625751710E+01 -0.33705907022E+02 -0.21024680299E+02  0.50528861317E+02  0.30000004460E+02 0.  0.
        -12    1    1    2    0    0  0.86625751710E+01  0.33705907022E+02  0.21024680299E+02  0.40659138683E+02  0.00000000000E+00 0.  1.
         11    1    3    3    0    0 -0.63982975429E+01 -0.51094261030E+01 -0.10493830782E+01  0.82550379561E+01  0.51100000000E-03 0. -1.
        -11    1    3    3    0    0 -0.57991335397E+01  0.18954064928E+01 -0.59617275145E+01  0.85302233735E+01  0.51100000000E-03 0.  1.
         12    1    3    3    0    0  0.35348559116E+01 -0.30491887411E+02 -0.14013569706E+02  0.33743599988E+02  0.00000000000E+00 0. -1.
</event>
<event>
 7    1  0.2985411E-011  0.5052882E+02  0.7816164E-02  0.1300439E+00
        -11   -1    0    0    0    0  0.00000000000E+00  0.00000000000E+00  0.45593999997E+02  0.45594000000E+02  0.51100000000E-03 0.  1.
         11   -1    0    0    0    0 -0.00000000000E+00 -0.00000000000E+00 -0.45593999997E+02  0.45594000000E+02  0.51100000000E-03 0. -1.
    9900012    2    1    2    0    0 -0.13184459933E+02  0.29344614538E+02 -0.24864277294E+02  0.50528823035E+02  0.29999888097E+02 0.  0.
        -12    1    1    2    0    0  0.13184459933E+02 -0.29344614538E+02  0.24864277294E+02  0.40659176965E+02  0.00000000000E+00 0.  1.
         11    1    3    3    0    0 -0.12536455433E+02  0.12781357637E+02 -0.33960607263E+01  0.18222487388E+02  0.51100000000E-03 0. -1.
        -11    1    3    3    0    0 -0.16923633480E+01 -0.27696695725E+01 -0.82440234528E+01  0.88599710041E+01  0.51100000000E-03 0.  1.
        -12    1    3    3    0    0  0.10443588478E+01  0.19332926473E+02 -0.13224193115E+02  0.23446364643E+02  0.00000000000E+00 0.  1.
</event>
<event>
 7    1  0.2985411E-011  0.5052901E+02  0.7816164E-02  0.1300438E+00
        -11   -1    0    0    0    0  0.00000000000E+00  0.00000000000E+00  0.45593999997E+02  0.45594000000E+02  0.51100000000E-03 0. -1.
         11   -1    0    0    0    0 -0.00000000000E+00 -0.00000000000E+00 -0.45593999997E+02  0.45594000000E+02  0.51100000000E-03 0.  1.
    9900012    2    1    2    0    0 -0.92482477889E+01 -0.39224755619E+02  0.53890768477E+01  0.50529007270E+02  0.30000448096E+02 0.  0.
        -12    1    1    2    0    0  0.92482477889E+01  0.39224755619E+02 -0.53890768477E+01  0.40658992730E+02  0.00000000000E+00 0.  1.
         11    1    3    3    0    0 -0.20730739695E+01 -0.36633137988E+01  0.19834732653E+01  0.46531355156E+01  0.51100000000E-03 0. -1.
        -11    1    3    3    0    0 -0.92388389855E+01 -0.25574578364E+02 -0.10052191415E+02  0.28990718459E+02  0.51100000000E-03 0.  1.
        -12    1    3    3    0    0  0.20636651660E+01 -0.99868634562E+01  0.13457794998E+02  0.16885153295E+02  0.00000000000E+00 0.  1.
</event>
<event>
 7    1  0.2985411E-011  0.5052885E+02  0.7816164E-02  0.1300439E+00
        -11   -1    0    0    0    0  0.00000000000E+00  0.00000000000E+00  0.45593999997E+02  0.45594000000E+02  0.51100000000E-03 0.  1.
         11   -1    0    0    0    0 -0.00000000000E+00 -0.00000000000E+00 -0.45593999997E+02  0.45594000000E+02  0.51100000000E-03 0. -1.
    9900012    2    1    2    0    0  0.12571849217E+02  0.32195990272E+02  0.21413399743E+02  0.50528845178E+02  0.29999955402E+02 0.  0.
        -12    1    1    2    0    0 -0.12571849217E+02 -0.32195990272E+02 -0.21413399743E+02  0.40659154822E+02  0.00000000000E+00 0.  1.
         11    1    3    3    0    0  0.15041377439E+02  0.12063279099E+02  0.10828809647E+02  0.22113996846E+02  0.51100000000E-03 0. -1.
        -11    1    3    3    0    0 -0.53822033946E+00  0.26190716262E+01  0.10458200670E+02  0.10794590258E+02  0.51100000000E-03 0.  1.
         12    1    3    3    0    0 -0.19313078828E+01  0.17513639546E+02  0.12638942602E+00  0.17620258073E+02  0.00000000000E+00 0. -1.
</event>
<event>
 7    1  0.2985411E-011  0.5052887E+02  0.7816164E-02  0.1300439E+00
        -11   -1    0    0    0    0  0.00000000000E+00  0.00000000000E+00  0.45593999997E+02  0.45594000000E+02  0.51100000000E-03 0. -1.
         11   -1    0    0    0    0 -0.00000000000E+00 -0.00000000000E+00 -0.45593999997E+02  0.45594000000E+02  0.51100000000E-03 0.  1.
    9900012    2    1    2    0    0 -0.32373417538E+01  0.35277499679E+02  0.19954520331E+02  0.50528865149E+02  0.30000016106E+02 0.  0.
        -12    1    1    2    0    0  0.32373417538E+01 -0.35277499679E+02 -0.19954520331E+02  0.40659134851E+02  0.00000000000E+00 0.  1.
         11    1    3    3    0    0 -0.46679998887E+00  0.46966954906E+01  0.13933924334E+01  0.49212187002E+01  0.51100000000E-03 0. -1.
        -11    1    3    3    0    0 -0.85960496986E+00  0.31597955649E+02  0.51542403377E+01  0.32027112196E+02  0.51100000000E-03 0.  1.
         12    1    3    3    0    0 -0.19109367950E+01 -0.10171514608E+01  0.13406887560E+02  0.13580534252E+02  0.00000000000E+00 0. -1.
</event>
<event>
 7    1  0.2985411E-011  0.5052887E+02  0.7816164E-02  0.1300439E+00
        -11   -1    0    0    0    0  0.00000000000E+00  0.00000000000E+00  0.45593999997E+02  0.45594000000E+02  0.51100000000E-03 0.  1.
         11   -1    0    0    0    0 -0.00000000000E+00 -0.00000000000E+00 -0.45593999997E+02  0.45594000000E+02  0.51100000000E-03 0. -1.
    9900012    2    1    2    0    0 -0.60742621766E+01 -0.23946282794E+02 -0.32293091359E+02  0.50528869781E+02  0.30000030186E+02 0.  0.
        -12    1    1    2    0    0  0.60742621766E+01  0.23946282794E+02  0.32293091359E+02  0.40659130219E+02  0.00000000000E+00 0.  1.
         11    1    3    3    0    0 -0.64465195291E+01 -0.50937408749E+01 -0.14676175455E+01  0.83461195571E+01  0.51100000000E-03 0. -1.
        -11    1    3    3    0    0 -0.96737355405E+01 -0.70389589274E+01 -0.73285761972E+01  0.14029830057E+02  0.51100000000E-03 0.  1.
        -12    1    3    3    0    0  0.10045992893E+02 -0.11813582992E+02 -0.23496897617E+02  0.28152920167E+02  0.00000000000E+00 0.  1.
</event>
<event>
 7    1  0.2985411E-011  0.5052886E+02  0.7816164E-02  0.1300439E+00
        -11   -1    0    0    0    0  0.00000000000E+00  0.00000000000E+00  0.45593999997E+02  0.45594000000E+02  0.51100000000E-03 0.  1.
         11   -1    0    0    0    0 -0.00000000000E+00 -0.00000000000E+00 -0.45593999997E+02  0.45594000000E+02  0.51100000000E-03 0. -1.
    9900012    2    1    2    0    0  0.18265039398E+02  0.35535725100E+02 -0.75343494099E+01  0.50528857810E+02  0.29999993800E+02 0.  0.
        -12    1    1    2    0    0 -0.18265039398E+02 -0.35535725100E+02  0.75343494099E+01  0.40659142190E+02  0.00000000000E+00 0.  1.
         11    1    3    3    0    0  0.68253807397E+01  0.11041050576E+02  0.13331607011E+01  0.13048675710E+02  0.51100000000E-03 0. -1.
        -11    1    3    3    0    0  0.18153009786E+01  0.10703335455E+02  0.81346166610E+01  0.13565717674E+02  0.51100000000E-03 0.  1.
         12    1    3    3    0    0  0.96243576792E+01  0.13791339069E+02 -0.17002126772E+02  0.23914464427E+02  0.00000000000E+00 0. -1.
</event>
<event>
 7    1  0.2985411E-011  0.5052885E+02  0.7816164E-02  0.1300439E+00
        -11   -1    0    0    0    0  0.00000000000E+00  0.00000000000E+00  0.45593999997E+02  0.45594000000E+02  0.51100000000E-03 0.  1.
         11   -1    0    0    0    0 -0.00000000000E+00 -0.00000000000E+00 -0.45593999997E+02  0.45594000000E+02  0.51100000000E-03 0. -1.
    9900012    2    1    2    0    0 -0.51358682535E+01 -0.39350475062E+02 -0.88503863919E+01  0.50528851342E+02  0.29999974139E+02 0.  0.
        -12    1    1    2    0    0  0.51358682535E+01  0.39350475062E+02  0.88503863919E+01  0.40659148658E+02  0.00000000000E+00 0.  1.
         11    1    3    3    0    0  0.10636434742E+01 -0.57545727059E+01 -0.78109391498E+01  0.97599802833E+01  0.51100000000E-03 0. -1.
        -11    1    3    3    0    0 -0.78285433331E+01 -0.22435683943E+01  0.38291119518E+01  0.89989881908E+01  0.51100000000E-03 0.  1.
         12    1    3    3    0    0  0.16290316054E+01 -0.31352333962E+02 -0.48685591939E+01  0.31769882868E+02  0.00000000000E+00 0. -1.
</event>
<event>
 7    1  0.2985411E-011  0.5052885E+02  0.7816164E-02  0.1300439E+00
        -11   -1    0    0    0    0  0.00000000000E+00  0.00000000000E+00  0.45593999997E+02  0.45594000000E+02  0.51100000000E-03 0.  1.
         11   -1    0    0    0    0 -0.00000000000E+00 -0.00000000000E+00 -0.45593999997E+02  0.45594000000E+02  0.51100000000E-03 0. -1.
    9900012    2    1    2    0    0 -0.11371116671E+02  0.32195066164E+02 -0.22075819552E+02  0.50528851109E+02  0.29999973431E+02 0.  0.
        -12    1    1    2    0    0  0.11371116671E+02 -0.32195066164E+02  0.22075819552E+02  0.40659148891E+02  0.00000000000E+00 0.  1.
         11    1    3    3    0    0 -0.11691416938E+02  0.10933833374E+00 -0.50548554607E+01  0.12737847106E+02  0.51100000000E-03 0. -1.
        -11    1    3    3    0    0 -0.10062122581E+01  0.77862085021E+00  0.10224355576E+01  0.16322035006E+01  0.51100000000E-03 0.  1.
        -12    1    3    3    0    0  0.13265125251E+01  0.31307106980E+02 -0.18043399648E+02  0.36158800503E+02  0.00000000000E+00 0.  1.
</event>
<event>
 7    1  0.2985411E-011  0.5052886E+02  0.7816164E-02  0.1300439E+00
        -11   -1    0    0    0    0  0.00000000000E+00  0.00000000000E+00  0.45593999997E+02  0.45594000000E+02  0.51100000000E-03 0. -1.
         11   -1    0    0    0    0 -0.00000000000E+00 -0.00000000000E+00 -0.45593999997E+02  0.45594000000E+02  0.51100000000E-03 0.  1.
    9900012    2    1    2    0    0 -0.77200500321E+01 -0.27861107937E+02  0.28588896208E+02  0.50528862105E+02  0.30000006854E+02 0.  0.
        -12    1    1    2    0    0  0.77200500321E+01  0.27861107937E+02 -0.28588896208E+02  0.40659137895E+02  0.00000000000E+00 0.  1.
         11    1    3    3    0    0 -0.26205479292E+00  0.17574959674E+01  0.25517150427E+01  0.31094556936E+01  0.51100000000E-03 0. -1.
        -11    1    3    3    0    0 -0.23269340071E+01 -0.52672336886E+01 -0.50076874178E+01  0.76312060737E+01  0.51100000000E-03 0.  1.
         12    1    3    3    0    0 -0.51310612320E+01 -0.24351370216E+02  0.31044868583E+02  0.39788200338E+02  0.00000000000E+00 0. -1.
</event>
<event>
 7    1  0.2985411E-011  0.5052886E+02  0.7816164E-02  0.1300439E+00
        -11   -1    0    0    0    0  0.00000000000E+00  0.00000000000E+00  0.45593999997E+02  0.45594000000E+02  0.51100000000E-03 0. -1.
         11   -1    0    0    0    0 -0.00000000000E+00 -0.00000000000E+00 -0.45593999997E+02  0.45594000000E+02  0.51100000000E-03 0.  1.
    9900012    2    1    2    0    0  0.92154082510E+01 -0.24639279083E+02  0.31002382892E+02  0.50528861200E+02  0.30000004104E+02 0.  0.
        -12    1    1    2    0    0 -0.92154082510E+01  0.24639279083E+02 -0.31002382892E+02  0.40659138800E+02  0.00000000000E+00 0.  1.
         11    1    3    3    0    0 -0.11474905395E+00  0.35903167660E+01  0.19464259153E+01  0.40855986012E+01  0.51100000000E-03 0. -1.
        -11    1    3    3    0    0 -0.39721986522E+01 -0.21133522347E+00  0.50592354644E-01  0.39781383280E+01  0.51100000000E-03 0.  1.
         12    1    3    3    0    0  0.13302355957E+02 -0.28018260626E+02  0.29005364622E+02  0.42465124271E+02  0.00000000000E+00 0. -1.
</event>
<event>
 7    1  0.2985411E-011  0.5052883E+02  0.7816164E-02  0.1300439E+00
        -11   -1    0    0    0    0  0.00000000000E+00  0.00000000000E+00  0.45593999997E+02  0.45594000000E+02  0.51100000000E-03 0. -1.
         11   -1    0    0    0    0 -0.00000000000E+00 -0.00000000000E+00 -0.45593999997E+02  0.45594000000E+02  0.51100000000E-03 0.  1.
    9900012    2    1    2    0    0 -0.22285528211E+02 -0.22356312948E+02  0.25626517661E+02  0.50528832477E+02  0.29999916796E+02 0.  0.
        -12    1    1    2    0    0  0.22285528211E+02  0.22356312948E+02 -0.25626517661E+02  0.40659167523E+02  0.00000000000E+00 0.  1.
         11    1    3    3    0    0 -0.15997140782E+02 -0.63519524312E+01  0.60075415696E+01  0.18230369411E+02  0.51100000000E-03 0. -1.
        -11    1    3    3    0    0 -0.26042741947E+01  0.40661163650E+01  0.62716101704E+01  0.79150894351E+01  0.51100000000E-03 0.  1.
        -12    1    3    3    0    0 -0.36841132341E+01 -0.20070476882E+02  0.13347365921E+02  0.24383373631E+02  0.00000000000E+00 0.  1.
</event>
<event>
 7    1  0.2985411E-011  0.5052885E+02  0.7816164E-02  0.1300439E+00
        -11   -1    0    0    0    0  0.00000000000E+00  0.00000000000E+00  0.45593999997E+02  0.45594000000E+02  0.51100000000E-03 0.  1.
         11   -1    0    0    0    0 -0.00000000000E+00 -0.00000000000E+00 -0.45593999997E+02  0.45594000000E+02  0.51100000000E-03 0. -1.
    9900012    2    1    2    0    0  0.91696040533E+01 -0.54275424031E+00 -0.39607955651E+02  0.50528851318E+02  0.29999974068E+02 0.  0.
        -12    1    1    2    0    0 -0.91696040533E+01  0.54275424031E+00  0.39607955651E+02  0.40659148682E+02  0.00000000000E+00 0.  1.
         11    1    3    3    0    0  0.13431949291E+02 -0.31106796741E+01 -0.21170842907E+02  0.25264563710E+02  0.51100000000E-03 0. -1.
        -11    1    3    3    0    0  0.63887317482E+01  0.87277200797E+00 -0.60794588513E+01  0.88621354376E+01  0.51100000000E-03 0.  1.
        -12    1    3    3    0    0 -0.10651076986E+02  0.16951534258E+01 -0.12357653893E+02  0.16402152171E+02  0.00000000000E+00 0.  1.
</event>
<event>
 7    1  0.2985411E-011  0.5052887E+02  0.7816164E-02  0.1300439E+00
        -11   -1    0    0    0    0  0.00000000000E+00  0.00000000000E+00  0.45593999997E+02  0.45594000000E+02  0.51100000000E-03 0. -1.
         11   -1    0    0    0    0 -0.00000000000E+00 -0.00000000000E+00 -0.45593999997E+02  0.45594000000E+02  0.51100000000E-03 0.  1.
    9900012    2    1    2    0    0 -0.15789029826E+02 -0.28656098041E+02  0.24139168800E+02  0.50528869560E+02  0.30000029515E+02 0.  0.
        -12    1    1    2    0    0  0.15789029826E+02  0.28656098041E+02 -0.24139168800E+02  0.40659130440E+02  0.00000000000E+00 0.  1.
         11    1    3    3    0    0 -0.96426368008E+01 -0.13441661473E+02  0.30360554719E+01  0.16818928049E+02  0.51100000000E-03 0. -1.
        -11    1    3    3    0    0 -0.11025776982E+02 -0.80267543868E+01  0.35002499054E+01  0.14080067248E+02  0.51100000000E-03 0.  1.
        -12    1    3    3    0    0  0.48793839564E+01 -0.71876821813E+01  0.17602863423E+02  0.19629874264E+02  0.00000000000E+00 0.  1.
</event>
<event>
 7    1  0.2985411E-011  0.5052883E+02  0.7816164E-02  0.1300439E+00
        -11   -1    0    0    0    0  0.00000000000E+00  0.00000000000E+00  0.45593999997E+02  0.45594000000E+02  0.51100000000E-03 0. -1.
         11   -1    0    0    0    0 -0.00000000000E+00 -0.00000000000E+00 -0.45593999997E+02  0.45594000000E+02  0.51100000000E-03 0.  1.
    9900012    2    1    2    0    0 -0.31684619148E+01 -0.39420539620E+02 -0.94419432562E+01  0.50528826530E+02  0.29999898721E+02 0.  0.
        -12    1    1    2    0    0  0.31684619148E+01  0.39420539620E+02  0.94419432562E+01  0.40659173470E+02  0.00000000000E+00 0.  1.
         11    1    3    3    0    0  0.12118957282E+01 -0.11886357722E+02 -0.34192501300E+01  0.12427608895E+02  0.51100000000E-03 0. -1.
        -11    1    3    3    0    0  0.62787610405E+00 -0.11127240028E+02 -0.15041579606E+02  0.18720545301E+02  0.51100000000E-03 0.  1.
        -12    1    3    3    0    0 -0.50082337470E+01 -0.16406941870E+02  0.90188864800E+01  0.19380672334E+02  0.00000000000E+00 0.  1.
</event>
<event>
 7    1  0.2985411E-011  0.5052888E+02  0.7816164E-02  0.1300439E+00
        -11   -1    0    0    0    0  0.00000000000E+00  0.00000000000E+00  0.45593999997E+02  0.45594000000E+02  0.51100000000E-03 0. -1.
         11   -1    0    0    0    0 -0.00000000000E+00 -0.00000000000E+00 -0.45593999997E+02  0.45594000000E+02  0.51100000000E-03 0.  1.
    9900012    2    1    2    0    0 -0.19418713769E+02 -0.23444765260E+02  0.26952194732E+02  0.50528877243E+02  0.30000052867E+02 0.  0.
        -12    1    1    2    0    0  0.19418713769E+02  0.23444765260E+02 -0.26952194732E+02  0.40659122757E+02  0.00000000000E+00 0.  1.
         11    1    3    3    0    0 -0.54118144916E+01  0.19801160120E+01  0.32169620390E+00  0.57716621714E+01  0.51100000000E-03 0. -1.
        -11    1    3    3    0    0 -0.43105495510E+01 -0.16978129637E+00  0.14466051353E+02  0.15095572368E+02  0.51100000000E-03 0.  1.
         12    1    3    3    0    0 -0.96963497261E+01 -0.25255099976E+02  0.12164447175E+02  0.29661642703E+02  0.00000000000E+00 0. -1.
</event>
<event>
 7    1  0.2985411E-011  0.5052888E+02  0.7816164E-02  0.1300439E+00
        -11   -1    0    0    0    0  0.00000000000E+00  0.00000000000E+00  0.45593999997E+02  0.45594000000E+02  0.51100000000E-03 0.  1.
         11   -1    0    0    0    0 -0.00000000000E+00 -0.00000000000E+00 -0.45593999997E+02  0.45594000000E+02  0.51100000000E-03 0. -1.
    9900012    2    1    2    0    0 -0.89315446957E+01 -0.29255050828E+00 -0.39664918282E+02  0.50528882710E+02  0.30000069487E+02 0.  0.
        -12    1    1    2    0    0  0.89315446957E+01  0.29255050828E+00  0.39664918282E+02  0.40659117290E+02  0.00000000000E+00 0.  1.
         11    1    3    3    0    0 -0.29992396260E+00  0.40463657603E+00 -0.18501791961E+02  0.18508646390E+02  0.51100000000E-03 0. -1.
        -11    1    3    3    0    0  0.62193362050E+01 -0.15029551981E+01 -0.14247407782E+02  0.15618183183E+02  0.51100000000E-03 0.  1.
        -12    1    3    3    0    0 -0.14850956938E+02  0.80576811378E+00 -0.69157185383E+01  0.16402053138E+02  0.00000000000E+00 0.  1.
</event>
<event>
 7    1  0.2985411E-011  0.5052886E+02  0.7816164E-02  0.1300439E+00
        -11   -1    0    0    0    0  0.00000000000E+00  0.00000000000E+00  0.45593999997E+02  0.45594000000E+02  0.51100000000E-03 0.  1.
         11   -1    0    0    0    0 -0.00000000000E+00 -0.00000000000E+00 -0.45593999997E+02  0.45594000000E+02  0.51100000000E-03 0. -1.
    9900012    2    1    2    0    0  0.20766236463E+02 -0.32027703904E+02 -0.14005550952E+02  0.50528857711E+02  0.29999993499E+02 0.  0.
        -12    1    1    2    0    0 -0.20766236463E+02  0.32027703904E+02  0.14005550952E+02  0.40659142289E+02  0.00000000000E+00 0.  1.
         11    1    3    3    0    0  0.46644178626E+01 -0.19232614635E+02  0.42931614032E+01  0.20250469002E+02  0.51100000000E-03 0. -1.
        -11    1    3    3    0    0 -0.15260666117E+01 -0.60459449585E+00  0.55571864975E+00  0.17329850798E+01  0.51100000000E-03 0.  1.
         12    1    3    3    0    0  0.17627885212E+02 -0.12190494773E+02 -0.18854431005E+02  0.28545403630E+02  0.00000000000E+00 0. -1.
</event>
<event>
 7    1  0.2985411E-011  0.5052886E+02  0.7816164E-02  0.1300439E+00
        -11   -1    0    0    0    0  0.00000000000E+00  0.00000000000E+00  0.45593999997E+02  0.45594000000E+02  0.51100000000E-03 0. -1.
         11   -1    0    0    0    0 -0.00000000000E+00 -0.00000000000E+00 -0.45593999997E+02  0.45594000000E+02  0.51100000000E-03 0.  1.
    9900012    2    1    2    0    0  0.91792827304E+01 -0.19648567282E+02  0.34392442304E+02  0.50528861847E+02  0.30000006070E+02 0.  0.
        -12    1    1    2    0    0 -0.91792827304E+01  0.19648567282E+02 -0.34392442304E+02  0.40659138153E+02  0.00000000000E+00 0.  1.
         11    1    3    3    0    0 -0.56096253717E+00  0.12604389647E+01  0.11323454441E+02  0.11407190981E+02  0.51100000000E-03 0. -1.
        -11    1    3    3    0    0 -0.25171290690E+01 -0.18226019983E+02  0.17504844536E+02  0.25395734399E+02  0.51100000000E-03 0.  1.
        -12    1    3    3    0    0  0.12257374337E+02 -0.26829862638E+01  0.55641433272E+01  0.13725936467E+02  0.00000000000E+00 0.  1.
</event>
<event>
 7    1  0.2985411E-011  0.5052887E+02  0.7816164E-02  0.1300439E+00
        -11   -1    0    0    0    0  0.00000000000E+00  0.00000000000E+00  0.45593999997E+02  0.45594000000E+02  0.51100000000E-03 0. -1.
         11   -1    0    0    0    0 -0.00000000000E+00 -0.00000000000E+00 -0.45593999997E+02  0.45594000000E+02  0.51100000000E-03 0.  1.
    9900012    2    1    2    0    0  0.38327340583E+02 -0.15081580307E+01  0.13487237191E+02  0.50528866415E+02  0.30000019956E+02 0.  0.
        -12    1    1    2    0    0 -0.38327340583E+02  0.15081580307E+01 -0.13487237191E+02  0.40659133585E+02  0.00000000000E+00 0.  1.
         11    1    3    3    0    0  0.22836103956E+02  0.17845086164E+01  0.66395783655E+01  0.23848608262E+02  0.51100000000E-03 0. -1.
        -11    1    3    3    0    0  0.16826844189E+02  0.79075023398E+00 -0.18824380150E+01  0.16950266796E+02  0.51100000000E-03 0.  1.
         12    1    3    3    0    0 -0.13356075623E+01 -0.40834168810E+01  0.87300968401E+01  0.97299913577E+01  0.00000000000E+00 0. -1.
</event>
<event>
 7    1  0.2985411E-011  0.5052882E+02  0.7816164E-02  0.1300439E+00
        -11   -1    0    0    0    0  0.00000000000E+00  0.00000000000E+00  0.45593999997E+02  0.45594000000E+02  0.51100000000E-03 0.  1.
         11   -1    0    0    0    0 -0.00000000000E+00 -0.00000000000E+00 -0.45593999997E+02  0.45594000000E+02  0.51100000000E-03 0. -1.
    9900012    2    1    2    0    0 -0.13592752350E+02 -0.13374059923E+02 -0.35910174049E+02  0.50528819050E+02  0.29999875985E+02 0.  0.
        -12    1    1    2    0    0  0.13592752350E+02  0.13374059923E+02  0.35910174049E+02  0.40659180950E+02  0.00000000000E+00 0.  1.
         11    1    3    3    0    0 -0.63771851679E+01  0.33366460751E+01 -0.25697484391E+02  0.26686371091E+02  0.51100000000E-03 0. -1.
        -11    1    3    3    0    0 -0.15179750166E+01  0.16628642364E+01 -0.56163376853E+00  0.23205168327E+01  0.51100000000E-03 0.  1.
         12    1    3    3    0    0 -0.56975921656E+01 -0.18373570235E+02 -0.96510558892E+01  0.21521931127E+02  0.00000000000E+00 0. -1.
</event>
<event>
 7    1  0.2985411E-011  0.5052885E+02  0.7816164E-02  0.1300439E+00
        -11   -1    0    0    0    0  0.00000000000E+00  0.00000000000E+00  0.45593999997E+02  0.45594000000E+02  0.51100000000E-03 0.  1.
         11   -1    0    0    0    0 -0.00000000000E+00 -0.00000000000E+00 -0.45593999997E+02  0.45594000000E+02  0.51100000000E-03 0. -1.
    9900012    2    1    2    0    0 -0.32157077221E+02 -0.74929510859E+01 -0.23726451444E+02  0.50528850605E+02  0.29999971899E+02 0.  0.
        -12    1    1    2    0    0  0.32157077221E+02  0.74929510859E+01  0.23726451444E+02  0.40659149395E+02  0.00000000000E+00 0.  1.
         11    1    3    3    0    0 -0.23415170043E+01 -0.37367568828E+01  0.98415154824E+00  0.45182528054E+01  0.51100000000E-03 0. -1.
        -11    1    3    3    0    0  0.38049964956E+01 -0.15249383609E+01 -0.65677877173E+01  0.77420456661E+01  0.51100000000E-03 0.  1.
         12    1    3    3    0    0 -0.33620556712E+02 -0.22312558422E+01 -0.18142815275E+02  0.38268552134E+02  0.00000000000E+00 0. -1.
</event>
<event>
 7    1  0.2985411E-011  0.5052886E+02  0.7816164E-02  0.1300439E+00
        -11   -1    0    0    0    0  0.00000000000E+00  0.00000000000E+00  0.45593999997E+02  0.45594000000E+02  0.51100000000E-03 0.  1.
         11   -1    0    0    0    0 -0.00000000000E+00 -0.00000000000E+00 -0.45593999997E+02  0.45594000000E+02  0.51100000000E-03 0. -1.
    9900012    2    1    2    0    0  0.23161077061E+02 -0.19859311725E+02 -0.26876349848E+02  0.50528856699E+02  0.29999990423E+02 0.  0.
        -12    1    1    2    0    0 -0.23161077061E+02  0.19859311725E+02  0.26876349848E+02  0.40659143301E+02  0.00000000000E+00 0.  1.
         11    1    3    3    0    0  0.11890495276E+02 -0.10793495580E+02 -0.16698499801E+02  0.23167289885E+02  0.51100000000E-03 0. -1.
        -11    1    3    3    0    0  0.15304002241E+02 -0.58902408389E+01 -0.49943751127E+00  0.16406000726E+02  0.51100000000E-03 0.  1.
         12    1    3    3    0    0 -0.40334204562E+01 -0.31755753059E+01 -0.96784125357E+01  0.10955566088E+02  0.00000000000E+00 0. -1.
</event>
<event>
 7    1  0.2985411E-011  0.5052887E+02  0.7816164E-02  0.1300439E+00
        -11   -1    0    0    0    0  0.00000000000E+00  0.00000000000E+00  0.45593999997E+02  0.45594000000E+02  0.51100000000E-03 0. -1.
         11   -1    0    0    0    0 -0.00000000000E+00 -0.00000000000E+00 -0.45593999997E+02  0.45594000000E+02  0.51100000000E-03 0.  1.
    9900012    2    1    2    0    0  0.40245568057E+02 -0.10478605194E+01  0.56886949349E+01  0.50528868062E+02  0.30000024962E+02 0.  0.
        -12    1    1    2    0    0 -0.40245568057E+02  0.10478605194E+01 -0.56886949349E+01  0.40659131938E+02  0.00000000000E+00 0.  1.
         11    1    3    3    0    0  0.24548216015E+00 -0.85764539746E+00  0.53628528631E+00  0.10408742903E+01  0.51100000000E-03 0. -1.
        -11    1    3    3    0    0  0.17806590276E+01  0.76500469242E+01  0.68697405924E+01  0.10434907790E+02  0.51100000000E-03 0.  1.
         12    1    3    3    0    0  0.38219426869E+02 -0.78402620461E+01 -0.17173309438E+01  0.39053085982E+02  0.00000000000E+00 0. -1.
</event>
<event>
 7    1  0.2985411E-011  0.5052883E+02  0.7816164E-02  0.1300439E+00
        -11   -1    0    0    0    0  0.00000000000E+00  0.00000000000E+00  0.45593999997E+02  0.45594000000E+02  0.51100000000E-03 0.  1.
         11   -1    0    0    0    0 -0.00000000000E+00 -0.00000000000E+00 -0.45593999997E+02  0.45594000000E+02  0.51100000000E-03 0. -1.
    9900012    2    1    2    0    0 -0.75036056444E+01  0.24089151165E+02 -0.31883804376E+02  0.50528827812E+02  0.29999902616E+02 0.  0.
        -12    1    1    2    0    0  0.75036056444E+01 -0.24089151165E+02  0.31883804376E+02  0.40659172188E+02  0.00000000000E+00 0.  1.
         11    1    3    3    0    0 -0.84651923582E+01  0.14373313544E+02 -0.23381632873E+02  0.28721984262E+02  0.51100000000E-03 0. -1.
        -11    1    3    3    0    0 -0.40142545523E+01  0.13137056718E+02 -0.41048285467E+01  0.14336879594E+02  0.51100000000E-03 0.  1.
         12    1    3    3    0    0  0.49758412661E+01 -0.34212190970E+01 -0.43973429567E+01  0.74699639554E+01  0.00000000000E+00 0. -1.
</event>
<event>
 7    1  0.2985411E-011  0.5052884E+02  0.7816164E-02  0.1300439E+00
        -11   -1    0    0    0    0  0.00000000000E+00  0.00000000000E+00  0.45593999997E+02  0.45594000000E+02  0.51100000000E-03 0.  1.
         11   -1    0    0    0    0 -0.00000000000E+00 -0.00000000000E+00 -0.45593999997E+02  0.45594000000E+02  0.51100000000E-03 0. -1.
    9900012    2    1    2    0    0  0.32327797217E+02  0.23773393100E+02 -0.65503088447E+01  0.50528840659E+02  0.29999941666E+02 0.  0.
        -12    1    1    2    0    0 -0.32327797217E+02 -0.23773393100E+02  0.65503088447E+01  0.40659159341E+02  0.00000000000E+00 0.  1.
         11    1    3    3    0    0  0.13191034969E+02 -0.68865003776E+00 -0.72397160900E+01  0.15062905820E+02  0.51100000000E-03 0. -1.
        -11    1    3    3    0    0 -0.12314173937E+01  0.31228202060E+01  0.46145638732E+01  0.57063644151E+01  0.51100000000E-03 0.  1.
         12    1    3    3    0    0  0.20368179642E+02  0.21339222931E+02 -0.39251566279E+01  0.29759570424E+02  0.00000000000E+00 0. -1.
</event>
<event>
 7    1  0.2985411E-011  0.5052886E+02  0.7816164E-02  0.1300439E+00
        -11   -1    0    0    0    0  0.00000000000E+00  0.00000000000E+00  0.45593999997E+02  0.45594000000E+02  0.51100000000E-03 0.  1.
         11   -1    0    0    0    0 -0.00000000000E+00 -0.00000000000E+00 -0.45593999997E+02  0.45594000000E+02  0.51100000000E-03 0. -1.
    9900012    2    1    2    0    0 -0.21706285224E+01  0.27031432734E+02 -0.30294486243E+02  0.50528857356E+02  0.29999992418E+02 0.  0.
        -12    1    1    2    0    0  0.21706285224E+01 -0.27031432734E+02  0.30294486243E+02  0.40659142644E+02  0.00000000000E+00 0.  1.
         11    1    3    3    0    0  0.30698187465E+01  0.15808866721E+02 -0.13885685399E+02  0.21263967489E+02  0.51100000000E-03 0.  1.
        -11    1    3    3    0    0  0.19689193143E+01  0.12411874192E+02 -0.14928807468E+01  0.12655431933E+02  0.51100000000E-03 0. -1.
        -12    1    3    3    0    0 -0.72093665832E+01 -0.11893081791E+01 -0.14915920097E+02  0.16609457933E+02  0.00000000000E+00 0.  1.
</event>
<event>
 7    1  0.2985411E-011  0.5052886E+02  0.7816164E-02  0.1300439E+00
        -11   -1    0    0    0    0  0.00000000000E+00  0.00000000000E+00  0.45593999997E+02  0.45594000000E+02  0.51100000000E-03 0.  1.
         11   -1    0    0    0    0 -0.00000000000E+00 -0.00000000000E+00 -0.45593999997E+02  0.45594000000E+02  0.51100000000E-03 0. -1.
    9900012    2    1    2    0    0 -0.40588932650E+02  0.13037759499E-01 -0.23883925488E+01  0.50528855363E+02  0.29999986360E+02 0.  0.
        -12    1    1    2    0    0  0.40588932650E+02 -0.13037759499E-01  0.23883925488E+01  0.40659144637E+02  0.00000000000E+00 0.  1.
         11    1    3    3    0    0 -0.12696682259E+02  0.19304709188E+01  0.85564670863E+00  0.12871075709E+02  0.51100000000E-03 0. -1.
        -11    1    3    3    0    0 -0.13424307127E+02  0.11400152454E+02  0.59730967918E+00  0.17621926028E+02  0.51100000000E-03 0.  1.
        -12    1    3    3    0    0 -0.14467943265E+02 -0.13317585613E+02 -0.38413489366E+01  0.20035853626E+02  0.00000000000E+00 0.  1.
</event>
<event>
 7    1  0.2985411E-011  0.5052881E+02  0.7816164E-02  0.1300439E+00
        -11   -1    0    0    0    0  0.00000000000E+00  0.00000000000E+00  0.45593999997E+02  0.45594000000E+02  0.51100000000E-03 0.  1.
         11   -1    0    0    0    0 -0.00000000000E+00 -0.00000000000E+00 -0.45593999997E+02  0.45594000000E+02  0.51100000000E-03 0. -1.
    9900012    2    1    2    0    0  0.29705441824E+02 -0.23415470144E+02 -0.14915500657E+02  0.50528810684E+02  0.29999850554E+02 0.  0.
        -12    1    1    2    0    0 -0.29705441824E+02  0.23415470144E+02  0.14915500657E+02  0.40659189316E+02  0.00000000000E+00 0.  1.
         11    1    3    3    0    0  0.19045712576E+02 -0.66991499827E+01 -0.12772124795E+02  0.23890268940E+02  0.51100000000E-03 0. -1.
        -11    1    3    3    0    0 -0.35862157611E+01 -0.77819559091E+00 -0.36921670030E+01  0.52056343804E+01  0.51100000000E-03 0.  1.
         12    1    3    3    0    0  0.14245945009E+02 -0.15938124571E+02  0.15487911414E+01  0.21432907363E+02  0.00000000000E+00 0. -1.
</event>
<event>
 7    1  0.2985411E-011  0.5052886E+02  0.7816164E-02  0.1300439E+00
        -11   -1    0    0    0    0  0.00000000000E+00  0.00000000000E+00  0.45593999997E+02  0.45594000000E+02  0.51100000000E-03 0. -1.
         11   -1    0    0    0    0 -0.00000000000E+00 -0.00000000000E+00 -0.45593999997E+02  0.45594000000E+02  0.51100000000E-03 0.  1.
    9900012    2    1    2    0    0  0.82389968124E+00 -0.30478706452E+02 -0.26898609157E+02  0.50528861639E+02  0.30000005438E+02 0.  0.
        -12    1    1    2    0    0 -0.82389968124E+00  0.30478706452E+02  0.26898609157E+02  0.40659138361E+02  0.00000000000E+00 0.  1.
         11    1    3    3    0    0 -0.18947482978E+01 -0.38754663863E+01 -0.68958956981E+01  0.81340450308E+01  0.51100000000E-03 0. -1.
        -11    1    3    3    0    0  0.11917703566E+02 -0.14486176472E+02 -0.19665930992E+02  0.27177744739E+02  0.51100000000E-03 0.  1.
        -12    1    3    3    0    0 -0.91990555874E+01 -0.12117063594E+02 -0.33678246728E+00  0.15217071869E+02  0.00000000000E+00 0.  1.
</event>
<event>
 7    1  0.2985411E-011  0.5052886E+02  0.7816164E-02  0.1300439E+00
        -11   -1    0    0    0    0  0.00000000000E+00  0.00000000000E+00  0.45593999997E+02  0.45594000000E+02  0.51100000000E-03 0.  1.
         11   -1    0    0    0    0 -0.00000000000E+00 -0.00000000000E+00 -0.45593999997E+02  0.45594000000E+02  0.51100000000E-03 0. -1.
    9900012    2    1    2    0    0 -0.33715677087E+02 -0.18511017163E+02 -0.13181842764E+02  0.50528860604E+02  0.30000002291E+02 0.  0.
        -12    1    1    2    0    0  0.33715677087E+02  0.18511017163E+02  0.13181842764E+02  0.40659139396E+02  0.00000000000E+00 0.  1.
         11    1    3    3    0    0 -0.89521738791E+01 -0.31947970199E+01 -0.86071649483E+01  0.12823082074E+02  0.51100000000E-03 0. -1.
        -11    1    3    3    0    0 -0.21350582339E+02 -0.89313469805E+01 -0.13042079319E+02  0.26565243427E+02  0.51100000000E-03 0.  1.
        -12    1    3    3    0    0 -0.34129208687E+01 -0.63848731621E+01  0.84674015042E+01  0.11140535103E+02  0.00000000000E+00 0.  1.
</event>
<event>
 7    1  0.2985411E-011  0.5052886E+02  0.7816164E-02  0.1300439E+00
        -11   -1    0    0    0    0  0.00000000000E+00  0.00000000000E+00  0.45593999997E+02  0.45594000000E+02  0.51100000000E-03 0.  1.
         11   -1    0    0    0    0 -0.00000000000E+00 -0.00000000000E+00 -0.45593999997E+02  0.45594000000E+02  0.51100000000E-03 0. -1.
    9900012    2    1    2    0    0 -0.11671845456E+02  0.31788509262E+02 -0.22503876583E+02  0.50528858855E+02  0.29999996975E+02 0.  0.
        -12    1    1    2    0    0  0.11671845456E+02 -0.31788509262E+02  0.22503876583E+02  0.40659141145E+02  0.00000000000E+00 0.  1.
         11    1    3    3    0    0 -0.68078819351E+01 -0.48275544745E-01 -0.25986953109E+01  0.72871671142E+01  0.51100000000E-03 0. -1.
        -11    1    3    3    0    0 -0.12821902792E+02  0.16365544954E+02 -0.86334696611E+01  0.22511531523E+02  0.51100000000E-03 0.  1.
         12    1    3    3    0    0  0.79579392718E+01  0.15471239853E+02 -0.11271711611E+02  0.20730160218E+02  0.00000000000E+00 0. -1.
</event>
<event>
 7    1  0.2985411E-011  0.5052888E+02  0.7816164E-02  0.1300439E+00
        -11   -1    0    0    0    0  0.00000000000E+00  0.00000000000E+00  0.45593999997E+02  0.45594000000E+02  0.51100000000E-03 0.  1.
         11   -1    0    0    0    0 -0.00000000000E+00 -0.00000000000E+00 -0.45593999997E+02  0.45594000000E+02  0.51100000000E-03 0. -1.
    9900012    2    1    2    0    0 -0.28590424410E+02  0.21038742954E+02 -0.19827321964E+02  0.50528883319E+02  0.30000071336E+02 0.  0.
        -12    1    1    2    0    0  0.28590424410E+02 -0.21038742954E+02  0.19827321964E+02  0.40659116681E+02  0.00000000000E+00 0.  1.
         11    1    3    3    0    0 -0.17327771212E+02  0.10849758035E+02 -0.18665984493E+00  0.20445139930E+02  0.51100000000E-03 0. -1.
        -11    1    3    3    0    0 -0.78706793307E+01 -0.18278507808E+01 -0.17513572519E+01  0.82677617339E+01  0.51100000000E-03 0.  1.
        -12    1    3    3    0    0 -0.33919738671E+01  0.12016835700E+02 -0.17889304867E+02  0.21815981655E+02  0.00000000000E+00 0.  1.
</event>
<event>
 7    1  0.2985411E-011  0.5052886E+02  0.7816164E-02  0.1300439E+00
        -11   -1    0    0    0    0  0.00000000000E+00  0.00000000000E+00  0.45593999997E+02  0.45594000000E+02  0.51100000000E-03 0. -1.
         11   -1    0    0    0    0 -0.00000000000E+00 -0.00000000000E+00 -0.45593999997E+02  0.45594000000E+02  0.51100000000E-03 0.  1.
    9900012    2    1    2    0    0 -0.24489073114E+01 -0.39332399810E+02 -0.10006540548E+02  0.50528859877E+02  0.30000000082E+02 0.  0.
        -12    1    1    2    0    0  0.24489073114E+01  0.39332399810E+02  0.10006540548E+02  0.40659140123E+02  0.00000000000E+00 0.  1.
         11    1    3    3    0    0  0.78108435296E+01 -0.72963947055E+01 -0.19064770563E+01  0.10857315846E+02  0.51100000000E-03 0.  1.
        -11    1    3    3    0    0  0.11637243340E+01 -0.94147614402E+01  0.54437595615E+01  0.10937390261E+02  0.51100000000E-03 0. -1.
        -12    1    3    3    0    0 -0.11423475175E+02 -0.22621243664E+02 -0.13543823053E+02  0.28734153770E+02  0.00000000000E+00 0.  1.
</event>
<event>
 7    1  0.2985411E-011  0.5052884E+02  0.7816164E-02  0.1300439E+00
        -11   -1    0    0    0    0  0.00000000000E+00  0.00000000000E+00  0.45593999997E+02  0.45594000000E+02  0.51100000000E-03 0.  1.
         11   -1    0    0    0    0 -0.00000000000E+00 -0.00000000000E+00 -0.45593999997E+02  0.45594000000E+02  0.51100000000E-03 0. -1.
    9900012    2    1    2    0    0  0.89039471313E+01 -0.35053918362E+02 -0.18577129601E+02  0.50528840992E+02  0.29999942678E+02 0.  0.
        -12    1    1    2    0    0 -0.89039471313E+01  0.35053918362E+02  0.18577129601E+02  0.40659159008E+02  0.00000000000E+00 0.  1.
         11    1    3    3    0    0  0.66986123837E+01 -0.95788756641E+01 -0.95372039804E+01  0.15085904908E+02  0.51100000000E-03 0. -1.
        -11    1    3    3    0    0 -0.78478086979E+01 -0.11417031643E+01 -0.24904470497E+01  0.83122749138E+01  0.51100000000E-03 0.  1.
         12    1    3    3    0    0  0.10053143446E+02 -0.24333339533E+02 -0.65494785711E+01  0.27130661170E+02  0.00000000000E+00 0. -1.
</event>
<event>
 7    1  0.2985411E-011  0.5052887E+02  0.7816164E-02  0.1300439E+00
        -11   -1    0    0    0    0  0.00000000000E+00  0.00000000000E+00  0.45593999997E+02  0.45594000000E+02  0.51100000000E-03 0.  1.
         11   -1    0    0    0    0 -0.00000000000E+00 -0.00000000000E+00 -0.45593999997E+02  0.45594000000E+02  0.51100000000E-03 0. -1.
    9900012    2    1    2    0    0 -0.18931927530E+01  0.23641503964E+02 -0.33025140474E+02  0.50528870745E+02  0.30000033116E+02 0.  0.
        -12    1    1    2    0    0  0.18931927530E+01 -0.23641503964E+02  0.33025140474E+02  0.40659129255E+02  0.00000000000E+00 0.  1.
         11    1    3    3    0    0 -0.12317023584E+02  0.10607537679E+02 -0.94864837524E+01  0.18820794346E+02  0.51100000000E-03 0. -1.
        -11    1    3    3    0    0 -0.27078061863E+01  0.42175297966E+01 -0.32129332193E+01  0.59533782058E+01  0.51100000000E-03 0.  1.
         12    1    3    3    0    0  0.13131637017E+02  0.88164364887E+01 -0.20325723502E+02  0.25754698193E+02  0.00000000000E+00 0. -1.
</event>
<event>
 7    1  0.2985411E-011  0.5052885E+02  0.7816164E-02  0.1300439E+00
        -11   -1    0    0    0    0  0.00000000000E+00  0.00000000000E+00  0.45593999997E+02  0.45594000000E+02  0.51100000000E-03 0. -1.
         11   -1    0    0    0    0 -0.00000000000E+00 -0.00000000000E+00 -0.45593999997E+02  0.45594000000E+02  0.51100000000E-03 0.  1.
    9900012    2    1    2    0    0  0.13947568587E+02 -0.36669004551E+02  0.10677825564E+02  0.50528849455E+02  0.29999968403E+02 0.  0.
        -12    1    1    2    0    0 -0.13947568587E+02  0.36669004551E+02 -0.10677825564E+02  0.40659150545E+02  0.00000000000E+00 0.  1.
         11    1    3    3    0    0 -0.51991805305E+01 -0.76883361328E+01  0.13934632274E+01  0.93852933203E+01  0.51100000000E-03 0. -1.
        -11    1    3    3    0    0  0.10323625904E+01  0.20459823495E+00 -0.41340101336E+01  0.42658730644E+01  0.51100000000E-03 0.  1.
         12    1    3    3    0    0  0.18114386527E+02 -0.29185266653E+02  0.13418372471E+02  0.36877683070E+02  0.00000000000E+00 0. -1.
</event>
<event>
 7    1  0.2985411E-011  0.5052888E+02  0.7816164E-02  0.1300439E+00
        -11   -1    0    0    0    0  0.00000000000E+00  0.00000000000E+00  0.45593999997E+02  0.45594000000E+02  0.51100000000E-03 0.  1.
         11   -1    0    0    0    0 -0.00000000000E+00 -0.00000000000E+00 -0.45593999997E+02  0.45594000000E+02  0.51100000000E-03 0. -1.
    9900012    2    1    2    0    0 -0.71236196096E+01  0.27853695992E+02 -0.28750472953E+02  0.50528880091E+02  0.30000061524E+02 0.  0.
        -12    1    1    2    0    0  0.71236196096E+01 -0.27853695992E+02  0.28750472953E+02  0.40659119909E+02  0.00000000000E+00 0.  1.
         11    1    3    3    0    0 -0.54286202305E+01  0.64364219179E+01 -0.13702780598E+02  0.16083023382E+02  0.51100000000E-03 0. -1.
        -11    1    3    3    0    0 -0.50838549634E+01  0.52250866018E+01 -0.16299495163E+02  0.17855549673E+02  0.51100000000E-03 0.  1.
        -12    1    3    3    0    0  0.33888555842E+01  0.16192187472E+02  0.12518028079E+01  0.16590307037E+02  0.00000000000E+00 0.  1.
</event>
<event>
 7    1  0.2985411E-011  0.5052887E+02  0.7816164E-02  0.1300439E+00
        -11   -1    0    0    0    0  0.00000000000E+00  0.00000000000E+00  0.45593999997E+02  0.45594000000E+02  0.51100000000E-03 0. -1.
         11   -1    0    0    0    0 -0.00000000000E+00 -0.00000000000E+00 -0.45593999997E+02  0.45594000000E+02  0.51100000000E-03 0.  1.
    9900012    2    1    2    0    0 -0.21675417473E+02 -0.14123393185E+02  0.31366717777E+02  0.50528868901E+02  0.30000027510E+02 0.  0.
        -12    1    1    2    0    0  0.21675417473E+02  0.14123393185E+02 -0.31366717777E+02  0.40659131099E+02  0.00000000000E+00 0.  1.
         11    1    3    3    0    0 -0.44292385791E+00  0.30099316666E+01  0.39817494386E+01  0.50110077863E+01  0.51100000000E-03 0. -1.
        -11    1    3    3    0    0 -0.84047509989E+01  0.56946389261E+01  0.83515180483E+01  0.13145972989E+02  0.51100000000E-03 0.  1.
         12    1    3    3    0    0 -0.12827742616E+02 -0.22827963778E+02  0.19033450290E+02  0.32371888125E+02  0.00000000000E+00 0. -1.
</event>
<event>
 7    1  0.2985411E-011  0.5052886E+02  0.7816164E-02  0.1300439E+00
        -11   -1    0    0    0    0  0.00000000000E+00  0.00000000000E+00  0.45593999997E+02  0.45594000000E+02  0.51100000000E-03 0.  1.
         11   -1    0    0    0    0 -0.00000000000E+00 -0.00000000000E+00 -0.45593999997E+02  0.45594000000E+02  0.51100000000E-03 0. -1.
    9900012    2    1    2    0    0  0.31791150949E+02 -0.22408962699E+02 -0.11845951087E+02  0.50528862711E+02  0.30000008697E+02 0.  0.
        -12    1    1    2    0    0 -0.31791150949E+02  0.22408962699E+02  0.11845951087E+02  0.40659137289E+02  0.00000000000E+00 0.  1.
         11    1    3    3    0    0  0.69131510582E+01 -0.14170152383E+02 -0.11362295887E+02  0.19434161783E+02  0.51100000000E-03 0. -1.
        -11    1    3    3    0    0  0.38608255404E+01  0.23611111615E+01 -0.54023060245E+01  0.70473917454E+01  0.51100000000E-03 0.  1.
        -12    1    3    3    0    0  0.21017174351E+02 -0.10599921477E+02  0.49186508245E+01  0.24047309183E+02  0.00000000000E+00 0.  1.
</event>
<event>
 7    1  0.2985411E-011  0.5052886E+02  0.7816164E-02  0.1300439E+00
        -11   -1    0    0    0    0  0.00000000000E+00  0.00000000000E+00  0.45593999997E+02  0.45594000000E+02  0.51100000000E-03 0.  1.
         11   -1    0    0    0    0 -0.00000000000E+00 -0.00000000000E+00 -0.45593999997E+02  0.45594000000E+02  0.51100000000E-03 0. -1.
    9900012    2    1    2    0    0  0.13191363791E+02  0.38255003029E+02  0.39633968378E+01  0.50528857732E+02  0.29999993563E+02 0.  0.
        -12    1    1    2    0    0 -0.13191363791E+02 -0.38255003029E+02 -0.39633968378E+01  0.40659142268E+02  0.00000000000E+00 0.  1.
         11    1    3    3    0    0  0.87741962576E+00  0.15982060733E+02 -0.10753890418E+02  0.19283212644E+02  0.51100000000E-03 0. -1.
        -11    1    3    3    0    0  0.72513979290E+01  0.38615220587E+01  0.64183195494E+01  0.10425399303E+02  0.51100000000E-03 0.  1.
        -12    1    3    3    0    0  0.50625462367E+01  0.18411420237E+02  0.82989677067E+01  0.20820245785E+02  0.00000000000E+00 0.  1.
</event>
<event>
 7    1  0.2985411E-011  0.5052884E+02  0.7816164E-02  0.1300439E+00
        -11   -1    0    0    0    0  0.00000000000E+00  0.00000000000E+00  0.45593999997E+02  0.45594000000E+02  0.51100000000E-03 0.  1.
         11   -1    0    0    0    0 -0.00000000000E+00 -0.00000000000E+00 -0.45593999997E+02  0.45594000000E+02  0.51100000000E-03 0. -1.
    9900012    2    1    2    0    0  0.30516835318E+02  0.69674004149E+00 -0.26858968850E+02  0.50528844915E+02  0.29999954605E+02 0.  0.
        -12    1    1    2    0    0 -0.30516835318E+02 -0.69674004149E+00  0.26858968850E+02  0.40659155085E+02  0.00000000000E+00 0.  1.
         11    1    3    3    0    0  0.98925196667E+00  0.47142519539E+01  0.33735618936E+01  0.58807917027E+01  0.51100000000E-03 0.  1.
        -11    1    3    3    0    0  0.98628456517E+00 -0.30248676319E+01 -0.17461036858E+00  0.31863883122E+01  0.51100000000E-03 0. -1.
         12    1    3    3    0    0  0.28541298786E+02 -0.99264428050E+00 -0.30057920375E+02  0.41461664901E+02  0.00000000000E+00 0. -1.
</event>
<event>
 7    1  0.2985411E-011  0.5052886E+02  0.7816164E-02  0.1300439E+00
        -11   -1    0    0    0    0  0.00000000000E+00  0.00000000000E+00  0.45593999997E+02  0.45594000000E+02  0.51100000000E-03 0. -1.
         11   -1    0    0    0    0 -0.00000000000E+00 -0.00000000000E+00 -0.45593999997E+02  0.45594000000E+02  0.51100000000E-03 0.  1.
    9900012    2    1    2    0    0  0.12737372818E+02  0.34093726146E+02  0.18125746175E+02  0.50528861996E+02  0.30000006524E+02 0.  0.
        -12    1    1    2    0    0 -0.12737372818E+02 -0.34093726146E+02 -0.18125746175E+02  0.40659138004E+02  0.00000000000E+00 0.  1.
         11    1    3    3    0    0 -0.34204743802E+01  0.13071873496E+02 -0.15871062904E+01  0.13604867817E+02  0.51100000000E-03 0. -1.
        -11    1    3    3    0    0 -0.15044095720E+01  0.49584421156E+00 -0.17575760710E+01  0.23660480868E+01  0.51100000000E-03 0.  1.
         12    1    3    3    0    0  0.17662256770E+02  0.20526008438E+02  0.21470428536E+02  0.34557946093E+02  0.00000000000E+00 0. -1.
</event>
<event>
 7    1  0.2985411E-011  0.5052886E+02  0.7816164E-02  0.1300439E+00
        -11   -1    0    0    0    0  0.00000000000E+00  0.00000000000E+00  0.45593999997E+02  0.45594000000E+02  0.51100000000E-03 0.  1.
         11   -1    0    0    0    0 -0.00000000000E+00 -0.00000000000E+00 -0.45593999997E+02  0.45594000000E+02  0.51100000000E-03 0. -1.
    9900012    2    1    2    0    0  0.99575270083E+01 -0.26013592497E+02 -0.29619360315E+02  0.50528857803E+02  0.29999993779E+02 0.  0.
        -12    1    1    2    0    0 -0.99575270083E+01  0.26013592497E+02  0.29619360315E+02  0.40659142197E+02  0.00000000000E+00 0.  1.
         11    1    3    3    0    0 -0.17144082728E+01 -0.10401215291E+02 -0.17305216909E+02  0.20263144074E+02  0.51100000000E-03 0.  1.
        -11    1    3    3    0    0  0.35647356896E+01 -0.98772194336E+00 -0.13014122612E+02  0.13529609115E+02  0.51100000000E-03 0. -1.
        -12    1    3    3    0    0  0.81071995916E+01 -0.14624655262E+02  0.69997920614E+00  0.16736104614E+02  0.00000000000E+00 0.  1.
</event>
<event>
 7    1  0.2985411E-011  0.5052886E+02  0.7816164E-02  0.1300439E+00
        -11   -1    0    0    0    0  0.00000000000E+00  0.00000000000E+00  0.45593999997E+02  0.45594000000E+02  0.51100000000E-03 0.  1.
         11   -1    0    0    0    0 -0.00000000000E+00 -0.00000000000E+00 -0.45593999997E+02  0.45594000000E+02  0.51100000000E-03 0. -1.
    9900012    2    1    2    0    0  0.13845723280E+02  0.32829602845E+02 -0.19587723192E+02  0.50528858642E+02  0.29999996329E+02 0.  0.
        -12    1    1    2    0    0 -0.13845723280E+02 -0.32829602845E+02  0.19587723192E+02  0.40659141358E+02  0.00000000000E+00 0.  1.
         11    1    3    3    0    0 -0.34423398077E+00  0.18570809444E+02 -0.87753443274E+01  0.20542641718E+02  0.51100000000E-03 0. -1.
        -11    1    3    3    0    0 -0.48006341582E+01  0.46544498798E+01 -0.24600333569E+01  0.71247285129E+01  0.51100000000E-03 0.  1.
         12    1    3    3    0    0  0.18990591418E+02  0.96043435217E+01 -0.83523455077E+01  0.22861488411E+02  0.00000000000E+00 0. -1.
</event>
<event>
 7    1  0.2985411E-011  0.5052886E+02  0.7816164E-02  0.1300439E+00
        -11   -1    0    0    0    0  0.00000000000E+00  0.00000000000E+00  0.45593999997E+02  0.45594000000E+02  0.51100000000E-03 0.  1.
         11   -1    0    0    0    0 -0.00000000000E+00 -0.00000000000E+00 -0.45593999997E+02  0.45594000000E+02  0.51100000000E-03 0. -1.
    9900012    2    1    2    0    0 -0.15948029863E+02  0.15893324135E+02 -0.33855995879E+02  0.50528857541E+02  0.29999992981E+02 0.  0.
        -12    1    1    2    0    0  0.15948029863E+02 -0.15893324135E+02  0.33855995879E+02  0.40659142459E+02  0.00000000000E+00 0.  1.
         11    1    3    3    0    0 -0.97510490599E+01 -0.62204825698E+01 -0.11267448215E+02  0.16147221145E+02  0.51100000000E-03 0. -1.
        -11    1    3    3    0    0 -0.32963422363E+01  0.33864946316E+00 -0.73266465974E+00  0.33937226408E+01  0.51100000000E-03 0.  1.
        -12    1    3    3    0    0 -0.29006385671E+01  0.21775157241E+02 -0.21855883005E+02  0.30987913755E+02  0.00000000000E+00 0.  1.
</event>
<event>
 7    1  0.2985411E-011  0.5052886E+02  0.7816164E-02  0.1300439E+00
        -11   -1    0    0    0    0  0.00000000000E+00  0.00000000000E+00  0.45593999997E+02  0.45594000000E+02  0.51100000000E-03 0.  1.
         11   -1    0    0    0    0 -0.00000000000E+00 -0.00000000000E+00 -0.45593999997E+02  0.45594000000E+02  0.51100000000E-03 0. -1.
    9900012    2    1    2    0    0  0.31908449020E+02  0.23789581632E+02 -0.83109689665E+01  0.50528861811E+02  0.30000005960E+02 0.  0.
        -12    1    1    2    0    0 -0.31908449020E+02 -0.23789581632E+02  0.83109689665E+01  0.40659138189E+02  0.00000000000E+00 0.  1.
         11    1    3    3    0    0  0.53045138573E+01  0.10210283894E+02 -0.68788060197E+01  0.13405436844E+02  0.51100000000E-03 0. -1.
        -11    1    3    3    0    0 -0.39737979160E+00 -0.43962702367E+01 -0.15715878192E+01  0.46856153521E+01  0.51100000000E-03 0.  1.
         12    1    3    3    0    0  0.27001314955E+02  0.17975567975E+02  0.13942487240E+00  0.32437809615E+02  0.00000000000E+00 0. -1.
</event>
<event>
 7    1  0.2985411E-011  0.5052885E+02  0.7816164E-02  0.1300439E+00
        -11   -1    0    0    0    0  0.00000000000E+00  0.00000000000E+00  0.45593999997E+02  0.45594000000E+02  0.51100000000E-03 0.  1.
         11   -1    0    0    0    0 -0.00000000000E+00 -0.00000000000E+00 -0.45593999997E+02  0.45594000000E+02  0.51100000000E-03 0. -1.
    9900012    2    1    2    0    0 -0.19035655765E+02  0.32292366489E+02 -0.15748427958E+02  0.50528854571E+02  0.29999983954E+02 0.  0.
        -12    1    1    2    0    0  0.19035655765E+02 -0.32292366489E+02  0.15748427958E+02  0.40659145429E+02  0.00000000000E+00 0.  1.
         11    1    3    3    0    0 -0.85000888247E+01  0.23400008472E+02 -0.11023422852E+02  0.27227334761E+02  0.51100000000E-03 0. -1.
        -11    1    3    3    0    0 -0.10903403010E+02  0.13668045220E+02 -0.57456851597E+01  0.18404145064E+02  0.51100000000E-03 0.  1.
        -12    1    3    3    0    0  0.36783607002E+00 -0.47756872027E+01  0.10206800544E+01  0.48973747463E+01  0.00000000000E+00 0.  1.
</event>
<event>
 7    1  0.2985411E-011  0.5052887E+02  0.7816164E-02  0.1300439E+00
        -11   -1    0    0    0    0  0.00000000000E+00  0.00000000000E+00  0.45593999997E+02  0.45594000000E+02  0.51100000000E-03 0.  1.
         11   -1    0    0    0    0 -0.00000000000E+00 -0.00000000000E+00 -0.45593999997E+02  0.45594000000E+02  0.51100000000E-03 0. -1.
    9900012    2    1    2    0    0  0.63805010862E+00  0.88435701271E+01 -0.39680589686E+02  0.50528867713E+02  0.30000023900E+02 0.  0.
        -12    1    1    2    0    0 -0.63805010862E+00 -0.88435701271E+01  0.39680589686E+02  0.40659132287E+02  0.00000000000E+00 0.  1.
         11    1    3    3    0    0  0.24547205587E+01  0.35065702547E+01 -0.25095634689E+02  0.25458055084E+02  0.51100000000E-03 0. -1.
        -11    1    3    3    0    0 -0.93928801233E+00  0.49514914697E+01 -0.19460229167E+02  0.20102239906E+02  0.51100000000E-03 0.  1.
        -12    1    3    3    0    0 -0.87738243776E+00  0.38550840272E+00  0.48752741700E+01  0.49685727229E+01  0.00000000000E+00 0.  1.
</event>
<event>
 7    1  0.2985411E-011  0.5052886E+02  0.7816164E-02  0.1300439E+00
        -11   -1    0    0    0    0  0.00000000000E+00  0.00000000000E+00  0.45593999997E+02  0.45594000000E+02  0.51100000000E-03 0.  1.
         11   -1    0    0    0    0 -0.00000000000E+00 -0.00000000000E+00 -0.45593999997E+02  0.45594000000E+02  0.51100000000E-03 0. -1.
    9900012    2    1    2    0    0  0.81375164711E+01 -0.37065520203E+02 -0.14597734104E+02  0.50528858307E+02  0.29999995311E+02 0.  0.
        -12    1    1    2    0    0 -0.81375164711E+01  0.37065520203E+02  0.14597734104E+02  0.40659141693E+02  0.00000000000E+00 0.  1.
         11    1    3    3    0    0  0.72866051551E+01 -0.48945143905E+00  0.30443663662E+00  0.73093679155E+01  0.51100000000E-03 0. -1.
        -11    1    3    3    0    0  0.11623549598E+01 -0.57052643469E+01 -0.10538865272E+02  0.12040298659E+02  0.51100000000E-03 0.  1.
         12    1    3    3    0    0 -0.31144364377E+00 -0.30870804417E+02 -0.43633054683E+01  0.31179191733E+02  0.00000000000E+00 0. -1.
</event>
<event>
 7    1  0.2985411E-011  0.5052886E+02  0.7816164E-02  0.1300439E+00
        -11   -1    0    0    0    0  0.00000000000E+00  0.00000000000E+00  0.45593999997E+02  0.45594000000E+02  0.51100000000E-03 0. -1.
         11   -1    0    0    0    0 -0.00000000000E+00 -0.00000000000E+00 -0.45593999997E+02  0.45594000000E+02  0.51100000000E-03 0.  1.
    9900012    2    1    2    0    0  0.26315336495E+02  0.28895935901E+02 -0.11211326290E+02  0.50528857318E+02  0.29999992304E+02 0.  0.
        -12    1    1    2    0    0 -0.26315336495E+02 -0.28895935901E+02  0.11211326290E+02  0.40659142682E+02  0.00000000000E+00 0.  1.
         11    1    3    3    0    0  0.74146972953E+01  0.18257224244E+02  0.23966587365E+01  0.19850640958E+02  0.51100000000E-03 0. -1.
        -11    1    3    3    0    0  0.67614328612E+01 -0.18601632493E+01  0.19934379416E+01  0.72904716403E+01  0.51100000000E-03 0.  1.
         12    1    3    3    0    0  0.12139206339E+02  0.12498874906E+02 -0.15601422968E+02  0.23387744720E+02  0.00000000000E+00 0. -1.
</event>
<event>
 7    1  0.2985411E-011  0.5052886E+02  0.7816164E-02  0.1300439E+00
        -11   -1    0    0    0    0  0.00000000000E+00  0.00000000000E+00  0.45593999997E+02  0.45594000000E+02  0.51100000000E-03 0.  1.
         11   -1    0    0    0    0 -0.00000000000E+00 -0.00000000000E+00 -0.45593999997E+02  0.45594000000E+02  0.51100000000E-03 0. -1.
    9900012    2    1    2    0    0 -0.35207021091E+00 -0.10829638959E+02 -0.39188780702E+02  0.50528861220E+02  0.30000004164E+02 0.  0.
        -12    1    1    2    0    0  0.35207021091E+00  0.10829638959E+02  0.39188780702E+02  0.40659138780E+02  0.00000000000E+00 0.  1.
         11    1    3    3    0    0 -0.83569269013E+01  0.50300347563E+01 -0.12261485914E+02  0.15667913516E+02  0.51100000000E-03 0. -1.
        -11    1    3    3    0    0  0.66084250084E+00  0.13793932490E+01  0.53027330035E+00  0.16188355632E+01  0.51100000000E-03 0.  1.
         12    1    3    3    0    0  0.73440141895E+01 -0.17239066964E+02 -0.27457568089E+02  0.33242112141E+02  0.00000000000E+00 0. -1.
</event>
<event>
 7    1  0.2985411E-011  0.5052886E+02  0.7816164E-02  0.1300439E+00
        -11   -1    0    0    0    0  0.00000000000E+00  0.00000000000E+00  0.45593999997E+02  0.45594000000E+02  0.51100000000E-03 0.  1.
         11   -1    0    0    0    0 -0.00000000000E+00 -0.00000000000E+00 -0.45593999997E+02  0.45594000000E+02  0.51100000000E-03 0. -1.
    9900012    2    1    2    0    0  0.37586407984E+02 -0.12060718078E+02 -0.97450673272E+01  0.50528864214E+02  0.30000013264E+02 0.  0.
        -12    1    1    2    0    0 -0.37586407984E+02  0.12060718078E+02  0.97450673272E+01  0.40659135786E+02  0.00000000000E+00 0.  1.
         11    1    3    3    0    0  0.15016380894E+02 -0.15720015645E+02 -0.82803455436E+01  0.23263162072E+02  0.51100000000E-03 0. -1.
        -11    1    3    3    0    0  0.78089379300E+01 -0.34676061276E+01 -0.57800304042E+01  0.10315646155E+02  0.51100000000E-03 0.  1.
        -12    1    3    3    0    0  0.14761089160E+02  0.71269036946E+01  0.43153086206E+01  0.16950055987E+02  0.00000000000E+00 0.  1.
</event>
<event>
 7    1  0.2985411E-011  0.5052886E+02  0.7816164E-02  0.1300439E+00
        -11   -1    0    0    0    0  0.00000000000E+00  0.00000000000E+00  0.45593999997E+02  0.45594000000E+02  0.51100000000E-03 0.  1.
         11   -1    0    0    0    0 -0.00000000000E+00 -0.00000000000E+00 -0.45593999997E+02  0.45594000000E+02  0.51100000000E-03 0. -1.
    9900012    2    1    2    0    0 -0.26664538791E+01 -0.12927631213E+02 -0.38456889202E+02  0.50528856475E+02  0.29999989742E+02 0.  0.
        -12    1    1    2    0    0  0.26664538791E+01  0.12927631213E+02  0.38456889202E+02  0.40659143525E+02  0.00000000000E+00 0.  1.
         11    1    3    3    0    0  0.42889658798E+01 -0.20207277087E+01 -0.13457849899E+01  0.49284588150E+01  0.51100000000E-03 0. -1.
        -11    1    3    3    0    0 -0.12152019781E+02  0.15168439357E+01 -0.12222692146E+02  0.17302213842E+02  0.51100000000E-03 0.  1.
         12    1    3    3    0    0  0.51966000217E+01 -0.12423747440E+02 -0.24888412066E+02  0.28298183819E+02  0.00000000000E+00 0. -1.
</event>
<event>
 7    1  0.2985411E-011  0.5052886E+02  0.7816164E-02  0.1300439E+00
        -11   -1    0    0    0    0  0.00000000000E+00  0.00000000000E+00  0.45593999997E+02  0.45594000000E+02  0.51100000000E-03 0. -1.
         11   -1    0    0    0    0 -0.00000000000E+00 -0.00000000000E+00 -0.45593999997E+02  0.45594000000E+02  0.51100000000E-03 0.  1.
    9900012    2    1    2    0    0 -0.34189923838E+02 -0.20544274793E+01  0.21908764598E+02  0.50528861660E+02  0.30000005502E+02 0.  0.
        -12    1    1    2    0    0  0.34189923838E+02  0.20544274793E+01 -0.21908764598E+02  0.40659138340E+02  0.00000000000E+00 0.  1.
         11    1    3    3    0    0 -0.25778020103E+02 -0.70260385007E+01  0.23112627254E+02  0.35327964508E+02  0.51100000000E-03 0. -1.
        -11    1    3    3    0    0 -0.51243174253E+01 -0.12709016264E+01  0.38397657592E+01  0.65282173192E+01  0.51100000000E-03 0.  1.
        -12    1    3    3    0    0 -0.32875863102E+01  0.62425126478E+01 -0.50436284148E+01  0.86726798333E+01  0.00000000000E+00 0.  1.
</event>
<event>
 7    1  0.2985411E-011  0.5052886E+02  0.7816164E-02  0.1300439E+00
        -11   -1    0    0    0    0  0.00000000000E+00  0.00000000000E+00  0.45593999997E+02  0.45594000000E+02  0.51100000000E-03 0.  1.
         11   -1    0    0    0    0 -0.00000000000E+00 -0.00000000000E+00 -0.45593999997E+02  0.45594000000E+02  0.51100000000E-03 0. -1.
    9900012    2    1    2    0    0 -0.10108503860E+01  0.15491156300E+02 -0.37578819004E+02  0.50528863514E+02  0.30000011137E+02 0.  0.
        -12    1    1    2    0    0  0.10108503860E+01 -0.15491156300E+02  0.37578819004E+02  0.40659136486E+02  0.00000000000E+00 0.  1.
         11    1    3    3    0    0  0.16042050671E+01  0.66279582688E+01 -0.11561939278E+02  0.13423179387E+02  0.51100000000E-03 0. -1.
        -11    1    3    3    0    0  0.95398498834E+01  0.87523518695E+01 -0.75194293292E+01  0.14971780680E+02  0.51100000000E-03 0.  1.
        -12    1    3    3    0    0 -0.12154905337E+02  0.11084616151E+00 -0.18497450397E+02  0.22133903447E+02  0.00000000000E+00 0.  1.
</event>
<event>
 7    1  0.2985411E-011  0.5052886E+02  0.7816164E-02  0.1300439E+00
        -11   -1    0    0    0    0  0.00000000000E+00  0.00000000000E+00  0.45593999997E+02  0.45594000000E+02  0.51100000000E-03 0. -1.
         11   -1    0    0    0    0 -0.00000000000E+00 -0.00000000000E+00 -0.45593999997E+02  0.45594000000E+02  0.51100000000E-03 0.  1.
    9900012    2    1    2    0    0 -0.28653424900E+02  0.25085539224E+02 -0.14242975433E+02  0.50528863440E+02  0.30000010911E+02 0.  0.
        -12    1    1    2    0    0  0.28653424900E+02 -0.25085539224E+02  0.14242975433E+02  0.40659136560E+02  0.00000000000E+00 0.  1.
         11    1    3    3    0    0 -0.13681110878E+01 -0.33858398988E+01  0.86825703313E+00  0.37535996464E+01  0.51100000000E-03 0.  1.
        -11    1    3    3    0    0 -0.77202258642E+00 -0.27635360157E+01  0.53522293375E+00  0.29188377883E+01  0.51100000000E-03 0. -1.
         12    1    3    3    0    0 -0.26513291226E+02  0.31234915139E+02 -0.15646455400E+02  0.43856426005E+02  0.00000000000E+00 0. -1.
</event>
<event>
 7    1  0.2985411E-011  0.5052890E+02  0.7816164E-02  0.1300439E+00
        -11   -1    0    0    0    0  0.00000000000E+00  0.00000000000E+00  0.45593999997E+02  0.45594000000E+02  0.51100000000E-03 0.  1.
         11   -1    0    0    0    0 -0.00000000000E+00 -0.00000000000E+00 -0.45593999997E+02  0.45594000000E+02  0.51100000000E-03 0. -1.
    9900012    2    1    2    0    0 -0.35198476553E+02 -0.20701541737E+01 -0.20247074975E+02  0.50528900957E+02  0.30000124950E+02 0.  0.
        -12    1    1    2    0    0  0.35198476553E+02  0.20701541737E+01  0.20247074975E+02  0.40659099043E+02  0.00000000000E+00 0.  1.
         11    1    3    3    0    0 -0.27367594276E+02  0.11375044839E+00 -0.22333263530E+02  0.35323827876E+02  0.51100000000E-03 0.  1.
        -11    1    3    3    0    0 -0.96825853782E+01  0.64019178421E+00 -0.19962169859E+01  0.99069262460E+01  0.51100000000E-03 0. -1.
        -12    1    3    3    0    0  0.18517031013E+01 -0.28240964063E+01  0.40824055419E+01  0.52981468360E+01  0.00000000000E+00 0.  1.
</event>
<event>
 7    1  0.2985411E-011  0.5052886E+02  0.7816164E-02  0.1300439E+00
        -11   -1    0    0    0    0  0.00000000000E+00  0.00000000000E+00  0.45593999997E+02  0.45594000000E+02  0.51100000000E-03 0.  1.
         11   -1    0    0    0    0 -0.00000000000E+00 -0.00000000000E+00 -0.45593999997E+02  0.45594000000E+02  0.51100000000E-03 0. -1.
    9900012    2    1    2    0    0  0.77442483594E+01 -0.36682289626E+01 -0.39745899269E+02  0.50528858407E+02  0.29999995614E+02 0.  0.
        -12    1    1    2    0    0 -0.77442483594E+01  0.36682289626E+01  0.39745899269E+02  0.40659141593E+02  0.00000000000E+00 0.  1.
         11    1    3    3    0    0  0.17935507658E+01  0.21655214397E+01 -0.76499728309E+01  0.81503614662E+01  0.51100000000E-03 0. -1.
        -11    1    3    3    0    0  0.10024446334E+02  0.81709325649E+01 -0.17331124885E+02  0.21624559032E+02  0.51100000000E-03 0.  1.
        -12    1    3    3    0    0 -0.40737487409E+01 -0.14004682967E+02 -0.14764801553E+02  0.20753937909E+02  0.00000000000E+00 0.  1.
</event>
<event>
 7    1  0.2985411E-011  0.5052887E+02  0.7816164E-02  0.1300439E+00
        -11   -1    0    0    0    0  0.00000000000E+00  0.00000000000E+00  0.45593999997E+02  0.45594000000E+02  0.51100000000E-03 0. -1.
         11   -1    0    0    0    0 -0.00000000000E+00 -0.00000000000E+00 -0.45593999997E+02  0.45594000000E+02  0.51100000000E-03 0.  1.
    9900012    2    1    2    0    0 -0.63023188640E+00  0.40423691499E+02 -0.43234872100E+01  0.50528873493E+02  0.30000041469E+02 0.  0.
        -12    1    1    2    0    0  0.63023188640E+00 -0.40423691499E+02  0.43234872100E+01  0.40659126507E+02  0.00000000000E+00 0.  1.
         11    1    3    3    0    0 -0.68535030567E+01  0.20615817294E+02 -0.77325162422E+01  0.23060230583E+02  0.51100000000E-03 0. -1.
        -11    1    3    3    0    0 -0.12215073935E+01  0.12279418955E+02 -0.56145210505E+01  0.13557251088E+02  0.51100000000E-03 0.  1.
        -12    1    3    3    0    0  0.74447785638E+01  0.75284552506E+01  0.90235500827E+01  0.13911391822E+02  0.00000000000E+00 0.  1.
</event>
<event>
 7    1  0.2985411E-011  0.5052887E+02  0.7816164E-02  0.1300439E+00
        -11   -1    0    0    0    0  0.00000000000E+00  0.00000000000E+00  0.45593999997E+02  0.45594000000E+02  0.51100000000E-03 0. -1.
         11   -1    0    0    0    0 -0.00000000000E+00 -0.00000000000E+00 -0.45593999997E+02  0.45594000000E+02  0.51100000000E-03 0.  1.
    9900012    2    1    2    0    0 -0.32556855987E+02 -0.20858433955E+02  0.12575430581E+02  0.50528873188E+02  0.30000040544E+02 0.  0.
        -12    1    1    2    0    0  0.32556855987E+02  0.20858433955E+02 -0.12575430581E+02  0.40659126812E+02  0.00000000000E+00 0.  1.
         11    1    3    3    0    0 -0.31145270097E+01  0.55131563320E+01  0.49935018838E+01  0.80641324741E+01  0.51100000000E-03 0. -1.
        -11    1    3    3    0    0 -0.13608137526E+02 -0.66424595844E+01 -0.22790705485E+01  0.15313322274E+02  0.51100000000E-03 0.  1.
        -12    1    3    3    0    0 -0.15834191451E+02 -0.19729130702E+02  0.98609992458E+01  0.27151418440E+02  0.00000000000E+00 0.  1.
</event>
<event>
 7    1  0.2985411E-011  0.5052886E+02  0.7816164E-02  0.1300439E+00
        -11   -1    0    0    0    0  0.00000000000E+00  0.00000000000E+00  0.45593999997E+02  0.45594000000E+02  0.51100000000E-03 0. -1.
         11   -1    0    0    0    0 -0.00000000000E+00 -0.00000000000E+00 -0.45593999997E+02  0.45594000000E+02  0.51100000000E-03 0.  1.
    9900012    2    1    2    0    0 -0.51863834123E+01 -0.35667502411E+02  0.18817452958E+02  0.50528857891E+02  0.29999994047E+02 0.  0.
        -12    1    1    2    0    0  0.51863834123E+01  0.35667502411E+02 -0.18817452958E+02  0.40659142109E+02  0.00000000000E+00 0.  1.
         11    1    3    3    0    0  0.35681512858E+01 -0.19034677979E+02  0.71937482009E+01  0.20659154939E+02  0.51100000000E-03 0. -1.
        -11    1    3    3    0    0 -0.34810423179E+01 -0.11560511093E+02 -0.39169050921E+01  0.12692723038E+02  0.51100000000E-03 0.  1.
         12    1    3    3    0    0 -0.52734923801E+01 -0.50723133394E+01  0.15540609849E+02  0.17176979915E+02  0.00000000000E+00 0. -1.
</event>
<event>
 7    1  0.2985411E-011  0.5052887E+02  0.7816164E-02  0.1300439E+00
        -11   -1    0    0    0    0  0.00000000000E+00  0.00000000000E+00  0.45593999997E+02  0.45594000000E+02  0.51100000000E-03 0. -1.
         11   -1    0    0    0    0 -0.00000000000E+00 -0.00000000000E+00 -0.45593999997E+02  0.45594000000E+02  0.51100000000E-03 0.  1.
    9900012    2    1    2    0    0 -0.35047093399E+02 -0.45923984845E+01  0.20094180420E+02  0.50528868599E+02  0.30000026592E+02 0.  0.
        -12    1    1    2    0    0  0.35047093399E+02  0.45923984845E+01 -0.20094180420E+02  0.40659131401E+02  0.00000000000E+00 0.  1.
         11    1    3    3    0    0 -0.13914322720E+02 -0.12667064043E+01  0.17675496063E+02  0.22530780795E+02  0.51100000000E-03 0. -1.
        -11    1    3    3    0    0 -0.36514639928E+01 -0.80924444270E+00  0.85261595806E+01  0.93103954435E+01  0.51100000000E-03 0.  1.
        -12    1    3    3    0    0 -0.17481306686E+02 -0.25164476375E+01 -0.61074752233E+01  0.18687692360E+02  0.00000000000E+00 0.  1.
</event>
<event>
 7    1  0.2985411E-011  0.5052886E+02  0.7816164E-02  0.1300439E+00
        -11   -1    0    0    0    0  0.00000000000E+00  0.00000000000E+00  0.45593999997E+02  0.45594000000E+02  0.51100000000E-03 0.  1.
         11   -1    0    0    0    0 -0.00000000000E+00 -0.00000000000E+00 -0.45593999997E+02  0.45594000000E+02  0.51100000000E-03 0. -1.
    9900012    2    1    2    0    0  0.40518381292E+02  0.19310036483E+01 -0.27743982258E+01  0.50528864703E+02  0.30000014751E+02 0.  0.
        -12    1    1    2    0    0 -0.40518381292E+02 -0.19310036483E+01  0.27743982258E+01  0.40659135297E+02  0.00000000000E+00 0.  1.
         11    1    3    3    0    0  0.41191623262E+01  0.33098350619E+01  0.21029924805E+01  0.56872738672E+01  0.51100000000E-03 0. -1.
        -11    1    3    3    0    0  0.11150447442E+02  0.53731144465E+00  0.10409411998E+02  0.15263585430E+02  0.51100000000E-03 0.  1.
         12    1    3    3    0    0  0.25248771523E+02 -0.19161428583E+01 -0.15286802705E+02  0.29578005406E+02  0.00000000000E+00 0. -1.
</event>
<event>
 7    1  0.2985411E-011  0.5052892E+02  0.7816164E-02  0.1300439E+00
        -11   -1    0    0    0    0  0.00000000000E+00  0.00000000000E+00  0.45593999997E+02  0.45594000000E+02  0.51100000000E-03 0. -1.
         11   -1    0    0    0    0 -0.00000000000E+00 -0.00000000000E+00 -0.45593999997E+02  0.45594000000E+02  0.51100000000E-03 0.  1.
    9900012    2    1    2    0    0  0.65032232061E+00 -0.50430152459E+01  0.40339882432E+02  0.50528916924E+02  0.30000173483E+02 0.  0.
        -12    1    1    2    0    0 -0.65032232061E+00  0.50430152459E+01 -0.40339882432E+02  0.40659083076E+02  0.00000000000E+00 0.  1.
         11    1    3    3    0    0 -0.54733163758E+00 -0.49375533213E+00  0.48009517495E+01  0.48572115675E+01  0.51100000000E-03 0. -1.
        -11    1    3    3    0    0 -0.20967157733E+01  0.20447244038E+01 -0.42745674559E+01  0.51816061330E+01  0.51100000000E-03 0.  1.
        -12    1    3    3    0    0  0.32943697315E+01 -0.65939843176E+01  0.39813498139E+02  0.40490099224E+02  0.00000000000E+00 0.  1.
</event>
<event>
 7    1  0.2985411E-011  0.5052886E+02  0.7816164E-02  0.1300439E+00
        -11   -1    0    0    0    0  0.00000000000E+00  0.00000000000E+00  0.45593999997E+02  0.45594000000E+02  0.51100000000E-03 0. -1.
         11   -1    0    0    0    0 -0.00000000000E+00 -0.00000000000E+00 -0.45593999997E+02  0.45594000000E+02  0.51100000000E-03 0.  1.
    9900012    2    1    2    0    0 -0.11248464651E+02  0.20045221696E+02  0.33538434986E+02  0.50528862144E+02  0.30000006974E+02 0.  0.
        -12    1    1    2    0    0  0.11248464651E+02 -0.20045221696E+02 -0.33538434986E+02  0.40659137856E+02  0.00000000000E+00 0.  1.
         11    1    3    3    0    0 -0.66428822962E+01  0.11648944298E+02  0.43760543263E+01  0.14105872543E+02  0.51100000000E-03 0.  1.
        -11    1    3    3    0    0 -0.98549388246E+01  0.11508101196E+02  0.16712750912E+02  0.22558197084E+02  0.51100000000E-03 0. -1.
        -12    1    3    3    0    0  0.52493564703E+01 -0.31118237980E+01  0.12449629748E+02  0.13864792518E+02  0.00000000000E+00 0.  1.
</event>
<event>
 7    1  0.2985411E-011  0.5052886E+02  0.7816164E-02  0.1300439E+00
        -11   -1    0    0    0    0  0.00000000000E+00  0.00000000000E+00  0.45593999997E+02  0.45594000000E+02  0.51100000000E-03 0. -1.
         11   -1    0    0    0    0 -0.00000000000E+00 -0.00000000000E+00 -0.45593999997E+02  0.45594000000E+02  0.51100000000E-03 0.  1.
    9900012    2    1    2    0    0  0.34204627477E+01  0.27134719911E+02  0.30086092115E+02  0.50528861682E+02  0.30000005567E+02 0.  0.
        -12    1    1    2    0    0 -0.34204627477E+01 -0.27134719911E+02 -0.30086092115E+02  0.40659138318E+02  0.00000000000E+00 0.  1.
         11    1    3    3    0    0 -0.57120434271E+01  0.46257078591E+01  0.14699031691E+02  0.16434297862E+02  0.51100000000E-03 0. -1.
        -11    1    3    3    0    0 -0.18624117267E+00 -0.31316870519E+01  0.17980061891E+01  0.36159336391E+01  0.51100000000E-03 0.  1.
         12    1    3    3    0    0  0.93187473475E+01  0.25640699104E+02  0.13589054235E+02  0.30478630180E+02  0.00000000000E+00 0. -1.
</event>
<event>
 7    1  0.2985411E-011  0.5052887E+02  0.7816164E-02  0.1300439E+00
        -11   -1    0    0    0    0  0.00000000000E+00  0.00000000000E+00  0.45593999997E+02  0.45594000000E+02  0.51100000000E-03 0. -1.
         11   -1    0    0    0    0 -0.00000000000E+00 -0.00000000000E+00 -0.45593999997E+02  0.45594000000E+02  0.51100000000E-03 0.  1.
    9900012    2    1    2    0    0 -0.26746790122E+02 -0.14651261627E+02  0.26890791076E+02  0.50528869490E+02  0.30000029303E+02 0.  0.
        -12    1    1    2    0    0  0.26746790122E+02  0.14651261627E+02 -0.26890791076E+02  0.40659130510E+02  0.00000000000E+00 0.  1.
         11    1    3    3    0    0 -0.11599755816E+01 -0.12649126776E+02  0.12212672691E+02  0.17620877562E+02  0.51100000000E-03 0. -1.
        -11    1    3    3    0    0 -0.41455623854E+01 -0.10150122397E+01  0.10095029965E+02  0.10960181002E+02  0.51100000000E-03 0.  1.
        -12    1    3    3    0    0 -0.21441252155E+02 -0.98712261180E+00  0.45830884207E+01  0.21947810927E+02  0.00000000000E+00 0.  1.
</event>
<event>
 7    1  0.2985411E-011  0.5052883E+02  0.7816164E-02  0.1300439E+00
        -11   -1    0    0    0    0  0.00000000000E+00  0.00000000000E+00  0.45593999997E+02  0.45594000000E+02  0.51100000000E-03 0. -1.
         11   -1    0    0    0    0 -0.00000000000E+00 -0.00000000000E+00 -0.45593999997E+02  0.45594000000E+02  0.51100000000E-03 0.  1.
    9900012    2    1    2    0    0  0.25440000278E+02  0.14362015082E+02  0.28279084451E+02  0.50528834874E+02  0.29999924083E+02 0.  0.
        -12    1    1    2    0    0 -0.25440000278E+02 -0.14362015082E+02 -0.28279084451E+02  0.40659165126E+02  0.00000000000E+00 0.  1.
         11    1    3    3    0    0  0.14048819888E+02 -0.13204322280E+01  0.14601934538E+02  0.20305895056E+02  0.51100000000E-03 0. -1.
        -11    1    3    3    0    0  0.53912221674E+01  0.16794153358E+00 -0.34058333693E+01  0.63791207872E+01  0.51100000000E-03 0.  1.
        -12    1    3    3    0    0  0.59999582225E+01  0.15514505776E+02  0.17082983282E+02  0.23843819031E+02  0.00000000000E+00 0.  1.
</event>
<event>
 7    1  0.2985411E-011  0.5052886E+02  0.7816164E-02  0.1300439E+00
        -11   -1    0    0    0    0  0.00000000000E+00  0.00000000000E+00  0.45593999997E+02  0.45594000000E+02  0.51100000000E-03 0.  1.
         11   -1    0    0    0    0 -0.00000000000E+00 -0.00000000000E+00 -0.45593999997E+02  0.45594000000E+02  0.51100000000E-03 0. -1.
    9900012    2    1    2    0    0 -0.33405000120E+02  0.20771818845E+02  0.10286068701E+02  0.50528859571E+02  0.29999999151E+02 0.  0.
        -12    1    1    2    0    0  0.33405000120E+02 -0.20771818845E+02 -0.10286068701E+02  0.40659140429E+02  0.00000000000E+00 0.  1.
         11    1    3    3    0    0 -0.13418210655E+02  0.65205052383E+01 -0.12716700016E+01  0.14972725557E+02  0.51100000000E-03 0. -1.
        -11    1    3    3    0    0 -0.18507160585E+02  0.13196390287E+02  0.17916781594E+02  0.28942542606E+02  0.51100000000E-03 0.  1.
         12    1    3    3    0    0 -0.14796288793E+01  0.10549233199E+01 -0.63590428909E+01  0.66135914086E+01  0.00000000000E+00 0. -1.
</event>
<event>
 7    1  0.2985411E-011  0.5052886E+02  0.7816164E-02  0.1300439E+00
        -11   -1    0    0    0    0  0.00000000000E+00  0.00000000000E+00  0.45593999997E+02  0.45594000000E+02  0.51100000000E-03 0.  1.
         11   -1    0    0    0    0 -0.00000000000E+00 -0.00000000000E+00 -0.45593999997E+02  0.45594000000E+02  0.51100000000E-03 0. -1.
    9900012    2    1    2    0    0  0.24059242987E+02  0.21159274398E+02 -0.25032049997E+02  0.50528860889E+02  0.30000003160E+02 0.  0.
        -12    1    1    2    0    0 -0.24059242987E+02 -0.21159274398E+02  0.25032049997E+02  0.40659139111E+02  0.00000000000E+00 0.  1.
         11    1    3    3    0    0  0.24703233126E+01  0.14856209047E+01  0.49922756085E+01  0.57647534859E+01  0.51100000000E-03 0. -1.
        -11    1    3    3    0    0 -0.53071293123E+00  0.56531599470E+01 -0.11703095603E+01  0.57973699494E+01  0.51100000000E-03 0.  1.
         12    1    3    3    0    0  0.22119632605E+02  0.14020493547E+02 -0.28854016045E+02  0.38966737454E+02  0.00000000000E+00 0. -1.
</event>
<event>
 7    1  0.2985411E-011  0.5052886E+02  0.7816164E-02  0.1300439E+00
        -11   -1    0    0    0    0  0.00000000000E+00  0.00000000000E+00  0.45593999997E+02  0.45594000000E+02  0.51100000000E-03 0. -1.
         11   -1    0    0    0    0 -0.00000000000E+00 -0.00000000000E+00 -0.45593999997E+02  0.45594000000E+02  0.51100000000E-03 0.  1.
    9900012    2    1    2    0    0  0.97692120286E+01  0.10762189264E+02  0.37972398510E+02  0.50528864864E+02  0.30000015241E+02 0.  0.
        -12    1    1    2    0    0 -0.97692120286E+01 -0.10762189264E+02 -0.37972398510E+02  0.40659135136E+02  0.00000000000E+00 0.  1.
         11    1    3    3    0    0 -0.66593934163E+01 -0.30699682169E+01  0.18277147666E+01  0.75572989259E+01  0.51100000000E-03 0. -1.
        -11    1    3    3    0    0  0.15548517509E+01  0.20021027309E+01  0.50990845559E+00  0.25857274037E+01  0.51100000000E-03 0.  1.
         12    1    3    3    0    0  0.14873753694E+02  0.11830054750E+02  0.35634775288E+02  0.40385838534E+02  0.00000000000E+00 0. -1.
</event>
<event>
 7    1  0.2985411E-011  0.5052887E+02  0.7816164E-02  0.1300439E+00
        -11   -1    0    0    0    0  0.00000000000E+00  0.00000000000E+00  0.45593999997E+02  0.45594000000E+02  0.51100000000E-03 0. -1.
         11   -1    0    0    0    0 -0.00000000000E+00 -0.00000000000E+00 -0.45593999997E+02  0.45594000000E+02  0.51100000000E-03 0.  1.
    9900012    2    1    2    0    0  0.40529003740E+02  0.27522155045E+01  0.17292511289E+01  0.50528866416E+02  0.30000019959E+02 0.  0.
        -12    1    1    2    0    0 -0.40529003740E+02 -0.27522155045E+01 -0.17292511289E+01  0.40659133584E+02  0.00000000000E+00 0.  1.
         11    1    3    3    0    0  0.68640862187E+01 -0.43524872054E+01 -0.25978363294E+01  0.85327942871E+01  0.51100000000E-03 0. -1.
        -11    1    3    3    0    0  0.15816240425E+02 -0.36975129218E+01 -0.76343631868E+01  0.17947383222E+02  0.51100000000E-03 0.  1.
        -12    1    3    3    0    0  0.17848677096E+02  0.10802215632E+02  0.11961450645E+02  0.24048688907E+02  0.00000000000E+00 0.  1.
</event>
<event>
 7    1  0.2985411E-011  0.5052886E+02  0.7816164E-02  0.1300439E+00
        -11   -1    0    0    0    0  0.00000000000E+00  0.00000000000E+00  0.45593999997E+02  0.45594000000E+02  0.51100000000E-03 0. -1.
         11   -1    0    0    0    0 -0.00000000000E+00 -0.00000000000E+00 -0.45593999997E+02  0.45594000000E+02  0.51100000000E-03 0.  1.
    9900012    2    1    2    0    0  0.40338348182E+02  0.38144794560E+01 -0.33812775153E+01  0.50528860496E+02  0.30000001963E+02 0.  0.
        -12    1    1    2    0    0 -0.40338348182E+02 -0.38144794560E+01  0.33812775153E+01  0.40659139504E+02  0.00000000000E+00 0.  1.
         11    1    3    3    0    0 -0.99060087730E+00  0.75873234398E+00  0.63440925173E+00  0.13998000670E+01  0.51100000000E-03 0. -1.
        -11    1    3    3    0    0  0.12470237498E+02 -0.10237507338E+02  0.34307428691E+01  0.16494950035E+02  0.51100000000E-03 0.  1.
         12    1    3    3    0    0  0.28858711561E+02  0.13293254450E+02 -0.74464296361E+01  0.32634110394E+02  0.00000000000E+00 0. -1.
</event>
<event>
 7    1  0.2985411E-011  0.5052887E+02  0.7816164E-02  0.1300439E+00
        -11   -1    0    0    0    0  0.00000000000E+00  0.00000000000E+00  0.45593999997E+02  0.45594000000E+02  0.51100000000E-03 0.  1.
         11   -1    0    0    0    0 -0.00000000000E+00 -0.00000000000E+00 -0.45593999997E+02  0.45594000000E+02  0.51100000000E-03 0. -1.
    9900012    2    1    2    0    0 -0.29575282581E+02 -0.63874303224E+01 -0.27160054921E+02  0.50528865858E+02  0.30000018262E+02 0.  0.
        -12    1    1    2    0    0  0.29575282581E+02  0.63874303224E+01  0.27160054921E+02  0.40659134142E+02  0.00000000000E+00 0.  1.
         11    1    3    3    0    0 -0.13537426103E+02  0.14959858354E+01 -0.20429297634E+02  0.24553127727E+02  0.51100000000E-03 0. -1.
        -11    1    3    3    0    0 -0.62960568182E+01 -0.55760873734E+01 -0.12006722727E+02  0.14659279408E+02  0.51100000000E-03 0.  1.
         12    1    3    3    0    0 -0.97417996599E+01 -0.23073287844E+01  0.52759654392E+01  0.11316458724E+02  0.00000000000E+00 0. -1.
</event>
<event>
 7    1  0.2985411E-011  0.5052886E+02  0.7816164E-02  0.1300439E+00
        -11   -1    0    0    0    0  0.00000000000E+00  0.00000000000E+00  0.45593999997E+02  0.45594000000E+02  0.51100000000E-03 0.  1.
         11   -1    0    0    0    0 -0.00000000000E+00 -0.00000000000E+00 -0.45593999997E+02  0.45594000000E+02  0.51100000000E-03 0. -1.
    9900012    2    1    2    0    0  0.21428438545E+02  0.39747884460E+01 -0.34324753959E+02  0.50528860117E+02  0.30000000812E+02 0.  0.
        -12    1    1    2    0    0 -0.21428438545E+02 -0.39747884460E+01  0.34324753959E+02  0.40659139883E+02  0.00000000000E+00 0.  1.
         11    1    3    3    0    0 -0.94583110086E+00  0.70090550077E+01 -0.18139846752E+02  0.19469861042E+02  0.51100000000E-03 0. -1.
        -11    1    3    3    0    0  0.63751245654E+01  0.92971923223E+00  0.17742729093E+01  0.66824124156E+01  0.51100000000E-03 0.  1.
        -12    1    3    3    0    0  0.15999145081E+02 -0.39639857939E+01 -0.17959180117E+02  0.24376586659E+02  0.00000000000E+00 0.  1.
</event>
<event>
 7    1  0.2985411E-011  0.5052886E+02  0.7816164E-02  0.1300439E+00
        -11   -1    0    0    0    0  0.00000000000E+00  0.00000000000E+00  0.45593999997E+02  0.45594000000E+02  0.51100000000E-03 0.  1.
         11   -1    0    0    0    0 -0.00000000000E+00 -0.00000000000E+00 -0.45593999997E+02  0.45594000000E+02  0.51100000000E-03 0. -1.
    9900012    2    1    2    0    0 -0.26516250536E+02 -0.26893407588E+02 -0.15059839396E+02  0.50528859862E+02  0.30000000036E+02 0.  0.
        -12    1    1    2    0    0  0.26516250536E+02  0.26893407588E+02  0.15059839396E+02  0.40659140138E+02  0.00000000000E+00 0.  1.
         11    1    3    3    0    0 -0.12501082382E+02 -0.16641094286E+02  0.24427579870E+01  0.20956386773E+02  0.51100000000E-03 0. -1.
        -11    1    3    3    0    0 -0.28430992272E+00 -0.10405567599E+01  0.30263421376E+01  0.32128394758E+01  0.51100000000E-03 0.  1.
         12    1    3    3    0    0 -0.13730858231E+02 -0.92117565420E+01 -0.20528939521E+02  0.26359633613E+02  0.00000000000E+00 0. -1.
</event>
<event>
 7    1  0.2985411E-011  0.5052884E+02  0.7816164E-02  0.1300439E+00
        -11   -1    0    0    0    0  0.00000000000E+00  0.00000000000E+00  0.45593999997E+02  0.45594000000E+02  0.51100000000E-03 0.  1.
         11   -1    0    0    0    0 -0.00000000000E+00 -0.00000000000E+00 -0.45593999997E+02  0.45594000000E+02  0.51100000000E-03 0. -1.
    9900012    2    1    2    0    0 -0.36887404640E+02 -0.13927839789E+02 -0.99248248943E+01  0.50528837546E+02  0.29999932205E+02 0.  0.
        -12    1    1    2    0    0  0.36887404640E+02  0.13927839789E+02  0.99248248943E+01  0.40659162454E+02  0.00000000000E+00 0.  1.
         11    1    3    3    0    0 -0.24313046229E+02 -0.12070035882E+02 -0.11028639011E+02  0.29299161452E+02  0.51100000000E-03 0. -1.
        -11    1    3    3    0    0 -0.61105026515E+01 -0.76336595583E+01  0.58020338747E+01  0.11369898779E+02  0.51100000000E-03 0.  1.
        -12    1    3    3    0    0 -0.64638557600E+01  0.57758556515E+01 -0.46982197580E+01  0.98597773143E+01  0.00000000000E+00 0.  1.
</event>
<event>
 7    1  0.2985411E-011  0.5052886E+02  0.7816164E-02  0.1300439E+00
        -11   -1    0    0    0    0  0.00000000000E+00  0.00000000000E+00  0.45593999997E+02  0.45594000000E+02  0.51100000000E-03 0.  1.
         11   -1    0    0    0    0 -0.00000000000E+00 -0.00000000000E+00 -0.45593999997E+02  0.45594000000E+02  0.51100000000E-03 0. -1.
    9900012    2    1    2    0    0 -0.27626740347E+01 -0.34043371132E+02  0.22058610663E+02  0.50528858466E+02  0.29999995793E+02 0.  0.
        -12    1    1    2    0    0  0.27626740347E+01  0.34043371132E+02 -0.22058610663E+02  0.40659141534E+02  0.00000000000E+00 0.  1.
         11    1    3    3    0    0 -0.20348053860E+01 -0.18605338434E+02  0.50105333017E+01  0.19375357943E+02  0.51100000000E-03 0. -1.
        -11    1    3    3    0    0  0.52164370358E+01 -0.14420827005E+02  0.26754886767E+01  0.15566942756E+02  0.51100000000E-03 0.  1.
         12    1    3    3    0    0 -0.59443056846E+01 -0.10172056932E+01  0.14372588685E+02  0.15586557766E+02  0.00000000000E+00 0. -1.
</event>
<event>
 7    1  0.2985411E-011  0.5052886E+02  0.7816164E-02  0.1300439E+00
        -11   -1    0    0    0    0  0.00000000000E+00  0.00000000000E+00  0.45593999997E+02  0.45594000000E+02  0.51100000000E-03 0.  1.
         11   -1    0    0    0    0 -0.00000000000E+00 -0.00000000000E+00 -0.45593999997E+02  0.45594000000E+02  0.51100000000E-03 0. -1.
    9900012    2    1    2    0    0 -0.36094169562E+02  0.18669601862E+02  0.13500748013E+01  0.50528858199E+02  0.29999994981E+02 0.  0.
        -12    1    1    2    0    0  0.36094169562E+02 -0.18669601862E+02 -0.13500748013E+01  0.40659141801E+02  0.00000000000E+00 0.  1.
         11    1    3    3    0    0 -0.16191715540E+02 -0.14491925089E+01 -0.47352594770E+01  0.16932055210E+02  0.51100000000E-03 0. -1.
        -11    1    3    3    0    0 -0.74110048738E+01  0.59520382745E+01  0.10538147231E+02  0.14191627820E+02  0.51100000000E-03 0.  1.
         12    1    3    3    0    0 -0.12491449148E+02  0.14166756097E+02 -0.44528129530E+01  0.19405175168E+02  0.00000000000E+00 0. -1.
</event>
<event>
 7    1  0.2985411E-011  0.5052887E+02  0.7816164E-02  0.1300439E+00
        -11   -1    0    0    0    0  0.00000000000E+00  0.00000000000E+00  0.45593999997E+02  0.45594000000E+02  0.51100000000E-03 0.  1.
         11   -1    0    0    0    0 -0.00000000000E+00 -0.00000000000E+00 -0.45593999997E+02  0.45594000000E+02  0.51100000000E-03 0. -1.
    9900012    2    1    2    0    0  0.21022664562E+02  0.26959576308E+02 -0.22008951297E+02  0.50528866743E+02  0.30000020952E+02 0.  0.
        -12    1    1    2    0    0 -0.21022664562E+02 -0.26959576308E+02  0.22008951297E+02  0.40659133257E+02  0.00000000000E+00 0.  1.
         11    1    3    3    0    0  0.19671383495E+02  0.22130565392E+02 -0.18566533518E+02  0.34949126174E+02  0.51100000000E-03 0. -1.
        -11    1    3    3    0    0  0.59495702215E+01 -0.18351188957E+01 -0.41025605712E+01  0.74562759259E+01  0.51100000000E-03 0.  1.
         12    1    3    3    0    0 -0.45982891542E+01  0.66641298120E+01  0.66014279263E+00  0.81234646429E+01  0.00000000000E+00 0. -1.
</event>
<event>
 7    1  0.2985411E-011  0.5052887E+02  0.7816164E-02  0.1300439E+00
        -11   -1    0    0    0    0  0.00000000000E+00  0.00000000000E+00  0.45593999997E+02  0.45594000000E+02  0.51100000000E-03 0.  1.
         11   -1    0    0    0    0 -0.00000000000E+00 -0.00000000000E+00 -0.45593999997E+02  0.45594000000E+02  0.51100000000E-03 0. -1.
    9900012    2    1    2    0    0  0.18858173304E+02 -0.33897835138E+02 -0.12184858527E+02  0.50528871816E+02  0.30000036371E+02 0.  0.
        -12    1    1    2    0    0 -0.18858173304E+02  0.33897835138E+02  0.12184858527E+02  0.40659128184E+02  0.00000000000E+00 0.  1.
         11    1    3    3    0    0  0.19336110464E+01 -0.11364763552E+02  0.11154755487E+01  0.11581925066E+02  0.51100000000E-03 0. -1.
        -11    1    3    3    0    0 -0.33208220109E+01 -0.14339038439E+02 -0.43980035700E+01  0.15361585786E+02  0.51100000000E-03 0.  1.
        -12    1    3    3    0    0  0.20245384268E+02 -0.81940331461E+01 -0.89023305058E+01  0.23585360964E+02  0.00000000000E+00 0.  1.
</event>
<event>
 7    1  0.2985411E-011  0.5052882E+02  0.7816164E-02  0.1300439E+00
        -11   -1    0    0    0    0  0.00000000000E+00  0.00000000000E+00  0.45593999997E+02  0.45594000000E+02  0.51100000000E-03 0. -1.
         11   -1    0    0    0    0 -0.00000000000E+00 -0.00000000000E+00 -0.45593999997E+02  0.45594000000E+02  0.51100000000E-03 0.  1.
    9900012    2    1    2    0    0 -0.17490210371E+02 -0.36669754624E+02 -0.16096158595E+01  0.50528816213E+02  0.29999867359E+02 0.  0.
        -12    1    1    2    0    0  0.17490210371E+02  0.36669754624E+02  0.16096158595E+01  0.40659183787E+02  0.00000000000E+00 0.  1.
         11    1    3    3    0    0 -0.21150217976E+01 -0.18491177945E+02 -0.55516048141E+01  0.19422082671E+02  0.51100000000E-03 0. -1.
        -11    1    3    3    0    0 -0.14743793420E+02 -0.73062953555E+01 -0.48009623003E+01  0.17140905329E+02  0.51100000000E-03 0.  1.
        -12    1    3    3    0    0 -0.63139515389E+00 -0.10872281324E+02  0.87429512549E+01  0.13965828213E+02  0.00000000000E+00 0.  1.
</event>
<event>
 7    1  0.2985411E-011  0.5052898E+02  0.7816164E-02  0.1300438E+00
        -11   -1    0    0    0    0  0.00000000000E+00  0.00000000000E+00  0.45593999997E+02  0.45594000000E+02  0.51100000000E-03 0.  1.
         11   -1    0    0    0    0 -0.00000000000E+00 -0.00000000000E+00 -0.45593999997E+02  0.45594000000E+02  0.51100000000E-03 0. -1.
    9900012    2    1    2    0    0 -0.18578134226E+02 -0.31998092767E+02 -0.16856175625E+02  0.50528982934E+02  0.30000374124E+02 0.  0.
        -12    1    1    2    0    0  0.18578134226E+02  0.31998092767E+02  0.16856175625E+02  0.40659017066E+02  0.00000000000E+00 0.  1.
         11    1    3    3    0    0  0.73126738181E+00  0.16390017112E+01 -0.57270780470E+00  0.18838983740E+01  0.51100000000E-03 0. -1.
        -11    1    3    3    0    0  0.44882968283E+01 -0.17827900660E+01  0.15427688874E+01  0.50698407213E+01  0.51100000000E-03 0.  1.
         12    1    3    3    0    0 -0.23797698436E+02 -0.31854304412E+02 -0.17826236708E+02  0.43575243839E+02  0.00000000000E+00 0. -1.
</event>
<event>
 7    1  0.2985411E-011  0.5052883E+02  0.7816164E-02  0.1300439E+00
        -11   -1    0    0    0    0  0.00000000000E+00  0.00000000000E+00  0.45593999997E+02  0.45594000000E+02  0.51100000000E-03 0. -1.
         11   -1    0    0    0    0 -0.00000000000E+00 -0.00000000000E+00 -0.45593999997E+02  0.45594000000E+02  0.51100000000E-03 0.  1.
    9900012    2    1    2    0    0 -0.29740526121E+02 -0.17755472249E+02  0.21293481927E+02  0.50528830538E+02  0.29999910904E+02 0.  0.
        -12    1    1    2    0    0  0.29740526121E+02  0.17755472249E+02 -0.21293481927E+02  0.40659169462E+02  0.00000000000E+00 0.  1.
         11    1    3    3    0    0 -0.46801902975E+01 -0.14314939413E+02  0.65345022955E+01  0.16417106692E+02  0.51100000000E-03 0. -1.
        -11    1    3    3    0    0 -0.21752615592E+02 -0.94105375818E+01  0.13130237939E+02  0.27094974650E+02  0.51100000000E-03 0.  1.
        -12    1    3    3    0    0 -0.33077202316E+01  0.59700047455E+01  0.16287416924E+01  0.70167491969E+01  0.00000000000E+00 0.  1.
</event>
<event>
 7    1  0.2985411E-011  0.5052886E+02  0.7816164E-02  0.1300439E+00
        -11   -1    0    0    0    0  0.00000000000E+00  0.00000000000E+00  0.45593999997E+02  0.45594000000E+02  0.51100000000E-03 0.  1.
         11   -1    0    0    0    0 -0.00000000000E+00 -0.00000000000E+00 -0.45593999997E+02  0.45594000000E+02  0.51100000000E-03 0. -1.
    9900012    2    1    2    0    0 -0.37271784267E+01 -0.11508830159E+02 -0.38817786672E+02  0.50528860895E+02  0.30000003177E+02 0.  0.
        -12    1    1    2    0    0  0.37271784267E+01  0.11508830159E+02  0.38817786672E+02  0.40659139105E+02  0.00000000000E+00 0.  1.
         11    1    3    3    0    0  0.89613319135E+01  0.34014350616E+00 -0.11886499755E+02  0.14889930959E+02  0.51100000000E-03 0. -1.
        -11    1    3    3    0    0 -0.35084074066E+01  0.13743265405E+01  0.53222655128E+00  0.38053858324E+01  0.51100000000E-03 0.  1.
         12    1    3    3    0    0 -0.91801029337E+01 -0.13223300206E+02 -0.27463513468E+02  0.31833544104E+02  0.00000000000E+00 0. -1.
</event>
<event>
 7    1  0.2985411E-011  0.5052885E+02  0.7816164E-02  0.1300439E+00
        -11   -1    0    0    0    0  0.00000000000E+00  0.00000000000E+00  0.45593999997E+02  0.45594000000E+02  0.51100000000E-03 0.  1.
         11   -1    0    0    0    0 -0.00000000000E+00 -0.00000000000E+00 -0.45593999997E+02  0.45594000000E+02  0.51100000000E-03 0. -1.
    9900012    2    1    2    0    0  0.60289479839E+01  0.40155360219E+02 -0.20893859201E+01  0.50528847259E+02  0.29999961728E+02 0.  0.
        -12    1    1    2    0    0 -0.60289479839E+01 -0.40155360219E+02  0.20893859201E+01  0.40659152741E+02  0.00000000000E+00 0.  1.
         11    1    3    3    0    0 -0.57912482485E+01  0.97507124293E+01 -0.19027904591E+01  0.11499372198E+02  0.51100000000E-03 0. -1.
        -11    1    3    3    0    0 -0.35685498346E+01  0.46989891221E+01 -0.61052896640E+01  0.84905599835E+01  0.51100000000E-03 0.  1.
         12    1    3    3    0    0  0.15388746067E+02  0.25705658667E+02  0.59186942030E+01  0.30538915077E+02  0.00000000000E+00 0. -1.
</event>
<event>
 7    1  0.2985411E-011  0.5052882E+02  0.7816164E-02  0.1300439E+00
        -11   -1    0    0    0    0  0.00000000000E+00  0.00000000000E+00  0.45593999997E+02  0.45594000000E+02  0.51100000000E-03 0.  1.
         11   -1    0    0    0    0 -0.00000000000E+00 -0.00000000000E+00 -0.45593999997E+02  0.45594000000E+02  0.51100000000E-03 0. -1.
    9900012    2    1    2    0    0 -0.26159714283E+02 -0.12783840259E+02 -0.28379781208E+02  0.50528816480E+02  0.29999868171E+02 0.  0.
        -12    1    1    2    0    0  0.26159714283E+02  0.12783840259E+02  0.28379781208E+02  0.40659183520E+02  0.00000000000E+00 0.  1.
         11    1    3    3    0    0 -0.87870004082E+01 -0.13940972812E+02 -0.19276391657E+02  0.25360232150E+02  0.51100000000E-03 0. -1.
        -11    1    3    3    0    0 -0.39168025023E+01 -0.61203582332E+01 -0.62975481200E+01  0.96155727510E+01  0.51100000000E-03 0.  1.
         12    1    3    3    0    0 -0.13455911373E+02  0.72774907864E+01 -0.28058414303E+01  0.15553011578E+02  0.00000000000E+00 0. -1.
</event>
<event>
 7    1  0.2985411E-011  0.5052886E+02  0.7816164E-02  0.1300439E+00
        -11   -1    0    0    0    0  0.00000000000E+00  0.00000000000E+00  0.45593999997E+02  0.45594000000E+02  0.51100000000E-03 0. -1.
         11   -1    0    0    0    0 -0.00000000000E+00 -0.00000000000E+00 -0.45593999997E+02  0.45594000000E+02  0.51100000000E-03 0.  1.
    9900012    2    1    2    0    0 -0.71824403441E+01 -0.14424178564E+02  0.37329901482E+02  0.50528856856E+02  0.29999990900E+02 0.  0.
        -12    1    1    2    0    0  0.71824403441E+01  0.14424178564E+02 -0.37329901482E+02  0.40659143144E+02  0.00000000000E+00 0.  1.
         11    1    3    3    0    0 -0.48926976954E+01 -0.93646260783E+01  0.14069136465E+02  0.17594752441E+02  0.51100000000E-03 0. -1.
        -11    1    3    3    0    0 -0.11993158832E+02 -0.62502813820E+01  0.14076571904E+02  0.19520546943E+02  0.51100000000E-03 0.  1.
        -12    1    3    3    0    0  0.97034161833E+01  0.11907288964E+01  0.91841931137E+01  0.13413557473E+02  0.00000000000E+00 0.  1.
</event>
<event>
 7    1  0.2985411E-011  0.5052886E+02  0.7816164E-02  0.1300439E+00
        -11   -1    0    0    0    0  0.00000000000E+00  0.00000000000E+00  0.45593999997E+02  0.45594000000E+02  0.51100000000E-03 0.  1.
         11   -1    0    0    0    0 -0.00000000000E+00 -0.00000000000E+00 -0.45593999997E+02  0.45594000000E+02  0.51100000000E-03 0. -1.
    9900012    2    1    2    0    0  0.24010528064E+00 -0.34846307560E+02 -0.20948570397E+02  0.50528863231E+02  0.30000010276E+02 0.  0.
        -12    1    1    2    0    0 -0.24010528064E+00  0.34846307560E+02  0.20948570397E+02  0.40659136769E+02  0.00000000000E+00 0.  1.
         11    1    3    3    0    0  0.10096827102E+02 -0.17778233980E+02 -0.82494806710E+01  0.22046892130E+02  0.51100000000E-03 0. -1.
        -11    1    3    3    0    0  0.41098343958E+01 -0.54351378148E+01 -0.60967047311E+01  0.91433730464E+01  0.51100000000E-03 0.  1.
         12    1    3    3    0    0 -0.13966556217E+02 -0.11632935765E+02 -0.66023849953E+01  0.19338598055E+02  0.00000000000E+00 0. -1.
</event>
<event>
 7    1  0.2985411E-011  0.5052886E+02  0.7816164E-02  0.1300439E+00
        -11   -1    0    0    0    0  0.00000000000E+00  0.00000000000E+00  0.45593999997E+02  0.45594000000E+02  0.51100000000E-03 0.  1.
         11   -1    0    0    0    0 -0.00000000000E+00 -0.00000000000E+00 -0.45593999997E+02  0.45594000000E+02  0.51100000000E-03 0. -1.
    9900012    2    1    2    0    0  0.35222745512E+02  0.17524094370E+02 -0.10267900182E+02  0.50528862539E+02  0.30000008174E+02 0.  0.
        -12    1    1    2    0    0 -0.35222745512E+02 -0.17524094370E+02  0.10267900182E+02  0.40659137461E+02  0.00000000000E+00 0.  1.
         11    1    3    3    0    0  0.25767232376E+02  0.10719264831E+02 -0.65533063360E+01  0.28667032058E+02  0.51100000000E-03 0. -1.
        -11    1    3    3    0    0  0.80572380432E+01 -0.44861959748E+01 -0.48649556341E+01  0.10426544624E+02  0.51100000000E-03 0.  1.
         12    1    3    3    0    0  0.13982750931E+01  0.11291025514E+02  0.11503617877E+01  0.11435285858E+02  0.00000000000E+00 0. -1.
</event>
<event>
 7    1  0.2985411E-011  0.5052886E+02  0.7816164E-02  0.1300439E+00
        -11   -1    0    0    0    0  0.00000000000E+00  0.00000000000E+00  0.45593999997E+02  0.45594000000E+02  0.51100000000E-03 0.  1.
         11   -1    0    0    0    0 -0.00000000000E+00 -0.00000000000E+00 -0.45593999997E+02  0.45594000000E+02  0.51100000000E-03 0. -1.
    9900012    2    1    2    0    0 -0.32924355154E+02  0.23447533776E+02  0.44006568810E+01  0.50528858550E+02  0.29999996049E+02 0.  0.
        -12    1    1    2    0    0  0.32924355154E+02 -0.23447533776E+02 -0.44006568810E+01  0.40659141450E+02  0.00000000000E+00 0.  1.
         11    1    3    3    0    0 -0.12168495136E+02  0.20854132002E+02 -0.18828466093E+00  0.24145445674E+02  0.51100000000E-03 0. -1.
        -11    1    3    3    0    0 -0.99436423628E+01  0.85207197834E+01  0.50737232561E+01  0.14043552151E+02  0.51100000000E-03 0.  1.
        -12    1    3    3    0    0 -0.10812217655E+02 -0.59273180094E+01 -0.48478171420E+00  0.12339860725E+02  0.00000000000E+00 0.  1.
</event>
<event>
 7    1  0.2985411E-011  0.5052886E+02  0.7816164E-02  0.1300439E+00
        -11   -1    0    0    0    0  0.00000000000E+00  0.00000000000E+00  0.45593999997E+02  0.45594000000E+02  0.51100000000E-03 0.  1.
         11   -1    0    0    0    0 -0.00000000000E+00 -0.00000000000E+00 -0.45593999997E+02  0.45594000000E+02  0.51100000000E-03 0. -1.
    9900012    2    1    2    0    0 -0.16340755620E+02 -0.99086699023E+01 -0.35888206564E+02  0.50528863218E+02  0.30000010237E+02 0.  0.
        -12    1    1    2    0    0  0.16340755620E+02  0.99086699023E+01  0.35888206564E+02  0.40659136782E+02  0.00000000000E+00 0.  1.
         11    1    3    3    0    0 -0.86939323811E+01  0.20267363241E+01 -0.79380478357E+01  0.11945908257E+02  0.51100000000E-03 0. -1.
        -11    1    3    3    0    0 -0.11734424113E+02  0.19950302513E+01 -0.10398896196E+02  0.15805502122E+02  0.51100000000E-03 0.  1.
        -12    1    3    3    0    0  0.40876008740E+01 -0.13930436478E+02 -0.17551262533E+02  0.22777452839E+02  0.00000000000E+00 0.  1.
</event>
<event>
 7    1  0.2985411E-011  0.5052886E+02  0.7816164E-02  0.1300439E+00
        -11   -1    0    0    0    0  0.00000000000E+00  0.00000000000E+00  0.45593999997E+02  0.45594000000E+02  0.51100000000E-03 0.  1.
         11   -1    0    0    0    0 -0.00000000000E+00 -0.00000000000E+00 -0.45593999997E+02  0.45594000000E+02  0.51100000000E-03 0. -1.
    9900012    2    1    2    0    0  0.14584077016E+02  0.81321254046E+01 -0.37072082054E+02  0.50528855471E+02  0.29999986689E+02 0.  0.
        -12    1    1    2    0    0 -0.14584077016E+02 -0.81321254046E+01  0.37072082054E+02  0.40659144529E+02  0.00000000000E+00 0.  1.
         11    1    3    3    0    0 -0.50210331845E+01 -0.22822248879E+01 -0.70966246418E+01  0.89878476982E+01  0.51100000000E-03 0. -1.
        -11    1    3    3    0    0 -0.26263145130E+01  0.35950287926E+01 -0.13328345161E+01  0.46473872282E+01  0.51100000000E-03 0.  1.
         12    1    3    3    0    0  0.22231424713E+02  0.68193214999E+01 -0.28642622897E+02  0.36893620544E+02  0.00000000000E+00 0. -1.
</event>
<event>
 7    1  0.2985411E-011  0.5052887E+02  0.7816164E-02  0.1300439E+00
        -11   -1    0    0    0    0  0.00000000000E+00  0.00000000000E+00  0.45593999997E+02  0.45594000000E+02  0.51100000000E-03 0.  1.
         11   -1    0    0    0    0 -0.00000000000E+00 -0.00000000000E+00 -0.45593999997E+02  0.45594000000E+02  0.51100000000E-03 0. -1.
    9900012    2    1    2    0    0  0.94025292612E+01 -0.20890149299E+02 -0.33591055908E+02  0.50528869030E+02  0.30000027903E+02 0.  0.
        -12    1    1    2    0    0 -0.94025292612E+01  0.20890149299E+02  0.33591055908E+02  0.40659130970E+02  0.00000000000E+00 0.  1.
         11    1    3    3    0    0  0.14904959745E+01 -0.50005349348E+01  0.40707295241E+00  0.52337975251E+01  0.51100000000E-03 0. -1.
        -11    1    3    3    0    0  0.30172165738E+01  0.30514157367E+01  0.16775883148E+01  0.46074978748E+01  0.51100000000E-03 0.  1.
         12    1    3    3    0    0  0.48948167130E+01 -0.18941030101E+02 -0.35675717175E+02  0.40687573630E+02  0.00000000000E+00 0. -1.
</event>
<event>
 7    1  0.2985411E-011  0.5052886E+02  0.7816164E-02  0.1300439E+00
        -11   -1    0    0    0    0  0.00000000000E+00  0.00000000000E+00  0.45593999997E+02  0.45594000000E+02  0.51100000000E-03 0. -1.
         11   -1    0    0    0    0 -0.00000000000E+00 -0.00000000000E+00 -0.45593999997E+02  0.45594000000E+02  0.51100000000E-03 0.  1.
    9900012    2    1    2    0    0  0.68937801864E+01 -0.37300420896E+02  0.14639677309E+02  0.50528858888E+02  0.29999997075E+02 0.  0.
        -12    1    1    2    0    0 -0.68937801864E+01  0.37300420896E+02 -0.14639677309E+02  0.40659141112E+02  0.00000000000E+00 0.  1.
         11    1    3    3    0    0 -0.86643190969E+00  0.21889380132E-02  0.24775895925E+01  0.26247208414E+01  0.51100000000E-03 0. -1.
        -11    1    3    3    0    0  0.37985188019E+01 -0.26856386434E+02  0.20470329222E+02  0.33981298034E+02  0.51100000000E-03 0.  1.
        -12    1    3    3    0    0  0.39616932942E+01 -0.10446223400E+02 -0.83082415054E+01  0.13922840012E+02  0.00000000000E+00 0.  1.
</event>
<event>
 7    1  0.2985411E-011  0.5052886E+02  0.7816164E-02  0.1300439E+00
        -11   -1    0    0    0    0  0.00000000000E+00  0.00000000000E+00  0.45593999997E+02  0.45594000000E+02  0.51100000000E-03 0.  1.
         11   -1    0    0    0    0 -0.00000000000E+00 -0.00000000000E+00 -0.45593999997E+02  0.45594000000E+02  0.51100000000E-03 0. -1.
    9900012    2    1    2    0    0 -0.21169573365E+01  0.40239822897E+02 -0.54259659540E+01  0.50528856358E+02  0.29999989385E+02 0.  0.
        -12    1    1    2    0    0  0.21169573365E+01 -0.40239822897E+02  0.54259659540E+01  0.40659143642E+02  0.00000000000E+00 0.  1.
         11    1    3    3    0    0 -0.20508492043E+01  0.18444337374E+02 -0.15908276261E+01  0.18626064974E+02  0.51100000000E-03 0. -1.
        -11    1    3    3    0    0  0.90481087330E+01  0.20288669745E+02 -0.99088315992E+00  0.22236911687E+02  0.51100000000E-03 0.  1.
         12    1    3    3    0    0 -0.91142168652E+01  0.15068157784E+01 -0.28442551679E+01  0.96658796970E+01  0.00000000000E+00 0. -1.
</event>
<event>
 7    1  0.2985411E-011  0.5052887E+02  0.7816164E-02  0.1300439E+00
        -11   -1    0    0    0    0  0.00000000000E+00  0.00000000000E+00  0.45593999997E+02  0.45594000000E+02  0.51100000000E-03 0.  1.
         11   -1    0    0    0    0 -0.00000000000E+00 -0.00000000000E+00 -0.45593999997E+02  0.45594000000E+02  0.51100000000E-03 0. -1.
    9900012    2    1    2    0    0  0.19814012554E+02 -0.20568663884E+02 -0.28939586810E+02  0.50528871724E+02  0.30000036093E+02 0.  0.
        -12    1    1    2    0    0 -0.19814012554E+02  0.20568663884E+02  0.28939586810E+02  0.40659128276E+02  0.00000000000E+00 0.  1.
         11    1    3    3    0    0  0.14174275719E+02 -0.22579338189E+02 -0.10650604706E+02  0.28708395742E+02  0.51100000000E-03 0. -1.
        -11    1    3    3    0    0 -0.10814663526E+01 -0.79041433428E+00  0.67978284765E+00  0.15021415621E+01  0.51100000000E-03 0.  1.
         12    1    3    3    0    0  0.67212031868E+01  0.28010886395E+01 -0.18968764951E+02  0.20318334420E+02  0.00000000000E+00 0. -1.
</event>
<event>
 7    1  0.2985411E-011  0.5052886E+02  0.7816164E-02  0.1300439E+00
        -11   -1    0    0    0    0  0.00000000000E+00  0.00000000000E+00  0.45593999997E+02  0.45594000000E+02  0.51100000000E-03 0. -1.
         11   -1    0    0    0    0 -0.00000000000E+00 -0.00000000000E+00 -0.45593999997E+02  0.45594000000E+02  0.51100000000E-03 0.  1.
    9900012    2    1    2    0    0  0.88634845474E+01  0.27720696705E+02  0.28393087957E+02  0.50528858004E+02  0.29999994388E+02 0.  0.
        -12    1    1    2    0    0 -0.88634845474E+01 -0.27720696705E+02 -0.28393087957E+02  0.40659141996E+02  0.00000000000E+00 0.  1.
         11    1    3    3    0    0  0.28332673064E+01  0.11165929209E+02  0.13804805011E+02  0.17979933825E+02  0.51100000000E-03 0. -1.
        -11    1    3    3    0    0  0.11130709252E+01 -0.41796465177E+01  0.97942862429E+01  0.10706839644E+02  0.51100000000E-03 0.  1.
        -12    1    3    3    0    0  0.49171463158E+01  0.20734414014E+02  0.47939967033E+01  0.21842084534E+02  0.00000000000E+00 0.  1.
</event>
<event>
 7    1  0.2985411E-011  0.5052885E+02  0.7816164E-02  0.1300439E+00
        -11   -1    0    0    0    0  0.00000000000E+00  0.00000000000E+00  0.45593999997E+02  0.45594000000E+02  0.51100000000E-03 0. -1.
         11   -1    0    0    0    0 -0.00000000000E+00 -0.00000000000E+00 -0.45593999997E+02  0.45594000000E+02  0.51100000000E-03 0.  1.
    9900012    2    1    2    0    0  0.17631286886E+01  0.23871785266E+02  0.32866334806E+02  0.50528847056E+02  0.29999961112E+02 0.  0.
        -12    1    1    2    0    0 -0.17631286886E+01 -0.23871785266E+02 -0.32866334806E+02  0.40659152944E+02  0.00000000000E+00 0.  1.
         11    1    3    3    0    0  0.48621244503E+01 -0.47310322151E+01  0.46315710169E+01  0.82142784429E+01  0.51100000000E-03 0.  1.
        -11    1    3    3    0    0  0.24185676483E+00  0.12375594509E+02  0.20690026737E+02  0.24109978033E+02  0.51100000000E-03 0. -1.
        -12    1    3    3    0    0 -0.33408525266E+01  0.16227222972E+02  0.75447370522E+01  0.18204590580E+02  0.00000000000E+00 0.  1.
</event>
<event>
 7    1  0.2985411E-011  0.5052885E+02  0.7816164E-02  0.1300439E+00
        -11   -1    0    0    0    0  0.00000000000E+00  0.00000000000E+00  0.45593999997E+02  0.45594000000E+02  0.51100000000E-03 0.  1.
         11   -1    0    0    0    0 -0.00000000000E+00 -0.00000000000E+00 -0.45593999997E+02  0.45594000000E+02  0.51100000000E-03 0. -1.
    9900012    2    1    2    0    0  0.30587322300E+02  0.17082607390E+01 -0.26733198698E+02  0.50528851548E+02  0.29999974766E+02 0.  0.
        -12    1    1    2    0    0 -0.30587322300E+02 -0.17082607390E+01  0.26733198698E+02  0.40659148452E+02  0.00000000000E+00 0.  1.
         11    1    3    3    0    0  0.72682436184E+00 -0.10154079036E+01 -0.53104672970E+01  0.54553084274E+01  0.51100000000E-03 0. -1.
        -11    1    3    3    0    0 -0.20581586634E+01  0.74336879134E+00  0.37722526969E+01  0.43610210862E+01  0.51100000000E-03 0.  1.
        -12    1    3    3    0    0  0.31918656601E+02  0.19802998513E+01 -0.25194984097E+02  0.40712522035E+02  0.00000000000E+00 0.  1.
</event>
<event>
 7    1  0.3222534E-011  0.5052886E+02  0.7816164E-02  0.1300439E+00
        -11   -1    0    0    0    0  0.00000000000E+00  0.00000000000E+00  0.45593999997E+02  0.45594000000E+02  0.51100000000E-03 0.  1.
         11   -1    0    0    0    0 -0.00000000000E+00 -0.00000000000E+00 -0.45593999997E+02  0.45594000000E+02  0.51100000000E-03 0. -1.
    9900012    2    1    2    0    0  0.27256576729E+02 -0.28192563613E+02  0.10743548093E+02  0.50528862728E+02  0.30000008748E+02 0.  0.
        -12    1    1    2    0    0 -0.27256576729E+02  0.28192563613E+02 -0.10743548093E+02  0.40659137272E+02  0.00000000000E+00 0.  1.
         11    1    3    3    0    0  0.20619740124E+02 -0.17613581296E+02  0.85764192084E+01  0.28442343356E+02  0.51100000000E-03 0. -1.
        -11    1    3    3    0    0  0.62736029543E+01 -0.15149614140E+02  0.44134269620E+01  0.16980790336E+02  0.51100000000E-03 0.  1.
        -12    1    3    3    0    0  0.36323365042E+00  0.45706318227E+01 -0.22462980773E+01  0.51057290367E+01  0.00000000000E+00 0.  1.
</event>
<event>
 7    1  0.2985411E-011  0.5052885E+02  0.7816164E-02  0.1300439E+00
        -11   -1    0    0    0    0  0.00000000000E+00  0.00000000000E+00  0.45593999997E+02  0.45594000000E+02  0.51100000000E-03 0. -1.
         11   -1    0    0    0    0 -0.00000000000E+00 -0.00000000000E+00 -0.45593999997E+02  0.45594000000E+02  0.51100000000E-03 0.  1.
    9900012    2    1    2    0    0  0.40177118868E+02 -0.51615466954E+01  0.35105602267E+01  0.50528850009E+02  0.29999970088E+02 0.  0.
        -12    1    1    2    0    0 -0.40177118868E+02  0.51615466954E+01 -0.35105602267E+01  0.40659149991E+02  0.00000000000E+00 0.  1.
         11    1    3    3    0    0  0.14934026757E+02  0.20163582324E+01 -0.72522841602E+01  0.16723829750E+02  0.51100000000E-03 0. -1.
        -11    1    3    3    0    0  0.51896625921E+00 -0.15862617314E+01 -0.40956440486E+01  0.44226522238E+01  0.51100000000E-03 0.  1.
         12    1    3    3    0    0  0.24724125852E+02 -0.55916431964E+01  0.14858488436E+02  0.29382368036E+02  0.00000000000E+00 0. -1.
</event>
<event>
 7    1  0.2985411E-011  0.5052886E+02  0.7816164E-02  0.1300439E+00
        -11   -1    0    0    0    0  0.00000000000E+00  0.00000000000E+00  0.45593999997E+02  0.45594000000E+02  0.51100000000E-03 0.  1.
         11   -1    0    0    0    0 -0.00000000000E+00 -0.00000000000E+00 -0.45593999997E+02  0.45594000000E+02  0.51100000000E-03 0. -1.
    9900012    2    1    2    0    0 -0.36629509499E+02  0.16116292360E+02 -0.71909542395E+01  0.50528859964E+02  0.30000000348E+02 0.  0.
        -12    1    1    2    0    0  0.36629509499E+02 -0.16116292360E+02  0.71909542395E+01  0.40659140036E+02  0.00000000000E+00 0.  1.
         11    1    3    3    0    0 -0.14412111860E+02  0.11407437880E+02 -0.98717929204E+01  0.20863626314E+02  0.51100000000E-03 0. -1.
        -11    1    3    3    0    0 -0.88795018562E+01  0.11009904114E+02  0.44026143705E+01  0.14813728611E+02  0.51100000000E-03 0.  1.
         12    1    3    3    0    0 -0.13337895783E+02 -0.63010496337E+01 -0.17217756896E+01  0.14851505039E+02  0.00000000000E+00 0. -1.
</event>
<event>
 7    1  0.2985411E-011  0.5052886E+02  0.7816164E-02  0.1300439E+00
        -11   -1    0    0    0    0  0.00000000000E+00  0.00000000000E+00  0.45593999997E+02  0.45594000000E+02  0.51100000000E-03 0. -1.
         11   -1    0    0    0    0 -0.00000000000E+00 -0.00000000000E+00 -0.45593999997E+02  0.45594000000E+02  0.51100000000E-03 0.  1.
    9900012    2    1    2    0    0 -0.39855512619E+02 -0.76036951791E+01 -0.26244890666E+01  0.50528855772E+02  0.29999987604E+02 0.  0.
        -12    1    1    2    0    0  0.39855512619E+02  0.76036951791E+01  0.26244890666E+01  0.40659144228E+02  0.00000000000E+00 0.  1.
         11    1    3    3    0    0 -0.19546839501E+02 -0.45489547591E+01 -0.58129522800E+01  0.20894074240E+02  0.51100000000E-03 0. -1.
        -11    1    3    3    0    0 -0.52332125152E+01 -0.31846626044E+01 -0.85567518709E+01  0.10523620669E+02  0.51100000000E-03 0.  1.
         12    1    3    3    0    0 -0.15075460602E+02  0.12992218446E+00  0.11745215084E+02  0.19111160863E+02  0.00000000000E+00 0. -1.
</event>
<event>
 7    1  0.2985411E-011  0.5052887E+02  0.7816164E-02  0.1300439E+00
        -11   -1    0    0    0    0  0.00000000000E+00  0.00000000000E+00  0.45593999997E+02  0.45594000000E+02  0.51100000000E-03 0.  1.
         11   -1    0    0    0    0 -0.00000000000E+00 -0.00000000000E+00 -0.45593999997E+02  0.45594000000E+02  0.51100000000E-03 0. -1.
    9900012    2    1    2    0    0 -0.20706201957E+01 -0.37405254694E+02 -0.15802678490E+02  0.50528865796E+02  0.30000018075E+02 0.  0.
        -12    1    1    2    0    0  0.20706201957E+01  0.37405254694E+02  0.15802678490E+02  0.40659134204E+02  0.00000000000E+00 0.  1.
         11    1    3    3    0    0  0.54533398185E+01 -0.92965463617E+01 -0.10224295310E+02  0.14856005664E+02  0.51100000000E-03 0. -1.
        -11    1    3    3    0    0  0.34880732740E+01 -0.15465741489E+01 -0.57704893634E+01  0.69178822277E+01  0.51100000000E-03 0.  1.
        -12    1    3    3    0    0 -0.11012033288E+02 -0.26562134184E+02  0.19210618365E+00  0.28754977905E+02  0.00000000000E+00 0.  1.
</event>
<event>
 7    1  0.2985411E-011  0.5052886E+02  0.7816164E-02  0.1300439E+00
        -11   -1    0    0    0    0  0.00000000000E+00  0.00000000000E+00  0.45593999997E+02  0.45594000000E+02  0.51100000000E-03 0.  1.
         11   -1    0    0    0    0 -0.00000000000E+00 -0.00000000000E+00 -0.45593999997E+02  0.45594000000E+02  0.51100000000E-03 0. -1.
    9900012    2    1    2    0    0 -0.22313154596E+02 -0.12037091583E+02 -0.31786748054E+02  0.50528858424E+02  0.29999995667E+02 0.  0.
        -12    1    1    2    0    0  0.22313154596E+02  0.12037091583E+02  0.31786748054E+02  0.40659141576E+02  0.00000000000E+00 0.  1.
         11    1    3    3    0    0  0.65249594740E+00 -0.19648896004E+01 -0.23233171087E+00  0.20833915590E+01  0.51100000000E-03 0. -1.
        -11    1    3    3    0    0 -0.99434806443E+01 -0.13142586644E+01  0.30211669176E+01  0.10475091072E+02  0.51100000000E-03 0.  1.
         12    1    3    3    0    0 -0.13022169899E+02 -0.87579433177E+01 -0.34575583261E+02  0.37970375793E+02  0.00000000000E+00 0. -1.
</event>
<event>
 7    1  0.2985411E-011  0.5052886E+02  0.7816164E-02  0.1300439E+00
        -11   -1    0    0    0    0  0.00000000000E+00  0.00000000000E+00  0.45593999997E+02  0.45594000000E+02  0.51100000000E-03 0.  1.
         11   -1    0    0    0    0 -0.00000000000E+00 -0.00000000000E+00 -0.45593999997E+02  0.45594000000E+02  0.51100000000E-03 0. -1.
    9900012    2    1    2    0    0  0.30393920508E+02  0.17579443570E+02 -0.20502158848E+02  0.50528858869E+02  0.29999997019E+02 0.  0.
        -12    1    1    2    0    0 -0.30393920508E+02 -0.17579443570E+02  0.20502158848E+02  0.40659141131E+02  0.00000000000E+00 0.  1.
         11    1    3    3    0    0  0.13101592354E+01  0.47677119186E+01 -0.14178100533E+02  0.15015529600E+02  0.51100000000E-03 0.  1.
        -11    1    3    3    0    0  0.14824805589E+02  0.14255543371E+02 -0.28196384417E+01  0.20759232615E+02  0.51100000000E-03 0. -1.
        -12    1    3    3    0    0  0.14258955683E+02 -0.14438117198E+01 -0.35044198726E+01  0.14754096655E+02  0.00000000000E+00 0.  1.
</event>
<event>
 7    1  0.2985411E-011  0.5052884E+02  0.7816164E-02  0.1300439E+00
        -11   -1    0    0    0    0  0.00000000000E+00  0.00000000000E+00  0.45593999997E+02  0.45594000000E+02  0.51100000000E-03 0.  1.
         11   -1    0    0    0    0 -0.00000000000E+00 -0.00000000000E+00 -0.45593999997E+02  0.45594000000E+02  0.51100000000E-03 0. -1.
    9900012    2    1    2    0    0  0.66604167269E+01 -0.40103669728E+02  0.70852096349E+00  0.50528837704E+02  0.29999932685E+02 0.  0.
        -12    1    1    2    0    0 -0.66604167269E+01  0.40103669728E+02 -0.70852096349E+00  0.40659162296E+02  0.00000000000E+00 0.  1.
         11    1    3    3    0    0 -0.13630208351E+01 -0.14099930824E+02 -0.47931714383E+01  0.14954610250E+02  0.51100000000E-03 0. -1.
        -11    1    3    3    0    0 -0.58208713185E+01 -0.18366703188E+02  0.41225919062E+01  0.19703149321E+02  0.51100000000E-03 0.  1.
         12    1    3    3    0    0  0.13844308881E+02 -0.76370357166E+01  0.13791004956E+01  0.15871078133E+02  0.00000000000E+00 0. -1.
</event>
<event>
 7    1  0.2985411E-011  0.5052887E+02  0.7816164E-02  0.1300439E+00
        -11   -1    0    0    0    0  0.00000000000E+00  0.00000000000E+00  0.45593999997E+02  0.45594000000E+02  0.51100000000E-03 0. -1.
         11   -1    0    0    0    0 -0.00000000000E+00 -0.00000000000E+00 -0.45593999997E+02  0.45594000000E+02  0.51100000000E-03 0.  1.
    9900012    2    1    2    0    0  0.16025302514E+01 -0.39159837733E+02  0.10821468045E+02  0.50528866154E+02  0.30000019161E+02 0.  0.
        -12    1    1    2    0    0 -0.16025302514E+01  0.39159837733E+02 -0.10821468045E+02  0.40659133846E+02  0.00000000000E+00 0.  1.
         11    1    3    3    0    0  0.65026356399E+01 -0.16153728312E+02  0.79921523324E+00  0.17431751315E+02  0.51100000000E-03 0. -1.
        -11    1    3    3    0    0 -0.88449000041E+01 -0.15511573065E+01 -0.25353350000E+00  0.89834639516E+01  0.51100000000E-03 0.  1.
         12    1    3    3    0    0  0.39447946155E+01 -0.21454952114E+02  0.10275786312E+02  0.24113650887E+02  0.00000000000E+00 0. -1.
</event>
<event>
 7    1  0.2985411E-011  0.5052884E+02  0.7816164E-02  0.1300439E+00
        -11   -1    0    0    0    0  0.00000000000E+00  0.00000000000E+00  0.45593999997E+02  0.45594000000E+02  0.51100000000E-03 0.  1.
         11   -1    0    0    0    0 -0.00000000000E+00 -0.00000000000E+00 -0.45593999997E+02  0.45594000000E+02  0.51100000000E-03 0. -1.
    9900012    2    1    2    0    0 -0.30901526194E+02  0.18574617125E+02 -0.18794857057E+02  0.50528838987E+02  0.29999936585E+02 0.  0.
        -12    1    1    2    0    0  0.30901526194E+02 -0.18574617125E+02  0.18794857057E+02  0.40659161013E+02  0.00000000000E+00 0.  1.
         11    1    3    3    0    0 -0.20644696860E+02  0.89508731528E+01 -0.92814879085E+01  0.24340658510E+02  0.51100000000E-03 0. -1.
        -11    1    3    3    0    0 -0.11153270808E+02  0.77003508289E+01 -0.15053332366E+02  0.20255707052E+02  0.51100000000E-03 0.  1.
        -12    1    3    3    0    0  0.89644147356E+00  0.19233931430E+01  0.55399632168E+01  0.59324734253E+01  0.00000000000E+00 0.  1.
</event>
<event>
 7    1  0.2985411E-011  0.5052885E+02  0.7816164E-02  0.1300439E+00
        -11   -1    0    0    0    0  0.00000000000E+00  0.00000000000E+00  0.45593999997E+02  0.45594000000E+02  0.51100000000E-03 0. -1.
         11   -1    0    0    0    0 -0.00000000000E+00 -0.00000000000E+00 -0.45593999997E+02  0.45594000000E+02  0.51100000000E-03 0.  1.
    9900012    2    1    2    0    0  0.36891590111E+02  0.15306133304E+02  0.76091421401E+01  0.50528853652E+02  0.29999981160E+02 0.  0.
        -12    1    1    2    0    0 -0.36891590111E+02 -0.15306133304E+02 -0.76091421401E+01  0.40659146348E+02  0.00000000000E+00 0.  1.
         11    1    3    3    0    0  0.27984920568E+02  0.17970725453E+02  0.20431797581E+01  0.33320824364E+02  0.51100000000E-03 0. -1.
        -11    1    3    3    0    0  0.13477137552E+01  0.51934152161E+01  0.15008387951E+01  0.55713922249E+01  0.51100000000E-03 0.  1.
        -12    1    3    3    0    0  0.75589557885E+01 -0.78580073651E+01  0.40651235869E+01  0.11636637063E+02  0.00000000000E+00 0.  1.
</event>
<event>
 7    1  0.2985411E-011  0.5052885E+02  0.7816164E-02  0.1300439E+00
        -11   -1    0    0    0    0  0.00000000000E+00  0.00000000000E+00  0.45593999997E+02  0.45594000000E+02  0.51100000000E-03 0.  1.
         11   -1    0    0    0    0 -0.00000000000E+00 -0.00000000000E+00 -0.45593999997E+02  0.45594000000E+02  0.51100000000E-03 0. -1.
    9900012    2    1    2    0    0  0.26257709960E+02 -0.28442060981E+02 -0.12439775137E+02  0.50528853788E+02  0.29999981575E+02 0.  0.
        -12    1    1    2    0    0 -0.26257709960E+02  0.28442060981E+02  0.12439775137E+02  0.40659146212E+02  0.00000000000E+00 0.  1.
         11    1    3    3    0    0  0.99246807239E+01 -0.19778576623E+01 -0.12693756807E+02  0.16233997368E+02  0.51100000000E-03 0. -1.
        -11    1    3    3    0    0  0.47585411033E+01 -0.49095853366E+01  0.60749834493E+01  0.91462104601E+01  0.51100000000E-03 0.  1.
        -12    1    3    3    0    0  0.11574488133E+02 -0.21554617982E+02 -0.58210017784E+01  0.25148645960E+02  0.00000000000E+00 0.  1.
</event>
<event>
 7    1  0.2985411E-011  0.5052887E+02  0.7816164E-02  0.1300439E+00
        -11   -1    0    0    0    0  0.00000000000E+00  0.00000000000E+00  0.45593999997E+02  0.45594000000E+02  0.51100000000E-03 0.  1.
         11   -1    0    0    0    0 -0.00000000000E+00 -0.00000000000E+00 -0.45593999997E+02  0.45594000000E+02  0.51100000000E-03 0. -1.
    9900012    2    1    2    0    0 -0.27586393285E+02  0.21873436302E+02 -0.20339818715E+02  0.50528873896E+02  0.30000042695E+02 0.  0.
        -12    1    1    2    0    0  0.27586393285E+02 -0.21873436302E+02  0.20339818715E+02  0.40659126104E+02  0.00000000000E+00 0.  1.
         11    1    3    3    0    0 -0.65056824284E+01 -0.28550717574E+01 -0.11323541769E+02  0.13367794771E+02  0.51100000000E-03 0.  1.
        -11    1    3    3    0    0 -0.74820933146E+01  0.21009252835E+01  0.27696095773E+01  0.82502330202E+01  0.51100000000E-03 0. -1.
         12    1    3    3    0    0 -0.13598617542E+02  0.22627582776E+02 -0.11785886523E+02  0.28910846105E+02  0.00000000000E+00 0. -1.
</event>
<event>
 7    1  0.2985411E-011  0.5052885E+02  0.7816164E-02  0.1300439E+00
        -11   -1    0    0    0    0  0.00000000000E+00  0.00000000000E+00  0.45593999997E+02  0.45594000000E+02  0.51100000000E-03 0.  1.
         11   -1    0    0    0    0 -0.00000000000E+00 -0.00000000000E+00 -0.45593999997E+02  0.45594000000E+02  0.51100000000E-03 0. -1.
    9900012    2    1    2    0    0  0.12550503004E+02 -0.24452684026E+02 -0.29961936928E+02  0.50528849170E+02  0.29999967538E+02 0.  0.
        -12    1    1    2    0    0 -0.12550503004E+02  0.24452684026E+02  0.29961936928E+02  0.40659150830E+02  0.00000000000E+00 0.  1.
         11    1    3    3    0    0  0.12458843695E+02 -0.16534961732E+02 -0.27275282387E+01  0.20882221056E+02  0.51100000000E-03 0. -1.
        -11    1    3    3    0    0  0.33140303824E+01 -0.15250994233E+01 -0.43963886858E+01  0.57128766278E+01  0.51100000000E-03 0.  1.
         12    1    3    3    0    0 -0.32223710742E+01 -0.63926228708E+01 -0.22838020004E+02  0.23933751486E+02  0.00000000000E+00 0. -1.
</event>
<event>
 7    1  0.2985411E-011  0.5052885E+02  0.7816164E-02  0.1300439E+00
        -11   -1    0    0    0    0  0.00000000000E+00  0.00000000000E+00  0.45593999997E+02  0.45594000000E+02  0.51100000000E-03 0.  1.
         11   -1    0    0    0    0 -0.00000000000E+00 -0.00000000000E+00 -0.45593999997E+02  0.45594000000E+02  0.51100000000E-03 0. -1.
    9900012    2    1    2    0    0  0.13864746601E+02  0.13022863389E+02 -0.35935218732E+02  0.50528854479E+02  0.29999983675E+02 0.  0.
        -12    1    1    2    0    0 -0.13864746601E+02 -0.13022863389E+02  0.35935218732E+02  0.40659145521E+02  0.00000000000E+00 0.  1.
         11    1    3    3    0    0  0.74449456746E+01  0.11882416092E+02 -0.83902463159E+01  0.16340601635E+02  0.51100000000E-03 0. -1.
        -11    1    3    3    0    0  0.22688073643E+01  0.88043235641E+01 -0.22135992112E+02  0.23930435585E+02  0.51100000000E-03 0.  1.
        -12    1    3    3    0    0  0.41509935623E+01 -0.76638762669E+01 -0.54089803042E+01  0.10257817259E+02  0.00000000000E+00 0.  1.
</event>
<event>
 7    1  0.2985411E-011  0.5052886E+02  0.7816164E-02  0.1300439E+00
        -11   -1    0    0    0    0  0.00000000000E+00  0.00000000000E+00  0.45593999997E+02  0.45594000000E+02  0.51100000000E-03 0.  1.
         11   -1    0    0    0    0 -0.00000000000E+00 -0.00000000000E+00 -0.45593999997E+02  0.45594000000E+02  0.51100000000E-03 0. -1.
    9900012    2    1    2    0    0 -0.31387589970E+02 -0.25837300023E+02 -0.64712973567E+00  0.50528860148E+02  0.30000000907E+02 0.  0.
        -12    1    1    2    0    0  0.31387589970E+02  0.25837300023E+02  0.64712973567E+00  0.40659139852E+02  0.00000000000E+00 0.  1.
         11    1    3    3    0    0 -0.11375551618E+02 -0.12918154444E+02  0.43541263726E+01  0.17755007902E+02  0.51100000000E-03 0. -1.
        -11    1    3    3    0    0 -0.18800170854E+02 -0.10349836848E+02  0.52854744885E+01  0.22102076548E+02  0.51100000000E-03 0.  1.
        -12    1    3    3    0    0 -0.12118674980E+01 -0.25693087313E+01 -0.10286730597E+02  0.10671775699E+02  0.00000000000E+00 0.  1.
</event>
<event>
 7    1  0.2985411E-011  0.5052886E+02  0.7816164E-02  0.1300439E+00
        -11   -1    0    0    0    0  0.00000000000E+00  0.00000000000E+00  0.45593999997E+02  0.45594000000E+02  0.51100000000E-03 0.  1.
         11   -1    0    0    0    0 -0.00000000000E+00 -0.00000000000E+00 -0.45593999997E+02  0.45594000000E+02  0.51100000000E-03 0. -1.
    9900012    2    1    2    0    0 -0.24132073858E+02  0.40527006521E+00 -0.32720702993E+02  0.50528860352E+02  0.30000001527E+02 0.  0.
        -12    1    1    2    0    0  0.24132073858E+02 -0.40527006521E+00  0.32720702993E+02  0.40659139648E+02  0.00000000000E+00 0.  1.
         11    1    3    3    0    0  0.22689156856E+01 -0.29111452931E+01 -0.59361055613E+01  0.69899996282E+01  0.51100000000E-03 0. -1.
        -11    1    3    3    0    0 -0.98363978160E+01 -0.27357595843E+01  0.13859788150E+01  0.10303399441E+02  0.51100000000E-03 0.  1.
        -12    1    3    3    0    0 -0.16564591728E+02  0.60521749426E+01 -0.28170576247E+02  0.33235461283E+02  0.00000000000E+00 0.  1.
</event>
<event>
 7    1  0.2985411E-011  0.5052886E+02  0.7816164E-02  0.1300439E+00
        -11   -1    0    0    0    0  0.00000000000E+00  0.00000000000E+00  0.45593999997E+02  0.45594000000E+02  0.51100000000E-03 0.  1.
         11   -1    0    0    0    0 -0.00000000000E+00 -0.00000000000E+00 -0.45593999997E+02  0.45594000000E+02  0.51100000000E-03 0. -1.
    9900012    2    1    2    0    0 -0.18591926140E+01 -0.19369892443E+01 -0.40570392790E+02  0.50528864549E+02  0.30000014284E+02 0.  0.
        -12    1    1    2    0    0  0.18591926140E+01  0.19369892443E+01  0.40570392790E+02  0.40659135451E+02  0.00000000000E+00 0.  1.
         11    1    3    3    0    0  0.92563378051E+00  0.61918470350E+01 -0.20608373091E+02  0.21538356700E+02  0.51100000000E-03 0. -1.
        -11    1    3    3    0    0 -0.44780776280E+01 -0.85411955883E+01 -0.23304424261E+02  0.25221050567E+02  0.51100000000E-03 0.  1.
         12    1    3    3    0    0  0.16932512335E+01  0.41235930909E+00  0.33424045628E+01  0.37694572820E+01  0.00000000000E+00 0. -1.
</event>
<event>
 7    1  0.2985411E-011  0.5052885E+02  0.7816164E-02  0.1300439E+00
        -11   -1    0    0    0    0  0.00000000000E+00  0.00000000000E+00  0.45593999997E+02  0.45594000000E+02  0.51100000000E-03 0.  1.
         11   -1    0    0    0    0 -0.00000000000E+00 -0.00000000000E+00 -0.45593999997E+02  0.45594000000E+02  0.51100000000E-03 0. -1.
    9900012    2    1    2    0    0 -0.29726562534E+02 -0.70174558294E+01 -0.26837528049E+02  0.50528854434E+02  0.29999983536E+02 0.  0.
        -12    1    1    2    0    0  0.29726562534E+02  0.70174558294E+01  0.26837528049E+02  0.40659145566E+02  0.00000000000E+00 0.  1.
         11    1    3    3    0    0 -0.71648381322E+00 -0.33341701988E+01 -0.87477113603E+01  0.93889559736E+01  0.51100000000E-03 0. -1.
        -11    1    3    3    0    0 -0.29749090765E+01 -0.12739337127E+01  0.52000714254E+01  0.61248456477E+01  0.51100000000E-03 0.  1.
         12    1    3    3    0    0 -0.26035169644E+02 -0.24093519179E+01 -0.23289888114E+02  0.35015052812E+02  0.00000000000E+00 0. -1.
</event>
<event>
 7    1  0.2985411E-011  0.5052886E+02  0.7816164E-02  0.1300439E+00
        -11   -1    0    0    0    0  0.00000000000E+00  0.00000000000E+00  0.45593999997E+02  0.45594000000E+02  0.51100000000E-03 0. -1.
         11   -1    0    0    0    0 -0.00000000000E+00 -0.00000000000E+00 -0.45593999997E+02  0.45594000000E+02  0.51100000000E-03 0.  1.
    9900012    2    1    2    0    0  0.19625905800E+02 -0.26150321726E+02  0.24169199013E+02  0.50528859751E+02  0.29999999701E+02 0.  0.
        -12    1    1    2    0    0 -0.19625905800E+02  0.26150321726E+02 -0.24169199013E+02  0.40659140249E+02  0.00000000000E+00 0.  1.
         11    1    3    3    0    0  0.15620733769E+02 -0.11354364314E+02  0.28097727339E+02  0.34094151908E+02  0.51100000000E-03 0. -1.
        -11    1    3    3    0    0  0.16027406288E+01 -0.53397389784E+01  0.73052726106E+00  0.56227449010E+01  0.51100000000E-03 0.  1.
        -12    1    3    3    0    0  0.24024314017E+01 -0.94562184331E+01 -0.46590555873E+01  0.10811962942E+02  0.00000000000E+00 0.  1.
</event>
<event>
 7    1  0.2985411E-011  0.5052885E+02  0.7816164E-02  0.1300439E+00
        -11   -1    0    0    0    0  0.00000000000E+00  0.00000000000E+00  0.45593999997E+02  0.45594000000E+02  0.51100000000E-03 0.  1.
         11   -1    0    0    0    0 -0.00000000000E+00 -0.00000000000E+00 -0.45593999997E+02  0.45594000000E+02  0.51100000000E-03 0. -1.
    9900012    2    1    2    0    0  0.54502045187E+01  0.34514395175E+02 -0.20789852310E+02  0.50528853887E+02  0.29999981875E+02 0.  0.
        -12    1    1    2    0    0 -0.54502045187E+01 -0.34514395175E+02  0.20789852310E+02  0.40659146113E+02  0.00000000000E+00 0.  1.
         11    1    3    3    0    0  0.67541781193E+00  0.35100343907E+02 -0.13503367487E+02  0.37614242852E+02  0.51100000000E-03 0. -1.
        -11    1    3    3    0    0  0.68972675373E+01  0.13061831956E+01 -0.27060517225E+01  0.75233722630E+01  0.51100000000E-03 0.  1.
        -12    1    3    3    0    0 -0.21224808305E+01 -0.18921319274E+01 -0.45804331003E+01  0.53912387717E+01  0.00000000000E+00 0.  1.
</event>
<event>
 7    1  0.2985411E-011  0.5052886E+02  0.7816164E-02  0.1300439E+00
        -11   -1    0    0    0    0  0.00000000000E+00  0.00000000000E+00  0.45593999997E+02  0.45594000000E+02  0.51100000000E-03 0.  1.
         11   -1    0    0    0    0 -0.00000000000E+00 -0.00000000000E+00 -0.45593999997E+02  0.45594000000E+02  0.51100000000E-03 0. -1.
    9900012    2    1    2    0    0  0.21208314665E+01  0.40118396910E+02 -0.62595645883E+01  0.50528857786E+02  0.29999993726E+02 0.  0.
        -12    1    1    2    0    0 -0.21208314665E+01 -0.40118396910E+02  0.62595645883E+01  0.40659142214E+02  0.00000000000E+00 0.  1.
         11    1    3    3    0    0 -0.30183608754E+01  0.13400430459E+02  0.50209390666E+00  0.13745331477E+02  0.51100000000E-03 0. -1.
        -11    1    3    3    0    0 -0.88745098368E+01  0.48013891766E+01 -0.10023786313E+01  0.10139774458E+02  0.51100000000E-03 0.  1.
        -12    1    3    3    0    0  0.14013702179E+02  0.21916577275E+02 -0.57592798637E+01  0.26643751852E+02  0.00000000000E+00 0.  1.
</event>
<event>
 7    1  0.2985411E-011  0.5052886E+02  0.7816164E-02  0.1300439E+00
        -11   -1    0    0    0    0  0.00000000000E+00  0.00000000000E+00  0.45593999997E+02  0.45594000000E+02  0.51100000000E-03 0.  1.
         11   -1    0    0    0    0 -0.00000000000E+00 -0.00000000000E+00 -0.45593999997E+02  0.45594000000E+02  0.51100000000E-03 0. -1.
    9900012    2    1    2    0    0 -0.36201743749E+02  0.92634677590E+00 -0.18486237807E+02  0.50528863794E+02  0.30000011987E+02 0.  0.
        -12    1    1    2    0    0  0.36201743749E+02 -0.92634677590E+00  0.18486237807E+02  0.40659136206E+02  0.00000000000E+00 0.  1.
         11    1    3    3    0    0 -0.12873813354E+02  0.10895959637E+02 -0.49962972888E+01  0.17590338073E+02  0.51100000000E-03 0. -1.
        -11    1    3    3    0    0 -0.14467542845E+02 -0.58976384811E+01  0.79386443381E+00  0.15643597944E+02  0.51100000000E-03 0.  1.
         12    1    3    3    0    0 -0.88603875501E+01 -0.40719743798E+01 -0.14283804952E+02  0.17294927777E+02  0.00000000000E+00 0. -1.
</event>
<event>
 7    1  0.2985411E-011  0.5052884E+02  0.7816164E-02  0.1300439E+00
        -11   -1    0    0    0    0  0.00000000000E+00  0.00000000000E+00  0.45593999997E+02  0.45594000000E+02  0.51100000000E-03 0. -1.
         11   -1    0    0    0    0 -0.00000000000E+00 -0.00000000000E+00 -0.45593999997E+02  0.45594000000E+02  0.51100000000E-03 0.  1.
    9900012    2    1    2    0    0 -0.34629764831E+02  0.20513860875E+02  0.57556800137E+01  0.50528844172E+02  0.29999952346E+02 0.  0.
        -12    1    1    2    0    0  0.34629764831E+02 -0.20513860875E+02 -0.57556800137E+01  0.40659155828E+02  0.00000000000E+00 0.  1.
         11    1    3    3    0    0 -0.18723974372E+02 -0.25264299593E+01 -0.38346252010E+01  0.19278859285E+02  0.51100000000E-03 0. -1.
        -11    1    3    3    0    0 -0.38324049450E+01  0.38646032835E+00  0.25923758855E+01  0.46429615808E+01  0.51100000000E-03 0.  1.
         12    1    3    3    0    0 -0.12073385514E+02  0.22653830506E+02  0.69979293292E+01  0.26607023307E+02  0.00000000000E+00 0. -1.
</event>
<event>
 7    1  0.2985411E-011  0.5052886E+02  0.7816164E-02  0.1300439E+00
        -11   -1    0    0    0    0  0.00000000000E+00  0.00000000000E+00  0.45593999997E+02  0.45594000000E+02  0.51100000000E-03 0.  1.
         11   -1    0    0    0    0 -0.00000000000E+00 -0.00000000000E+00 -0.45593999997E+02  0.45594000000E+02  0.51100000000E-03 0. -1.
    9900012    2    1    2    0    0  0.10763318035E+02 -0.25721194975E+02 -0.29592844673E+02  0.50528863980E+02  0.30000012553E+02 0.  0.
        -12    1    1    2    0    0 -0.10763318035E+02  0.25721194975E+02  0.29592844673E+02  0.40659136020E+02  0.00000000000E+00 0.  1.
         11    1    3    3    0    0  0.84522012119E+01 -0.10958247442E+02  0.16863913446E+01  0.13941549711E+02  0.51100000000E-03 0. -1.
        -11    1    3    3    0    0  0.62880086859E+01 -0.54994239914E+01 -0.18592574074E+02  0.20382996061E+02  0.51100000000E-03 0.  1.
        -12    1    3    3    0    0 -0.39768918632E+01 -0.92635235422E+01 -0.12686661944E+02  0.16204318208E+02  0.00000000000E+00 0.  1.
</event>
<event>
 7    1  0.2985411E-011  0.5052886E+02  0.7816164E-02  0.1300439E+00
        -11   -1    0    0    0    0  0.00000000000E+00  0.00000000000E+00  0.45593999997E+02  0.45594000000E+02  0.51100000000E-03 0.  1.
         11   -1    0    0    0    0 -0.00000000000E+00 -0.00000000000E+00 -0.45593999997E+02  0.45594000000E+02  0.51100000000E-03 0. -1.
    9900012    2    1    2    0    0 -0.39786099378E+02 -0.50406367157E+01  0.66950627192E+01  0.50528860965E+02  0.30000003390E+02 0.  0.
        -12    1    1    2    0    0  0.39786099378E+02  0.50406367157E+01 -0.66950627192E+01  0.40659139035E+02  0.00000000000E+00 0.  1.
         11    1    3    3    0    0 -0.84029205054E+01 -0.67074765119E+01  0.78571068121E+01  0.13316660313E+02  0.51100000000E-03 0. -1.
        -11    1    3    3    0    0 -0.90702920229E+01  0.15887535407E+01  0.88356153142E+01  0.12761756675E+02  0.51100000000E-03 0.  1.
         12    1    3    3    0    0 -0.22312886850E+02  0.78086255406E-01 -0.99976594071E+01  0.24450443977E+02  0.00000000000E+00 0. -1.
</event>
<event>
 7    1  0.2985411E-011  0.5052888E+02  0.7816164E-02  0.1300439E+00
        -11   -1    0    0    0    0  0.00000000000E+00  0.00000000000E+00  0.45593999997E+02  0.45594000000E+02  0.51100000000E-03 0.  1.
         11   -1    0    0    0    0 -0.00000000000E+00 -0.00000000000E+00 -0.45593999997E+02  0.45594000000E+02  0.51100000000E-03 0. -1.
    9900012    2    1    2    0    0 -0.24134886709E+02 -0.32658301138E+02  0.20264049343E+01  0.50528884090E+02  0.30000073679E+02 0.  0.
        -12    1    1    2    0    0  0.24134886709E+02  0.32658301138E+02 -0.20264049343E+01  0.40659115910E+02  0.00000000000E+00 0.  1.
         11    1    3    3    0    0 -0.25731824913E+02 -0.23661394324E+02  0.10356199368E+01  0.34972287652E+02  0.51100000000E-03 0.  1.
        -11    1    3    3    0    0  0.37675303163E+01 -0.10717399378E+02 -0.19392359575E+01  0.11524650558E+02  0.51100000000E-03 0. -1.
        -12    1    3    3    0    0 -0.21705921124E+01  0.17204925643E+01  0.29300209550E+01  0.40319458800E+01  0.00000000000E+00 0.  1.
</event>
<event>
 7    1  0.2985411E-011  0.5052887E+02  0.7816164E-02  0.1300439E+00
        -11   -1    0    0    0    0  0.00000000000E+00  0.00000000000E+00  0.45593999997E+02  0.45594000000E+02  0.51100000000E-03 0.  1.
         11   -1    0    0    0    0 -0.00000000000E+00 -0.00000000000E+00 -0.45593999997E+02  0.45594000000E+02  0.51100000000E-03 0. -1.
    9900012    2    1    2    0    0 -0.17290833322E+02 -0.36174820605E+02 -0.67508524648E+01  0.50528873450E+02  0.30000041340E+02 0.  0.
        -12    1    1    2    0    0  0.17290833322E+02  0.36174820605E+02  0.67508524648E+01  0.40659126550E+02  0.00000000000E+00 0.  1.
         11    1    3    3    0    0 -0.15650309952E+02 -0.17859168601E+02 -0.75049738466E+01  0.24903950237E+02  0.51100000000E-03 0. -1.
        -11    1    3    3    0    0 -0.41613259672E+01 -0.13592354854E+02  0.82330641168E+01  0.16427175329E+02  0.51100000000E-03 0.  1.
         12    1    3    3    0    0  0.25208025979E+01 -0.47232971504E+01 -0.74789427350E+01  0.91977478842E+01  0.00000000000E+00 0. -1.
</event>
<event>
 7    1  0.2985411E-011  0.5052887E+02  0.7816164E-02  0.1300439E+00
        -11   -1    0    0    0    0  0.00000000000E+00  0.00000000000E+00  0.45593999997E+02  0.45594000000E+02  0.51100000000E-03 0.  1.
         11   -1    0    0    0    0 -0.00000000000E+00 -0.00000000000E+00 -0.45593999997E+02  0.45594000000E+02  0.51100000000E-03 0. -1.
    9900012    2    1    2    0    0  0.29508556298E+02 -0.14297908206E+02  0.24041209332E+02  0.50528870398E+02  0.30000032062E+02 0.  0.
        -12    1    1    2    0    0 -0.29508556298E+02  0.14297908206E+02 -0.24041209332E+02  0.40659129602E+02  0.00000000000E+00 0.  1.
         11    1    3    3    0    0  0.67196464214E+01  0.21624751827E+00  0.50340780484E+01  0.83989495222E+01  0.51100000000E-03 0. -1.
        -11    1    3    3    0    0  0.21756884291E+02 -0.75915149481E-01  0.16798305639E+02  0.27487285238E+02  0.51100000000E-03 0.  1.
        -12    1    3    3    0    0  0.10320255856E+01 -0.14438240574E+02  0.22088256447E+01  0.14642635638E+02  0.00000000000E+00 0.  1.
</event>
<event>
 7    1  0.2985411E-011  0.5052885E+02  0.7816164E-02  0.1300439E+00
        -11   -1    0    0    0    0  0.00000000000E+00  0.00000000000E+00  0.45593999997E+02  0.45594000000E+02  0.51100000000E-03 0.  1.
         11   -1    0    0    0    0 -0.00000000000E+00 -0.00000000000E+00 -0.45593999997E+02  0.45594000000E+02  0.51100000000E-03 0. -1.
    9900012    2    1    2    0    0 -0.12090282511E+01 -0.15801304812E+02 -0.37443604820E+02  0.50528849431E+02  0.29999968331E+02 0.  0.
        -12    1    1    2    0    0  0.12090282511E+01  0.15801304812E+02  0.37443604820E+02  0.40659150569E+02  0.00000000000E+00 0.  1.
         11    1    3    3    0    0  0.55599466929E+01 -0.91358860494E+01 -0.10386932212E+02  0.14908580823E+02  0.51100000000E-03 0. -1.
        -11    1    3    3    0    0 -0.52609067789E+01 -0.85387805070E+01 -0.17273315599E+01  0.10177012689E+02  0.51100000000E-03 0.  1.
         12    1    3    3    0    0 -0.15080681651E+01  0.18733617446E+01 -0.25329341048E+02  0.25443255919E+02  0.00000000000E+00 0. -1.
</event>
<event>
 7    1  0.2985411E-011  0.5052885E+02  0.7816164E-02  0.1300439E+00
        -11   -1    0    0    0    0  0.00000000000E+00  0.00000000000E+00  0.45593999997E+02  0.45594000000E+02  0.51100000000E-03 0. -1.
         11   -1    0    0    0    0 -0.00000000000E+00 -0.00000000000E+00 -0.45593999997E+02  0.45594000000E+02  0.51100000000E-03 0.  1.
    9900012    2    1    2    0    0 -0.18515509650E+02 -0.28761889335E+02  0.21979443391E+02  0.50528852105E+02  0.29999976459E+02 0.  0.
        -12    1    1    2    0    0  0.18515509650E+02  0.28761889335E+02 -0.21979443391E+02  0.40659147895E+02  0.00000000000E+00 0.  1.
         11    1    3    3    0    0 -0.64921005871E+01 -0.12081728787E+02  0.32864939683E+00  0.13719458853E+02  0.51100000000E-03 0. -1.
        -11    1    3    3    0    0  0.34325659597E+01 -0.96664721897E+01  0.13471913472E+01  0.10345922794E+02  0.51100000000E-03 0.  1.
         12    1    3    3    0    0 -0.15455975022E+02 -0.70136883584E+01  0.20303602647E+02  0.26463470459E+02  0.00000000000E+00 0. -1.
</event>
<event>
 7    1  0.2985411E-011  0.5052885E+02  0.7816164E-02  0.1300439E+00
        -11   -1    0    0    0    0  0.00000000000E+00  0.00000000000E+00  0.45593999997E+02  0.45594000000E+02  0.51100000000E-03 0. -1.
         11   -1    0    0    0    0 -0.00000000000E+00 -0.00000000000E+00 -0.45593999997E+02  0.45594000000E+02  0.51100000000E-03 0.  1.
    9900012    2    1    2    0    0  0.38585978507E+02  0.81290907700E+01 -0.99099084610E+01  0.50528854168E+02  0.29999982728E+02 0.  0.
        -12    1    1    2    0    0 -0.38585978507E+02 -0.81290907700E+01  0.99099084610E+01  0.40659145832E+02  0.00000000000E+00 0.  1.
         11    1    3    3    0    0  0.18726639309E+02  0.69151519035E+01 -0.33966597354E+00  0.19965513239E+02  0.51100000000E-03 0. -1.
        -11    1    3    3    0    0  0.68870920119E+01  0.46205835536E+01  0.58329357727E+01  0.10139278512E+02  0.51100000000E-03 0.  1.
         12    1    3    3    0    0  0.12972247186E+02 -0.34066446871E+01 -0.15403178260E+02  0.20424062417E+02  0.00000000000E+00 0. -1.
</event>
<event>
 7    1  0.2985411E-011  0.5052887E+02  0.7816164E-02  0.1300439E+00
        -11   -1    0    0    0    0  0.00000000000E+00  0.00000000000E+00  0.45593999997E+02  0.45594000000E+02  0.51100000000E-03 0.  1.
         11   -1    0    0    0    0 -0.00000000000E+00 -0.00000000000E+00 -0.45593999997E+02  0.45594000000E+02  0.51100000000E-03 0. -1.
    9900012    2    1    2    0    0  0.33554061938E+01  0.11593063910E+01 -0.40503857371E+02  0.50528865676E+02  0.30000017709E+02 0.  0.
        -12    1    1    2    0    0 -0.33554061938E+01 -0.11593063910E+01  0.40503857371E+02  0.40659134324E+02  0.00000000000E+00 0.  1.
         11    1    3    3    0    0  0.50952462471E+01 -0.51621104119E+01 -0.29850737747E+02  0.30719301139E+02  0.51100000000E-03 0. -1.
        -11    1    3    3    0    0  0.44862596305E+01  0.83135377081E+01 -0.90425502416E+01  0.13077046678E+02  0.51100000000E-03 0.  1.
        -12    1    3    3    0    0 -0.62260996838E+01 -0.19921209052E+01 -0.16105693830E+01  0.67325178582E+01  0.00000000000E+00 0.  1.
</event>
<event>
 7    1  0.2985411E-011  0.5052886E+02  0.7816164E-02  0.1300439E+00
        -11   -1    0    0    0    0  0.00000000000E+00  0.00000000000E+00  0.45593999997E+02  0.45594000000E+02  0.51100000000E-03 0. -1.
         11   -1    0    0    0    0 -0.00000000000E+00 -0.00000000000E+00 -0.45593999997E+02  0.45594000000E+02  0.51100000000E-03 0.  1.
    9900012    2    1    2    0    0 -0.36106162286E+02  0.79193618958E+01 -0.16935004754E+02  0.50528860389E+02  0.30000001639E+02 0.  0.
        -12    1    1    2    0    0  0.36106162286E+02 -0.79193618958E+01  0.16935004754E+02  0.40659139611E+02  0.00000000000E+00 0.  1.
         11    1    3    3    0    0 -0.66525252947E+01  0.38771490047E+01 -0.10471108772E+02  0.12997403447E+02  0.51100000000E-03 0. -1.
        -11    1    3    3    0    0  0.11193624972E+01  0.24990582472E+01 -0.63544491575E+01  0.69193416507E+01  0.51100000000E-03 0.  1.
        -12    1    3    3    0    0 -0.30572999489E+02  0.15431546438E+01 -0.10944682473E+00  0.30612115291E+02  0.00000000000E+00 0.  1.
</event>
<event>
 7    1  0.2985411E-011  0.5052884E+02  0.7816164E-02  0.1300439E+00
        -11   -1    0    0    0    0  0.00000000000E+00  0.00000000000E+00  0.45593999997E+02  0.45594000000E+02  0.51100000000E-03 0.  1.
         11   -1    0    0    0    0 -0.00000000000E+00 -0.00000000000E+00 -0.45593999997E+02  0.45594000000E+02  0.51100000000E-03 0. -1.
    9900012    2    1    2    0    0  0.19438085347E+02  0.29501680413E+02 -0.20124087888E+02  0.50528840854E+02  0.29999942259E+02 0.  0.
        -12    1    1    2    0    0 -0.19438085347E+02 -0.29501680413E+02  0.20124087888E+02  0.40659159146E+02  0.00000000000E+00 0.  1.
         11    1    3    3    0    0  0.91777500783E+01  0.50404099987E+01 -0.39223699521E+01  0.11181315475E+02  0.51100000000E-03 0. -1.
        -11    1    3    3    0    0 -0.23192138884E+01  0.62960575699E+01  0.52743549807E+01  0.85345131500E+01  0.51100000000E-03 0.  1.
         12    1    3    3    0    0  0.12579549157E+02  0.18165212845E+02 -0.21476072917E+02  0.30813012229E+02  0.00000000000E+00 0. -1.
</event>
<event>
 7    1  0.2985411E-011  0.5052885E+02  0.7816164E-02  0.1300439E+00
        -11   -1    0    0    0    0  0.00000000000E+00  0.00000000000E+00  0.45593999997E+02  0.45594000000E+02  0.51100000000E-03 0. -1.
         11   -1    0    0    0    0 -0.00000000000E+00 -0.00000000000E+00 -0.45593999997E+02  0.45594000000E+02  0.51100000000E-03 0.  1.
    9900012    2    1    2    0    0  0.31366963244E+02 -0.22138117171E+02  0.13385951188E+02  0.50528852146E+02  0.29999976582E+02 0.  0.
        -12    1    1    2    0    0 -0.31366963244E+02  0.22138117171E+02 -0.13385951188E+02  0.40659147854E+02  0.00000000000E+00 0.  1.
         11    1    3    3    0    0  0.27361673996E+01  0.99653215425E+00 -0.85498423631E+00  0.30349113131E+01  0.51100000000E-03 0. -1.
        -11    1    3    3    0    0  0.75370784115E+01 -0.15607269843E+02 -0.49229579509E+01  0.18017489786E+02  0.51100000000E-03 0.  1.
        -12    1    3    3    0    0  0.21093717433E+02 -0.75273794828E+01  0.19163893376E+02  0.29476451047E+02  0.00000000000E+00 0.  1.
</event>
<event>
 7    1  0.2985411E-011  0.5052885E+02  0.7816164E-02  0.1300439E+00
        -11   -1    0    0    0    0  0.00000000000E+00  0.00000000000E+00  0.45593999997E+02  0.45594000000E+02  0.51100000000E-03 0.  1.
         11   -1    0    0    0    0 -0.00000000000E+00 -0.00000000000E+00 -0.45593999997E+02  0.45594000000E+02  0.51100000000E-03 0. -1.
    9900012    2    1    2    0    0  0.33324009653E+02 -0.43142978844E+00 -0.23291434732E+02  0.50528847489E+02  0.29999962428E+02 0.  0.
        -12    1    1    2    0    0 -0.33324009653E+02  0.43142978844E+00  0.23291434732E+02  0.40659152511E+02  0.00000000000E+00 0.  1.
         11    1    3    3    0    0 -0.15643761006E-02 -0.19482380516E+01 -0.70655484233E+01  0.73292297505E+01  0.51100000000E-03 0. -1.
        -11    1    3    3    0    0  0.36430287362E+01 -0.80463631487E+01 -0.41358455590E+01  0.97529911843E+01  0.51100000000E-03 0.  1.
        -12    1    3    3    0    0  0.29682545293E+02  0.95631714118E+01 -0.12090040750E+02  0.33446626554E+02  0.00000000000E+00 0.  1.
</event>
<event>
 7    1  0.2985411E-011  0.5052886E+02  0.7816164E-02  0.1300439E+00
        -11   -1    0    0    0    0  0.00000000000E+00  0.00000000000E+00  0.45593999997E+02  0.45594000000E+02  0.51100000000E-03 0. -1.
         11   -1    0    0    0    0 -0.00000000000E+00 -0.00000000000E+00 -0.45593999997E+02  0.45594000000E+02  0.51100000000E-03 0.  1.
    9900012    2    1    2    0    0 -0.92641511515E+01  0.29821930012E+02  0.26038318223E+02  0.50528855616E+02  0.29999987129E+02 0.  0.
        -12    1    1    2    0    0  0.92641511515E+01 -0.29821930012E+02 -0.26038318223E+02  0.40659144384E+02  0.00000000000E+00 0.  1.
         11    1    3    3    0    0  0.79948481369E+00  0.23253819247E+01  0.11258479937E+02  0.11523885969E+02  0.51100000000E-03 0. -1.
        -11    1    3    3    0    0  0.25036566557E+01 -0.20156590165E+01  0.40733214928E+01  0.51887499617E+01  0.51100000000E-03 0.  1.
        -12    1    3    3    0    0 -0.12567292621E+02  0.29512207104E+02  0.10706516793E+02  0.33816219685E+02  0.00000000000E+00 0.  1.
</event>
<event>
 7    1  0.2985411E-011  0.5052886E+02  0.7816164E-02  0.1300439E+00
        -11   -1    0    0    0    0  0.00000000000E+00  0.00000000000E+00  0.45593999997E+02  0.45594000000E+02  0.51100000000E-03 0.  1.
         11   -1    0    0    0    0 -0.00000000000E+00 -0.00000000000E+00 -0.45593999997E+02  0.45594000000E+02  0.51100000000E-03 0. -1.
    9900012    2    1    2    0    0 -0.47478087643E+01 -0.12793694183E+02 -0.38300724818E+02  0.50528858094E+02  0.29999994663E+02 0.  0.
        -12    1    1    2    0    0  0.47478087643E+01  0.12793694183E+02  0.38300724818E+02  0.40659141906E+02  0.00000000000E+00 0.  1.
         11    1    3    3    0    0  0.18633071102E+01  0.20581135867E-01 -0.15437776897E+02  0.15549832564E+02  0.51100000000E-03 0. -1.
        -11    1    3    3    0    0  0.17352617654E+01 -0.15665396843E+02 -0.20480279879E+02  0.25842942089E+02  0.51100000000E-03 0.  1.
        -12    1    3    3    0    0 -0.83463776399E+01  0.28511215242E+01 -0.23826680426E+01  0.91360834417E+01  0.00000000000E+00 0.  1.
</event>
<event>
 7    1  0.2985411E-011  0.5052886E+02  0.7816164E-02  0.1300439E+00
        -11   -1    0    0    0    0  0.00000000000E+00  0.00000000000E+00  0.45593999997E+02  0.45594000000E+02  0.51100000000E-03 0. -1.
         11   -1    0    0    0    0 -0.00000000000E+00 -0.00000000000E+00 -0.45593999997E+02  0.45594000000E+02  0.51100000000E-03 0.  1.
    9900012    2    1    2    0    0  0.69089815097E+01 -0.13480456972E+02  0.37732065502E+02  0.50528861880E+02  0.30000006170E+02 0.  0.
        -12    1    1    2    0    0 -0.69089815097E+01  0.13480456972E+02 -0.37732065502E+02  0.40659138120E+02  0.00000000000E+00 0.  1.
         11    1    3    3    0    0 -0.46734026938E+01 -0.63621316634E+01  0.57137070000E+01  0.97449402247E+01  0.51100000000E-03 0. -1.
        -11    1    3    3    0    0  0.12621393272E+02 -0.82724106495E+01  0.87102574108E+01  0.17424147913E+02  0.51100000000E-03 0.  1.
         12    1    3    3    0    0 -0.10390090681E+01  0.11540853411E+01  0.23308101091E+02  0.23359773742E+02  0.00000000000E+00 0. -1.
</event>
<event>
 7    1  0.2985411E-011  0.5052886E+02  0.7816164E-02  0.1300439E+00
        -11   -1    0    0    0    0  0.00000000000E+00  0.00000000000E+00  0.45593999997E+02  0.45594000000E+02  0.51100000000E-03 0.  1.
         11   -1    0    0    0    0 -0.00000000000E+00 -0.00000000000E+00 -0.45593999997E+02  0.45594000000E+02  0.51100000000E-03 0. -1.
    9900012    2    1    2    0    0  0.38114028416E+02  0.19229596406E+01 -0.14028144966E+02  0.50528858506E+02  0.29999995915E+02 0.  0.
        -12    1    1    2    0    0 -0.38114028416E+02 -0.19229596406E+01  0.14028144966E+02  0.40659141494E+02  0.00000000000E+00 0.  1.
         11    1    3    3    0    0  0.98698625346E+01 -0.31192423536E+01 -0.11188372894E+02  0.15242163482E+02  0.51100000000E-03 0. -1.
        -11    1    3    3    0    0  0.19714836823E+02 -0.64723685619E+01 -0.42019422203E+00  0.20754346754E+02  0.51100000000E-03 0.  1.
         12    1    3    3    0    0  0.85293290580E+01  0.11514570556E+02 -0.24195778498E+01  0.14532348270E+02  0.00000000000E+00 0. -1.
</event>
<event>
 7    1  0.2985411E-011  0.5052885E+02  0.7816164E-02  0.1300439E+00
        -11   -1    0    0    0    0  0.00000000000E+00  0.00000000000E+00  0.45593999997E+02  0.45594000000E+02  0.51100000000E-03 0. -1.
         11   -1    0    0    0    0 -0.00000000000E+00 -0.00000000000E+00 -0.45593999997E+02  0.45594000000E+02  0.51100000000E-03 0.  1.
    9900012    2    1    2    0    0  0.39134993439E+02 -0.45432034312E+00  0.11018719145E+02  0.50528852320E+02  0.29999977111E+02 0.  0.
        -12    1    1    2    0    0 -0.39134993439E+02  0.45432034312E+00 -0.11018719145E+02  0.40659147680E+02  0.00000000000E+00 0.  1.
         11    1    3    3    0    0  0.11843327305E+02 -0.94349897076E-01  0.68855878382E+01  0.13699803783E+02  0.51100000000E-03 0. -1.
        -11    1    3    3    0    0  0.10411754373E+02  0.96687848302E+01 -0.51466683102E+01  0.15112187935E+02  0.51100000000E-03 0.  1.
         12    1    3    3    0    0  0.16879911762E+02 -0.10028755276E+02  0.92797996173E+01  0.21716860602E+02  0.00000000000E+00 0. -1.
</event>
<event>
 7    1  0.2985411E-011  0.5052886E+02  0.7816164E-02  0.1300439E+00
        -11   -1    0    0    0    0  0.00000000000E+00  0.00000000000E+00  0.45593999997E+02  0.45594000000E+02  0.51100000000E-03 0. -1.
         11   -1    0    0    0    0 -0.00000000000E+00 -0.00000000000E+00 -0.45593999997E+02  0.45594000000E+02  0.51100000000E-03 0.  1.
    9900012    2    1    2    0    0  0.16600953301E+02  0.31499331864E+02  0.19630742088E+02  0.50528860888E+02  0.30000003156E+02 0.  0.
        -12    1    1    2    0    0 -0.16600953301E+02 -0.31499331864E+02 -0.19630742088E+02  0.40659139112E+02  0.00000000000E+00 0.  1.
         11    1    3    3    0    0  0.12053820925E+01  0.17389000804E+02  0.10989163544E+02  0.20605630556E+02  0.51100000000E-03 0. -1.
        -11    1    3    3    0    0 -0.37594086326E+01  0.41621992444E+01  0.59418249142E+01  0.81708224426E+01  0.51100000000E-03 0.  1.
        -12    1    3    3    0    0  0.19154979841E+02  0.99481318158E+01  0.26997536297E+01  0.21752407890E+02  0.00000000000E+00 0.  1.
</event>
<event>
 7    1  0.2985411E-011  0.5052886E+02  0.7816164E-02  0.1300439E+00
        -11   -1    0    0    0    0  0.00000000000E+00  0.00000000000E+00  0.45593999997E+02  0.45594000000E+02  0.51100000000E-03 0.  1.
         11   -1    0    0    0    0 -0.00000000000E+00 -0.00000000000E+00 -0.45593999997E+02  0.45594000000E+02  0.51100000000E-03 0. -1.
    9900012    2    1    2    0    0  0.27526536869E+01  0.23423038857E+02 -0.33120232511E+02  0.50528860152E+02  0.30000000917E+02 0.  0.
        -12    1    1    2    0    0 -0.27526536869E+01 -0.23423038857E+02  0.33120232511E+02  0.40659139848E+02  0.00000000000E+00 0.  1.
         11    1    3    3    0    0  0.30369944141E+01  0.15525162725E+02 -0.84807474470E+01  0.17949292193E+02  0.51100000000E-03 0. -1.
        -11    1    3    3    0    0  0.37229871563E+01 -0.55369273897E+01 -0.11866965773E+02  0.13614076362E+02  0.51100000000E-03 0.  1.
         12    1    3    3    0    0 -0.40073278835E+01  0.13434803522E+02 -0.12772519291E+02  0.18965491596E+02  0.00000000000E+00 0. -1.
</event>
<event>
 7    1  0.2985411E-011  0.5052887E+02  0.7816164E-02  0.1300439E+00
        -11   -1    0    0    0    0  0.00000000000E+00  0.00000000000E+00  0.45593999997E+02  0.45594000000E+02  0.51100000000E-03 0.  1.
         11   -1    0    0    0    0 -0.00000000000E+00 -0.00000000000E+00 -0.45593999997E+02  0.45594000000E+02  0.51100000000E-03 0. -1.
    9900012    2    1    2    0    0  0.81552458863E+01  0.14486370651E+02 -0.37105285986E+02  0.50528865501E+02  0.30000017176E+02 0.  0.
        -12    1    1    2    0    0 -0.81552458863E+01 -0.14486370651E+02  0.37105285986E+02  0.40659134499E+02  0.00000000000E+00 0.  1.
         11    1    3    3    0    0  0.13717191192E+01  0.45584121333E+01 -0.22199800712E+02  0.22704446403E+02  0.51100000000E-03 0. -1.
        -11    1    3    3    0    0 -0.27844193468E+01  0.11443076245E+02 -0.13694250584E+02  0.18061823949E+02  0.51100000000E-03 0.  1.
        -12    1    3    3    0    0  0.95679461139E+01 -0.15151177279E+01 -0.12112346900E+01  0.97625951489E+01  0.00000000000E+00 0.  1.
</event>
<event>
 7    1  0.2985411E-011  0.5052886E+02  0.7816164E-02  0.1300439E+00
        -11   -1    0    0    0    0  0.00000000000E+00  0.00000000000E+00  0.45593999997E+02  0.45594000000E+02  0.51100000000E-03 0. -1.
         11   -1    0    0    0    0 -0.00000000000E+00 -0.00000000000E+00 -0.45593999997E+02  0.45594000000E+02  0.51100000000E-03 0.  1.
    9900012    2    1    2    0    0 -0.36480351860E+02 -0.17831696950E+02 -0.20928512534E+01  0.50528861860E+02  0.30000006109E+02 0.  0.
        -12    1    1    2    0    0  0.36480351860E+02  0.17831696950E+02  0.20928512534E+01  0.40659138140E+02  0.00000000000E+00 0.  1.
         11    1    3    3    0    0  0.47795756700E+00 -0.94754350991E+01  0.62629427232E+01  0.11368234936E+02  0.51100000000E-03 0. -1.
        -11    1    3    3    0    0 -0.58846488847E+01 -0.27920223037E+01 -0.30953299176E-01  0.65134813586E+01  0.51100000000E-03 0.  1.
        -12    1    3    3    0    0 -0.31073660542E+02 -0.55642395473E+01 -0.83248406774E+01  0.32647145565E+02  0.00000000000E+00 0.  1.
</event>
<event>
 7    1  0.2985411E-011  0.5052885E+02  0.7816164E-02  0.1300439E+00
        -11   -1    0    0    0    0  0.00000000000E+00  0.00000000000E+00  0.45593999997E+02  0.45594000000E+02  0.51100000000E-03 0. -1.
         11   -1    0    0    0    0 -0.00000000000E+00 -0.00000000000E+00 -0.45593999997E+02  0.45594000000E+02  0.51100000000E-03 0.  1.
    9900012    2    1    2    0    0  0.25480377779E+02 -0.26965564382E+02 -0.16636559078E+02  0.50528850818E+02  0.29999972547E+02 0.  0.
        -12    1    1    2    0    0 -0.25480377779E+02  0.26965564382E+02  0.16636559078E+02  0.40659149182E+02  0.00000000000E+00 0.  1.
         11    1    3    3    0    0  0.28404053599E+00 -0.58245935861E+01 -0.93835173642E+01  0.11047939530E+02  0.51100000000E-03 0. -1.
        -11    1    3    3    0    0  0.13820356374E+02 -0.17029530127E+02 -0.13614495270E+02  0.25813981257E+02  0.51100000000E-03 0.  1.
         12    1    3    3    0    0  0.11375980870E+02 -0.41114406690E+01  0.63614535559E+01  0.13666930031E+02  0.00000000000E+00 0. -1.
</event>
<event>
 7    1  0.2985411E-011  0.5052885E+02  0.7816164E-02  0.1300439E+00
        -11   -1    0    0    0    0  0.00000000000E+00  0.00000000000E+00  0.45593999997E+02  0.45594000000E+02  0.51100000000E-03 0.  1.
         11   -1    0    0    0    0 -0.00000000000E+00 -0.00000000000E+00 -0.45593999997E+02  0.45594000000E+02  0.51100000000E-03 0. -1.
    9900012    2    1    2    0    0 -0.16063746167E+02 -0.15380829725E+02 -0.34037520460E+02  0.50528847733E+02  0.29999963170E+02 0.  0.
        -12    1    1    2    0    0  0.16063746167E+02  0.15380829725E+02  0.34037520460E+02  0.40659152267E+02  0.00000000000E+00 0.  1.
         11    1    3    3    0    0 -0.25411065562E+01  0.54664566319E+01 -0.12681810922E+02  0.14041641612E+02  0.51100000000E-03 0. -1.
        -11    1    3    3    0    0 -0.13884385002E+02 -0.10368874683E+02 -0.69514054892E+01  0.18671147464E+02  0.51100000000E-03 0.  1.
         12    1    3    3    0    0  0.36174539137E+00 -0.10478411674E+02 -0.14404304049E+02  0.17816058657E+02  0.00000000000E+00 0. -1.
</event>
<event>
 7    1  0.2985411E-011  0.5052886E+02  0.7816164E-02  0.1300439E+00
        -11   -1    0    0    0    0  0.00000000000E+00  0.00000000000E+00  0.45593999997E+02  0.45594000000E+02  0.51100000000E-03 0.  1.
         11   -1    0    0    0    0 -0.00000000000E+00 -0.00000000000E+00 -0.45593999997E+02  0.45594000000E+02  0.51100000000E-03 0. -1.
    9900012    2    1    2    0    0 -0.36408013959E+02 -0.14310536136E+02 -0.11082908212E+02  0.50528858600E+02  0.29999996201E+02 0.  0.
        -12    1    1    2    0    0  0.36408013959E+02  0.14310536136E+02  0.11082908212E+02  0.40659141400E+02  0.00000000000E+00 0.  1.
         11    1    3    3    0    0 -0.79808971520E+01 -0.58178421035E+01  0.11735484909E+01  0.99458143163E+01  0.51100000000E-03 0. -1.
        -11    1    3    3    0    0 -0.38208339026E+01 -0.12164358372E+02  0.21780931578E+00  0.12752169521E+02  0.51100000000E-03 0.  1.
        -12    1    3    3    0    0 -0.24606282904E+02  0.36716643393E+01 -0.12474266019E+02  0.27830874763E+02  0.00000000000E+00 0.  1.
</event>
<event>
 7    1  0.2985411E-011  0.5052886E+02  0.7816164E-02  0.1300439E+00
        -11   -1    0    0    0    0  0.00000000000E+00  0.00000000000E+00  0.45593999997E+02  0.45594000000E+02  0.51100000000E-03 0. -1.
         11   -1    0    0    0    0 -0.00000000000E+00 -0.00000000000E+00 -0.45593999997E+02  0.45594000000E+02  0.51100000000E-03 0.  1.
    9900012    2    1    2    0    0  0.21654867368E+02  0.24119567357E+02  0.24545438803E+02  0.50528863558E+02  0.30000011270E+02 0.  0.
        -12    1    1    2    0    0 -0.21654867368E+02 -0.24119567357E+02 -0.24545438803E+02  0.40659136442E+02  0.00000000000E+00 0.  1.
         11    1    3    3    0    0 -0.29731237122E+01  0.20502940284E+01  0.53193562460E+00  0.36504966759E+01  0.51100000000E-03 0.  1.
        -11    1    3    3    0    0  0.32807797889E+01 -0.23552281009E+01 -0.26983657670E+01  0.48571384069E+01  0.51100000000E-03 0. -1.
         12    1    3    3    0    0  0.21347211291E+02  0.24424501430E+02  0.26711868945E+02  0.42021228475E+02  0.00000000000E+00 0. -1.
</event>
<event>
 7    1  0.2985411E-011  0.5052886E+02  0.7816164E-02  0.1300439E+00
        -11   -1    0    0    0    0  0.00000000000E+00  0.00000000000E+00  0.45593999997E+02  0.45594000000E+02  0.51100000000E-03 0.  1.
         11   -1    0    0    0    0 -0.00000000000E+00 -0.00000000000E+00 -0.45593999997E+02  0.45594000000E+02  0.51100000000E-03 0. -1.
    9900012    2    1    2    0    0 -0.67231126466E+01 -0.30965185184E+01 -0.39979705699E+02  0.50528861563E+02  0.30000005208E+02 0.  0.
        -12    1    1    2    0    0  0.67231126466E+01  0.30965185184E+01  0.39979705699E+02  0.40659138437E+02  0.00000000000E+00 0.  1.
         11    1    3    3    0    0 -0.10285148345E+02 -0.10099702080E+02 -0.37328006304E+02  0.40014601253E+02  0.51100000000E-03 0. -1.
        -11    1    3    3    0    0 -0.83992274292E+00 -0.69322389144E+00  0.36528470976E+00  0.11486787010E+01  0.51100000000E-03 0.  1.
         12    1    3    3    0    0  0.44019584408E+01  0.76964074526E+01 -0.30169841056E+01  0.93655816095E+01  0.00000000000E+00 0. -1.
</event>
<event>
 7    1  0.2985411E-011  0.5052886E+02  0.7816164E-02  0.1300439E+00
        -11   -1    0    0    0    0  0.00000000000E+00  0.00000000000E+00  0.45593999997E+02  0.45594000000E+02  0.51100000000E-03 0. -1.
         11   -1    0    0    0    0 -0.00000000000E+00 -0.00000000000E+00 -0.45593999997E+02  0.45594000000E+02  0.51100000000E-03 0.  1.
    9900012    2    1    2    0    0 -0.31324927118E+02  0.10861774765E+02  0.23535856993E+02  0.50528858662E+02  0.29999996388E+02 0.  0.
        -12    1    1    2    0    0  0.31324927118E+02 -0.10861774765E+02 -0.23535856993E+02  0.40659141338E+02  0.00000000000E+00 0.  1.
         11    1    3    3    0    0 -0.75666064279E+01  0.49832376174E+01  0.18963436184E+02  0.21016614907E+02  0.51100000000E-03 0. -1.
        -11    1    3    3    0    0 -0.44637310070E+01  0.74884510510E+01  0.51806560668E+01  0.10141054738E+02  0.51100000000E-03 0.  1.
        -12    1    3    3    0    0 -0.19294589683E+02 -0.16099139038E+01 -0.60823525778E+00  0.19371189017E+02  0.00000000000E+00 0.  1.
</event>
<event>
 7    1  0.2985411E-011  0.5052886E+02  0.7816164E-02  0.1300439E+00
        -11   -1    0    0    0    0  0.00000000000E+00  0.00000000000E+00  0.45593999997E+02  0.45594000000E+02  0.51100000000E-03 0.  1.
         11   -1    0    0    0    0 -0.00000000000E+00 -0.00000000000E+00 -0.45593999997E+02  0.45594000000E+02  0.51100000000E-03 0. -1.
    9900012    2    1    2    0    0 -0.38723851837E+02  0.12306627023E+02 -0.14752001615E+01  0.50528856068E+02  0.29999988503E+02 0.  0.
        -12    1    1    2    0    0  0.38723851837E+02 -0.12306627023E+02  0.14752001615E+01  0.40659143932E+02  0.00000000000E+00 0.  1.
         11    1    3    3    0    0 -0.59369017281E+00  0.19216124834E+01 -0.70889837073E+01  0.73687687453E+01  0.51100000000E-03 0. -1.
        -11    1    3    3    0    0 -0.13268786586E+02 -0.27901399351E+01 -0.26909179797E+01  0.13823408341E+02  0.51100000000E-03 0.  1.
         12    1    3    3    0    0 -0.24861375079E+02  0.13175154475E+02  0.83047015255E+01  0.29336678982E+02  0.00000000000E+00 0. -1.
</event>
<event>
 7    1  0.2985411E-011  0.5052886E+02  0.7816164E-02  0.1300439E+00
        -11   -1    0    0    0    0  0.00000000000E+00  0.00000000000E+00  0.45593999997E+02  0.45594000000E+02  0.51100000000E-03 0.  1.
         11   -1    0    0    0    0 -0.00000000000E+00 -0.00000000000E+00 -0.45593999997E+02  0.45594000000E+02  0.51100000000E-03 0. -1.
    9900012    2    1    2    0    0  0.35697493271E+02 -0.16962528437E+02  0.95460801041E+01  0.50528855368E+02  0.29999986377E+02 0.  0.
        -12    1    1    2    0    0 -0.35697493271E+02  0.16962528437E+02 -0.95460801041E+01  0.40659144632E+02  0.00000000000E+00 0.  1.
         11    1    3    3    0    0  0.77692798431E+01 -0.95456637440E+01 -0.69161494869E+00  0.12327195021E+02  0.51100000000E-03 0. -1.
        -11    1    3    3    0    0  0.72736674598E+01 -0.13419030809E+02  0.34692908678E+01  0.15652878507E+02  0.51100000000E-03 0.  1.
         12    1    3    3    0    0  0.20654545968E+02  0.60021661160E+01  0.67684041849E+01  0.22548781840E+02  0.00000000000E+00 0. -1.
</event>
<event>
 7    1  0.2985411E-011  0.5052885E+02  0.7816164E-02  0.1300439E+00
        -11   -1    0    0    0    0  0.00000000000E+00  0.00000000000E+00  0.45593999997E+02  0.45594000000E+02  0.51100000000E-03 0.  1.
         11   -1    0    0    0    0 -0.00000000000E+00 -0.00000000000E+00 -0.45593999997E+02  0.45594000000E+02  0.51100000000E-03 0. -1.
    9900012    2    1    2    0    0 -0.85239491891E+01 -0.75693929119E+01 -0.39028364135E+02  0.50528848191E+02  0.29999964560E+02 0.  0.
        -12    1    1    2    0    0  0.85239491891E+01  0.75693929119E+01  0.39028364135E+02  0.40659151809E+02  0.00000000000E+00 0.  1.
         11    1    3    3    0    0 -0.81394882164E+01  0.41949625969E+01 -0.36908706089E+01  0.98727658601E+01  0.51100000000E-03 0. -1.
        -11    1    3    3    0    0 -0.40708117085E+01 -0.41688482113E+01 -0.18390369827E+01  0.61100622468E+01  0.51100000000E-03 0.  1.
         12    1    3    3    0    0  0.36863507359E+01 -0.75955072975E+01 -0.33498456543E+02  0.34546020084E+02  0.00000000000E+00 0. -1.
</event>
<event>
 7    1  0.2985411E-011  0.5052886E+02  0.7816164E-02  0.1300439E+00
        -11   -1    0    0    0    0  0.00000000000E+00  0.00000000000E+00  0.45593999997E+02  0.45594000000E+02  0.51100000000E-03 0. -1.
         11   -1    0    0    0    0 -0.00000000000E+00 -0.00000000000E+00 -0.45593999997E+02  0.45594000000E+02  0.51100000000E-03 0.  1.
    9900012    2    1    2    0    0  0.35501094164E+02 -0.15976986381E+02  0.11729173895E+02  0.50528864484E+02  0.30000014084E+02 0.  0.
        -12    1    1    2    0    0 -0.35501094164E+02  0.15976986381E+02 -0.11729173895E+02  0.40659135516E+02  0.00000000000E+00 0.  1.
         11    1    3    3    0    0  0.25136835049E+02 -0.14679616401E+02  0.19607171503E+02  0.35096905684E+02  0.51100000000E-03 0. -1.
        -11    1    3    3    0    0  0.11878879982E+01  0.14124423152E+01  0.12332689090E+01  0.22196899903E+01  0.51100000000E-03 0.  1.
         12    1    3    3    0    0  0.91763711173E+01 -0.27098122950E+01 -0.91112665168E+01  0.13212268810E+02  0.00000000000E+00 0. -1.
</event>
<event>
 7    1  0.2985411E-011  0.5052883E+02  0.7816164E-02  0.1300439E+00
        -11   -1    0    0    0    0  0.00000000000E+00  0.00000000000E+00  0.45593999997E+02  0.45594000000E+02  0.51100000000E-03 0. -1.
         11   -1    0    0    0    0 -0.00000000000E+00 -0.00000000000E+00 -0.45593999997E+02  0.45594000000E+02  0.51100000000E-03 0.  1.
    9900012    2    1    2    0    0 -0.13728527858E+01  0.40590563522E+02 -0.19208797914E+01  0.50528826976E+02  0.29999900077E+02 0.  0.
        -12    1    1    2    0    0  0.13728527858E+01 -0.40590563522E+02  0.19208797914E+01  0.40659173024E+02  0.00000000000E+00 0.  1.
         11    1    3    3    0    0 -0.71529344255E-01  0.18563229708E+02 -0.87071065887E+01  0.20503958619E+02  0.51100000000E-03 0. -1.
        -11    1    3    3    0    0 -0.35567395543E+01  0.40948658030E+01 -0.58456777649E+01  0.79743508196E+01  0.51100000000E-03 0.  1.
         12    1    3    3    0    0  0.22554161128E+01  0.17932468011E+02  0.12631904562E+02  0.22050517538E+02  0.00000000000E+00 0. -1.
</event>
<event>
 7    1  0.2985411E-011  0.5052887E+02  0.7816164E-02  0.1300439E+00
        -11   -1    0    0    0    0  0.00000000000E+00  0.00000000000E+00  0.45593999997E+02  0.45594000000E+02  0.51100000000E-03 0.  1.
         11   -1    0    0    0    0 -0.00000000000E+00 -0.00000000000E+00 -0.45593999997E+02  0.45594000000E+02  0.51100000000E-03 0. -1.
    9900012    2    1    2    0    0  0.62797987671E+01  0.36633047099E+02 -0.16484795674E+02  0.50528874324E+02  0.30000043995E+02 0.  0.
        -12    1    1    2    0    0 -0.62797987671E+01 -0.36633047099E+02  0.16484795674E+02  0.40659125676E+02  0.00000000000E+00 0.  1.
         11    1    3    3    0    0  0.14951648378E+01  0.60203595332E+01  0.64918660683E+01  0.89791186712E+01  0.51100000000E-03 0. -1.
        -11    1    3    3    0    0  0.57851609133E+01  0.10449751617E+02 -0.14400352199E+01  0.12030756309E+02  0.51100000000E-03 0.  1.
         12    1    3    3    0    0 -0.10005269840E+01  0.20162935949E+02 -0.21536626522E+02  0.29518999344E+02  0.00000000000E+00 0. -1.
</event>
<event>
 7    1  0.2985411E-011  0.5052886E+02  0.7816164E-02  0.1300439E+00
        -11   -1    0    0    0    0  0.00000000000E+00  0.00000000000E+00  0.45593999997E+02  0.45594000000E+02  0.51100000000E-03 0. -1.
         11   -1    0    0    0    0 -0.00000000000E+00 -0.00000000000E+00 -0.45593999997E+02  0.45594000000E+02  0.51100000000E-03 0.  1.
    9900012    2    1    2    0    0 -0.16246322439E+02  0.23516981671E+02  0.28916674351E+02  0.50528862340E+02  0.30000007569E+02 0.  0.
        -12    1    1    2    0    0  0.16246322439E+02 -0.23516981671E+02 -0.28916674351E+02  0.40659137660E+02  0.00000000000E+00 0.  1.
         11    1    3    3    0    0  0.15278389751E+00  0.88413590722E+01  0.30398483516E+01  0.93505963139E+01  0.51100000000E-03 0. -1.
        -11    1    3    3    0    0 -0.95225468791E+01  0.17204239218E+02  0.27369576191E+02  0.33701015522E+02  0.51100000000E-03 0.  1.
        -12    1    3    3    0    0 -0.68765594570E+01 -0.25286166189E+01 -0.14927501906E+01  0.74772505042E+01  0.00000000000E+00 0.  1.
</event>
<event>
 7    1  0.2985411E-011  0.5052887E+02  0.7816164E-02  0.1300439E+00
        -11   -1    0    0    0    0  0.00000000000E+00  0.00000000000E+00  0.45593999997E+02  0.45594000000E+02  0.51100000000E-03 0. -1.
         11   -1    0    0    0    0 -0.00000000000E+00 -0.00000000000E+00 -0.45593999997E+02  0.45594000000E+02  0.51100000000E-03 0.  1.
    9900012    2    1    2    0    0 -0.33324935282E+02  0.19174497045E+02  0.13226938053E+02  0.50528873857E+02  0.30000042574E+02 0.  0.
        -12    1    1    2    0    0  0.33324935282E+02 -0.19174497045E+02 -0.13226938053E+02  0.40659126143E+02  0.00000000000E+00 0.  1.
         11    1    3    3    0    0 -0.22071482787E+02  0.19635980386E+02  0.30961611947E+01  0.29703674731E+02  0.51100000000E-03 0. -1.
        -11    1    3    3    0    0  0.29642140978E+01  0.22455981552E+01  0.22266947654E+01  0.43344487691E+01  0.51100000000E-03 0.  1.
         12    1    3    3    0    0 -0.14217666593E+02 -0.27070814964E+01  0.79040820927E+01  0.16490750356E+02  0.00000000000E+00 0. -1.
</event>
<event>
 7    1  0.2985411E-011  0.5052887E+02  0.7816164E-02  0.1300439E+00
        -11   -1    0    0    0    0  0.00000000000E+00  0.00000000000E+00  0.45593999997E+02  0.45594000000E+02  0.51100000000E-03 0. -1.
         11   -1    0    0    0    0 -0.00000000000E+00 -0.00000000000E+00 -0.45593999997E+02  0.45594000000E+02  0.51100000000E-03 0.  1.
    9900012    2    1    2    0    0  0.40216218459E+02  0.59750814510E+01 -0.34509835418E+00  0.50528869188E+02  0.30000028385E+02 0.  0.
        -12    1    1    2    0    0 -0.40216218459E+02 -0.59750814510E+01  0.34509835418E+00  0.40659130812E+02  0.00000000000E+00 0.  1.
         11    1    3    3    0    0  0.45875891475E+01 -0.47113725026E+01  0.57134014730E+01  0.87112548865E+01  0.51100000000E-03 0. -1.
        -11    1    3    3    0    0  0.15712341274E+02  0.11882613379E+02 -0.89851176088E+01  0.21651940045E+02  0.51100000000E-03 0.  1.
         12    1    3    3    0    0  0.19916288038E+02 -0.11961594259E+01  0.29266177816E+01  0.20165674256E+02  0.00000000000E+00 0. -1.
</event>
<event>
 7    1  0.2985411E-011  0.5052886E+02  0.7816164E-02  0.1300439E+00
        -11   -1    0    0    0    0  0.00000000000E+00  0.00000000000E+00  0.45593999997E+02  0.45594000000E+02  0.51100000000E-03 0. -1.
         11   -1    0    0    0    0 -0.00000000000E+00 -0.00000000000E+00 -0.45593999997E+02  0.45594000000E+02  0.51100000000E-03 0.  1.
    9900012    2    1    2    0    0 -0.29255273449E+02 -0.12827149440E+02  0.25154691675E+02  0.50528864488E+02  0.30000014097E+02 0.  0.
        -12    1    1    2    0    0  0.29255273449E+02  0.12827149440E+02 -0.25154691675E+02  0.40659135512E+02  0.00000000000E+00 0.  1.
         11    1    3    3    0    0 -0.34439251414E+02 -0.11776476051E+02  0.19939027081E+02  0.41500749720E+02  0.51100000000E-03 0. -1.
        -11    1    3    3    0    0  0.15209482999E+01  0.20475493924E+01  0.21383925958E+01  0.33284328745E+01  0.51100000000E-03 0.  1.
        -12    1    3    3    0    0  0.36630296650E+01 -0.30982227812E+01  0.30772719983E+01  0.56996818929E+01  0.00000000000E+00 0.  1.
</event>
<event>
 7    1  0.2985411E-011  0.5052886E+02  0.7816164E-02  0.1300439E+00
        -11   -1    0    0    0    0  0.00000000000E+00  0.00000000000E+00  0.45593999997E+02  0.45594000000E+02  0.51100000000E-03 0.  1.
         11   -1    0    0    0    0 -0.00000000000E+00 -0.00000000000E+00 -0.45593999997E+02  0.45594000000E+02  0.51100000000E-03 0. -1.
    9900012    2    1    2    0    0 -0.44913173378E+01 -0.36911902870E+02 -0.16447047558E+02  0.50528857384E+02  0.29999992504E+02 0.  0.
        -12    1    1    2    0    0  0.44913173378E+01  0.36911902870E+02  0.16447047558E+02  0.40659142616E+02  0.00000000000E+00 0.  1.
         11    1    3    3    0    0 -0.99331833830E+01 -0.22548480939E+02 -0.20632469383E+02  0.32137220133E+02  0.51100000000E-03 0. -1.
        -11    1    3    3    0    0 -0.18237798191E+01 -0.75657915877E+01  0.56243070696E+00  0.78028010188E+01  0.51100000000E-03 0.  1.
        -12    1    3    3    0    0  0.72656458642E+01 -0.67976303433E+01  0.36229911179E+01  0.10588836232E+02  0.00000000000E+00 0.  1.
</event>
<event>
 7    1  0.2985411E-011  0.5052886E+02  0.7816164E-02  0.1300439E+00
        -11   -1    0    0    0    0  0.00000000000E+00  0.00000000000E+00  0.45593999997E+02  0.45594000000E+02  0.51100000000E-03 0.  1.
         11   -1    0    0    0    0 -0.00000000000E+00 -0.00000000000E+00 -0.45593999997E+02  0.45594000000E+02  0.51100000000E-03 0. -1.
    9900012    2    1    2    0    0 -0.30638256147E+02  0.22554316616E+02 -0.14344533987E+02  0.50528860892E+02  0.30000003166E+02 0.  0.
        -12    1    1    2    0    0  0.30638256147E+02 -0.22554316616E+02  0.14344533987E+02  0.40659139108E+02  0.00000000000E+00 0.  1.
         11    1    3    3    0    0 -0.10347631888E+02  0.39453495246E+01  0.50482454985E+01  0.12170622476E+02  0.51100000000E-03 0. -1.
        -11    1    3    3    0    0 -0.64656016880E+00  0.39931948120E+01  0.31106714730E+01  0.51029326992E+01  0.51100000000E-03 0.  1.
         12    1    3    3    0    0 -0.19644064090E+02  0.14615772279E+02 -0.22503450958E+02  0.33255305717E+02  0.00000000000E+00 0. -1.
</event>
<event>
 7    1  0.2985411E-011  0.5052886E+02  0.7816164E-02  0.1300439E+00
        -11   -1    0    0    0    0  0.00000000000E+00  0.00000000000E+00  0.45593999997E+02  0.45594000000E+02  0.51100000000E-03 0. -1.
         11   -1    0    0    0    0 -0.00000000000E+00 -0.00000000000E+00 -0.45593999997E+02  0.45594000000E+02  0.51100000000E-03 0.  1.
    9900012    2    1    2    0    0  0.11835786698E+02 -0.38813210857E+02  0.25719416554E+01  0.50528855055E+02  0.29999985426E+02 0.  0.
        -12    1    1    2    0    0 -0.11835786698E+02  0.38813210857E+02 -0.25719416554E+01  0.40659144945E+02  0.00000000000E+00 0.  1.
         11    1    3    3    0    0  0.45446454327E+01  0.14765120539E+01  0.29723850230E+01  0.56275183643E+01  0.51100000000E-03 0. -1.
        -11    1    3    3    0    0  0.97091427002E+01 -0.32288350427E+02 -0.67734770583E+01  0.34390187801E+02  0.51100000000E-03 0.  1.
         12    1    3    3    0    0 -0.24180014353E+01 -0.80013724832E+01  0.63730336907E+01  0.10511148890E+02  0.00000000000E+00 0. -1.
</event>
<event>
 7    1  0.2985411E-011  0.5052886E+02  0.7816164E-02  0.1300439E+00
        -11   -1    0    0    0    0  0.00000000000E+00  0.00000000000E+00  0.45593999997E+02  0.45594000000E+02  0.51100000000E-03 0.  1.
         11   -1    0    0    0    0 -0.00000000000E+00 -0.00000000000E+00 -0.45593999997E+02  0.45594000000E+02  0.51100000000E-03 0. -1.
    9900012    2    1    2    0    0  0.96211988415E+01  0.10368883934E-01 -0.39504409726E+02  0.50528856349E+02  0.29999989358E+02 0.  0.
        -12    1    1    2    0    0 -0.96211988415E+01 -0.10368883934E-01  0.39504409726E+02  0.40659143651E+02  0.00000000000E+00 0.  1.
         11    1    3    3    0    0  0.79553189670E+01 -0.16738287797E+01 -0.16460011559E+02  0.18358125815E+02  0.51100000000E-03 0. -1.
        -11    1    3    3    0    0  0.22408775004E+01  0.46095442146E+01 -0.26850890104E+02  0.27335686007E+02  0.51100000000E-03 0.  1.
         12    1    3    3    0    0 -0.57499762586E+00 -0.29253465510E+01  0.38064919372E+01  0.48350445273E+01  0.00000000000E+00 0. -1.
</event>
<event>
 7    1  0.2985411E-011  0.5052886E+02  0.7816164E-02  0.1300439E+00
        -11   -1    0    0    0    0  0.00000000000E+00  0.00000000000E+00  0.45593999997E+02  0.45594000000E+02  0.51100000000E-03 0. -1.
         11   -1    0    0    0    0 -0.00000000000E+00 -0.00000000000E+00 -0.45593999997E+02  0.45594000000E+02  0.51100000000E-03 0.  1.
    9900012    2    1    2    0    0 -0.26004545676E+01 -0.28629872832E+02  0.28752976298E+02  0.50528860458E+02  0.30000001847E+02 0.  0.
        -12    1    1    2    0    0  0.26004545676E+01  0.28629872832E+02 -0.28752976298E+02  0.40659139542E+02  0.00000000000E+00 0.  1.
         11    1    3    3    0    0  0.43079869565E+01 -0.24306095081E+02  0.13615421309E+02  0.28190862126E+02  0.51100000000E-03 0. -1.
        -11    1    3    3    0    0 -0.95437412958E+00 -0.87584732232E+01  0.98983369311E+01  0.13251368135E+02  0.51100000000E-03 0.  1.
        -12    1    3    3    0    0 -0.59540673945E+01  0.44346954730E+01  0.52392180578E+01  0.90866301968E+01  0.00000000000E+00 0.  1.
</event>
<event>
 7    1  0.2985411E-011  0.5052883E+02  0.7816164E-02  0.1300439E+00
        -11   -1    0    0    0    0  0.00000000000E+00  0.00000000000E+00  0.45593999997E+02  0.45594000000E+02  0.51100000000E-03 0. -1.
         11   -1    0    0    0    0 -0.00000000000E+00 -0.00000000000E+00 -0.45593999997E+02  0.45594000000E+02  0.51100000000E-03 0.  1.
    9900012    2    1    2    0    0  0.19342755358E+02 -0.18140558835E+02  0.30821191537E+02  0.50528832431E+02  0.29999916656E+02 0.  0.
        -12    1    1    2    0    0 -0.19342755358E+02  0.18140558835E+02 -0.30821191537E+02  0.40659167569E+02  0.00000000000E+00 0.  1.
         11    1    3    3    0    0  0.99586159781E+00 -0.83176125825E+01  0.21965651476E+02  0.23508812484E+02  0.51100000000E-03 0. -1.
        -11    1    3    3    0    0  0.22279879206E+01  0.31306463974E+01 -0.12005344406E+01  0.40256875492E+01  0.51100000000E-03 0.  1.
        -12    1    3    3    0    0  0.16118905840E+02 -0.12953592650E+02  0.10056074501E+02  0.22994332397E+02  0.00000000000E+00 0.  1.
</event>
<event>
 7    1  0.2985411E-011  0.5052885E+02  0.7816164E-02  0.1300439E+00
        -11   -1    0    0    0    0  0.00000000000E+00  0.00000000000E+00  0.45593999997E+02  0.45594000000E+02  0.51100000000E-03 0.  1.
         11   -1    0    0    0    0 -0.00000000000E+00 -0.00000000000E+00 -0.45593999997E+02  0.45594000000E+02  0.51100000000E-03 0. -1.
    9900012    2    1    2    0    0 -0.75361414629E+01 -0.18200466201E+02 -0.35568473393E+02  0.50528847308E+02  0.29999961878E+02 0.  0.
        -12    1    1    2    0    0  0.75361414629E+01  0.18200466201E+02  0.35568473393E+02  0.40659152692E+02  0.00000000000E+00 0.  1.
         11    1    3    3    0    0  0.55499563114E+01 -0.10641067074E+02 -0.13597352461E+02  0.18136215640E+02  0.51100000000E-03 0. -1.
        -11    1    3    3    0    0 -0.11847584815E+02 -0.88069550047E+01 -0.53854083989E+01  0.15714017510E+02  0.51100000000E-03 0.  1.
         12    1    3    3    0    0 -0.12385129589E+01  0.12475558769E+01 -0.16585712533E+02  0.16678614159E+02  0.00000000000E+00 0. -1.
</event>
<event>
 7    1  0.2985411E-011  0.5052886E+02  0.7816164E-02  0.1300439E+00
        -11   -1    0    0    0    0  0.00000000000E+00  0.00000000000E+00  0.45593999997E+02  0.45594000000E+02  0.51100000000E-03 0.  1.
         11   -1    0    0    0    0 -0.00000000000E+00 -0.00000000000E+00 -0.45593999997E+02  0.45594000000E+02  0.51100000000E-03 0. -1.
    9900012    2    1    2    0    0 -0.21265328460E+02  0.18320572439E+02 -0.29416113972E+02  0.50528864123E+02  0.30000012989E+02 0.  0.
        -12    1    1    2    0    0  0.21265328460E+02 -0.18320572439E+02  0.29416113972E+02  0.40659135877E+02  0.00000000000E+00 0.  1.
         11    1    3    3    0    0 -0.11956118457E+02  0.10801212367E+02 -0.24921757354E+02  0.29676740843E+02  0.51100000000E-03 0. -1.
        -11    1    3    3    0    0 -0.81542654945E+01  0.10002080328E+02 -0.88920003850E+01  0.15671672781E+02  0.51100000000E-03 0.  1.
        -12    1    3    3    0    0 -0.11549445085E+01 -0.24827202549E+01  0.43976437670E+01  0.51804505000E+01  0.00000000000E+00 0.  1.
</event>
<event>
 7    1  0.2985411E-011  0.5052886E+02  0.7816164E-02  0.1300439E+00
        -11   -1    0    0    0    0  0.00000000000E+00  0.00000000000E+00  0.45593999997E+02  0.45594000000E+02  0.51100000000E-03 0.  1.
         11   -1    0    0    0    0 -0.00000000000E+00 -0.00000000000E+00 -0.45593999997E+02  0.45594000000E+02  0.51100000000E-03 0. -1.
    9900012    2    1    2    0    0 -0.52685034927E+00  0.12596778924E+02 -0.38655003039E+02  0.50528859939E+02  0.30000000270E+02 0.  0.
        -12    1    1    2    0    0  0.52685034927E+00 -0.12596778924E+02  0.38655003039E+02  0.40659140061E+02  0.00000000000E+00 0.  1.
         11    1    3    3    0    0 -0.73805027859E+01  0.10268470602E+01 -0.15751606597E+02  0.17425250268E+02  0.51100000000E-03 0. -1.
        -11    1    3    3    0    0 -0.58631004240E+01  0.57025101935E+01 -0.28856357046E+01  0.86730307719E+01  0.51100000000E-03 0.  1.
        -12    1    3    3    0    0  0.12716752861E+02  0.58674216699E+01 -0.20017760738E+02  0.24430578899E+02  0.00000000000E+00 0.  1.
</event>
<event>
 7    1  0.2985411E-011  0.5052878E+02  0.7816164E-02  0.1300439E+00
        -11   -1    0    0    0    0  0.00000000000E+00  0.00000000000E+00  0.45593999997E+02  0.45594000000E+02  0.51100000000E-03 0. -1.
         11   -1    0    0    0    0 -0.00000000000E+00 -0.00000000000E+00 -0.45593999997E+02  0.45594000000E+02  0.51100000000E-03 0.  1.
    9900012    2    1    2    0    0  0.38389419569E+02 -0.12234688904E+02  0.54531795874E+01  0.50528778229E+02  0.29999751904E+02 0.  0.
        -12    1    1    2    0    0 -0.38389419569E+02  0.12234688904E+02 -0.54531795874E+01  0.40659221771E+02  0.00000000000E+00 0.  1.
         11    1    3    3    0    0  0.11428328502E+01 -0.31942995891E+01 -0.27737568663E+01  0.43821620467E+01  0.51100000000E-03 0. -1.
        -11    1    3    3    0    0  0.10824974121E+01 -0.61399036853E+01 -0.45108021258E+01  0.76952942758E+01  0.51100000000E-03 0.  1.
         12    1    3    3    0    0  0.36164089306E+02 -0.29004856296E+01  0.12737738579E+02  0.38451321907E+02  0.00000000000E+00 0. -1.
</event>
<event>
 7    1  0.2985411E-011  0.5052885E+02  0.7816164E-02  0.1300439E+00
        -11   -1    0    0    0    0  0.00000000000E+00  0.00000000000E+00  0.45593999997E+02  0.45594000000E+02  0.51100000000E-03 0.  1.
         11   -1    0    0    0    0 -0.00000000000E+00 -0.00000000000E+00 -0.45593999997E+02  0.45594000000E+02  0.51100000000E-03 0. -1.
    9900012    2    1    2    0    0  0.28697310063E+02  0.34767161281E+01 -0.28592712075E+02  0.50528851661E+02  0.29999975107E+02 0.  0.
        -12    1    1    2    0    0 -0.28697310063E+02 -0.34767161281E+01  0.28592712075E+02  0.40659148339E+02  0.00000000000E+00 0.  1.
         11    1    3    3    0    0  0.12070110161E+02  0.27362659681E+01 -0.26402005725E+02  0.29158885735E+02  0.51100000000E-03 0. -1.
        -11    1    3    3    0    0 -0.18030508314E+01  0.13203750269E+01  0.13255019252E+01  0.25983337213E+01  0.51100000000E-03 0.  1.
         12    1    3    3    0    0  0.18430250734E+02 -0.57992486684E+00 -0.35162082745E+01  0.18771632204E+02  0.00000000000E+00 0. -1.
</event>
<event>
 7    1  0.2985411E-011  0.5052883E+02  0.7816164E-02  0.1300439E+00
        -11   -1    0    0    0    0  0.00000000000E+00  0.00000000000E+00  0.45593999997E+02  0.45594000000E+02  0.51100000000E-03 0. -1.
         11   -1    0    0    0    0 -0.00000000000E+00 -0.00000000000E+00 -0.45593999997E+02  0.45594000000E+02  0.51100000000E-03 0.  1.
    9900012    2    1    2    0    0  0.16212232802E+02 -0.22359999513E+02  0.29838939740E+02  0.50528826429E+02  0.29999898414E+02 0.  0.
        -12    1    1    2    0    0 -0.16212232802E+02  0.22359999513E+02 -0.29838939740E+02  0.40659173571E+02  0.00000000000E+00 0.  1.
         11    1    3    3    0    0  0.15303207924E+02 -0.17469511333E+02  0.14343841671E+02  0.27296845846E+02  0.51100000000E-03 0. -1.
        -11    1    3    3    0    0  0.63322166426E+01  0.29057101406E+01  0.10218536440E+02  0.12367643521E+02  0.51100000000E-03 0.  1.
        -12    1    3    3    0    0 -0.54231917651E+01 -0.77961983211E+01  0.52765616288E+01  0.10864337062E+02  0.00000000000E+00 0.  1.
</event>
<event>
 7    1  0.2985411E-011  0.5052884E+02  0.7816164E-02  0.1300439E+00
        -11   -1    0    0    0    0  0.00000000000E+00  0.00000000000E+00  0.45593999997E+02  0.45594000000E+02  0.51100000000E-03 0.  1.
         11   -1    0    0    0    0 -0.00000000000E+00 -0.00000000000E+00 -0.45593999997E+02  0.45594000000E+02  0.51100000000E-03 0. -1.
    9900012    2    1    2    0    0  0.28056307947E+02  0.18847296033E+02 -0.22600666721E+02  0.50528842119E+02  0.29999946104E+02 0.  0.
        -12    1    1    2    0    0 -0.28056307947E+02 -0.18847296033E+02  0.22600666721E+02  0.40659157881E+02  0.00000000000E+00 0.  1.
         11    1    3    3    0    0 -0.28096705585E+01  0.22994861167E+01 -0.25522527354E+00  0.36396463083E+01  0.51100000000E-03 0. -1.
        -11    1    3    3    0    0  0.10544515334E+01  0.10400593114E+02 -0.32113190242E+01  0.10936031058E+02  0.51100000000E-03 0.  1.
         12    1    3    3    0    0  0.29811526972E+02  0.61472168021E+01 -0.19134122423E+02  0.35953164753E+02  0.00000000000E+00 0. -1.
</event>
<event>
 7    1  0.2985411E-011  0.5052889E+02  0.7816164E-02  0.1300439E+00
        -11   -1    0    0    0    0  0.00000000000E+00  0.00000000000E+00  0.45593999997E+02  0.45594000000E+02  0.51100000000E-03 0. -1.
         11   -1    0    0    0    0 -0.00000000000E+00 -0.00000000000E+00 -0.45593999997E+02  0.45594000000E+02  0.51100000000E-03 0.  1.
    9900012    2    1    2    0    0  0.16979930348E+02 -0.36930356913E+02  0.99708972398E+00  0.50528886824E+02  0.30000081989E+02 0.  0.
        -12    1    1    2    0    0 -0.16979930348E+02  0.36930356913E+02 -0.99708972398E+00  0.40659113176E+02  0.00000000000E+00 0.  1.
         11    1    3    3    0    0 -0.46696765608E+01 -0.80127476273E-01 -0.25804903055E+00  0.46774874835E+01  0.51100000000E-03 0. -1.
        -11    1    3    3    0    0 -0.17836685006E+01 -0.98824044519E+01 -0.73950284447E+00  0.10069272853E+02  0.51100000000E-03 0.  1.
         12    1    3    3    0    0  0.23433275409E+02 -0.26967824985E+02  0.19946415990E+01  0.35782126487E+02  0.00000000000E+00 0. -1.
</event>
<event>
 7    1  0.2985411E-011  0.5052880E+02  0.7816164E-02  0.1300439E+00
        -11   -1    0    0    0    0  0.00000000000E+00  0.00000000000E+00  0.45593999997E+02  0.45594000000E+02  0.51100000000E-03 0.  1.
         11   -1    0    0    0    0 -0.00000000000E+00 -0.00000000000E+00 -0.45593999997E+02  0.45594000000E+02  0.51100000000E-03 0. -1.
    9900012    2    1    2    0    0  0.22763430419E+02 -0.11558612454E+02 -0.31644823695E+02  0.50528804816E+02  0.29999832719E+02 0.  0.
        -12    1    1    2    0    0 -0.22763430419E+02  0.11558612454E+02  0.31644823695E+02  0.40659195184E+02  0.00000000000E+00 0.  1.
         11    1    3    3    0    0  0.25376351462E+01  0.24145034510E+01 -0.12020853402E+02  0.12520796133E+02  0.51100000000E-03 0. -1.
        -11    1    3    3    0    0  0.54515987371E+01  0.55503188299E+01 -0.26608457391E+01  0.82222909346E+01  0.51100000000E-03 0.  1.
         12    1    3    3    0    0  0.14774196536E+02 -0.19523434735E+02 -0.16963124554E+02  0.29785717748E+02  0.00000000000E+00 0. -1.
</event>
<event>
 7    1  0.2985411E-011  0.5052885E+02  0.7816164E-02  0.1300439E+00
        -11   -1    0    0    0    0  0.00000000000E+00  0.00000000000E+00  0.45593999997E+02  0.45594000000E+02  0.51100000000E-03 0.  1.
         11   -1    0    0    0    0 -0.00000000000E+00 -0.00000000000E+00 -0.45593999997E+02  0.45594000000E+02  0.51100000000E-03 0. -1.
    9900012    2    1    2    0    0  0.32314174680E+02 -0.58011071336E+00 -0.24670302491E+02  0.50528852952E+02  0.29999979034E+02 0.  0.
        -12    1    1    2    0    0 -0.32314174680E+02  0.58011071336E+00  0.24670302491E+02  0.40659147048E+02  0.00000000000E+00 0.  1.
         11    1    3    3    0    0 -0.91764676409E+00 -0.70419874273E+00 -0.38185617421E+01  0.39899104617E+01  0.51100000000E-03 0. -1.
        -11    1    3    3    0    0  0.54006651814E+01  0.25657661094E+01 -0.17387617776E+02  0.18386940809E+02  0.51100000000E-03 0.  1.
         12    1    3    3    0    0  0.27831156262E+02 -0.24416780800E+01 -0.34641229730E+01  0.28152001682E+02  0.00000000000E+00 0. -1.
</event>
<event>
 7    1  0.2985411E-011  0.5052882E+02  0.7816164E-02  0.1300439E+00
        -11   -1    0    0    0    0  0.00000000000E+00  0.00000000000E+00  0.45593999997E+02  0.45594000000E+02  0.51100000000E-03 0.  1.
         11   -1    0    0    0    0 -0.00000000000E+00 -0.00000000000E+00 -0.45593999997E+02  0.45594000000E+02  0.51100000000E-03 0. -1.
    9900012    2    1    2    0    0 -0.31151143885E+02  0.20030501001E+02  0.16779567570E+02  0.50528823625E+02  0.29999889889E+02 0.  0.
        -12    1    1    2    0    0  0.31151143885E+02 -0.20030501001E+02 -0.16779567570E+02  0.40659176375E+02  0.00000000000E+00 0.  1.
         11    1    3    3    0    0 -0.10245190513E+02  0.70575524694E+01  0.15065254337E+01  0.12531663682E+02  0.51100000000E-03 0. -1.
        -11    1    3    3    0    0 -0.10809796110E+02  0.13594538194E+02 -0.24997742229E+01  0.17547422376E+02  0.51100000000E-03 0.  1.
         12    1    3    3    0    0 -0.10096157262E+02 -0.62158966225E+00  0.17772816359E+02  0.20449737566E+02  0.00000000000E+00 0. -1.
</event>
<event>
 7    1  0.2985411E-011  0.5052886E+02  0.7816164E-02  0.1300439E+00
        -11   -1    0    0    0    0  0.00000000000E+00  0.00000000000E+00  0.45593999997E+02  0.45594000000E+02  0.51100000000E-03 0.  1.
         11   -1    0    0    0    0 -0.00000000000E+00 -0.00000000000E+00 -0.45593999997E+02  0.45594000000E+02  0.51100000000E-03 0. -1.
    9900012    2    1    2    0    0 -0.23290776146E+02 -0.20896197567E+02 -0.25962549262E+02  0.50528864613E+02  0.30000014478E+02 0.  0.
        -12    1    1    2    0    0  0.23290776146E+02  0.20896197567E+02  0.25962549262E+02  0.40659135387E+02  0.00000000000E+00 0.  1.
         11    1    3    3    0    0 -0.10835071471E+01 -0.93032998275E+01 -0.97920813905E+01  0.13550285371E+02  0.51100000000E-03 0. -1.
        -11    1    3    3    0    0  0.38351914944E+01 -0.51615966132E+01 -0.30690628277E+01  0.71253014181E+01  0.51100000000E-03 0.  1.
         12    1    3    3    0    0 -0.26042460493E+02 -0.64313011263E+01 -0.13101405044E+02  0.29853277824E+02  0.00000000000E+00 0. -1.
</event>
<event>
 7    1  0.2985411E-011  0.5052886E+02  0.7816164E-02  0.1300439E+00
        -11   -1    0    0    0    0  0.00000000000E+00  0.00000000000E+00  0.45593999997E+02  0.45594000000E+02  0.51100000000E-03 0.  1.
         11   -1    0    0    0    0 -0.00000000000E+00 -0.00000000000E+00 -0.45593999997E+02  0.45594000000E+02  0.51100000000E-03 0. -1.
    9900012    2    1    2    0    0  0.31342018379E+02 -0.12298342171E+02 -0.22794604594E+02  0.50528864067E+02  0.30000012819E+02 0.  0.
        -12    1    1    2    0    0 -0.31342018379E+02  0.12298342171E+02  0.22794604594E+02  0.40659135933E+02  0.00000000000E+00 0.  1.
         11    1    3    3    0    0  0.60507767595E+01 -0.81092210784E+01 -0.44955383992E+01  0.11071640874E+02  0.51100000000E-03 0. -1.
        -11    1    3    3    0    0  0.14401820633E+02 -0.13839700583E+02 -0.74924368425E+01  0.21332753218E+02  0.51100000000E-03 0.  1.
        -12    1    3    3    0    0  0.10889420986E+02  0.96505794904E+01 -0.10806629352E+02  0.18124469975E+02  0.00000000000E+00 0.  1.
</event>
<event>
 7    1  0.2985411E-011  0.5052887E+02  0.7816164E-02  0.1300439E+00
        -11   -1    0    0    0    0  0.00000000000E+00  0.00000000000E+00  0.45593999997E+02  0.45594000000E+02  0.51100000000E-03 0. -1.
         11   -1    0    0    0    0 -0.00000000000E+00 -0.00000000000E+00 -0.45593999997E+02  0.45594000000E+02  0.51100000000E-03 0.  1.
    9900012    2    1    2    0    0 -0.25878669559E+02 -0.29379621930E+02 -0.10968022916E+02  0.50528865115E+02  0.30000016004E+02 0.  0.
        -12    1    1    2    0    0  0.25878669559E+02  0.29379621930E+02  0.10968022916E+02  0.40659134885E+02  0.00000000000E+00 0.  1.
         11    1    3    3    0    0 -0.18557964181E+02 -0.77853272268E+01  0.35103253955E+01  0.20428698912E+02  0.51100000000E-03 0. -1.
        -11    1    3    3    0    0 -0.45785995506E+00 -0.90750564442E+01  0.88219400494E+00  0.91293237278E+01  0.51100000000E-03 0.  1.
         12    1    3    3    0    0 -0.68628454224E+01 -0.12519238259E+02 -0.15360542316E+02  0.20970842476E+02  0.00000000000E+00 0. -1.
</event>
<event>
 7    1  0.2985411E-011  0.5052886E+02  0.7816164E-02  0.1300439E+00
        -11   -1    0    0    0    0  0.00000000000E+00  0.00000000000E+00  0.45593999997E+02  0.45594000000E+02  0.51100000000E-03 0.  1.
         11   -1    0    0    0    0 -0.00000000000E+00 -0.00000000000E+00 -0.45593999997E+02  0.45594000000E+02  0.51100000000E-03 0. -1.
    9900012    2    1    2    0    0 -0.35765555008E+02  0.15436907361E+02 -0.11648718724E+02  0.50528859800E+02  0.29999999847E+02 0.  0.
        -12    1    1    2    0    0  0.35765555008E+02 -0.15436907361E+02  0.11648718724E+02  0.40659140200E+02  0.00000000000E+00 0.  1.
         11    1    3    3    0    0 -0.15264384760E+02 -0.59089562270E+01 -0.25259442242E-01  0.16368196116E+02  0.51100000000E-03 0. -1.
        -11    1    3    3    0    0 -0.22043709287E+01 -0.70957463942E+00  0.13754397625E+01  0.26934331552E+01  0.51100000000E-03 0.  1.
         12    1    3    3    0    0 -0.18296799319E+02  0.22055438228E+02 -0.12998899044E+02  0.31467230528E+02  0.00000000000E+00 0. -1.
</event>
<event>
 7    1  0.2985411E-011  0.5052887E+02  0.7816164E-02  0.1300439E+00
        -11   -1    0    0    0    0  0.00000000000E+00  0.00000000000E+00  0.45593999997E+02  0.45594000000E+02  0.51100000000E-03 0.  1.
         11   -1    0    0    0    0 -0.00000000000E+00 -0.00000000000E+00 -0.45593999997E+02  0.45594000000E+02  0.51100000000E-03 0. -1.
    9900012    2    1    2    0    0  0.57878827177E+01  0.30277039782E+02 -0.26513515923E+02  0.50528865099E+02  0.30000015954E+02 0.  0.
        -12    1    1    2    0    0 -0.57878827177E+01 -0.30277039782E+02  0.26513515923E+02  0.40659134901E+02  0.00000000000E+00 0.  1.
         11    1    3    3    0    0  0.66265578005E+01  0.25729624756E+02 -0.13363035239E+02  0.29740470229E+02  0.51100000000E-03 0.  1.
        -11    1    3    3    0    0  0.14994411821E+01  0.63467220070E+01  0.76265970943E+00  0.65658856361E+01  0.51100000000E-03 0. -1.
         12    1    3    3    0    0 -0.23381162649E+01 -0.17993069816E+01 -0.13913140394E+02  0.14222509234E+02  0.00000000000E+00 0. -1.
</event>
<event>
 7    1  0.2985411E-011  0.5052884E+02  0.7816164E-02  0.1300439E+00
        -11   -1    0    0    0    0  0.00000000000E+00  0.00000000000E+00  0.45593999997E+02  0.45594000000E+02  0.51100000000E-03 0.  1.
         11   -1    0    0    0    0 -0.00000000000E+00 -0.00000000000E+00 -0.45593999997E+02  0.45594000000E+02  0.51100000000E-03 0. -1.
    9900012    2    1    2    0    0 -0.17392345810E+02  0.29459853299E+02 -0.21972498594E+02  0.50528839364E+02  0.29999937730E+02 0.  0.
        -12    1    1    2    0    0  0.17392345810E+02 -0.29459853299E+02  0.21972498594E+02  0.40659160636E+02  0.00000000000E+00 0.  1.
         11    1    3    3    0    0 -0.73130766732E+01  0.12742101341E+01 -0.93557387319E+01  0.11942970710E+02  0.51100000000E-03 0. -1.
        -11    1    3    3    0    0 -0.15273186186E+01 -0.33297834020E+01 -0.23604095156E+01  0.43579459622E+01  0.51100000000E-03 0.  1.
         12    1    3    3    0    0 -0.85519505179E+01  0.31515426567E+02 -0.10256350347E+02  0.34227922692E+02  0.00000000000E+00 0. -1.
</event>
<event>
 7    1  0.2985411E-011  0.5052889E+02  0.7816164E-02  0.1300439E+00
        -11   -1    0    0    0    0  0.00000000000E+00  0.00000000000E+00  0.45593999997E+02  0.45594000000E+02  0.51100000000E-03 0.  1.
         11   -1    0    0    0    0 -0.00000000000E+00 -0.00000000000E+00 -0.45593999997E+02  0.45594000000E+02  0.51100000000E-03 0. -1.
    9900012    2    1    2    0    0 -0.12462184983E+02 -0.20440211562E+02 -0.32864192059E+02  0.50528887578E+02  0.30000084282E+02 0.  0.
        -12    1    1    2    0    0  0.12462184983E+02  0.20440211562E+02  0.32864192059E+02  0.40659112422E+02  0.00000000000E+00 0.  1.
         11    1    3    3    0    0  0.14079253814E+01 -0.88420976144E+01 -0.65371433544E+01  0.11085990601E+02  0.51100000000E-03 0. -1.
        -11    1    3    3    0    0 -0.16686860707E+02 -0.14959335381E+02 -0.14158945874E+02  0.26508654885E+02  0.51100000000E-03 0.  1.
        -12    1    3    3    0    0  0.28167503425E+01  0.33612214327E+01 -0.12168102830E+02  0.12934242092E+02  0.00000000000E+00 0.  1.
</event>
<event>
 7    1  0.2985411E-011  0.5052884E+02  0.7816164E-02  0.1300439E+00
        -11   -1    0    0    0    0  0.00000000000E+00  0.00000000000E+00  0.45593999997E+02  0.45594000000E+02  0.51100000000E-03 0.  1.
         11   -1    0    0    0    0 -0.00000000000E+00 -0.00000000000E+00 -0.45593999997E+02  0.45594000000E+02  0.51100000000E-03 0. -1.
    9900012    2    1    2    0    0 -0.75719885404E+01  0.15701965757E+02 -0.36732553001E+02  0.50528841265E+02  0.29999943509E+02 0.  0.
        -12    1    1    2    0    0  0.75719885404E+01 -0.15701965757E+02  0.36732553001E+02  0.40659158735E+02  0.00000000000E+00 0.  1.
         11    1    3    3    0    0 -0.95257875700E+01  0.81982429749E+01 -0.19009509095E+02  0.22788445603E+02  0.51100000000E-03 0. -1.
        -11    1    3    3    0    0 -0.63131474285E+01  0.10434207337E+02 -0.77059208494E+01  0.14426008790E+02  0.51100000000E-03 0.  1.
         12    1    3    3    0    0  0.82669464581E+01 -0.29304845542E+01 -0.10017123056E+02  0.13314386872E+02  0.00000000000E+00 0. -1.
</event>
<event>
 7    1  0.2985411E-011  0.5052884E+02  0.7816164E-02  0.1300439E+00
        -11   -1    0    0    0    0  0.00000000000E+00  0.00000000000E+00  0.45593999997E+02  0.45594000000E+02  0.51100000000E-03 0.  1.
         11   -1    0    0    0    0 -0.00000000000E+00 -0.00000000000E+00 -0.45593999997E+02  0.45594000000E+02  0.51100000000E-03 0. -1.
    9900012    2    1    2    0    0  0.98296283647E+00 -0.35460365254E+02 -0.19868668140E+02  0.50528835061E+02  0.29999924651E+02 0.  0.
        -12    1    1    2    0    0 -0.98296283647E+00  0.35460365254E+02  0.19868668140E+02  0.40659164939E+02  0.00000000000E+00 0.  1.
         11    1    3    3    0    0  0.75488044090E+01 -0.26138469426E+02 -0.32234697635E+01  0.27396985044E+02  0.51100000000E-03 0. -1.
        -11    1    3    3    0    0 -0.28086182951E+01 -0.57217886905E+01 -0.76362960589E+00  0.64195274735E+01  0.51100000000E-03 0.  1.
        -12    1    3    3    0    0 -0.37572232775E+01 -0.36001071375E+01 -0.15881568771E+02  0.16712322543E+02  0.00000000000E+00 0.  1.
</event>
<event>
 7    1  0.2985411E-011  0.5052879E+02  0.7816164E-02  0.1300439E+00
        -11   -1    0    0    0    0  0.00000000000E+00  0.00000000000E+00  0.45593999997E+02  0.45594000000E+02  0.51100000000E-03 0. -1.
         11   -1    0    0    0    0 -0.00000000000E+00 -0.00000000000E+00 -0.45593999997E+02  0.45594000000E+02  0.51100000000E-03 0.  1.
    9900012    2    1    2    0    0 -0.69457037996E+01 -0.38502233173E+02  0.11068271707E+02  0.50528789491E+02  0.29999786137E+02 0.  0.
        -12    1    1    2    0    0  0.69457037996E+01  0.38502233173E+02 -0.11068271707E+02  0.40659210509E+02  0.00000000000E+00 0.  1.
         11    1    3    3    0    0  0.51872697908E+00  0.53685296923E+00 -0.91979899737E+00  0.11846177637E+01  0.51100000000E-03 0. -1.
        -11    1    3    3    0    0  0.28903896374E+01 -0.17964693988E+01 -0.58528304381E+01  0.67703234011E+01  0.51100000000E-03 0.  1.
         12    1    3    3    0    0 -0.10354820416E+02 -0.37242616744E+02  0.17840901143E+02  0.42573848327E+02  0.00000000000E+00 0. -1.
</event>
<event>
 7    1  0.2985411E-011  0.5052884E+02  0.7816164E-02  0.1300439E+00
        -11   -1    0    0    0    0  0.00000000000E+00  0.00000000000E+00  0.45593999997E+02  0.45594000000E+02  0.51100000000E-03 0. -1.
         11   -1    0    0    0    0 -0.00000000000E+00 -0.00000000000E+00 -0.45593999997E+02  0.45594000000E+02  0.51100000000E-03 0.  1.
    9900012    2    1    2    0    0 -0.13496535803E+01 -0.12668899238E+02  0.38611456392E+02  0.50528841900E+02  0.29999945438E+02 0.  0.
        -12    1    1    2    0    0  0.13496535803E+01  0.12668899238E+02 -0.38611456392E+02  0.40659158100E+02  0.00000000000E+00 0.  1.
         11    1    3    3    0    0 -0.11009736761E+01 -0.13600478906E+02  0.15167304929E+02  0.20401772191E+02  0.51100000000E-03 0. -1.
        -11    1    3    3    0    0 -0.61249341944E+01 -0.64483739178E+01  0.15141022613E+02  0.17559809541E+02  0.51100000000E-03 0.  1.
        -12    1    3    3    0    0  0.58762542902E+01  0.73799535857E+01  0.83031288504E+01  0.12567260167E+02  0.00000000000E+00 0.  1.
</event>
<event>
 7    1  0.2985411E-011  0.5052886E+02  0.7816164E-02  0.1300439E+00
        -11   -1    0    0    0    0  0.00000000000E+00  0.00000000000E+00  0.45593999997E+02  0.45594000000E+02  0.51100000000E-03 0. -1.
         11   -1    0    0    0    0 -0.00000000000E+00 -0.00000000000E+00 -0.45593999997E+02  0.45594000000E+02  0.51100000000E-03 0.  1.
    9900012    2    1    2    0    0 -0.30874464906E+02 -0.63857669553E+01  0.25674013289E+02  0.50528861283E+02  0.30000004356E+02 0.  0.
        -12    1    1    2    0    0  0.30874464906E+02  0.63857669553E+01 -0.25674013289E+02  0.40659138717E+02  0.00000000000E+00 0.  1.
         11    1    3    3    0    0 -0.13126852376E+02  0.13925721339E+01  0.13243323258E+02  0.18698639566E+02  0.51100000000E-03 0. -1.
        -11    1    3    3    0    0  0.74717031815E+00 -0.54397885091E+01  0.11984904076E+02  0.13182848269E+02  0.51100000000E-03 0.  1.
         12    1    3    3    0    0 -0.18494782848E+02 -0.23385505801E+01  0.44578595586E+00  0.18647373448E+02  0.00000000000E+00 0. -1.
</event>
<event>
 7    1  0.2985411E-011  0.5052884E+02  0.7816164E-02  0.1300439E+00
        -11   -1    0    0    0    0  0.00000000000E+00  0.00000000000E+00  0.45593999997E+02  0.45594000000E+02  0.51100000000E-03 0.  1.
         11   -1    0    0    0    0 -0.00000000000E+00 -0.00000000000E+00 -0.45593999997E+02  0.45594000000E+02  0.51100000000E-03 0. -1.
    9900012    2    1    2    0    0  0.32990367809E+02 -0.13674652789E+02 -0.19437263217E+02  0.50528835001E+02  0.29999924470E+02 0.  0.
        -12    1    1    2    0    0 -0.32990367809E+02  0.13674652789E+02  0.19437263217E+02  0.40659164999E+02  0.00000000000E+00 0.  1.
         11    1    3    3    0    0  0.72906960451E+01 -0.39313179566E+01  0.45212305326E+01  0.94366856199E+01  0.51100000000E-03 0. -1.
        -11    1    3    3    0    0  0.12316748086E+02  0.24930065893E+00 -0.54413764460E+00  0.12331282183E+02  0.51100000000E-03 0.  1.
         12    1    3    3    0    0  0.13382923677E+02 -0.99926354910E+01 -0.23414356105E+02  0.28760867199E+02  0.00000000000E+00 0. -1.
</event>
<event>
 7    1  0.2985411E-011  0.5052887E+02  0.7816164E-02  0.1300439E+00
        -11   -1    0    0    0    0  0.00000000000E+00  0.00000000000E+00  0.45593999997E+02  0.45594000000E+02  0.51100000000E-03 0.  1.
         11   -1    0    0    0    0 -0.00000000000E+00 -0.00000000000E+00 -0.45593999997E+02  0.45594000000E+02  0.51100000000E-03 0. -1.
    9900012    2    1    2    0    0 -0.12032929971E+02 -0.38651181740E+02  0.38025626207E+01  0.50528871430E+02  0.30000035200E+02 0.  0.
        -12    1    1    2    0    0  0.12032929971E+02  0.38651181740E+02 -0.38025626207E+01  0.40659128570E+02  0.00000000000E+00 0.  1.
         11    1    3    3    0    0 -0.66251423743E+01 -0.22893732563E+01 -0.89168879683E+00  0.70660349955E+01  0.51100000000E-03 0. -1.
        -11    1    3    3    0    0 -0.12172792218E+02 -0.11069190078E+02 -0.16135037760E+01  0.16532006353E+02  0.51100000000E-03 0.  1.
        -12    1    3    3    0    0  0.67650046210E+01 -0.25292618406E+02  0.63077551935E+01  0.26930830082E+02  0.00000000000E+00 0.  1.
</event>
<event>
 7    1  0.2985411E-011  0.5052881E+02  0.7816164E-02  0.1300439E+00
        -11   -1    0    0    0    0  0.00000000000E+00  0.00000000000E+00  0.45593999997E+02  0.45594000000E+02  0.51100000000E-03 0.  1.
         11   -1    0    0    0    0 -0.00000000000E+00 -0.00000000000E+00 -0.45593999997E+02  0.45594000000E+02  0.51100000000E-03 0. -1.
    9900012    2    1    2    0    0  0.32991880522E+02 -0.14191373956E+02 -0.19060715123E+02  0.50528805024E+02  0.29999833350E+02 0.  0.
        -12    1    1    2    0    0 -0.32991880522E+02  0.14191373956E+02  0.19060715123E+02  0.40659194976E+02  0.00000000000E+00 0.  1.
         11    1    3    3    0    0  0.60403608238E+01  0.16761467048E+00  0.34157083504E+01  0.69412619426E+01  0.51100000000E-03 0. -1.
        -11    1    3    3    0    0  0.14255027222E+00 -0.69044684500E+01  0.12514255817E+01  0.70184094640E+01  0.51100000000E-03 0.  1.
         12    1    3    3    0    0  0.26808969426E+02 -0.74545201764E+01 -0.23727849055E+02  0.36569133617E+02  0.00000000000E+00 0. -1.
</event>
<event>
 7    1  0.2985411E-011  0.5052886E+02  0.7816164E-02  0.1300439E+00
        -11   -1    0    0    0    0  0.00000000000E+00  0.00000000000E+00  0.45593999997E+02  0.45594000000E+02  0.51100000000E-03 0.  1.
         11   -1    0    0    0    0 -0.00000000000E+00 -0.00000000000E+00 -0.45593999997E+02  0.45594000000E+02  0.51100000000E-03 0. -1.
    9900012    2    1    2    0    0 -0.59507975207E+01 -0.11373924583E+01 -0.40205218998E+02  0.50528864650E+02  0.30000014590E+02 0.  0.
        -12    1    1    2    0    0  0.59507975207E+01  0.11373924583E+01  0.40205218998E+02  0.40659135350E+02  0.00000000000E+00 0.  1.
         11    1    3    3    0    0  0.45652218698E+01 -0.61944011100E+01 -0.25523826673E+02  0.26658536796E+02  0.51100000000E-03 0. -1.
        -11    1    3    3    0    0  0.22643794645E+01  0.45316069453E+01 -0.10428504263E+01  0.51720801559E+01  0.51100000000E-03 0.  1.
        -12    1    3    3    0    0 -0.12780398855E+02  0.52540170635E+00 -0.13638541899E+02  0.18698247698E+02  0.00000000000E+00 0.  1.
</event>
<event>
 7    1  0.2985411E-011  0.5052886E+02  0.7816164E-02  0.1300439E+00
        -11   -1    0    0    0    0  0.00000000000E+00  0.00000000000E+00  0.45593999997E+02  0.45594000000E+02  0.51100000000E-03 0.  1.
         11   -1    0    0    0    0 -0.00000000000E+00 -0.00000000000E+00 -0.45593999997E+02  0.45594000000E+02  0.51100000000E-03 0. -1.
    9900012    2    1    2    0    0 -0.37915051555E+02 -0.82003776903E+01  0.12180657735E+02  0.50528858942E+02  0.29999997241E+02 0.  0.
        -12    1    1    2    0    0  0.37915051555E+02  0.82003776903E+01 -0.12180657735E+02  0.40659141058E+02  0.00000000000E+00 0.  1.
         11    1    3    3    0    0 -0.97364234741E+01 -0.84822940492E+01 -0.11368756220E+01  0.12963014343E+02  0.51100000000E-03 0. -1.
        -11    1    3    3    0    0 -0.94371983058E+01 -0.11427855963E+01 -0.54891080176E+01  0.10977111545E+02  0.51100000000E-03 0.  1.
        -12    1    3    3    0    0 -0.18741429775E+02  0.14247019551E+01  0.18806641374E+02  0.26588733055E+02  0.00000000000E+00 0.  1.
</event>
<event>
 7    1  0.2985411E-011  0.5052886E+02  0.7816164E-02  0.1300439E+00
        -11   -1    0    0    0    0  0.00000000000E+00  0.00000000000E+00  0.45593999997E+02  0.45594000000E+02  0.51100000000E-03 0.  1.
         11   -1    0    0    0    0 -0.00000000000E+00 -0.00000000000E+00 -0.45593999997E+02  0.45594000000E+02  0.51100000000E-03 0. -1.
    9900012    2    1    2    0    0  0.18918999356E+02  0.16903915230E+01 -0.35949678039E+02  0.50528864357E+02  0.30000013699E+02 0.  0.
        -12    1    1    2    0    0 -0.18918999356E+02 -0.16903915230E+01  0.35949678039E+02  0.40659135643E+02  0.00000000000E+00 0.  1.
         11    1    3    3    0    0 -0.67206495093E+01  0.31576318462E+01 -0.12377660059E+02  0.14434134457E+02  0.51100000000E-03 0. -1.
        -11    1    3    3    0    0 -0.54839910117E+00 -0.18876410832E+00  0.28488952863E+00  0.64617007622E+00  0.51100000000E-03 0.  1.
        -12    1    3    3    0    0  0.26188047967E+02 -0.12784762148E+01 -0.23856907508E+02  0.35448559824E+02  0.00000000000E+00 0.  1.
</event>
<event>
 7    1  0.2985411E-011  0.5052886E+02  0.7816164E-02  0.1300439E+00
        -11   -1    0    0    0    0  0.00000000000E+00  0.00000000000E+00  0.45593999997E+02  0.45594000000E+02  0.51100000000E-03 0.  1.
         11   -1    0    0    0    0 -0.00000000000E+00 -0.00000000000E+00 -0.45593999997E+02  0.45594000000E+02  0.51100000000E-03 0. -1.
    9900012    2    1    2    0    0  0.99544572637E+01  0.69323282915E+01 -0.38807440464E+02  0.50528857973E+02  0.29999994295E+02 0.  0.
        -12    1    1    2    0    0 -0.99544572637E+01 -0.69323282915E+01  0.38807440464E+02  0.40659142027E+02  0.00000000000E+00 0.  1.
         11    1    3    3    0    0 -0.99785759845E+00 -0.25087120211E+01 -0.11794946805E+01  0.29462796462E+01  0.51100000000E-03 0. -1.
        -11    1    3    3    0    0 -0.76063841395E+01 -0.37705310998E+00 -0.14272196954E+02  0.16176985346E+02  0.51100000000E-03 0.  1.
         12    1    3    3    0    0  0.18558699002E+02  0.98180934226E+01 -0.23355748830E+02  0.31405592981E+02  0.00000000000E+00 0. -1.
</event>
<event>
 7    1  0.2985411E-011  0.5052886E+02  0.7816164E-02  0.1300439E+00
        -11   -1    0    0    0    0  0.00000000000E+00  0.00000000000E+00  0.45593999997E+02  0.45594000000E+02  0.51100000000E-03 0. -1.
         11   -1    0    0    0    0 -0.00000000000E+00 -0.00000000000E+00 -0.45593999997E+02  0.45594000000E+02  0.51100000000E-03 0.  1.
    9900012    2    1    2    0    0  0.31143462400E+02 -0.14066405747E+02  0.22031489615E+02  0.50528861352E+02  0.30000004565E+02 0.  0.
        -12    1    1    2    0    0 -0.31143462400E+02  0.14066405747E+02 -0.22031489615E+02  0.40659138648E+02  0.00000000000E+00 0.  1.
         11    1    3    3    0    0  0.40739020460E+01  0.17268162847E+01  0.29126749957E+01  0.52973812637E+01  0.51100000000E-03 0. -1.
        -11    1    3    3    0    0  0.60328181353E+01  0.52287223235E+01  0.12390802156E+02  0.14739959638E+02  0.51100000000E-03 0.  1.
         12    1    3    3    0    0  0.21036742219E+02 -0.21021944355E+02  0.67280124635E+01  0.30491520450E+02  0.00000000000E+00 0. -1.
</event>
<event>
 7    1  0.2985411E-011  0.5052885E+02  0.7816164E-02  0.1300439E+00
        -11   -1    0    0    0    0  0.00000000000E+00  0.00000000000E+00  0.45593999997E+02  0.45594000000E+02  0.51100000000E-03 0.  1.
         11   -1    0    0    0    0 -0.00000000000E+00 -0.00000000000E+00 -0.45593999997E+02  0.45594000000E+02  0.51100000000E-03 0. -1.
    9900012    2    1    2    0    0 -0.43017269590E+01 -0.19371249868E+02 -0.35488252086E+02  0.50528853275E+02  0.29999980014E+02 0.  0.
        -12    1    1    2    0    0  0.43017269590E+01  0.19371249868E+02  0.35488252086E+02  0.40659146725E+02  0.00000000000E+00 0.  1.
         11    1    3    3    0    0 -0.21076367437E+01 -0.13236916937E+02 -0.62652410689E+01  0.14795653029E+02  0.51100000000E-03 0. -1.
        -11    1    3    3    0    0 -0.95306058665E+01 -0.78908851037E+01 -0.22256535165E+02  0.25464718214E+02  0.51100000000E-03 0.  1.
        -12    1    3    3    0    0  0.73365156512E+01  0.17565521727E+01 -0.69664758521E+01  0.10268482032E+02  0.00000000000E+00 0.  1.
</event>
<event>
 7    1  0.2985411E-011  0.5052885E+02  0.7816164E-02  0.1300439E+00
        -11   -1    0    0    0    0  0.00000000000E+00  0.00000000000E+00  0.45593999997E+02  0.45594000000E+02  0.51100000000E-03 0. -1.
         11   -1    0    0    0    0 -0.00000000000E+00 -0.00000000000E+00 -0.45593999997E+02  0.45594000000E+02  0.51100000000E-03 0.  1.
    9900012    2    1    2    0    0  0.26790926461E+02 -0.29498530036E+02 -0.80776926120E+01  0.50528854254E+02  0.29999982989E+02 0.  0.
        -12    1    1    2    0    0 -0.26790926461E+02  0.29498530036E+02  0.80776926120E+01  0.40659145746E+02  0.00000000000E+00 0.  1.
         11    1    3    3    0    0  0.23398075918E+02 -0.15196053717E+02  0.23583515717E+01  0.27999139766E+02  0.51100000000E-03 0. -1.
        -11    1    3    3    0    0  0.52157696067E+01 -0.17110135532E+01  0.81050409223E+00  0.55487599618E+01  0.51100000000E-03 0.  1.
        -12    1    3    3    0    0 -0.18229190639E+01 -0.12591462766E+02 -0.11246548276E+02  0.16980954526E+02  0.00000000000E+00 0.  1.
</event>
<event>
 7    1  0.2985411E-011  0.5052882E+02  0.7816164E-02  0.1300439E+00
        -11   -1    0    0    0    0  0.00000000000E+00  0.00000000000E+00  0.45593999997E+02  0.45594000000E+02  0.51100000000E-03 0. -1.
         11   -1    0    0    0    0 -0.00000000000E+00 -0.00000000000E+00 -0.45593999997E+02  0.45594000000E+02  0.51100000000E-03 0.  1.
    9900012    2    1    2    0    0 -0.50602407228E+01 -0.36602384982E+02 -0.16965511600E+02  0.50528816456E+02  0.29999868101E+02 0.  0.
        -12    1    1    2    0    0  0.50602407228E+01  0.36602384982E+02  0.16965511600E+02  0.40659183544E+02  0.00000000000E+00 0.  1.
         11    1    3    3    0    0 -0.25133517990E+01  0.15959234842E+01 -0.10425898360E+01  0.31545051688E+01  0.51100000000E-03 0. -1.
        -11    1    3    3    0    0 -0.80814560497E+01 -0.25097178921E+01 -0.38269581821E+01  0.92873152725E+01  0.51100000000E-03 0.  1.
         12    1    3    3    0    0  0.55345671260E+01 -0.35688590575E+02 -0.12095963582E+02  0.38086996015E+02  0.00000000000E+00 0. -1.
</event>
<event>
 7    1  0.2985411E-011  0.5052886E+02  0.7816164E-02  0.1300439E+00
        -11   -1    0    0    0    0  0.00000000000E+00  0.00000000000E+00  0.45593999997E+02  0.45594000000E+02  0.51100000000E-03 0.  1.
         11   -1    0    0    0    0 -0.00000000000E+00 -0.00000000000E+00 -0.45593999997E+02  0.45594000000E+02  0.51100000000E-03 0. -1.
    9900012    2    1    2    0    0  0.60807162242E+01  0.23349744579E+02  0.32725831289E+02  0.50528859389E+02  0.29999998598E+02 0.  0.
        -12    1    1    2    0    0 -0.60807162242E+01 -0.23349744579E+02 -0.32725831289E+02  0.40659140611E+02  0.00000000000E+00 0.  1.
         11    1    3    3    0    0  0.13753465801E+02  0.11914329419E+02  0.23943706155E+02  0.30073412373E+02  0.51100000000E-03 0. -1.
        -11    1    3    3    0    0  0.61606749814E+00 -0.16768138051E+01  0.37390285520E+01  0.41438603346E+01  0.51100000000E-03 0.  1.
         12    1    3    3    0    0 -0.82888170744E+01  0.13112228965E+02  0.50430965817E+01  0.16311586681E+02  0.00000000000E+00 0. -1.
</event>
<event>
 7    1  0.2985411E-011  0.5052885E+02  0.7816164E-02  0.1300439E+00
        -11   -1    0    0    0    0  0.00000000000E+00  0.00000000000E+00  0.45593999997E+02  0.45594000000E+02  0.51100000000E-03 0.  1.
         11   -1    0    0    0    0 -0.00000000000E+00 -0.00000000000E+00 -0.45593999997E+02  0.45594000000E+02  0.51100000000E-03 0. -1.
    9900012    2    1    2    0    0 -0.24045019055E+02 -0.27382882843E+02 -0.18032777168E+02  0.50528852609E+02  0.29999977991E+02 0.  0.
        -12    1    1    2    0    0  0.24045019055E+02  0.27382882843E+02  0.18032777168E+02  0.40659147391E+02  0.00000000000E+00 0.  1.
         11    1    3    3    0    0 -0.80908963494E+01 -0.23637460143E+02 -0.17272054466E+02  0.30372948350E+02  0.51100000000E-03 0. -1.
        -11    1    3    3    0    0 -0.15548451466E+01 -0.15416270597E+01 -0.45973983465E+01  0.50921733315E+01  0.51100000000E-03 0.  1.
        -12    1    3    3    0    0 -0.14399277559E+02 -0.22037956405E+01  0.38366756444E+01  0.15063730927E+02  0.00000000000E+00 0.  1.
</event>
<event>
 7    1  0.2985411E-011  0.5052885E+02  0.7816164E-02  0.1300439E+00
        -11   -1    0    0    0    0  0.00000000000E+00  0.00000000000E+00  0.45593999997E+02  0.45594000000E+02  0.51100000000E-03 0.  1.
         11   -1    0    0    0    0 -0.00000000000E+00 -0.00000000000E+00 -0.45593999997E+02  0.45594000000E+02  0.51100000000E-03 0. -1.
    9900012    2    1    2    0    0 -0.75710225181E+01  0.17370857893E+01 -0.39910259562E+02  0.50528847681E+02  0.29999963011E+02 0.  0.
        -12    1    1    2    0    0  0.75710225181E+01 -0.17370857893E+01  0.39910259562E+02  0.40659152319E+02  0.00000000000E+00 0.  1.
         11    1    3    3    0    0 -0.68246173298E+01  0.14929424429E+01 -0.19760102882E+02  0.20958672311E+02  0.51100000000E-03 0. -1.
        -11    1    3    3    0    0 -0.11111253248E+02 -0.80291491129E+00 -0.91098998571E+01  0.14390792083E+02  0.51100000000E-03 0.  1.
        -12    1    3    3    0    0  0.10364848060E+02  0.10470582577E+01 -0.11040256822E+02  0.15179383288E+02  0.00000000000E+00 0.  1.
</event>
<event>
 7    1  0.2985411E-011  0.5052886E+02  0.7816164E-02  0.1300439E+00
        -11   -1    0    0    0    0  0.00000000000E+00  0.00000000000E+00  0.45593999997E+02  0.45594000000E+02  0.51100000000E-03 0. -1.
         11   -1    0    0    0    0 -0.00000000000E+00 -0.00000000000E+00 -0.45593999997E+02  0.45594000000E+02  0.51100000000E-03 0.  1.
    9900012    2    1    2    0    0 -0.29239085511E+02 -0.13364066074E+02  0.24892636921E+02  0.50528858883E+02  0.29999997059E+02 0.  0.
        -12    1    1    2    0    0  0.29239085511E+02  0.13364066074E+02 -0.24892636921E+02  0.40659141117E+02  0.00000000000E+00 0.  1.
         11    1    3    3    0    0  0.43837584571E-01  0.19667313269E+01  0.27986125983E+01  0.34208458870E+01  0.51100000000E-03 0. -1.
        -11    1    3    3    0    0 -0.87760137635E+01  0.51921109752E+01  0.13365265849E+02  0.16810912094E+02  0.51100000000E-03 0.  1.
        -12    1    3    3    0    0 -0.20506909332E+02 -0.20522908376E+02  0.87287584738E+01  0.30297100902E+02  0.00000000000E+00 0.  1.
</event>
<event>
 7    1  0.2985411E-011  0.5052885E+02  0.7816164E-02  0.1300439E+00
        -11   -1    0    0    0    0  0.00000000000E+00  0.00000000000E+00  0.45593999997E+02  0.45594000000E+02  0.51100000000E-03 0.  1.
         11   -1    0    0    0    0 -0.00000000000E+00 -0.00000000000E+00 -0.45593999997E+02  0.45594000000E+02  0.51100000000E-03 0. -1.
    9900012    2    1    2    0    0  0.27940250211E+02 -0.23674813912E+02 -0.17663871971E+02  0.50528846434E+02  0.29999959222E+02 0.  0.
        -12    1    1    2    0    0 -0.27940250211E+02  0.23674813912E+02  0.17663871971E+02  0.40659153566E+02  0.00000000000E+00 0.  1.
         11    1    3    3    0    0  0.14616369485E+02 -0.31372226263E+01 -0.64890514484E+01  0.16296877361E+02  0.51100000000E-03 0. -1.
        -11    1    3    3    0    0  0.44494678124E+01  0.20690685361E+01 -0.84791717543E+01  0.97966913966E+01  0.51100000000E-03 0.  1.
        -12    1    3    3    0    0  0.88744129135E+01 -0.22606659822E+02 -0.26956487687E+01  0.24435277677E+02  0.00000000000E+00 0.  1.
</event>
<event>
 7    1  0.2985411E-011  0.5052886E+02  0.7816164E-02  0.1300439E+00
        -11   -1    0    0    0    0  0.00000000000E+00  0.00000000000E+00  0.45593999997E+02  0.45594000000E+02  0.51100000000E-03 0. -1.
         11   -1    0    0    0    0 -0.00000000000E+00 -0.00000000000E+00 -0.45593999997E+02  0.45594000000E+02  0.51100000000E-03 0.  1.
    9900012    2    1    2    0    0  0.21059273653E+02 -0.32105339710E+02 -0.13376085377E+02  0.50528861978E+02  0.30000006468E+02 0.  0.
        -12    1    1    2    0    0 -0.21059273653E+02  0.32105339710E+02  0.13376085377E+02  0.40659138022E+02  0.00000000000E+00 0.  1.
         11    1    3    3    0    0 -0.71253074167E+00  0.23215106283E+01  0.11551557514E+01  0.26891442368E+01  0.51100000000E-03 0. -1.
        -11    1    3    3    0    0  0.14503625561E+02 -0.24012961288E+02 -0.19540714735E+02  0.34187965673E+02  0.51100000000E-03 0.  1.
         12    1    3    3    0    0  0.72681788332E+01 -0.10413889050E+02  0.50094736068E+01  0.13651752068E+02  0.00000000000E+00 0. -1.
</event>
<event>
 7    1  0.2985411E-011  0.5052888E+02  0.7816164E-02  0.1300439E+00
        -11   -1    0    0    0    0  0.00000000000E+00  0.00000000000E+00  0.45593999997E+02  0.45594000000E+02  0.51100000000E-03 0.  1.
         11   -1    0    0    0    0 -0.00000000000E+00 -0.00000000000E+00 -0.45593999997E+02  0.45594000000E+02  0.51100000000E-03 0. -1.
    9900012    2    1    2    0    0 -0.29941569035E+02 -0.32647191612E+01 -0.27313150449E+02  0.50528878823E+02  0.30000057669E+02 0.  0.
        -12    1    1    2    0    0  0.29941569035E+02  0.32647191612E+01  0.27313150449E+02  0.40659121177E+02  0.00000000000E+00 0.  1.
         11    1    3    3    0    0 -0.14228910887E+02  0.23355400942E+01 -0.99972486474E+01  0.17545986246E+02  0.51100000000E-03 0. -1.
        -11    1    3    3    0    0 -0.20997966114E+02 -0.19064847033E+01 -0.15830781351E+02  0.26365942109E+02  0.51100000000E-03 0.  1.
        -12    1    3    3    0    0  0.52853079663E+01 -0.36937745521E+01 -0.14851204503E+01  0.66169504677E+01  0.00000000000E+00 0.  1.
</event>
<event>
 7    1  0.2985411E-011  0.5052889E+02  0.7816164E-02  0.1300439E+00
        -11   -1    0    0    0    0  0.00000000000E+00  0.00000000000E+00  0.45593999997E+02  0.45594000000E+02  0.51100000000E-03 0. -1.
         11   -1    0    0    0    0 -0.00000000000E+00 -0.00000000000E+00 -0.45593999997E+02  0.45594000000E+02  0.51100000000E-03 0.  1.
    9900012    2    1    2    0    0  0.32687024262E+02  0.20344922373E+02 -0.13069259011E+02  0.50528893362E+02  0.30000101864E+02 0.  0.
        -12    1    1    2    0    0 -0.32687024262E+02 -0.20344922373E+02  0.13069259011E+02  0.40659106638E+02  0.00000000000E+00 0.  1.
         11    1    3    3    0    0  0.11096419632E+02 -0.96720954792E+00  0.40093261500E+01  0.11838104553E+02  0.51100000000E-03 0. -1.
        -11    1    3    3    0    0 -0.19353891763E+01 -0.57174330366E-02 -0.38266040349E+01  0.42882003980E+01  0.51100000000E-03 0.  1.
        -12    1    3    3    0    0  0.23525993806E+02  0.21317849354E+02 -0.13251981127E+02  0.34402588412E+02  0.00000000000E+00 0.  1.
</event>
<event>
 7    1  0.2985411E-011  0.5052886E+02  0.7816164E-02  0.1300439E+00
        -11   -1    0    0    0    0  0.00000000000E+00  0.00000000000E+00  0.45593999997E+02  0.45594000000E+02  0.51100000000E-03 0.  1.
         11   -1    0    0    0    0 -0.00000000000E+00 -0.00000000000E+00 -0.45593999997E+02  0.45594000000E+02  0.51100000000E-03 0. -1.
    9900012    2    1    2    0    0 -0.29532970277E+02 -0.17891642627E+02 -0.21467610188E+02  0.50528862079E+02  0.30000006775E+02 0.  0.
        -12    1    1    2    0    0  0.29532970277E+02  0.17891642627E+02  0.21467610188E+02  0.40659137921E+02  0.00000000000E+00 0.  1.
         11    1    3    3    0    0 -0.23651691160E+02 -0.91155145682E+00 -0.43452501651E+01  0.24064800436E+02  0.51100000000E-03 0. -1.
        -11    1    3    3    0    0 -0.82130789774E+01 -0.13089403088E+02 -0.11626536254E+02  0.19338135510E+02  0.51100000000E-03 0.  1.
        -12    1    3    3    0    0  0.23317998598E+01 -0.38906880823E+01 -0.54958237691E+01  0.71259261322E+01  0.00000000000E+00 0.  1.
</event>
<event>
 7    1  0.2985411E-011  0.5052886E+02  0.7816164E-02  0.1300439E+00
        -11   -1    0    0    0    0  0.00000000000E+00  0.00000000000E+00  0.45593999997E+02  0.45594000000E+02  0.51100000000E-03 0.  1.
         11   -1    0    0    0    0 -0.00000000000E+00 -0.00000000000E+00 -0.45593999997E+02  0.45594000000E+02  0.51100000000E-03 0. -1.
    9900012    2    1    2    0    0 -0.11204543977E+02 -0.30259397185E+02 -0.24738494149E+02  0.50528855684E+02  0.29999987338E+02 0.  0.
        -12    1    1    2    0    0  0.11204543977E+02  0.30259397185E+02  0.24738494149E+02  0.40659144316E+02  0.00000000000E+00 0.  1.
         11    1    3    3    0    0  0.55097100829E+00 -0.85469831090E+00 -0.13357450010E-01  0.10169842365E+01  0.51100000000E-03 0. -1.
        -11    1    3    3    0    0  0.22874456645E+01 -0.28031386047E+02 -0.12245173227E+02  0.30674668360E+02  0.51100000000E-03 0.  1.
         12    1    3    3    0    0 -0.14042960649E+02 -0.13733128272E+01 -0.12479963472E+02  0.18837203088E+02  0.00000000000E+00 0. -1.
</event>
<event>
 7    1  0.2985411E-011  0.5052885E+02  0.7816164E-02  0.1300439E+00
        -11   -1    0    0    0    0  0.00000000000E+00  0.00000000000E+00  0.45593999997E+02  0.45594000000E+02  0.51100000000E-03 0.  1.
         11   -1    0    0    0    0 -0.00000000000E+00 -0.00000000000E+00 -0.45593999997E+02  0.45594000000E+02  0.51100000000E-03 0. -1.
    9900012    2    1    2    0    0 -0.33722721941E+01 -0.17374128543E+02 -0.36605105314E+02  0.50528852229E+02  0.29999976836E+02 0.  0.
        -12    1    1    2    0    0  0.33722721941E+01  0.17374128543E+02  0.36605105314E+02  0.40659147771E+02  0.00000000000E+00 0.  1.
         11    1    3    3    0    0 -0.30510595040E+00 -0.86039394615E+01 -0.81241310312E+00  0.86475938393E+01  0.51100000000E-03 0. -1.
        -11    1    3    3    0    0  0.60183657077E+00 -0.85786089075E+01 -0.33467587852E+01  0.92279755457E+01  0.51100000000E-03 0.  1.
        -12    1    3    3    0    0 -0.36690028144E+01 -0.19158017361E+00 -0.32445933426E+02  0.32653282844E+02  0.00000000000E+00 0.  1.
</event>
<event>
 7    1  0.2985411E-011  0.5052887E+02  0.7816164E-02  0.1300439E+00
        -11   -1    0    0    0    0  0.00000000000E+00  0.00000000000E+00  0.45593999997E+02  0.45594000000E+02  0.51100000000E-03 0. -1.
         11   -1    0    0    0    0 -0.00000000000E+00 -0.00000000000E+00 -0.45593999997E+02  0.45594000000E+02  0.51100000000E-03 0.  1.
    9900012    2    1    2    0    0  0.14828401972E+02 -0.37005076381E+02 -0.79942326904E+01  0.50528868931E+02  0.30000027602E+02 0.  0.
        -12    1    1    2    0    0 -0.14828401972E+02  0.37005076381E+02  0.79942326904E+01  0.40659131069E+02  0.00000000000E+00 0.  1.
         11    1    3    3    0    0 -0.11087119723E+01 -0.24537986381E+02 -0.91396786263E+01  0.26208314396E+02  0.51100000000E-03 0. -1.
        -11    1    3    3    0    0  0.15677383415E+02 -0.11504631673E+02 -0.33357812644E+01  0.19729783009E+02  0.51100000000E-03 0.  1.
        -12    1    3    3    0    0  0.25973052949E+00 -0.96245832768E+00  0.44812272003E+01  0.45907715257E+01  0.00000000000E+00 0.  1.
</event>
<event>
 7    1  0.2985411E-011  0.5052885E+02  0.7816164E-02  0.1300439E+00
        -11   -1    0    0    0    0  0.00000000000E+00  0.00000000000E+00  0.45593999997E+02  0.45594000000E+02  0.51100000000E-03 0. -1.
         11   -1    0    0    0    0 -0.00000000000E+00 -0.00000000000E+00 -0.45593999997E+02  0.45594000000E+02  0.51100000000E-03 0.  1.
    9900012    2    1    2    0    0 -0.13822816918E+02 -0.34585434799E+02 -0.16307790709E+02  0.50528848440E+02  0.29999965317E+02 0.  0.
        -12    1    1    2    0    0  0.13822816918E+02  0.34585434799E+02  0.16307790709E+02  0.40659151560E+02  0.00000000000E+00 0.  1.
         11    1    3    3    0    0 -0.16320876565E+02 -0.10771965111E+02 -0.32396370138E+01  0.19821742921E+02  0.51100000000E-03 0. -1.
        -11    1    3    3    0    0 -0.27998671699E+01 -0.15121523634E+02 -0.13578193626E+02  0.20515045103E+02  0.51100000000E-03 0.  1.
        -12    1    3    3    0    0  0.52979268168E+01 -0.86919460547E+01  0.51003993119E+00  0.10192060415E+02  0.00000000000E+00 0.  1.
</event>
<event>
 7    1  0.2985411E-011  0.5052886E+02  0.7816164E-02  0.1300439E+00
        -11   -1    0    0    0    0  0.00000000000E+00  0.00000000000E+00  0.45593999997E+02  0.45594000000E+02  0.51100000000E-03 0.  1.
         11   -1    0    0    0    0 -0.00000000000E+00 -0.00000000000E+00 -0.45593999997E+02  0.45594000000E+02  0.51100000000E-03 0. -1.
    9900012    2    1    2    0    0 -0.15012241198E+02 -0.28262029078E+02 -0.25080988848E+02  0.50528859883E+02  0.30000000102E+02 0.  0.
        -12    1    1    2    0    0  0.15012241198E+02  0.28262029078E+02  0.25080988848E+02  0.40659140117E+02  0.00000000000E+00 0.  1.
         11    1    3    3    0    0  0.58639433954E+00 -0.13989034757E+02 -0.74371797133E+01  0.15853977233E+02  0.51100000000E-03 0. -1.
        -11    1    3    3    0    0  0.49987125281E+01 -0.57707890498E+00 -0.20429909762E+01  0.54308341340E+01  0.51100000000E-03 0.  1.
         12    1    3    3    0    0 -0.20597348065E+02 -0.13695915416E+02 -0.15600818159E+02  0.29244048517E+02  0.00000000000E+00 0. -1.
</event>
<event>
 7    1  0.2985411E-011  0.5052887E+02  0.7816164E-02  0.1300439E+00
        -11   -1    0    0    0    0  0.00000000000E+00  0.00000000000E+00  0.45593999997E+02  0.45594000000E+02  0.51100000000E-03 0.  1.
         11   -1    0    0    0    0 -0.00000000000E+00 -0.00000000000E+00 -0.45593999997E+02  0.45594000000E+02  0.51100000000E-03 0. -1.
    9900012    2    1    2    0    0 -0.18659425076E+02  0.33630258125E+02 -0.13190777739E+02  0.50528867901E+02  0.30000024471E+02 0.  0.
        -12    1    1    2    0    0  0.18659425076E+02 -0.33630258125E+02  0.13190777739E+02  0.40659132099E+02  0.00000000000E+00 0.  1.
         11    1    3    3    0    0  0.42216789362E+01  0.31587730064E+01 -0.13276349863E+01  0.54371899787E+01  0.51100000000E-03 0. -1.
        -11    1    3    3    0    0 -0.17277424239E+02  0.19171985602E+02  0.25559701723E+01  0.25934675707E+02  0.51100000000E-03 0.  1.
         12    1    3    3    0    0 -0.56036797740E+01  0.11299499516E+02 -0.14419112924E+02  0.19157002215E+02  0.00000000000E+00 0. -1.
</event>
<event>
 7    1  0.2985411E-011  0.5052886E+02  0.7816164E-02  0.1300439E+00
        -11   -1    0    0    0    0  0.00000000000E+00  0.00000000000E+00  0.45593999997E+02  0.45594000000E+02  0.51100000000E-03 0. -1.
         11   -1    0    0    0    0 -0.00000000000E+00 -0.00000000000E+00 -0.45593999997E+02  0.45594000000E+02  0.51100000000E-03 0.  1.
    9900012    2    1    2    0    0 -0.36170147416E+02 -0.16005164847E+02  0.94191796629E+01  0.50528858206E+02  0.29999995003E+02 0.  0.
        -12    1    1    2    0    0  0.36170147416E+02  0.16005164847E+02 -0.94191796629E+01  0.40659141794E+02  0.00000000000E+00 0.  1.
         11    1    3    3    0    0 -0.80076595661E+01 -0.84329452994E+01 -0.51880812201E+01  0.12733945388E+02  0.51100000000E-03 0. -1.
        -11    1    3    3    0    0 -0.24961325532E+02 -0.87141961768E+00  0.47024462822E+01  0.25415352560E+02  0.51100000000E-03 0.  1.
         12    1    3    3    0    0 -0.32011623182E+01 -0.67007999297E+01  0.99048146008E+01  0.12379560257E+02  0.00000000000E+00 0. -1.
</event>
<event>
 7    1  0.2985411E-011  0.5052885E+02  0.7816164E-02  0.1300439E+00
        -11   -1    0    0    0    0  0.00000000000E+00  0.00000000000E+00  0.45593999997E+02  0.45594000000E+02  0.51100000000E-03 0.  1.
         11   -1    0    0    0    0 -0.00000000000E+00 -0.00000000000E+00 -0.45593999997E+02  0.45594000000E+02  0.51100000000E-03 0. -1.
    9900012    2    1    2    0    0 -0.75305575906E+01  0.13461117560E+02 -0.37619882061E+02  0.50528849617E+02  0.29999968896E+02 0.  0.
        -12    1    1    2    0    0  0.75305575906E+01 -0.13461117560E+02  0.37619882061E+02  0.40659150383E+02  0.00000000000E+00 0.  1.
         11    1    3    3    0    0 -0.29312115555E+01  0.14237153394E+01 -0.34664604089E+01  0.47576585185E+01  0.51100000000E-03 0. -1.
        -11    1    3    3    0    0  0.51724136891E+01  0.17306593190E+02 -0.14354684625E+02  0.23072256114E+02  0.51100000000E-03 0.  1.
        -12    1    3    3    0    0 -0.97717597241E+01 -0.52691909701E+01 -0.19798737027E+02  0.22698934985E+02  0.00000000000E+00 0.  1.
</event>
<event>
 7    1  0.2985411E-011  0.5052887E+02  0.7816164E-02  0.1300439E+00
        -11   -1    0    0    0    0  0.00000000000E+00  0.00000000000E+00  0.45593999997E+02  0.45594000000E+02  0.51100000000E-03 0. -1.
         11   -1    0    0    0    0 -0.00000000000E+00 -0.00000000000E+00 -0.45593999997E+02  0.45594000000E+02  0.51100000000E-03 0.  1.
    9900012    2    1    2    0    0 -0.19918680587E+02 -0.35351900932E+02  0.25795949694E+01  0.50528867618E+02  0.30000023611E+02 0.  0.
        -12    1    1    2    0    0  0.19918680587E+02  0.35351900932E+02 -0.25795949694E+01  0.40659132382E+02  0.00000000000E+00 0.  1.
         11    1    3    3    0    0 -0.95790958779E+01 -0.34425379271E+02 -0.14898775527E+00  0.35733569838E+02  0.51100000000E-03 0. -1.
        -11    1    3    3    0    0 -0.31280239163E+00 -0.34721881257E+01  0.27661475869E+01  0.44503380153E+01  0.51100000000E-03 0.  1.
        -12    1    3    3    0    0 -0.10026782318E+02  0.25456664644E+01 -0.37564862230E-01  0.10344959764E+02  0.00000000000E+00 0.  1.
</event>
<event>
 7    1  0.2985411E-011  0.5052886E+02  0.7816164E-02  0.1300439E+00
        -11   -1    0    0    0    0  0.00000000000E+00  0.00000000000E+00  0.45593999997E+02  0.45594000000E+02  0.51100000000E-03 0. -1.
         11   -1    0    0    0    0 -0.00000000000E+00 -0.00000000000E+00 -0.45593999997E+02  0.45594000000E+02  0.51100000000E-03 0.  1.
    9900012    2    1    2    0    0  0.37886490329E+02 -0.60681921755E+01 -0.13452016255E+02  0.50528857768E+02  0.29999993672E+02 0.  0.
        -12    1    1    2    0    0 -0.37886490329E+02  0.60681921755E+01  0.13452016255E+02  0.40659142232E+02  0.00000000000E+00 0.  1.
         11    1    3    3    0    0  0.13244365835E+02 -0.55010359261E+01 -0.15266280290E+02  0.20945976625E+02  0.51100000000E-03 0. -1.
        -11    1    3    3    0    0  0.43523481849E+01  0.64057335950E+01  0.24385330042E+01  0.81192857498E+01  0.51100000000E-03 0.  1.
        -12    1    3    3    0    0  0.20289776309E+02 -0.69728898444E+01 -0.62426896910E+00  0.21463595393E+02  0.00000000000E+00 0.  1.
</event>
<event>
 7    1  0.2985411E-011  0.5052883E+02  0.7816164E-02  0.1300439E+00
        -11   -1    0    0    0    0  0.00000000000E+00  0.00000000000E+00  0.45593999997E+02  0.45594000000E+02  0.51100000000E-03 0.  1.
         11   -1    0    0    0    0 -0.00000000000E+00 -0.00000000000E+00 -0.45593999997E+02  0.45594000000E+02  0.51100000000E-03 0. -1.
    9900012    2    1    2    0    0 -0.20448148201E+02 -0.74601113625E+01 -0.34342216973E+02  0.50528832608E+02  0.29999917196E+02 0.  0.
        -12    1    1    2    0    0  0.20448148201E+02  0.74601113625E+01  0.34342216973E+02  0.40659167392E+02  0.00000000000E+00 0.  1.
         11    1    3    3    0    0 -0.47507836613E+00 -0.69434269465E+01 -0.47135153846E+01  0.84055996072E+01  0.51100000000E-03 0. -1.
        -11    1    3    3    0    0 -0.43407883436E+01 -0.46944906549E+01  0.19124919285E+01  0.66737029894E+01  0.51100000000E-03 0.  1.
         12    1    3    3    0    0 -0.15632281491E+02  0.41778062389E+01 -0.31541193517E+02  0.35449530012E+02  0.00000000000E+00 0. -1.
</event>
<event>
 7    1  0.2985411E-011  0.5052885E+02  0.7816164E-02  0.1300439E+00
        -11   -1    0    0    0    0  0.00000000000E+00  0.00000000000E+00  0.45593999997E+02  0.45594000000E+02  0.51100000000E-03 0.  1.
         11   -1    0    0    0    0 -0.00000000000E+00 -0.00000000000E+00 -0.45593999997E+02  0.45594000000E+02  0.51100000000E-03 0. -1.
    9900012    2    1    2    0    0 -0.31354681014E+02  0.19916286725E+02 -0.16534558360E+02  0.50528854429E+02  0.29999983521E+02 0.  0.
        -12    1    1    2    0    0  0.31354681014E+02 -0.19916286725E+02  0.16534558360E+02  0.40659145571E+02  0.00000000000E+00 0.  1.
         11    1    3    3    0    0 -0.13182100360E+02  0.10872770310E+01 -0.95579134416E+01  0.16318812789E+02  0.51100000000E-03 0.  1.
        -11    1    3    3    0    0 -0.17650525471E+02  0.11683344122E+02 -0.13008131384E+02  0.24844578113E+02  0.51100000000E-03 0. -1.
        -12    1    3    3    0    0 -0.52205518377E+00  0.71456655725E+01  0.60314864647E+01  0.93654635263E+01  0.00000000000E+00 0.  1.
</event>
<event>
 7    1  0.2985411E-011  0.5052886E+02  0.7816164E-02  0.1300439E+00
        -11   -1    0    0    0    0  0.00000000000E+00  0.00000000000E+00  0.45593999997E+02  0.45594000000E+02  0.51100000000E-03 0. -1.
         11   -1    0    0    0    0 -0.00000000000E+00 -0.00000000000E+00 -0.45593999997E+02  0.45594000000E+02  0.51100000000E-03 0.  1.
    9900012    2    1    2    0    0  0.64356568365E+01 -0.26464008762E+02  0.30189476960E+02  0.50528856406E+02  0.29999989532E+02 0.  0.
        -12    1    1    2    0    0 -0.64356568365E+01  0.26464008762E+02 -0.30189476960E+02  0.40659143594E+02  0.00000000000E+00 0.  1.
         11    1    3    3    0    0  0.14081221539E+01 -0.10589163451E+02  0.17857208835E+02  0.20808486207E+02  0.51100000000E-03 0. -1.
        -11    1    3    3    0    0 -0.32541273284E+01 -0.24067914767E+01  0.13278341851E+02  0.13881511173E+02  0.51100000000E-03 0.  1.
         12    1    3    3    0    0  0.82816620110E+01 -0.13468053834E+02 -0.94607372610E+00  0.15838859026E+02  0.00000000000E+00 0. -1.
</event>
<event>
 7    1  0.2985411E-011  0.5052886E+02  0.7816164E-02  0.1300439E+00
        -11   -1    0    0    0    0  0.00000000000E+00  0.00000000000E+00  0.45593999997E+02  0.45594000000E+02  0.51100000000E-03 0. -1.
         11   -1    0    0    0    0 -0.00000000000E+00 -0.00000000000E+00 -0.45593999997E+02  0.45594000000E+02  0.51100000000E-03 0.  1.
    9900012    2    1    2    0    0  0.21922582789E+02  0.88743159709E+01  0.33072840918E+02  0.50528856791E+02  0.29999990702E+02 0.  0.
        -12    1    1    2    0    0 -0.21922582789E+02 -0.88743159709E+01 -0.33072840918E+02  0.40659143209E+02  0.00000000000E+00 0.  1.
         11    1    3    3    0    0 -0.15394767363E+01 -0.25696158651E+01  0.94774173060E+00  0.31418352861E+01  0.51100000000E-03 0. -1.
        -11    1    3    3    0    0  0.77018005773E+01 -0.60927438104E+01  0.37928921687E+01  0.10527359144E+02  0.51100000000E-03 0.  1.
         12    1    3    3    0    0  0.15760258948E+02  0.17536675646E+02  0.28332207019E+02  0.36859662361E+02  0.00000000000E+00 0. -1.
</event>
<event>
 7    1  0.2985411E-011  0.5052886E+02  0.7816164E-02  0.1300439E+00
        -11   -1    0    0    0    0  0.00000000000E+00  0.00000000000E+00  0.45593999997E+02  0.45594000000E+02  0.51100000000E-03 0.  1.
         11   -1    0    0    0    0 -0.00000000000E+00 -0.00000000000E+00 -0.45593999997E+02  0.45594000000E+02  0.51100000000E-03 0. -1.
    9900012    2    1    2    0    0  0.83049027258E+01  0.39625645457E+02 -0.37419570375E+01  0.50528862901E+02  0.30000009274E+02 0.  0.
        -12    1    1    2    0    0 -0.83049027258E+01 -0.39625645457E+02  0.37419570375E+01  0.40659137099E+02  0.00000000000E+00 0.  1.
         11    1    3    3    0    0  0.11439547879E-01  0.56362946972E+01 -0.29321646928E+01  0.63533879799E+01  0.51100000000E-03 0.  1.
        -11    1    3    3    0    0  0.16873187558E+02  0.30554343398E+02 -0.12136311034E+01  0.34924851604E+02  0.51100000000E-03 0. -1.
        -12    1    3    3    0    0 -0.85797243800E+01  0.34350073616E+01  0.40383875867E+00  0.92506233171E+01  0.00000000000E+00 0.  1.
</event>
<event>
 7    1  0.2985411E-011  0.5052886E+02  0.7816164E-02  0.1300439E+00
        -11   -1    0    0    0    0  0.00000000000E+00  0.00000000000E+00  0.45593999997E+02  0.45594000000E+02  0.51100000000E-03 0.  1.
         11   -1    0    0    0    0 -0.00000000000E+00 -0.00000000000E+00 -0.45593999997E+02  0.45594000000E+02  0.51100000000E-03 0. -1.
    9900012    2    1    2    0    0 -0.16760765625E+02  0.13204743510E+02 -0.34610365575E+02  0.50528856862E+02  0.29999990918E+02 0.  0.
        -12    1    1    2    0    0  0.16760765625E+02 -0.13204743510E+02  0.34610365575E+02  0.40659143138E+02  0.00000000000E+00 0.  1.
         11    1    3    3    0    0 -0.86993522019E+00 -0.47410798346E+01 -0.23123106992E+00  0.48257738606E+01  0.51100000000E-03 0. -1.
        -11    1    3    3    0    0  0.11532135240E+01 -0.59549490995E+00  0.14256478053E+01  0.19279490516E+01  0.51100000000E-03 0.  1.
         12    1    3    3    0    0 -0.17044043929E+02  0.18541318254E+02 -0.35804782310E+02  0.43775133950E+02  0.00000000000E+00 0. -1.
</event>
<event>
 7    1  0.2985411E-011  0.5052895E+02  0.7816164E-02  0.1300438E+00
        -11   -1    0    0    0    0  0.00000000000E+00  0.00000000000E+00  0.45593999997E+02  0.45594000000E+02  0.51100000000E-03 0. -1.
         11   -1    0    0    0    0 -0.00000000000E+00 -0.00000000000E+00 -0.45593999997E+02  0.45594000000E+02  0.51100000000E-03 0.  1.
    9900012    2    1    2    0    0  0.23339877056E+02  0.55093946725E+01  0.32833754798E+02  0.50528945107E+02  0.30000259147E+02 0.  0.
        -12    1    1    2    0    0 -0.23339877056E+02 -0.55093946725E+01 -0.32833754798E+02  0.40659054893E+02  0.00000000000E+00 0.  1.
         11    1    3    3    0    0  0.19248250122E+01  0.40597220039E+01 -0.14471346154E+01  0.47202217038E+01  0.51100000000E-03 0. -1.
        -11    1    3    3    0    0 -0.42832993511E-01  0.73679754964E+01  0.45182299052E+01  0.86431070408E+01  0.51100000000E-03 0.  1.
         12    1    3    3    0    0  0.21457885037E+02 -0.59183028278E+01  0.29762659508E+02  0.37165616363E+02  0.00000000000E+00 0. -1.
</event>
<event>
 7    1  0.2985411E-011  0.5052886E+02  0.7816164E-02  0.1300439E+00
        -11   -1    0    0    0    0  0.00000000000E+00  0.00000000000E+00  0.45593999997E+02  0.45594000000E+02  0.51100000000E-03 0.  1.
         11   -1    0    0    0    0 -0.00000000000E+00 -0.00000000000E+00 -0.45593999997E+02  0.45594000000E+02  0.51100000000E-03 0. -1.
    9900012    2    1    2    0    0  0.12558580887E+02  0.42197014443E+01 -0.38440107772E+02  0.50528859334E+02  0.29999998432E+02 0.  0.
        -12    1    1    2    0    0 -0.12558580887E+02 -0.42197014443E+01  0.38440107772E+02  0.40659140666E+02  0.00000000000E+00 0.  1.
         11    1    3    3    0    0 -0.22829537783E+01 -0.63698967376E+01 -0.14571865845E+02  0.16066323066E+02  0.51100000000E-03 0. -1.
        -11    1    3    3    0    0 -0.88581315381E+00 -0.32225667438E+01 -0.63161014127E+01  0.71458196646E+01  0.51100000000E-03 0.  1.
        -12    1    3    3    0    0  0.15727347819E+02  0.13812164926E+02 -0.17552140514E+02  0.27316716603E+02  0.00000000000E+00 0.  1.
</event>
<event>
 7    1  0.2985411E-011  0.5052884E+02  0.7816164E-02  0.1300439E+00
        -11   -1    0    0    0    0  0.00000000000E+00  0.00000000000E+00  0.45593999997E+02  0.45594000000E+02  0.51100000000E-03 0.  1.
         11   -1    0    0    0    0 -0.00000000000E+00 -0.00000000000E+00 -0.45593999997E+02  0.45594000000E+02  0.51100000000E-03 0. -1.
    9900012    2    1    2    0    0 -0.33523910067E+01  0.16609458962E+02 -0.36960171553E+02  0.50528844405E+02  0.29999953054E+02 0.  0.
        -12    1    1    2    0    0  0.33523910067E+01 -0.16609458962E+02  0.36960171553E+02  0.40659155595E+02  0.00000000000E+00 0.  1.
         11    1    3    3    0    0  0.50622284111E+01  0.90122555675E+01 -0.10717498352E+02  0.14889985833E+02  0.51100000000E-03 0. -1.
        -11    1    3    3    0    0 -0.34660839603E+01  0.66144240866E+01  0.13501159240E+01  0.75886202492E+01  0.51100000000E-03 0.  1.
         12    1    3    3    0    0 -0.49485354575E+01  0.98277930814E+00 -0.27592789124E+02  0.28050238323E+02  0.00000000000E+00 0. -1.
</event>
<event>
 7    1  0.2985411E-011  0.5052884E+02  0.7816164E-02  0.1300439E+00
        -11   -1    0    0    0    0  0.00000000000E+00  0.00000000000E+00  0.45593999997E+02  0.45594000000E+02  0.51100000000E-03 0.  1.
         11   -1    0    0    0    0 -0.00000000000E+00 -0.00000000000E+00 -0.45593999997E+02  0.45594000000E+02  0.51100000000E-03 0. -1.
    9900012    2    1    2    0    0 -0.34641436934E+02  0.83570256935E+01 -0.19577996568E+02  0.50528843824E+02  0.29999951287E+02 0.  0.
        -12    1    1    2    0    0  0.34641436934E+02 -0.83570256935E+01  0.19577996568E+02  0.40659156176E+02  0.00000000000E+00 0.  1.
         11    1    3    3    0    0 -0.27942719586E+02 -0.10614342848E+01 -0.15618181342E+02  0.32028890229E+02  0.51100000000E-03 0. -1.
        -11    1    3    3    0    0 -0.84847984487E+01  0.13861653300E-02 -0.19760534626E+01  0.87118651382E+01  0.51100000000E-03 0.  1.
        -12    1    3    3    0    0  0.17860811009E+01  0.94170738129E+01 -0.19837617641E+01  0.97880884566E+01  0.00000000000E+00 0.  1.
</event>
<event>
 7    1  0.2985411E-011  0.5052886E+02  0.7816164E-02  0.1300439E+00
        -11   -1    0    0    0    0  0.00000000000E+00  0.00000000000E+00  0.45593999997E+02  0.45594000000E+02  0.51100000000E-03 0.  1.
         11   -1    0    0    0    0 -0.00000000000E+00 -0.00000000000E+00 -0.45593999997E+02  0.45594000000E+02  0.51100000000E-03 0. -1.
    9900012    2    1    2    0    0 -0.39255610833E+02 -0.10105471240E+02 -0.31688708826E+01  0.50528864821E+02  0.30000015110E+02 0.  0.
        -12    1    1    2    0    0  0.39255610833E+02  0.10105471240E+02  0.31688708826E+01  0.40659135179E+02  0.00000000000E+00 0.  1.
         11    1    3    3    0    0 -0.57722809870E+01 -0.15021769967E+01  0.39163382460E+01  0.71353674776E+01  0.51100000000E-03 0. -1.
        -11    1    3    3    0    0 -0.25298415484E+02 -0.15334235582E+02  0.16952109339E+01  0.29631441869E+02  0.51100000000E-03 0.  1.
        -12    1    3    3    0    0 -0.81849143613E+01  0.67309413377E+01 -0.87804200626E+01  0.13762055474E+02  0.00000000000E+00 0.  1.
</event>
<event>
 7    1  0.2985411E-011  0.5052886E+02  0.7816164E-02  0.1300439E+00
        -11   -1    0    0    0    0  0.00000000000E+00  0.00000000000E+00  0.45593999997E+02  0.45594000000E+02  0.51100000000E-03 0.  1.
         11   -1    0    0    0    0 -0.00000000000E+00 -0.00000000000E+00 -0.45593999997E+02  0.45594000000E+02  0.51100000000E-03 0. -1.
    9900012    2    1    2    0    0  0.13039431397E+01 -0.26111077203E+02 -0.31139641347E+02  0.50528857318E+02  0.29999992305E+02 0.  0.
        -12    1    1    2    0    0 -0.13039431397E+01  0.26111077203E+02  0.31139641347E+02  0.40659142682E+02  0.00000000000E+00 0.  1.
         11    1    3    3    0    0  0.75037896221E+01 -0.63869725874E+01 -0.26140165011E+01  0.10194771211E+02  0.51100000000E-03 0. -1.
        -11    1    3    3    0    0  0.17883538152E+01 -0.53600326579E+01  0.17240217212E+01  0.59076569483E+01  0.51100000000E-03 0.  1.
        -12    1    3    3    0    0 -0.79882002976E+01 -0.14364071957E+02 -0.30249646567E+02  0.34426429159E+02  0.00000000000E+00 0.  1.
</event>
<event>
 7    1  0.2985411E-011  0.5052885E+02  0.7816164E-02  0.1300439E+00
        -11   -1    0    0    0    0  0.00000000000E+00  0.00000000000E+00  0.45593999997E+02  0.45594000000E+02  0.51100000000E-03 0.  1.
         11   -1    0    0    0    0 -0.00000000000E+00 -0.00000000000E+00 -0.45593999997E+02  0.45594000000E+02  0.51100000000E-03 0. -1.
    9900012    2    1    2    0    0  0.13109942212E+02  0.34358455577E+02 -0.17343359415E+02  0.50528853793E+02  0.29999981590E+02 0.  0.
        -12    1    1    2    0    0 -0.13109942212E+02 -0.34358455577E+02  0.17343359415E+02  0.40659146207E+02  0.00000000000E+00 0.  1.
         11    1    3    3    0    0 -0.79290845693E+00  0.11955354196E+02 -0.11477195477E+02  0.16591721251E+02  0.51100000000E-03 0. -1.
        -11    1    3    3    0    0 -0.28935075816E+01  0.13944609327E+02 -0.50602509259E+01  0.15113922558E+02  0.51100000000E-03 0.  1.
        -12    1    3    3    0    0  0.16796358251E+02  0.84584920540E+01 -0.80591301200E+00  0.18823209984E+02  0.00000000000E+00 0.  1.
</event>
<event>
 7    1  0.2985411E-011  0.5052885E+02  0.7816164E-02  0.1300439E+00
        -11   -1    0    0    0    0  0.00000000000E+00  0.00000000000E+00  0.45593999997E+02  0.45594000000E+02  0.51100000000E-03 0.  1.
         11   -1    0    0    0    0 -0.00000000000E+00 -0.00000000000E+00 -0.45593999997E+02  0.45594000000E+02  0.51100000000E-03 0. -1.
    9900012    2    1    2    0    0  0.37017098775E+02 -0.10179652512E+02 -0.13389387986E+02  0.50528848046E+02  0.29999964119E+02 0.  0.
        -12    1    1    2    0    0 -0.37017098775E+02  0.10179652512E+02  0.13389387986E+02  0.40659151954E+02  0.00000000000E+00 0.  1.
         11    1    3    3    0    0  0.27483163410E+02 -0.96572692210E+01 -0.98194734517E+01  0.30741001593E+02  0.51100000000E-03 0. -1.
        -11    1    3    3    0    0  0.11359778850E+02  0.11503494568E+01  0.37837216539E+01  0.12028484078E+02  0.51100000000E-03 0.  1.
         12    1    3    3    0    0 -0.18258434845E+01 -0.16727327481E+01 -0.73536361879E+01  0.77593623746E+01  0.00000000000E+00 0. -1.
</event>
<event>
 7    1  0.2985411E-011  0.5052886E+02  0.7816164E-02  0.1300439E+00
        -11   -1    0    0    0    0  0.00000000000E+00  0.00000000000E+00  0.45593999997E+02  0.45594000000E+02  0.51100000000E-03 0. -1.
         11   -1    0    0    0    0 -0.00000000000E+00 -0.00000000000E+00 -0.45593999997E+02  0.45594000000E+02  0.51100000000E-03 0.  1.
    9900012    2    1    2    0    0  0.18654113788E+02 -0.35558055282E+02 -0.63886165042E+01  0.50528859853E+02  0.30000000009E+02 0.  0.
        -12    1    1    2    0    0 -0.18654113788E+02  0.35558055282E+02  0.63886165042E+01  0.40659140147E+02  0.00000000000E+00 0.  1.
         11    1    3    3    0    0  0.15261659754E+02 -0.24312568575E+02 -0.99187358977E+01  0.30371048240E+02  0.51100000000E-03 0. -1.
        -11    1    3    3    0    0  0.74254606575E+01 -0.13327688384E+02  0.21088505213E+01  0.15401688038E+02  0.51100000000E-03 0.  1.
        -12    1    3    3    0    0 -0.40330066237E+01  0.20822016769E+01  0.14212688722E+01  0.47561235746E+01  0.00000000000E+00 0.  1.
</event>
<event>
 7    1  0.2985411E-011  0.5052886E+02  0.7816164E-02  0.1300439E+00
        -11   -1    0    0    0    0  0.00000000000E+00  0.00000000000E+00  0.45593999997E+02  0.45594000000E+02  0.51100000000E-03 0.  1.
         11   -1    0    0    0    0 -0.00000000000E+00 -0.00000000000E+00 -0.45593999997E+02  0.45594000000E+02  0.51100000000E-03 0. -1.
    9900012    2    1    2    0    0  0.17506015006E+02 -0.77227731392E+01 -0.35875669358E+02  0.50528862795E+02  0.30000008952E+02 0.  0.
        -12    1    1    2    0    0 -0.17506015006E+02  0.77227731392E+01  0.35875669358E+02  0.40659137205E+02  0.00000000000E+00 0.  1.
         11    1    3    3    0    0  0.62086104769E+01 -0.54312638334E+01 -0.39551759916E+01  0.91481631089E+01  0.51100000000E-03 0. -1.
        -11    1    3    3    0    0  0.13391258202E+02 -0.97726872333E+00 -0.49701893883E+01  0.14317249499E+02  0.51100000000E-03 0.  1.
         12    1    3    3    0    0 -0.20938536733E+01 -0.13142405825E+01 -0.26950303978E+02  0.27063450187E+02  0.00000000000E+00 0. -1.
</event>
<event>
 7    1  0.2985411E-011  0.5052886E+02  0.7816164E-02  0.1300439E+00
        -11   -1    0    0    0    0  0.00000000000E+00  0.00000000000E+00  0.45593999997E+02  0.45594000000E+02  0.51100000000E-03 0.  1.
         11   -1    0    0    0    0 -0.00000000000E+00 -0.00000000000E+00 -0.45593999997E+02  0.45594000000E+02  0.51100000000E-03 0. -1.
    9900012    2    1    2    0    0 -0.15361193029E+02 -0.12808218320E+02 -0.35399841498E+02  0.50528862209E+02  0.30000007171E+02 0.  0.
        -12    1    1    2    0    0  0.15361193029E+02  0.12808218320E+02  0.35399841498E+02  0.40659137791E+02  0.00000000000E+00 0.  1.
         11    1    3    3    0    0  0.22685923969E-01 -0.44008432899E-01 -0.75309946259E+00  0.75472541695E+00  0.51100000000E-03 0. -1.
        -11    1    3    3    0    0 -0.19614302449E+02  0.78691415020E+00 -0.11882993572E+02  0.22946582119E+02  0.51100000000E-03 0.  1.
         12    1    3    3    0    0  0.42304234965E+01 -0.13551124037E+02 -0.22763748464E+02  0.26827554673E+02  0.00000000000E+00 0. -1.
</event>
<event>
 7    1  0.2985411E-011  0.5052885E+02  0.7816164E-02  0.1300439E+00
        -11   -1    0    0    0    0  0.00000000000E+00  0.00000000000E+00  0.45593999997E+02  0.45594000000E+02  0.51100000000E-03 0. -1.
         11   -1    0    0    0    0 -0.00000000000E+00 -0.00000000000E+00 -0.45593999997E+02  0.45594000000E+02  0.51100000000E-03 0.  1.
    9900012    2    1    2    0    0 -0.37227073206E+02  0.16320349408E+02  0.97844472393E+00  0.50528854185E+02  0.29999982781E+02 0.  0.
        -12    1    1    2    0    0  0.37227073206E+02 -0.16320349408E+02 -0.97844472393E+00  0.40659145815E+02  0.00000000000E+00 0.  1.
         11    1    3    3    0    0 -0.80220495535E+01  0.22350394683E+01 -0.23123290208E+01  0.86426585160E+01  0.51100000000E-03 0. -1.
        -11    1    3    3    0    0 -0.29812965183E+02  0.12104963176E+02  0.10921146957E+02  0.33979618561E+02  0.51100000000E-03 0.  1.
        -12    1    3    3    0    0  0.60794152986E+00  0.19803467639E+01 -0.76303732118E+01  0.79065771078E+01  0.00000000000E+00 0.  1.
</event>
<event>
 7    1  0.2985411E-011  0.5052886E+02  0.7816164E-02  0.1300439E+00
        -11   -1    0    0    0    0  0.00000000000E+00  0.00000000000E+00  0.45593999997E+02  0.45594000000E+02  0.51100000000E-03 0.  1.
         11   -1    0    0    0    0 -0.00000000000E+00 -0.00000000000E+00 -0.45593999997E+02  0.45594000000E+02  0.51100000000E-03 0. -1.
    9900012    2    1    2    0    0  0.19137083406E+01  0.10402477748E+02 -0.39259286543E+02  0.50528863231E+02  0.30000010278E+02 0.  0.
        -12    1    1    2    0    0 -0.19137083406E+01 -0.10402477748E+02  0.39259286543E+02  0.40659136769E+02  0.00000000000E+00 0.  1.
         11    1    3    3    0    0  0.52111199086E+01  0.10880864576E+02 -0.19884334626E+02  0.23258025462E+02  0.51100000000E-03 0. -1.
        -11    1    3    3    0    0  0.17741528083E+01  0.73168815971E+01 -0.23771250648E+01  0.78952579646E+01  0.51100000000E-03 0.  1.
         12    1    3    3    0    0 -0.50715643763E+01 -0.77952684257E+01 -0.16997826853E+02  0.19375579805E+02  0.00000000000E+00 0. -1.
</event>
<event>
 7    1  0.2985411E-011  0.5052887E+02  0.7816164E-02  0.1300439E+00
        -11   -1    0    0    0    0  0.00000000000E+00  0.00000000000E+00  0.45593999997E+02  0.45594000000E+02  0.51100000000E-03 0.  1.
         11   -1    0    0    0    0 -0.00000000000E+00 -0.00000000000E+00 -0.45593999997E+02  0.45594000000E+02  0.51100000000E-03 0. -1.
    9900012    2    1    2    0    0  0.10129740780E+01 -0.36348277481E+01 -0.40483661343E+02  0.50528869107E+02  0.30000028138E+02 0.  0.
        -12    1    1    2    0    0 -0.10129740780E+01  0.36348277481E+01  0.40483661343E+02  0.40659130893E+02  0.00000000000E+00 0.  1.
         11    1    3    3    0    0 -0.18445616875E+01 -0.54118696020E+00 -0.29521440646E+02  0.29583961013E+02  0.51100000000E-03 0. -1.
        -11    1    3    3    0    0  0.17907104655E+01  0.44081114352E+01 -0.12356119552E+02  0.13240535527E+02  0.51100000000E-03 0.  1.
        -12    1    3    3    0    0  0.10668252999E+01 -0.75017522231E+01  0.13938988551E+01  0.77043725673E+01  0.00000000000E+00 0.  1.
</event>
<event>
 7    1  0.2985411E-011  0.5052886E+02  0.7816164E-02  0.1300439E+00
        -11   -1    0    0    0    0  0.00000000000E+00  0.00000000000E+00  0.45593999997E+02  0.45594000000E+02  0.51100000000E-03 0. -1.
         11   -1    0    0    0    0 -0.00000000000E+00 -0.00000000000E+00 -0.45593999997E+02  0.45594000000E+02  0.51100000000E-03 0.  1.
    9900012    2    1    2    0    0  0.40351557012E+02 -0.49530338592E+01 -0.62053207489E+00  0.50528858866E+02  0.29999997010E+02 0.  0.
        -12    1    1    2    0    0 -0.40351557012E+02  0.49530338592E+01  0.62053207489E+00  0.40659141134E+02  0.00000000000E+00 0.  1.
         11    1    3    3    0    0  0.12447469099E+01  0.48068634792E+01  0.29541243699E+01  0.57777315991E+01  0.51100000000E-03 0. -1.
        -11    1    3    3    0    0 -0.13070131112E+01 -0.29959715374E+01 -0.18119611906E+01  0.37372894380E+01  0.51100000000E-03 0.  1.
         12    1    3    3    0    0  0.40413823213E+02 -0.67639258010E+01 -0.17626952543E+01  0.41013837829E+02  0.00000000000E+00 0. -1.
</event>
<event>
 7    1  0.2985411E-011  0.5052886E+02  0.7816164E-02  0.1300439E+00
        -11   -1    0    0    0    0  0.00000000000E+00  0.00000000000E+00  0.45593999997E+02  0.45594000000E+02  0.51100000000E-03 0. -1.
         11   -1    0    0    0    0 -0.00000000000E+00 -0.00000000000E+00 -0.45593999997E+02  0.45594000000E+02  0.51100000000E-03 0.  1.
    9900012    2    1    2    0    0 -0.72924895472E+01 -0.11382574292E+02  0.38346086523E+02  0.50528858925E+02  0.29999997190E+02 0.  0.
        -12    1    1    2    0    0  0.72924895472E+01  0.11382574292E+02 -0.38346086523E+02  0.40659141075E+02  0.00000000000E+00 0.  1.
         11    1    3    3    0    0 -0.69143773512E+01 -0.11173937949E+02  0.25665752742E+02  0.28833944710E+02  0.51100000000E-03 0. -1.
        -11    1    3    3    0    0 -0.22287641809E+01 -0.86443825464E+01  0.71746992925E+01  0.11452905727E+02  0.51100000000E-03 0.  1.
        -12    1    3    3    0    0  0.18506519849E+01  0.84357462032E+01  0.55056344877E+01  0.10242008489E+02  0.00000000000E+00 0.  1.
</event>
<event>
 7    1  0.2985411E-011  0.5052886E+02  0.7816164E-02  0.1300439E+00
        -11   -1    0    0    0    0  0.00000000000E+00  0.00000000000E+00  0.45593999997E+02  0.45594000000E+02  0.51100000000E-03 0. -1.
         11   -1    0    0    0    0 -0.00000000000E+00 -0.00000000000E+00 -0.45593999997E+02  0.45594000000E+02  0.51100000000E-03 0.  1.
    9900012    2    1    2    0    0  0.21297674044E+02 -0.29549010718E+02 -0.18067398889E+02  0.50528857649E+02  0.29999993309E+02 0.  0.
        -12    1    1    2    0    0 -0.21297674044E+02  0.29549010718E+02  0.18067398889E+02  0.40659142351E+02  0.00000000000E+00 0.  1.
         11    1    3    3    0    0  0.70276791444E+01 -0.64877785121E+01 -0.96541571767E+01  0.13589786431E+02  0.51100000000E-03 0. -1.
        -11    1    3    3    0    0  0.10362298658E+02 -0.24415239727E+02 -0.13997480666E+02  0.29990175552E+02  0.51100000000E-03 0.  1.
        -12    1    3    3    0    0  0.39076962415E+01  0.13540075207E+01  0.55842389536E+01  0.69488956657E+01  0.00000000000E+00 0.  1.
</event>
<event>
 7    1  0.2985411E-011  0.5052886E+02  0.7816164E-02  0.1300439E+00
        -11   -1    0    0    0    0  0.00000000000E+00  0.00000000000E+00  0.45593999997E+02  0.45594000000E+02  0.51100000000E-03 0.  1.
         11   -1    0    0    0    0 -0.00000000000E+00 -0.00000000000E+00 -0.45593999997E+02  0.45594000000E+02  0.51100000000E-03 0. -1.
    9900012    2    1    2    0    0  0.12611313420E+02  0.31219350056E+01 -0.38527572583E+02  0.50528861378E+02  0.30000004643E+02 0.  0.
        -12    1    1    2    0    0 -0.12611313420E+02 -0.31219350056E+01  0.38527572583E+02  0.40659138622E+02  0.00000000000E+00 0.  1.
         11    1    3    3    0    0  0.87439730522E+01  0.87005686085E+01 -0.15298477006E+02  0.19651981015E+02  0.51100000000E-03 0. -1.
        -11    1    3    3    0    0  0.79329894562E+01 -0.81080573476E+01 -0.56795293134E+01  0.12685817638E+02  0.51100000000E-03 0.  1.
        -12    1    3    3    0    0 -0.40656490885E+01  0.25294237446E+01 -0.17549566264E+02  0.18191062725E+02  0.00000000000E+00 0.  1.
</event>
<event>
 7    1  0.2985411E-011  0.5052886E+02  0.7816164E-02  0.1300439E+00
        -11   -1    0    0    0    0  0.00000000000E+00  0.00000000000E+00  0.45593999997E+02  0.45594000000E+02  0.51100000000E-03 0. -1.
         11   -1    0    0    0    0 -0.00000000000E+00 -0.00000000000E+00 -0.45593999997E+02  0.45594000000E+02  0.51100000000E-03 0.  1.
    9900012    2    1    2    0    0 -0.27446730143E+02  0.23716352840E+02  0.18367832812E+02  0.50528859948E+02  0.30000000298E+02 0.  0.
        -12    1    1    2    0    0  0.27446730143E+02 -0.23716352840E+02 -0.18367832812E+02  0.40659140052E+02  0.00000000000E+00 0.  1.
         11    1    3    3    0    0 -0.19030613854E+02  0.12451252527E+02  0.16731763981E+02  0.28233842801E+02  0.51100000000E-03 0. -1.
        -11    1    3    3    0    0 -0.85006181783E+01  0.11068118619E+01  0.67601762802E+01  0.10917212351E+02  0.51100000000E-03 0.  1.
        -12    1    3    3    0    0  0.84501889106E-01  0.10158288451E+02 -0.51241074492E+01  0.11377804796E+02  0.00000000000E+00 0.  1.
</event>
<event>
 7    1  0.2985411E-011  0.5052893E+02  0.7816164E-02  0.1300439E+00
        -11   -1    0    0    0    0  0.00000000000E+00  0.00000000000E+00  0.45593999997E+02  0.45594000000E+02  0.51100000000E-03 0. -1.
         11   -1    0    0    0    0 -0.00000000000E+00 -0.00000000000E+00 -0.45593999997E+02  0.45594000000E+02  0.51100000000E-03 0.  1.
    9900012    2    1    2    0    0  0.74531922959E+01 -0.60807410364E+01  0.39504870152E+02  0.50528926564E+02  0.30000202782E+02 0.  0.
        -12    1    1    2    0    0 -0.74531922959E+01  0.60807410364E+01 -0.39504870152E+02  0.40659073436E+02  0.00000000000E+00 0.  1.
         11    1    3    3    0    0 -0.42558567064E+00  0.68171813389E+01  0.95754514204E+01  0.11761987703E+02  0.51100000000E-03 0. -1.
        -11    1    3    3    0    0  0.15622777218E+01  0.12266422754E+01  0.20607848364E+02  0.20703351840E+02  0.51100000000E-03 0.  1.
        -12    1    3    3    0    0  0.63165002447E+01 -0.14124564651E+02  0.93215703675E+01  0.18063587020E+02  0.00000000000E+00 0.  1.
</event>
<event>
 7    1  0.2985411E-011  0.5052886E+02  0.7816164E-02  0.1300439E+00
        -11   -1    0    0    0    0  0.00000000000E+00  0.00000000000E+00  0.45593999997E+02  0.45594000000E+02  0.51100000000E-03 0.  1.
         11   -1    0    0    0    0 -0.00000000000E+00 -0.00000000000E+00 -0.45593999997E+02  0.45594000000E+02  0.51100000000E-03 0. -1.
    9900012    2    1    2    0    0 -0.98646836797E+01  0.93070849511E+01 -0.38330562706E+02  0.50528857710E+02  0.29999993497E+02 0.  0.
        -12    1    1    2    0    0  0.98646836797E+01 -0.93070849511E+01  0.38330562706E+02  0.40659142290E+02  0.00000000000E+00 0.  1.
         11    1    3    3    0    0 -0.13509072321E+02  0.34112738955E+01 -0.14762117938E+02  0.20299062807E+02  0.51100000000E-03 0. -1.
        -11    1    3    3    0    0 -0.52162234453E+01  0.40648282952E+01 -0.21093539813E+01  0.69412672172E+01  0.51100000000E-03 0.  1.
        -12    1    3    3    0    0  0.88606120866E+01  0.18309827603E+01 -0.21459090786E+02  0.23288527686E+02  0.00000000000E+00 0.  1.
</event>
<event>
 7    1  0.2985411E-011  0.5052886E+02  0.7816164E-02  0.1300439E+00
        -11   -1    0    0    0    0  0.00000000000E+00  0.00000000000E+00  0.45593999997E+02  0.45594000000E+02  0.51100000000E-03 0.  1.
         11   -1    0    0    0    0 -0.00000000000E+00 -0.00000000000E+00 -0.45593999997E+02  0.45594000000E+02  0.51100000000E-03 0. -1.
    9900012    2    1    2    0    0  0.17284681368E+02  0.23291474763E+02 -0.28494074903E+02  0.50528864358E+02  0.30000013701E+02 0.  0.
        -12    1    1    2    0    0 -0.17284681368E+02 -0.23291474763E+02  0.28494074903E+02  0.40659135642E+02  0.00000000000E+00 0.  1.
         11    1    3    3    0    0  0.73614135784E+01  0.66367179533E+01  0.13688656761E+01  0.10005509910E+02  0.51100000000E-03 0. -1.
        -11    1    3    3    0    0 -0.70635433716E+00 -0.17886058734E+01  0.16231699310E+01  0.25164912688E+01  0.51100000000E-03 0.  1.
         12    1    3    3    0    0  0.10629622127E+02  0.18443362683E+02 -0.31486110510E+02  0.38006863178E+02  0.00000000000E+00 0. -1.
</event>
<event>
 7    1  0.2985411E-011  0.5052886E+02  0.7816164E-02  0.1300439E+00
        -11   -1    0    0    0    0  0.00000000000E+00  0.00000000000E+00  0.45593999997E+02  0.45594000000E+02  0.51100000000E-03 0.  1.
         11   -1    0    0    0    0 -0.00000000000E+00 -0.00000000000E+00 -0.45593999997E+02  0.45594000000E+02  0.51100000000E-03 0. -1.
    9900012    2    1    2    0    0 -0.16818278149E+02  0.21000979250E+02 -0.30483929699E+02  0.50528861062E+02  0.30000003683E+02 0.  0.
        -12    1    1    2    0    0  0.16818278149E+02 -0.21000979250E+02  0.30483929699E+02  0.40659138938E+02  0.00000000000E+00 0.  1.
         11    1    3    3    0    0  0.48982818298E+01  0.63082250391E+00 -0.55616695922E+01  0.74379614700E+01  0.51100000000E-03 0. -1.
        -11    1    3    3    0    0  0.19674771946E+01  0.95209787197E+00  0.14924920422E+01  0.26466940939E+01  0.51100000000E-03 0.  1.
         12    1    3    3    0    0 -0.23684037173E+02  0.19418058874E+02 -0.26414752149E+02  0.40444205498E+02  0.00000000000E+00 0. -1.
</event>
<event>
 7    1  0.2985411E-011  0.5052889E+02  0.7816164E-02  0.1300439E+00
        -11   -1    0    0    0    0  0.00000000000E+00  0.00000000000E+00  0.45593999997E+02  0.45594000000E+02  0.51100000000E-03 0.  1.
         11   -1    0    0    0    0 -0.00000000000E+00 -0.00000000000E+00 -0.45593999997E+02  0.45594000000E+02  0.51100000000E-03 0. -1.
    9900012    2    1    2    0    0  0.27547890550E+02  0.26399961223E-01 -0.29904458540E+02  0.50528885262E+02  0.30000077242E+02 0.  0.
        -12    1    1    2    0    0 -0.27547890550E+02 -0.26399961223E-01  0.29904458540E+02  0.40659114738E+02  0.00000000000E+00 0.  1.
         11    1    3    3    0    0  0.98886832838E+01 -0.14703535145E+01 -0.19737867512E+02  0.22125356737E+02  0.51100000000E-03 0. -1.
        -11    1    3    3    0    0 -0.37280449575E+01 -0.67527574748E+00  0.13421928919E+01  0.40194276409E+01  0.51100000000E-03 0.  1.
        -12    1    3    3    0    0  0.21387252224E+02  0.21720292232E+01 -0.11508783920E+02  0.24384100884E+02  0.00000000000E+00 0.  1.
</event>
<event>
 7    1  0.2985411E-011  0.5052886E+02  0.7816164E-02  0.1300439E+00
        -11   -1    0    0    0    0  0.00000000000E+00  0.00000000000E+00  0.45593999997E+02  0.45594000000E+02  0.51100000000E-03 0.  1.
         11   -1    0    0    0    0 -0.00000000000E+00 -0.00000000000E+00 -0.45593999997E+02  0.45594000000E+02  0.51100000000E-03 0. -1.
    9900012    2    1    2    0    0  0.25057236869E+02 -0.30588741771E+02 -0.94673009806E+01  0.50528855512E+02  0.29999986813E+02 0.  0.
        -12    1    1    2    0    0 -0.25057236869E+02  0.30588741771E+02  0.94673009806E+01  0.40659144488E+02  0.00000000000E+00 0.  1.
         11    1    3    3    0    0  0.15360455376E+02 -0.76071592641E+01 -0.27551634835E+01  0.17360973115E+02  0.51100000000E-03 0. -1.
        -11    1    3    3    0    0  0.13548210566E+02 -0.55980227488E+01 -0.24921290227E+01  0.14869518336E+02  0.51100000000E-03 0.  1.
        -12    1    3    3    0    0 -0.38514290718E+01 -0.17383559758E+02 -0.42200084744E+01  0.18298364060E+02  0.00000000000E+00 0.  1.
</event>
<event>
 7    1  0.2985411E-011  0.5052886E+02  0.7816164E-02  0.1300439E+00
        -11   -1    0    0    0    0  0.00000000000E+00  0.00000000000E+00  0.45593999997E+02  0.45594000000E+02  0.51100000000E-03 0.  1.
         11   -1    0    0    0    0 -0.00000000000E+00 -0.00000000000E+00 -0.45593999997E+02  0.45594000000E+02  0.51100000000E-03 0. -1.
    9900012    2    1    2    0    0  0.31173410561E+02  0.17535612077E+02 -0.19336152128E+02  0.50528855935E+02  0.29999988101E+02 0.  0.
        -12    1    1    2    0    0 -0.31173410561E+02 -0.17535612077E+02  0.19336152128E+02  0.40659144065E+02  0.00000000000E+00 0.  1.
         11    1    3    3    0    0  0.85679390222E+01  0.17307937175E+01  0.44299447493E+01  0.97994712471E+01  0.51100000000E-03 0.  1.
        -11    1    3    3    0    0  0.16213376667E+02  0.66532984373E+01 -0.39187175657E+01  0.17958182276E+02  0.51100000000E-03 0. -1.
        -12    1    3    3    0    0  0.63920948726E+01  0.91515199225E+01 -0.19847379312E+02  0.22771202412E+02  0.00000000000E+00 0.  1.
</event>
<event>
 7    1  0.2985411E-011  0.5052888E+02  0.7816164E-02  0.1300439E+00
        -11   -1    0    0    0    0  0.00000000000E+00  0.00000000000E+00  0.45593999997E+02  0.45594000000E+02  0.51100000000E-03 0. -1.
         11   -1    0    0    0    0 -0.00000000000E+00 -0.00000000000E+00 -0.45593999997E+02  0.45594000000E+02  0.51100000000E-03 0.  1.
    9900012    2    1    2    0    0  0.11169518789E+02 -0.37243346117E+02 -0.11888619878E+02  0.50528877253E+02  0.30000052897E+02 0.  0.
        -12    1    1    2    0    0 -0.11169518789E+02  0.37243346117E+02  0.11888619878E+02  0.40659122747E+02  0.00000000000E+00 0.  1.
         11    1    3    3    0    0  0.51762196657E+01 -0.54267969824E+01 -0.46876976896E+01  0.88440875960E+01  0.51100000000E-03 0. -1.
        -11    1    3    3    0    0  0.17582805665E+01 -0.27855019857E+02 -0.15218445161E+02  0.31789853022E+02  0.51100000000E-03 0.  1.
         12    1    3    3    0    0  0.42350185564E+01 -0.39615292776E+01  0.80175229724E+01  0.98949366346E+01  0.00000000000E+00 0. -1.
</event>
<event>
 7    1  0.2985411E-011  0.5052886E+02  0.7816164E-02  0.1300439E+00
        -11   -1    0    0    0    0  0.00000000000E+00  0.00000000000E+00  0.45593999997E+02  0.45594000000E+02  0.51100000000E-03 0.  1.
         11   -1    0    0    0    0 -0.00000000000E+00 -0.00000000000E+00 -0.45593999997E+02  0.45594000000E+02  0.51100000000E-03 0. -1.
    9900012    2    1    2    0    0 -0.15198583771E+02  0.60208525470E+01 -0.37227916207E+02  0.50528863768E+02  0.30000011909E+02 0.  0.
        -12    1    1    2    0    0  0.15198583771E+02 -0.60208525470E+01  0.37227916207E+02  0.40659136232E+02  0.00000000000E+00 0.  1.
         11    1    3    3    0    0 -0.12431274731E+02  0.86416785778E+01 -0.19822445388E+02  0.24942825451E+02  0.51100000000E-03 0. -1.
        -11    1    3    3    0    0 -0.89718482043E+00  0.59119653450E+01 -0.15544115466E+02  0.16654602989E+02  0.51100000000E-03 0.  1.
        -12    1    3    3    0    0 -0.18701242196E+01 -0.85327913758E+01 -0.18613553533E+01  0.89314353276E+01  0.00000000000E+00 0.  1.
</event>
<event>
 7    1  0.2985411E-011  0.5052896E+02  0.7816164E-02  0.1300438E+00
        -11   -1    0    0    0    0  0.00000000000E+00  0.00000000000E+00  0.45593999997E+02  0.45594000000E+02  0.51100000000E-03 0.  1.
         11   -1    0    0    0    0 -0.00000000000E+00 -0.00000000000E+00 -0.45593999997E+02  0.45594000000E+02  0.51100000000E-03 0. -1.
    9900012    2    1    2    0    0 -0.93733551356E+01  0.26441498061E+02 -0.29430334869E+02  0.50528963898E+02  0.30000316264E+02 0.  0.
        -12    1    1    2    0    0  0.93733551356E+01 -0.26441498061E+02  0.29430334869E+02  0.40659036102E+02  0.00000000000E+00 0.  1.
         11    1    3    3    0    0  0.23875718856E+01 -0.10095347252E+01  0.21521984227E+01  0.33692162564E+01  0.51100000000E-03 0. -1.
        -11    1    3    3    0    0 -0.63778852766E+01  0.49172686387E+01 -0.78079413357E-01  0.80537598749E+01  0.51100000000E-03 0.  1.
         12    1    3    3    0    0 -0.53830417446E+01  0.22533764148E+02 -0.31504453878E+02  0.39105987767E+02  0.00000000000E+00 0. -1.
</event>
<event>
 7    1  0.2985411E-011  0.5052888E+02  0.7816164E-02  0.1300439E+00
        -11   -1    0    0    0    0  0.00000000000E+00  0.00000000000E+00  0.45593999997E+02  0.45594000000E+02  0.51100000000E-03 0. -1.
         11   -1    0    0    0    0 -0.00000000000E+00 -0.00000000000E+00 -0.45593999997E+02  0.45594000000E+02  0.51100000000E-03 0.  1.
    9900012    2    1    2    0    0  0.19405924750E+01  0.34739587608E+02  0.21037100456E+02  0.50528875047E+02  0.30000046194E+02 0.  0.
        -12    1    1    2    0    0 -0.19405924750E+01 -0.34739587608E+02 -0.21037100456E+02  0.40659124953E+02  0.00000000000E+00 0.  1.
         11    1    3    3    0    0  0.51648242162E+00  0.14068340081E+02  0.76012675652E+00  0.14098324002E+02  0.51100000000E-03 0.  1.
        -11    1    3    3    0    0  0.28728908498E+00  0.23156681399E+02  0.22952621052E+02  0.32605785405E+02  0.51100000000E-03 0. -1.
         12    1    3    3    0    0  0.11368209684E+01 -0.24854338727E+01 -0.26756473522E+01  0.38247656403E+01  0.00000000000E+00 0. -1.
</event>
<event>
 7    1  0.2985411E-011  0.5052886E+02  0.7816164E-02  0.1300439E+00
        -11   -1    0    0    0    0  0.00000000000E+00  0.00000000000E+00  0.45593999997E+02  0.45594000000E+02  0.51100000000E-03 0. -1.
         11   -1    0    0    0    0 -0.00000000000E+00 -0.00000000000E+00 -0.45593999997E+02  0.45594000000E+02  0.51100000000E-03 0.  1.
    9900012    2    1    2    0    0 -0.39714542397E+02  0.50939123639E+01  0.70691527805E+01  0.50528859060E+02  0.29999997598E+02 0.  0.
        -12    1    1    2    0    0  0.39714542397E+02 -0.50939123639E+01 -0.70691527805E+01  0.40659140940E+02  0.00000000000E+00 0.  1.
         11    1    3    3    0    0 -0.29383106087E+01  0.43209719781E+01  0.12209208301E+01  0.53661080872E+01  0.51100000000E-03 0.  1.
        -11    1    3    3    0    0 -0.14300117719E+02 -0.11669765341E+02  0.61970528094E+01  0.19469983402E+02  0.51100000000E-03 0. -1.
         12    1    3    3    0    0 -0.22476114070E+02  0.12442705726E+02 -0.34882085898E+00  0.25692767571E+02  0.00000000000E+00 0. -1.
</event>
<event>
 7    1  0.2985411E-011  0.5052886E+02  0.7816164E-02  0.1300439E+00
        -11   -1    0    0    0    0  0.00000000000E+00  0.00000000000E+00  0.45593999997E+02  0.45594000000E+02  0.51100000000E-03 0. -1.
         11   -1    0    0    0    0 -0.00000000000E+00 -0.00000000000E+00 -0.45593999997E+02  0.45594000000E+02  0.51100000000E-03 0.  1.
    9900012    2    1    2    0    0 -0.11546401921E+02 -0.36592551650E+02  0.13447358436E+02  0.50528859792E+02  0.29999999824E+02 0.  0.
        -12    1    1    2    0    0  0.11546401921E+02  0.36592551650E+02 -0.13447358436E+02  0.40659140208E+02  0.00000000000E+00 0.  1.
         11    1    3    3    0    0 -0.43843972248E+01 -0.14948122339E+01 -0.38863622824E+01  0.60465870283E+01  0.51100000000E-03 0. -1.
        -11    1    3    3    0    0  0.48813506901E+01 -0.45722897397E+01 -0.11995734116E+01  0.67950272004E+01  0.51100000000E-03 0.  1.
         12    1    3    3    0    0 -0.12043355386E+02 -0.30525449676E+02  0.18533294130E+02  0.37687245564E+02  0.00000000000E+00 0. -1.
</event>
<event>
 7    1  0.2985411E-011  0.5052886E+02  0.7816164E-02  0.1300439E+00
        -11   -1    0    0    0    0  0.00000000000E+00  0.00000000000E+00  0.45593999997E+02  0.45594000000E+02  0.51100000000E-03 0. -1.
         11   -1    0    0    0    0 -0.00000000000E+00 -0.00000000000E+00 -0.45593999997E+02  0.45594000000E+02  0.51100000000E-03 0.  1.
    9900012    2    1    2    0    0  0.69137961300E+01 -0.31590021902E+02  0.24646203801E+02  0.50528862989E+02  0.30000009542E+02 0.  0.
        -12    1    1    2    0    0 -0.69137961300E+01  0.31590021902E+02 -0.24646203801E+02  0.40659137011E+02  0.00000000000E+00 0.  1.
         11    1    3    3    0    0 -0.40397631397E+01 -0.11587301829E+02  0.14321947531E+02  0.18860101570E+02  0.51100000000E-03 0. -1.
        -11    1    3    3    0    0 -0.43818188588E+01 -0.45237090425E+01  0.73471325471E+01  0.96770159108E+01  0.51100000000E-03 0.  1.
         12    1    3    3    0    0  0.15335378128E+02 -0.15479011030E+02  0.29771237223E+01  0.21991745508E+02  0.00000000000E+00 0. -1.
</event>
<event>
 7    1  0.2985411E-011  0.5052886E+02  0.7816164E-02  0.1300439E+00
        -11   -1    0    0    0    0  0.00000000000E+00  0.00000000000E+00  0.45593999997E+02  0.45594000000E+02  0.51100000000E-03 0. -1.
         11   -1    0    0    0    0 -0.00000000000E+00 -0.00000000000E+00 -0.45593999997E+02  0.45594000000E+02  0.51100000000E-03 0.  1.
    9900012    2    1    2    0    0  0.38153239946E+02  0.39536331274E+00  0.14047770150E+02  0.50528857403E+02  0.29999992561E+02 0.  0.
        -12    1    1    2    0    0 -0.38153239946E+02 -0.39536331274E+00 -0.14047770150E+02  0.40659142597E+02  0.00000000000E+00 0.  1.
         11    1    3    3    0    0  0.36375217336E+01 -0.65995353270E+01  0.93120060091E+00  0.75929286652E+01  0.51100000000E-03 0. -1.
        -11    1    3    3    0    0  0.39399176605E+01  0.74978497144E+01  0.85176284437E+01  0.12012106230E+02  0.51100000000E-03 0.  1.
         12    1    3    3    0    0  0.30575800552E+02 -0.50295107469E+00  0.45989411055E+01  0.30923822508E+02  0.00000000000E+00 0. -1.
</event>
<event>
 7    1  0.2985411E-011  0.5052887E+02  0.7816164E-02  0.1300439E+00
        -11   -1    0    0    0    0  0.00000000000E+00  0.00000000000E+00  0.45593999997E+02  0.45594000000E+02  0.51100000000E-03 0.  1.
         11   -1    0    0    0    0 -0.00000000000E+00 -0.00000000000E+00 -0.45593999997E+02  0.45594000000E+02  0.51100000000E-03 0. -1.
    9900012    2    1    2    0    0  0.16712369001E+02 -0.35403592797E+02 -0.10974860405E+02  0.50528865461E+02  0.30000017057E+02 0.  0.
        -12    1    1    2    0    0 -0.16712369001E+02  0.35403592797E+02  0.10974860405E+02  0.40659134539E+02  0.00000000000E+00 0.  1.
         11    1    3    3    0    0  0.10776128118E+02 -0.90078975929E+01  0.33370390517E+01  0.14436169373E+02  0.51100000000E-03 0. -1.
        -11    1    3    3    0    0  0.34670133213E+01 -0.20568325656E+01  0.38886500810E+01  0.56011017922E+01  0.51100000000E-03 0.  1.
        -12    1    3    3    0    0  0.24692275608E+01 -0.24338862638E+02 -0.18200549538E+02  0.30491594296E+02  0.00000000000E+00 0.  1.
</event>
<event>
 7    1  0.2985411E-011  0.5052886E+02  0.7816164E-02  0.1300439E+00
        -11   -1    0    0    0    0  0.00000000000E+00  0.00000000000E+00  0.45593999997E+02  0.45594000000E+02  0.51100000000E-03 0. -1.
         11   -1    0    0    0    0 -0.00000000000E+00 -0.00000000000E+00 -0.45593999997E+02  0.45594000000E+02  0.51100000000E-03 0.  1.
    9900012    2    1    2    0    0 -0.62246737215E+00  0.19476993833E+02  0.35685080398E+02  0.50528859362E+02  0.29999998517E+02 0.  0.
        -12    1    1    2    0    0  0.62246737215E+00 -0.19476993833E+02 -0.35685080398E+02  0.40659140638E+02  0.00000000000E+00 0.  1.
         11    1    3    3    0    0  0.87527439107E+00  0.32501254001E+01 -0.97014317593E+00  0.35029413954E+01  0.51100000000E-03 0. -1.
        -11    1    3    3    0    0 -0.71707009952E+01 -0.23866786383E+01  0.20112723860E+02  0.21485735943E+02  0.51100000000E-03 0.  1.
         12    1    3    3    0    0  0.56729592320E+01  0.18613547071E+02  0.16542499715E+02  0.25540182024E+02  0.00000000000E+00 0. -1.
</event>
<event>
 7    1  0.2985411E-011  0.5052886E+02  0.7816164E-02  0.1300439E+00
        -11   -1    0    0    0    0  0.00000000000E+00  0.00000000000E+00  0.45593999997E+02  0.45594000000E+02  0.51100000000E-03 0. -1.
         11   -1    0    0    0    0 -0.00000000000E+00 -0.00000000000E+00 -0.45593999997E+02  0.45594000000E+02  0.51100000000E-03 0.  1.
    9900012    2    1    2    0    0  0.17249025697E+02 -0.28007368441E+02  0.23900289381E+02  0.50528863180E+02  0.30000010121E+02 0.  0.
        -12    1    1    2    0    0 -0.17249025697E+02  0.28007368441E+02 -0.23900289381E+02  0.40659136820E+02  0.00000000000E+00 0.  1.
         11    1    3    3    0    0  0.52292339651E+01 -0.24591214827E+01  0.79470796558E+01  0.98258964805E+01  0.51100000000E-03 0. -1.
        -11    1    3    3    0    0  0.12269489026E+02 -0.79176838247E+01  0.17743939246E+02  0.22979935995E+02  0.51100000000E-03 0.  1.
        -12    1    3    3    0    0 -0.24969729404E+00 -0.17630563133E+02 -0.17907295202E+01  0.17723030704E+02  0.00000000000E+00 0.  1.
</event>
<event>
 7    1  0.2985411E-011  0.5052885E+02  0.7816164E-02  0.1300439E+00
        -11   -1    0    0    0    0  0.00000000000E+00  0.00000000000E+00  0.45593999997E+02  0.45594000000E+02  0.51100000000E-03 0.  1.
         11   -1    0    0    0    0 -0.00000000000E+00 -0.00000000000E+00 -0.45593999997E+02  0.45594000000E+02  0.51100000000E-03 0. -1.
    9900012    2    1    2    0    0 -0.40221944307E+02  0.59189743675E+01  0.57245939094E+00  0.50528846404E+02  0.29999959129E+02 0.  0.
        -12    1    1    2    0    0  0.40221944307E+02 -0.59189743675E+01 -0.57245939094E+00  0.40659153596E+02  0.00000000000E+00 0.  1.
         11    1    3    3    0    0 -0.12387264727E+02  0.85334352254E+01  0.74314408206E+01  0.16777668405E+02  0.51100000000E-03 0. -1.
        -11    1    3    3    0    0 -0.18669245112E+02  0.66622696864E+01 -0.58683623410E+01  0.20672789537E+02  0.51100000000E-03 0.  1.
        -12    1    3    3    0    0 -0.91654344682E+01 -0.92767305443E+01 -0.99061908868E+00  0.13078388462E+02  0.00000000000E+00 0.  1.
</event>
<event>
 7    1  0.2985411E-011  0.5052885E+02  0.7816164E-02  0.1300439E+00
        -11   -1    0    0    0    0  0.00000000000E+00  0.00000000000E+00  0.45593999997E+02  0.45594000000E+02  0.51100000000E-03 0.  1.
         11   -1    0    0    0    0 -0.00000000000E+00 -0.00000000000E+00 -0.45593999997E+02  0.45594000000E+02  0.51100000000E-03 0. -1.
    9900012    2    1    2    0    0  0.24634335972E+02 -0.23404139801E+02 -0.22328505999E+02  0.50528850369E+02  0.29999971180E+02 0.  0.
        -12    1    1    2    0    0 -0.24634335972E+02  0.23404139801E+02  0.22328505999E+02  0.40659149631E+02  0.00000000000E+00 0.  1.
         11    1    3    3    0    0  0.11519589980E+01  0.18792125272E+01 -0.65260703706E+00  0.22987704238E+01  0.51100000000E-03 0. -1.
        -11    1    3    3    0    0  0.20019119324E+02 -0.70854195185E+01 -0.20737389035E+02  0.29681772395E+02  0.51100000000E-03 0.  1.
        -12    1    3    3    0    0  0.34632576499E+01 -0.18197932809E+02 -0.93850992764E+00  0.18548307550E+02  0.00000000000E+00 0.  1.
</event>
<event>
 7    1  0.2985411E-011  0.5052884E+02  0.7816164E-02  0.1300439E+00
        -11   -1    0    0    0    0  0.00000000000E+00  0.00000000000E+00  0.45593999997E+02  0.45594000000E+02  0.51100000000E-03 0.  1.
         11   -1    0    0    0    0 -0.00000000000E+00 -0.00000000000E+00 -0.45593999997E+02  0.45594000000E+02  0.51100000000E-03 0. -1.
    9900012    2    1    2    0    0  0.15129387106E+00 -0.29736099099E+01 -0.40549990199E+02  0.50528844194E+02  0.29999952413E+02 0.  0.
        -12    1    1    2    0    0 -0.15129387106E+00  0.29736099099E+01  0.40549990199E+02  0.40659155806E+02  0.00000000000E+00 0.  1.
         11    1    3    3    0    0 -0.51945536563E+01  0.53971650126E+01 -0.66084739576E+01  0.99892295083E+01  0.51100000000E-03 0. -1.
        -11    1    3    3    0    0 -0.74423911466E+01 -0.28495186461E+01 -0.94268061754E+01  0.12343970894E+02  0.51100000000E-03 0.  1.
         12    1    3    3    0    0  0.12788238674E+02 -0.55212562763E+01 -0.24514710066E+02  0.28195643792E+02  0.00000000000E+00 0. -1.
</event>
<event>
 7    1  0.2985411E-011  0.5052887E+02  0.7816164E-02  0.1300439E+00
        -11   -1    0    0    0    0  0.00000000000E+00  0.00000000000E+00  0.45593999997E+02  0.45594000000E+02  0.51100000000E-03 0.  1.
         11   -1    0    0    0    0 -0.00000000000E+00 -0.00000000000E+00 -0.45593999997E+02  0.45594000000E+02  0.51100000000E-03 0. -1.
    9900012    2    1    2    0    0 -0.40605489854E+02 -0.18287785548E+01 -0.10074012454E+01  0.50528867021E+02  0.30000021798E+02 0.  0.
        -12    1    1    2    0    0  0.40605489854E+02  0.18287785548E+01  0.10074012454E+01  0.40659132979E+02  0.00000000000E+00 0.  1.
         11    1    3    3    0    0 -0.84872001484E+01 -0.61856504415E+01 -0.60821187493E+01  0.12136185829E+02  0.51100000000E-03 0. -1.
        -11    1    3    3    0    0  0.15813357209E+01 -0.95660535930E+00  0.38316598984E+01  0.42540961806E+01  0.51100000000E-03 0.  1.
         12    1    3    3    0    0 -0.33699625427E+02  0.53134772460E+01  0.12430576055E+01  0.34138585011E+02  0.00000000000E+00 0. -1.
</event>
<event>
 7    1  0.2985411E-011  0.5052890E+02  0.7816164E-02  0.1300439E+00
        -11   -1    0    0    0    0  0.00000000000E+00  0.00000000000E+00  0.45593999997E+02  0.45594000000E+02  0.51100000000E-03 0.  1.
         11   -1    0    0    0    0 -0.00000000000E+00 -0.00000000000E+00 -0.45593999997E+02  0.45594000000E+02  0.51100000000E-03 0. -1.
    9900012    2    1    2    0    0  0.28290395329E+02  0.11261710373E+02 -0.26944202580E+02  0.50528897194E+02  0.30000113509E+02 0.  0.
        -12    1    1    2    0    0 -0.28290395329E+02 -0.11261710373E+02  0.26944202580E+02  0.40659102806E+02  0.00000000000E+00 0.  1.
         11    1    3    3    0    0 -0.21006436398E+01  0.11505763797E+01 -0.31428795394E+01  0.39514834895E+01  0.51100000000E-03 0. -1.
        -11    1    3    3    0    0 -0.27340291245E+01  0.44368037727E+01  0.30150888810E+00  0.52202539059E+01  0.51100000000E-03 0.  1.
         12    1    3    3    0    0  0.33125068093E+02  0.56743302203E+01 -0.24102831928E+02  0.41357159798E+02  0.00000000000E+00 0. -1.
</event>
<event>
 7    1  0.2985411E-011  0.5052889E+02  0.7816164E-02  0.1300439E+00
        -11   -1    0    0    0    0  0.00000000000E+00  0.00000000000E+00  0.45593999997E+02  0.45594000000E+02  0.51100000000E-03 0.  1.
         11   -1    0    0    0    0 -0.00000000000E+00 -0.00000000000E+00 -0.45593999997E+02  0.45594000000E+02  0.51100000000E-03 0. -1.
    9900012    2    1    2    0    0 -0.13238690624E+02 -0.13037632367E-01 -0.38443469945E+02  0.50528886867E+02  0.30000082120E+02 0.  0.
        -12    1    1    2    0    0  0.13238690624E+02  0.13037632367E-01  0.38443469945E+02  0.40659113133E+02  0.00000000000E+00 0.  1.
         11    1    3    3    0    0 -0.39088216456E+01  0.46583285512E+01 -0.36895200953E+02  0.37392977485E+02  0.51100000000E-03 0. -1.
        -11    1    3    3    0    0  0.13544345215E+01 -0.76574009994E+00 -0.76337865529E+00  0.17330891512E+01  0.51100000000E-03 0.  1.
         12    1    3    3    0    0 -0.10684303499E+02 -0.39056260837E+01 -0.78489033641E+00  0.11402820231E+02  0.00000000000E+00 0. -1.
</event>
<event>
 7    1  0.2985411E-011  0.5052886E+02  0.7816164E-02  0.1300439E+00
        -11   -1    0    0    0    0  0.00000000000E+00  0.00000000000E+00  0.45593999997E+02  0.45594000000E+02  0.51100000000E-03 0.  1.
         11   -1    0    0    0    0 -0.00000000000E+00 -0.00000000000E+00 -0.45593999997E+02  0.45594000000E+02  0.51100000000E-03 0. -1.
    9900012    2    1    2    0    0 -0.30248300099E+01  0.83233464169E+01 -0.39682964351E+02  0.50528863858E+02  0.30000012182E+02 0.  0.
        -12    1    1    2    0    0  0.30248300099E+01 -0.83233464169E+01  0.39682964351E+02  0.40659136142E+02  0.00000000000E+00 0.  1.
         11    1    3    3    0    0  0.88235949527E+01  0.11647432900E+00 -0.12595136196E+02  0.15378779217E+02  0.51100000000E-03 0. -1.
        -11    1    3    3    0    0  0.29230719942E+01  0.61811986097E+01 -0.12735539462E+02  0.14454948349E+02  0.51100000000E-03 0.  1.
         12    1    3    3    0    0 -0.14771496957E+02  0.20256734783E+01 -0.14352288693E+02  0.20695136291E+02  0.00000000000E+00 0. -1.
</event>
<event>
 7    1  0.2985411E-011  0.5052886E+02  0.7816164E-02  0.1300439E+00
        -11   -1    0    0    0    0  0.00000000000E+00  0.00000000000E+00  0.45593999997E+02  0.45594000000E+02  0.51100000000E-03 0. -1.
         11   -1    0    0    0    0 -0.00000000000E+00 -0.00000000000E+00 -0.45593999997E+02  0.45594000000E+02  0.51100000000E-03 0.  1.
    9900012    2    1    2    0    0 -0.60425745729E+00  0.77914898762E+01  0.39901045373E+02  0.50528857566E+02  0.29999993058E+02 0.  0.
        -12    1    1    2    0    0  0.60425745729E+00 -0.77914898762E+01 -0.39901045373E+02  0.40659142434E+02  0.00000000000E+00 0.  1.
         11    1    3    3    0    0 -0.81428944710E+01  0.94646779223E+01  0.16350166112E+02  0.20572184879E+02  0.51100000000E-03 0.  1.
        -11    1    3    3    0    0  0.53121804470E+01  0.35990997887E+01  0.23365502886E+02  0.24230549019E+02  0.51100000000E-03 0. -1.
        -12    1    3    3    0    0  0.22264565666E+01 -0.52722878348E+01  0.18537637463E+00  0.57261236676E+01  0.00000000000E+00 0.  1.
</event>
<event>
 7    1  0.2985411E-011  0.5052886E+02  0.7816164E-02  0.1300439E+00
        -11   -1    0    0    0    0  0.00000000000E+00  0.00000000000E+00  0.45593999997E+02  0.45594000000E+02  0.51100000000E-03 0.  1.
         11   -1    0    0    0    0 -0.00000000000E+00 -0.00000000000E+00 -0.45593999997E+02  0.45594000000E+02  0.51100000000E-03 0. -1.
    9900012    2    1    2    0    0  0.14538267225E+02 -0.20210563763E+02 -0.32145567770E+02  0.50528860452E+02  0.30000001831E+02 0.  0.
        -12    1    1    2    0    0 -0.14538267225E+02  0.20210563763E+02  0.32145567770E+02  0.40659139548E+02  0.00000000000E+00 0.  1.
         11    1    3    3    0    0 -0.61719512982E+00 -0.38697521553E+01 -0.35844739741E+01  0.53107782390E+01  0.51100000000E-03 0. -1.
        -11    1    3    3    0    0  0.11570182902E+02 -0.23003215807E+02 -0.15303427735E+02  0.29953496800E+02  0.51100000000E-03 0.  1.
        -12    1    3    3    0    0  0.35852794525E+01  0.66624041992E+01 -0.13257666061E+02  0.15264585413E+02  0.00000000000E+00 0.  1.
</event>
<event>
 7    1  0.2985411E-011  0.5052883E+02  0.7816164E-02  0.1300439E+00
        -11   -1    0    0    0    0  0.00000000000E+00  0.00000000000E+00  0.45593999997E+02  0.45594000000E+02  0.51100000000E-03 0. -1.
         11   -1    0    0    0    0 -0.00000000000E+00 -0.00000000000E+00 -0.45593999997E+02  0.45594000000E+02  0.51100000000E-03 0.  1.
    9900012    2    1    2    0    0 -0.15218055796E+02 -0.13749979096E+02  0.35107218381E+02  0.50528832155E+02  0.29999915819E+02 0.  0.
        -12    1    1    2    0    0  0.15218055796E+02  0.13749979096E+02 -0.35107218381E+02  0.40659167845E+02  0.00000000000E+00 0.  1.
         11    1    3    3    0    0  0.22935633461E+01 -0.15939447064E+01 -0.22798563660E+00  0.28023330033E+01  0.51100000000E-03 0. -1.
        -11    1    3    3    0    0  0.53209047417E+01 -0.21437499163E+01  0.13176859715E+02  0.14371406445E+02  0.51100000000E-03 0.  1.
         12    1    3    3    0    0 -0.22832523884E+02 -0.10012284474E+02  0.22158344302E+02  0.33355092707E+02  0.00000000000E+00 0. -1.
</event>
<event>
 7    1  0.2985411E-011  0.5052887E+02  0.7816164E-02  0.1300439E+00
        -11   -1    0    0    0    0  0.00000000000E+00  0.00000000000E+00  0.45593999997E+02  0.45594000000E+02  0.51100000000E-03 0. -1.
         11   -1    0    0    0    0 -0.00000000000E+00 -0.00000000000E+00 -0.45593999997E+02  0.45594000000E+02  0.51100000000E-03 0.  1.
    9900012    2    1    2    0    0 -0.22712812123E+02  0.11640181242E+02  0.31651206187E+02  0.50528874247E+02  0.30000043762E+02 0.  0.
        -12    1    1    2    0    0  0.22712812123E+02 -0.11640181242E+02 -0.31651206187E+02  0.40659125753E+02  0.00000000000E+00 0.  1.
         11    1    3    3    0    0 -0.42096768924E+01  0.22119444360E+01 -0.18543573192E+01  0.51041864244E+01  0.51100000000E-03 0. -1.
        -11    1    3    3    0    0 -0.64255811596E+01  0.56199161263E+01 -0.10696904654E+01  0.86032429036E+01  0.51100000000E-03 0.  1.
         12    1    3    3    0    0 -0.12077554071E+02  0.38083206798E+01  0.34575253972E+02  0.36821444919E+02  0.00000000000E+00 0. -1.
</event>
<event>
 7    1  0.2985411E-011  0.5052886E+02  0.7816164E-02  0.1300439E+00
        -11   -1    0    0    0    0  0.00000000000E+00  0.00000000000E+00  0.45593999997E+02  0.45594000000E+02  0.51100000000E-03 0. -1.
         11   -1    0    0    0    0 -0.00000000000E+00 -0.00000000000E+00 -0.45593999997E+02  0.45594000000E+02  0.51100000000E-03 0.  1.
    9900012    2    1    2    0    0  0.10064062396E+02 -0.31900439827E+02  0.23113677779E+02  0.50528861869E+02  0.30000006138E+02 0.  0.
        -12    1    1    2    0    0 -0.10064062396E+02  0.31900439827E+02 -0.23113677779E+02  0.40659138131E+02  0.00000000000E+00 0.  1.
         11    1    3    3    0    0 -0.24777136005E+01  0.20442261628E+01 -0.22305902436E+01  0.39106851557E+01  0.51100000000E-03 0. -1.
        -11    1    3    3    0    0  0.46554773782E+01 -0.42236501709E+01 -0.69544725793E+00  0.63242657704E+01  0.51100000000E-03 0.  1.
         12    1    3    3    0    0  0.78862986184E+01 -0.29721015819E+02  0.26039715281E+02  0.40293910943E+02  0.00000000000E+00 0. -1.
</event>
<event>
 7    1  0.2985411E-011  0.5052887E+02  0.7816164E-02  0.1300439E+00
        -11   -1    0    0    0    0  0.00000000000E+00  0.00000000000E+00  0.45593999997E+02  0.45594000000E+02  0.51100000000E-03 0.  1.
         11   -1    0    0    0    0 -0.00000000000E+00 -0.00000000000E+00 -0.45593999997E+02  0.45594000000E+02  0.51100000000E-03 0. -1.
    9900012    2    1    2    0    0 -0.17258988773E+02 -0.36367200904E+02  0.57200292875E+01  0.50528871504E+02  0.30000035422E+02 0.  0.
        -12    1    1    2    0    0  0.17258988773E+02  0.36367200904E+02 -0.57200292875E+01  0.40659128496E+02  0.00000000000E+00 0.  1.
         11    1    3    3    0    0 -0.16040200769E+02 -0.25715150718E+02  0.99430885210E+01  0.31897053575E+02  0.51100000000E-03 0.  1.
        -11    1    3    3    0    0  0.18903971949E+01 -0.13550206007E+02 -0.44174871507E+01  0.14376921693E+02  0.51100000000E-03 0. -1.
        -12    1    3    3    0    0 -0.31091851991E+01  0.28981558209E+01  0.19442791717E+00  0.42548962360E+01  0.00000000000E+00 0.  1.
</event>
<event>
 7    1  0.2985411E-011  0.5052888E+02  0.7816164E-02  0.1300439E+00
        -11   -1    0    0    0    0  0.00000000000E+00  0.00000000000E+00  0.45593999997E+02  0.45594000000E+02  0.51100000000E-03 0.  1.
         11   -1    0    0    0    0 -0.00000000000E+00 -0.00000000000E+00 -0.45593999997E+02  0.45594000000E+02  0.51100000000E-03 0. -1.
    9900012    2    1    2    0    0  0.26660717880E+02  0.58661924309E+01 -0.30132337510E+02  0.50528882261E+02  0.30000068120E+02 0.  0.
        -12    1    1    2    0    0 -0.26660717880E+02 -0.58661924309E+01  0.30132337510E+02  0.40659117739E+02  0.00000000000E+00 0.  1.
         11    1    3    3    0    0  0.76599689134E+01  0.85366183081E+01 -0.21512351363E+02  0.24378889173E+02  0.51100000000E-03 0. -1.
        -11    1    3    3    0    0  0.48348660163E+01 -0.61243571342E+01 -0.85414251807E+01  0.11568907644E+02  0.51100000000E-03 0.  1.
        -12    1    3    3    0    0  0.14165882950E+02  0.34539312571E+01 -0.78560966703E-01  0.14581085444E+02  0.00000000000E+00 0.  1.
</event>
<event>
 7    1  0.2985411E-011  0.5052886E+02  0.7816164E-02  0.1300439E+00
        -11   -1    0    0    0    0  0.00000000000E+00  0.00000000000E+00  0.45593999997E+02  0.45594000000E+02  0.51100000000E-03 0.  1.
         11   -1    0    0    0    0 -0.00000000000E+00 -0.00000000000E+00 -0.45593999997E+02  0.45594000000E+02  0.51100000000E-03 0. -1.
    9900012    2    1    2    0    0 -0.14272765295E+02 -0.10816187642E+02 -0.36502929034E+02  0.50528861147E+02  0.30000003941E+02 0.  0.
        -12    1    1    2    0    0  0.14272765295E+02  0.10816187642E+02  0.36502929034E+02  0.40659138853E+02  0.00000000000E+00 0.  1.
         11    1    3    3    0    0 -0.12610083762E+02 -0.46595110678E+01 -0.10852139737E+02  0.17276984488E+02  0.51100000000E-03 0. -1.
        -11    1    3    3    0    0  0.88884662546E+00 -0.99711003164E+01 -0.34602861587E+01  0.10591811479E+02  0.51100000000E-03 0.  1.
         12    1    3    3    0    0 -0.25515281580E+01  0.38144237421E+01 -0.22190503138E+02  0.22660065179E+02  0.00000000000E+00 0. -1.
</event>
<event>
 7    1  0.2985411E-011  0.5052900E+02  0.7816164E-02  0.1300438E+00
        -11   -1    0    0    0    0  0.00000000000E+00  0.00000000000E+00  0.45593999997E+02  0.45594000000E+02  0.51100000000E-03 0. -1.
         11   -1    0    0    0    0 -0.00000000000E+00 -0.00000000000E+00 -0.45593999997E+02  0.45594000000E+02  0.51100000000E-03 0.  1.
    9900012    2    1    2    0    0 -0.27626028630E+02 -0.29782063753E+02  0.17277998819E+01  0.50529002573E+02  0.30000433819E+02 0.  0.
        -12    1    1    2    0    0  0.27626028630E+02  0.29782063753E+02 -0.17277998819E+01  0.40658997427E+02  0.00000000000E+00 0.  1.
         11    1    3    3    0    0 -0.98809041214E+01 -0.13146090399E+00 -0.27698930516E+01  0.10262643714E+02  0.51100000000E-03 0. -1.
        -11    1    3    3    0    0 -0.15289623215E+02 -0.98161147051E+01 -0.39076334423E+01  0.18584894009E+02  0.51100000000E-03 0.  1.
        -12    1    3    3    0    0 -0.24555012941E+01 -0.19834488144E+02  0.84053263758E+01  0.21681464850E+02  0.00000000000E+00 0.  1.
</event>
<event>
 7    1  0.2985411E-011  0.5052886E+02  0.7816164E-02  0.1300439E+00
        -11   -1    0    0    0    0  0.00000000000E+00  0.00000000000E+00  0.45593999997E+02  0.45594000000E+02  0.51100000000E-03 0.  1.
         11   -1    0    0    0    0 -0.00000000000E+00 -0.00000000000E+00 -0.45593999997E+02  0.45594000000E+02  0.51100000000E-03 0. -1.
    9900012    2    1    2    0    0  0.89471376476E+01 -0.20368664276E+02 -0.34032803647E+02  0.50528862275E+02  0.30000007372E+02 0.  0.
        -12    1    1    2    0    0 -0.89471376476E+01  0.20368664276E+02  0.34032803647E+02  0.40659137725E+02  0.00000000000E+00 0.  1.
         11    1    3    3    0    0  0.72428245255E+01 -0.71885299420E+01 -0.45025801030E+01  0.11153775042E+02  0.51100000000E-03 0. -1.
        -11    1    3    3    0    0 -0.74569452384E+01 -0.13966337150E+02 -0.23651470790E+02  0.28461494629E+02  0.51100000000E-03 0.  1.
         12    1    3    3    0    0  0.91612583605E+01  0.78620281670E+00 -0.58787527531E+01  0.10913592605E+02  0.00000000000E+00 0. -1.
</event>
<event>
 7    1  0.2985411E-011  0.5052887E+02  0.7816164E-02  0.1300439E+00
        -11   -1    0    0    0    0  0.00000000000E+00  0.00000000000E+00  0.45593999997E+02  0.45594000000E+02  0.51100000000E-03 0.  1.
         11   -1    0    0    0    0 -0.00000000000E+00 -0.00000000000E+00 -0.45593999997E+02  0.45594000000E+02  0.51100000000E-03 0. -1.
    9900012    2    1    2    0    0 -0.10242095583E+02 -0.17421671624E+02 -0.35281014747E+02  0.50528866147E+02  0.30000019140E+02 0.  0.
        -12    1    1    2    0    0  0.10242095583E+02  0.17421671624E+02  0.35281014747E+02  0.40659133853E+02  0.00000000000E+00 0.  1.
         11    1    3    3    0    0 -0.57411808204E+01 -0.10663755536E+02 -0.15746162837E+02  0.19865006512E+02  0.51100000000E-03 0. -1.
        -11    1    3    3    0    0 -0.36157949509E+01 -0.71878894207E+01 -0.24404035297E+02  0.25696238373E+02  0.51100000000E-03 0.  1.
        -12    1    3    3    0    0 -0.88511981133E+00  0.42997333328E+00  0.48691833874E+01  0.49676212625E+01  0.00000000000E+00 0.  1.
</event>
<event>
 7    1  0.2985411E-011  0.5052886E+02  0.7816164E-02  0.1300439E+00
        -11   -1    0    0    0    0  0.00000000000E+00  0.00000000000E+00  0.45593999997E+02  0.45594000000E+02  0.51100000000E-03 0.  1.
         11   -1    0    0    0    0 -0.00000000000E+00 -0.00000000000E+00 -0.45593999997E+02  0.45594000000E+02  0.51100000000E-03 0. -1.
    9900012    2    1    2    0    0 -0.17524899379E+02  0.33944504318E+02  0.13921720517E+02  0.50528858669E+02  0.29999996409E+02 0.  0.
        -12    1    1    2    0    0  0.17524899379E+02 -0.33944504318E+02 -0.13921720517E+02  0.40659141331E+02  0.00000000000E+00 0.  1.
         11    1    3    3    0    0 -0.10857635899E+02  0.16700325909E+02  0.50757489134E+01  0.20556078664E+02  0.51100000000E-03 0. -1.
        -11    1    3    3    0    0 -0.73397259447E+01  0.22193187024E+02  0.56673776449E+01  0.24052615177E+02  0.51100000000E-03 0.  1.
        -12    1    3    3    0    0  0.67246246462E+00 -0.49490086141E+01  0.31785939591E+01  0.59201648276E+01  0.00000000000E+00 0.  1.
</event>
<event>
 7    1  0.2985411E-011  0.5052886E+02  0.7816164E-02  0.1300439E+00
        -11   -1    0    0    0    0  0.00000000000E+00  0.00000000000E+00  0.45593999997E+02  0.45594000000E+02  0.51100000000E-03 0. -1.
         11   -1    0    0    0    0 -0.00000000000E+00 -0.00000000000E+00 -0.45593999997E+02  0.45594000000E+02  0.51100000000E-03 0.  1.
    9900012    2    1    2    0    0 -0.13994117165E+02 -0.35704738361E+02 -0.13509324195E+02  0.50528862074E+02  0.30000006760E+02 0.  0.
        -12    1    1    2    0    0  0.13994117165E+02  0.35704738361E+02  0.13509324195E+02  0.40659137926E+02  0.00000000000E+00 0.  1.
         11    1    3    3    0    0  0.17813011066E+01 -0.75537168741E+01 -0.16883513949E+01  0.79424305436E+01  0.51100000000E-03 0.  1.
        -11    1    3    3    0    0 -0.39368506737E+01 -0.16565536582E+02  0.61895148413E+01  0.18117005539E+02  0.51100000000E-03 0. -1.
        -12    1    3    3    0    0 -0.11838567598E+02 -0.11585484906E+02 -0.18010487641E+02  0.24469425991E+02  0.00000000000E+00 0.  1.
</event>
<event>
 7    1  0.2985411E-011  0.5052887E+02  0.7816164E-02  0.1300439E+00
        -11   -1    0    0    0    0  0.00000000000E+00  0.00000000000E+00  0.45593999997E+02  0.45594000000E+02  0.51100000000E-03 0.  1.
         11   -1    0    0    0    0 -0.00000000000E+00 -0.00000000000E+00 -0.45593999997E+02  0.45594000000E+02  0.51100000000E-03 0. -1.
    9900012    2    1    2    0    0  0.30965155467E+02  0.21607538078E+02 -0.15081045086E+02  0.50528874631E+02  0.30000044928E+02 0.  0.
        -12    1    1    2    0    0 -0.30965155467E+02 -0.21607538078E+02  0.15081045086E+02  0.40659125369E+02  0.00000000000E+00 0.  1.
         11    1    3    3    0    0  0.12407354703E+01 -0.56069777369E+01 -0.22762385102E+01  0.61772879054E+01  0.51100000000E-03 0. -1.
        -11    1    3    3    0    0  0.12557911607E+01 -0.61897168708E+00 -0.30557657460E+01  0.33612262560E+01  0.51100000000E-03 0.  1.
         12    1    3    3    0    0  0.28468628836E+02  0.27833487502E+02 -0.97490408302E+01  0.40990360470E+02  0.00000000000E+00 0. -1.
</event>
<event>
 7    1  0.2985411E-011  0.5052886E+02  0.7816164E-02  0.1300439E+00
        -11   -1    0    0    0    0  0.00000000000E+00  0.00000000000E+00  0.45593999997E+02  0.45594000000E+02  0.51100000000E-03 0. -1.
         11   -1    0    0    0    0 -0.00000000000E+00 -0.00000000000E+00 -0.45593999997E+02  0.45594000000E+02  0.51100000000E-03 0.  1.
    9900012    2    1    2    0    0  0.34870982378E+02  0.13490878432E+01  0.20865294797E+02  0.50528856170E+02  0.29999988815E+02 0.  0.
        -12    1    1    2    0    0 -0.34870982378E+02 -0.13490878432E+01 -0.20865294797E+02  0.40659143830E+02  0.00000000000E+00 0.  1.
         11    1    3    3    0    0  0.22317932961E+02 -0.13026715862E+01  0.18833967797E+02  0.29231924811E+02  0.51100000000E-03 0. -1.
        -11    1    3    3    0    0  0.85137522700E+01  0.89138818134E+01  0.49644481074E+01  0.13288604591E+02  0.51100000000E-03 0.  1.
        -12    1    3    3    0    0  0.40392971468E+01 -0.62621223840E+01 -0.29331211077E+01  0.80083267681E+01  0.00000000000E+00 0.  1.
</event>
<event>
 7    1  0.2985411E-011  0.5052886E+02  0.7816164E-02  0.1300439E+00
        -11   -1    0    0    0    0  0.00000000000E+00  0.00000000000E+00  0.45593999997E+02  0.45594000000E+02  0.51100000000E-03 0.  1.
         11   -1    0    0    0    0 -0.00000000000E+00 -0.00000000000E+00 -0.45593999997E+02  0.45594000000E+02  0.51100000000E-03 0. -1.
    9900012    2    1    2    0    0 -0.29208372687E+02  0.27065070707E+02 -0.82169646346E+01  0.50528860865E+02  0.30000003085E+02 0.  0.
        -12    1    1    2    0    0  0.29208372687E+02 -0.27065070707E+02  0.82169646346E+01  0.40659139135E+02  0.00000000000E+00 0.  1.
         11    1    3    3    0    0  0.35260431385E+00 -0.10306866157E+01 -0.51664716459E+01  0.52800638473E+01  0.51100000000E-03 0. -1.
        -11    1    3    3    0    0  0.28488416283E+01  0.29667597210E+01  0.12983157534E+00  0.41151449992E+01  0.51100000000E-03 0.  1.
         12    1    3    3    0    0 -0.32409818629E+02  0.25128997601E+02 -0.31803245640E+01  0.41133652018E+02  0.00000000000E+00 0. -1.
</event>
<event>
 7    1  0.2985411E-011  0.5052873E+02  0.7816164E-02  0.1300439E+00
        -11   -1    0    0    0    0  0.00000000000E+00  0.00000000000E+00  0.45593999997E+02  0.45594000000E+02  0.51100000000E-03 0.  1.
         11   -1    0    0    0    0 -0.00000000000E+00 -0.00000000000E+00 -0.45593999997E+02  0.45594000000E+02  0.51100000000E-03 0. -1.
    9900012    2    1    2    0    0  0.33003688260E+02  0.13511474834E+02 -0.19528763452E+02  0.50528733001E+02  0.29999614428E+02 0.  0.
        -12    1    1    2    0    0 -0.33003688260E+02 -0.13511474834E+02  0.19528763452E+02  0.40659266999E+02  0.00000000000E+00 0.  1.
         11    1    3    3    0    0  0.20890805176E+02 -0.16219296229E+01 -0.17230166903E+01  0.21024394959E+02  0.51100000000E-03 0. -1.
        -11    1    3    3    0    0  0.19550607744E+01  0.13149572898E+01  0.21513273349E+01  0.31905461709E+01  0.51100000000E-03 0.  1.
         12    1    3    3    0    0  0.10157822309E+02  0.13818447167E+02 -0.19957074096E+02  0.26313791871E+02  0.00000000000E+00 0. -1.
</event>
<event>
 7    1  0.2985411E-011  0.5052886E+02  0.7816164E-02  0.1300439E+00
        -11   -1    0    0    0    0  0.00000000000E+00  0.00000000000E+00  0.45593999997E+02  0.45594000000E+02  0.51100000000E-03 0. -1.
         11   -1    0    0    0    0 -0.00000000000E+00 -0.00000000000E+00 -0.45593999997E+02  0.45594000000E+02  0.51100000000E-03 0.  1.
    9900012    2    1    2    0    0 -0.33252050169E+02 -0.16717408858E+02 -0.16370557248E+02  0.50528859036E+02  0.29999997525E+02 0.  0.
        -12    1    1    2    0    0  0.33252050169E+02  0.16717408858E+02  0.16370557248E+02  0.40659140964E+02  0.00000000000E+00 0.  1.
         11    1    3    3    0    0 -0.26855985395E+02 -0.16048954308E+02 -0.83688059016E+01  0.32385950633E+02  0.51100000000E-03 0. -1.
        -11    1    3    3    0    0 -0.10741525012E+02 -0.32563667831E+01 -0.54201386826E+01  0.12464436923E+02  0.51100000000E-03 0.  1.
        -12    1    3    3    0    0  0.43454602383E+01  0.25879122322E+01 -0.25816126637E+01  0.56784714800E+01  0.00000000000E+00 0.  1.
</event>
<event>
 7    1  0.2985411E-011  0.5052886E+02  0.7816164E-02  0.1300439E+00
        -11   -1    0    0    0    0  0.00000000000E+00  0.00000000000E+00  0.45593999997E+02  0.45594000000E+02  0.51100000000E-03 0.  1.
         11   -1    0    0    0    0 -0.00000000000E+00 -0.00000000000E+00 -0.45593999997E+02  0.45594000000E+02  0.51100000000E-03 0. -1.
    9900012    2    1    2    0    0 -0.32956316895E+02 -0.16226286320E+02 -0.17428556434E+02  0.50528858710E+02  0.29999996535E+02 0.  0.
        -12    1    1    2    0    0  0.32956316895E+02  0.16226286320E+02  0.17428556434E+02  0.40659141290E+02  0.00000000000E+00 0.  1.
         11    1    3    3    0    0  0.11307402976E+01 -0.50245184394E+00  0.10182971007E+01  0.16024857948E+01  0.51100000000E-03 0. -1.
        -11    1    3    3    0    0 -0.98162329387E+01  0.50442476716E+01  0.16907036954E+01  0.11165184411E+02  0.51100000000E-03 0.  1.
        -12    1    3    3    0    0 -0.24270824254E+02 -0.20768082148E+02 -0.20137557230E+02  0.37761188505E+02  0.00000000000E+00 0.  1.
</event>
<event>
 7    1  0.2985411E-011  0.5052887E+02  0.7816164E-02  0.1300439E+00
        -11   -1    0    0    0    0  0.00000000000E+00  0.00000000000E+00  0.45593999997E+02  0.45594000000E+02  0.51100000000E-03 0.  1.
         11   -1    0    0    0    0 -0.00000000000E+00 -0.00000000000E+00 -0.45593999997E+02  0.45594000000E+02  0.51100000000E-03 0. -1.
    9900012    2    1    2    0    0  0.11064763062E+02  0.33232498399E+02 -0.20647926092E+02  0.50528870848E+02  0.30000033431E+02 0.  0.
        -12    1    1    2    0    0 -0.11064763062E+02 -0.33232498399E+02  0.20647926092E+02  0.40659129152E+02  0.00000000000E+00 0.  1.
         11    1    3    3    0    0 -0.34213652438E+00 -0.11285583794E+01  0.29669433609E+01  0.31927189956E+01  0.51100000000E-03 0. -1.
        -11    1    3    3    0    0 -0.42543207344E+01  0.17462542034E+02 -0.97851110487E+01  0.20464310829E+02  0.51100000000E-03 0.  1.
         12    1    3    3    0    0  0.15661220320E+02  0.16898514745E+02 -0.13829758404E+02  0.26871841024E+02  0.00000000000E+00 0. -1.
</event>
<event>
 7    1  0.2985411E-011  0.5052885E+02  0.7816164E-02  0.1300439E+00
        -11   -1    0    0    0    0  0.00000000000E+00  0.00000000000E+00  0.45593999997E+02  0.45594000000E+02  0.51100000000E-03 0.  1.
         11   -1    0    0    0    0 -0.00000000000E+00 -0.00000000000E+00 -0.45593999997E+02  0.45594000000E+02  0.51100000000E-03 0. -1.
    9900012    2    1    2    0    0  0.21473823164E+02 -0.34499342027E+02  0.13554073439E+01  0.50528845918E+02  0.29999957653E+02 0.  0.
        -12    1    1    2    0    0 -0.21473823164E+02  0.34499342027E+02 -0.13554073439E+01  0.40659154082E+02  0.00000000000E+00 0.  1.
         11    1    3    3    0    0  0.19436268081E+01  0.26495562977E+01 -0.87845917973E+00  0.34014003786E+01  0.51100000000E-03 0. -1.
        -11    1    3    3    0    0  0.13154420029E+02 -0.27584993454E+02  0.11201169783E+02  0.32548991305E+02  0.51100000000E-03 0.  1.
         12    1    3    3    0    0  0.63757763269E+01 -0.95639048704E+01 -0.89673032591E+01  0.14578454235E+02  0.00000000000E+00 0. -1.
</event>
<event>
 7    1  0.2985411E-011  0.5052887E+02  0.7816164E-02  0.1300439E+00
        -11   -1    0    0    0    0  0.00000000000E+00  0.00000000000E+00  0.45593999997E+02  0.45594000000E+02  0.51100000000E-03 0.  1.
         11   -1    0    0    0    0 -0.00000000000E+00 -0.00000000000E+00 -0.45593999997E+02  0.45594000000E+02  0.51100000000E-03 0. -1.
    9900012    2    1    2    0    0 -0.11137966952E+02  0.26774551967E+02 -0.28499716637E+02  0.50528870776E+02  0.30000033212E+02 0.  0.
        -12    1    1    2    0    0  0.11137966952E+02 -0.26774551967E+02  0.28499716637E+02  0.40659129224E+02  0.00000000000E+00 0.  1.
         11    1    3    3    0    0  0.87946677055E+00  0.90001583610E+01 -0.11736716068E+02  0.14816437381E+02  0.51100000000E-03 0. -1.
        -11    1    3    3    0    0  0.48426090250E+01  0.40916380013E+01  0.23736711820E+01  0.67695405194E+01  0.51100000000E-03 0.  1.
         12    1    3    3    0    0 -0.16860042747E+02  0.13682755604E+02 -0.19136671751E+02  0.28942892876E+02  0.00000000000E+00 0. -1.
</event>
<event>
 7    1  0.2985411E-011  0.5052887E+02  0.7816164E-02  0.1300439E+00
        -11   -1    0    0    0    0  0.00000000000E+00  0.00000000000E+00  0.45593999997E+02  0.45594000000E+02  0.51100000000E-03 0. -1.
         11   -1    0    0    0    0 -0.00000000000E+00 -0.00000000000E+00 -0.45593999997E+02  0.45594000000E+02  0.51100000000E-03 0.  1.
    9900012    2    1    2    0    0  0.21279614674E+02  0.32908918067E+02  0.10832627284E+02  0.50528871838E+02  0.30000036438E+02 0.  0.
        -12    1    1    2    0    0 -0.21279614674E+02 -0.32908918067E+02 -0.10832627284E+02  0.40659128162E+02  0.00000000000E+00 0.  1.
         11    1    3    3    0    0  0.48112965217E+01  0.61691458609E+01  0.30310287457E+01  0.83901174242E+01  0.51100000000E-03 0. -1.
        -11    1    3    3    0    0  0.92877458027E+01  0.90709590994E+00  0.11785047300E+02  0.15032377896E+02  0.51100000000E-03 0.  1.
         12    1    3    3    0    0  0.71805723492E+01  0.25832676297E+02 -0.39834487610E+01  0.27106376518E+02  0.00000000000E+00 0. -1.
</event>
<event>
 7    1  0.2985411E-011  0.5052888E+02  0.7816164E-02  0.1300439E+00
        -11   -1    0    0    0    0  0.00000000000E+00  0.00000000000E+00  0.45593999997E+02  0.45594000000E+02  0.51100000000E-03 0. -1.
         11   -1    0    0    0    0 -0.00000000000E+00 -0.00000000000E+00 -0.45593999997E+02  0.45594000000E+02  0.51100000000E-03 0.  1.
    9900012    2    1    2    0    0 -0.16325037728E+01  0.94137406235E+01  0.39520635583E+02  0.50528877801E+02  0.30000054565E+02 0.  0.
        -12    1    1    2    0    0  0.16325037728E+01 -0.94137406235E+01 -0.39520635583E+02  0.40659122199E+02  0.00000000000E+00 0.  1.
         11    1    3    3    0    0  0.45961714853E+01 -0.51108441314E+01  0.83728386000E+01  0.10832818033E+02  0.51100000000E-03 0. -1.
        -11    1    3    3    0    0  0.54874007270E+01 -0.46091901740E+00  0.57107361699E+01  0.79332541207E+01  0.51100000000E-03 0.  1.
        -12    1    3    3    0    0 -0.11716075985E+02  0.14985503772E+02  0.25437060813E+02  0.31762805647E+02  0.00000000000E+00 0.  1.
</event>
<event>
 7    1  0.2985411E-011  0.5052895E+02  0.7816164E-02  0.1300438E+00
        -11   -1    0    0    0    0  0.00000000000E+00  0.00000000000E+00  0.45593999997E+02  0.45594000000E+02  0.51100000000E-03 0.  1.
         11   -1    0    0    0    0 -0.00000000000E+00 -0.00000000000E+00 -0.45593999997E+02  0.45594000000E+02  0.51100000000E-03 0. -1.
    9900012    2    1    2    0    0  0.15277532298E+02 -0.24293134684E+02 -0.28802758070E+02  0.50528951089E+02  0.30000277330E+02 0.  0.
        -12    1    1    2    0    0 -0.15277532298E+02  0.24293134684E+02  0.28802758070E+02  0.40659048911E+02  0.00000000000E+00 0.  1.
         11    1    3    3    0    0  0.60887003097E+01  0.44839544868E+00 -0.52583441218E+01  0.80575128361E+01  0.51100000000E-03 0. -1.
        -11    1    3    3    0    0  0.87480438464E+01 -0.68815826444E+00  0.49586922007E-01  0.87752089467E+01  0.51100000000E-03 0.  1.
         12    1    3    3    0    0  0.44078814152E+00 -0.24053371868E+02 -0.23594000870E+02  0.33696229307E+02  0.00000000000E+00 0. -1.
</event>
<event>
 7    1  0.2985411E-011  0.5052885E+02  0.7816164E-02  0.1300439E+00
        -11   -1    0    0    0    0  0.00000000000E+00  0.00000000000E+00  0.45593999997E+02  0.45594000000E+02  0.51100000000E-03 0.  1.
         11   -1    0    0    0    0 -0.00000000000E+00 -0.00000000000E+00 -0.45593999997E+02  0.45594000000E+02  0.51100000000E-03 0. -1.
    9900012    2    1    2    0    0  0.10219160283E+02  0.38547259481E+02 -0.79274286340E+01  0.50528848814E+02  0.29999966455E+02 0.  0.
        -12    1    1    2    0    0 -0.10219160283E+02 -0.38547259481E+02  0.79274286340E+01  0.40659151186E+02  0.00000000000E+00 0.  1.
         11    1    3    3    0    0  0.64104270968E+00 -0.17615187881E+01 -0.21886455848E+01  0.28816755462E+01  0.51100000000E-03 0. -1.
        -11    1    3    3    0    0  0.98048651900E+01  0.25801724293E+02  0.68489423244E+01  0.28438923487E+02  0.51100000000E-03 0.  1.
         12    1    3    3    0    0 -0.22674761702E+00  0.14507053977E+02 -0.12587725374E+02  0.19208249781E+02  0.00000000000E+00 0. -1.
</event>
<event>
 7    1  0.2985411E-011  0.5052885E+02  0.7816164E-02  0.1300439E+00
        -11   -1    0    0    0    0  0.00000000000E+00  0.00000000000E+00  0.45593999997E+02  0.45594000000E+02  0.51100000000E-03 0.  1.
         11   -1    0    0    0    0 -0.00000000000E+00 -0.00000000000E+00 -0.45593999997E+02  0.45594000000E+02  0.51100000000E-03 0. -1.
    9900012    2    1    2    0    0  0.45390350352E+01  0.36257458961E+02 -0.17831437584E+02  0.50528851759E+02  0.29999975407E+02 0.  0.
        -12    1    1    2    0    0 -0.45390350352E+01 -0.36257458961E+02  0.17831437584E+02  0.40659148241E+02  0.00000000000E+00 0.  1.
         11    1    3    3    0    0  0.78249859713E+01  0.78511128904E+01 -0.89453420703E+01  0.14243929377E+02  0.51100000000E-03 0. -1.
        -11    1    3    3    0    0  0.65360568338E+01  0.21664866581E+02 -0.90471774101E+01  0.24370841230E+02  0.51100000000E-03 0.  1.
        -12    1    3    3    0    0 -0.98220077699E+01  0.67414794896E+01  0.16108189632E+00  0.11914081153E+02  0.00000000000E+00 0.  1.
</event>
<event>
 7    1  0.2985411E-011  0.5052895E+02  0.7816164E-02  0.1300438E+00
        -11   -1    0    0    0    0  0.00000000000E+00  0.00000000000E+00  0.45593999997E+02  0.45594000000E+02  0.51100000000E-03 0. -1.
         11   -1    0    0    0    0 -0.00000000000E+00 -0.00000000000E+00 -0.45593999997E+02  0.45594000000E+02  0.51100000000E-03 0.  1.
    9900012    2    1    2    0    0  0.18290086705E+02 -0.28780659653E+02  0.22142833697E+02  0.50528945340E+02  0.30000259854E+02 0.  0.
        -12    1    1    2    0    0 -0.18290086705E+02  0.28780659653E+02 -0.22142833697E+02  0.40659054660E+02  0.00000000000E+00 0.  1.
         11    1    3    3    0    0  0.44672108235E+00 -0.66126291191E+01 -0.85848173929E+00  0.66830692612E+01  0.51100000000E-03 0.  1.
        -11    1    3    3    0    0  0.14195392516E+02 -0.12326575968E+02  0.26316371786E+00  0.18802204636E+02  0.51100000000E-03 0. -1.
         12    1    3    3    0    0  0.36479731063E+01 -0.98414545654E+01  0.22738151718E+02  0.25043671442E+02  0.00000000000E+00 0. -1.
</event>
<event>
 7    1  0.2985411E-011  0.5052886E+02  0.7816164E-02  0.1300439E+00
        -11   -1    0    0    0    0  0.00000000000E+00  0.00000000000E+00  0.45593999997E+02  0.45594000000E+02  0.51100000000E-03 0.  1.
         11   -1    0    0    0    0 -0.00000000000E+00 -0.00000000000E+00 -0.45593999997E+02  0.45594000000E+02  0.51100000000E-03 0. -1.
    9900012    2    1    2    0    0 -0.64349990889E+01 -0.27553467304E+02 -0.29198674032E+02  0.50528864016E+02  0.30000012662E+02 0.  0.
        -12    1    1    2    0    0  0.64349990889E+01  0.27553467304E+02  0.29198674032E+02  0.40659135984E+02  0.00000000000E+00 0.  1.
         11    1    3    3    0    0  0.14721908196E+01 -0.12999345340E+02 -0.72914498833E+01  0.14977168181E+02  0.51100000000E-03 0. -1.
        -11    1    3    3    0    0  0.27068042139E+01 -0.14331971485E+02 -0.46832786313E+01  0.15318788944E+02  0.51100000000E-03 0.  1.
         12    1    3    3    0    0 -0.10613994122E+02 -0.22215047969E+00 -0.17223945517E+02  0.20232906891E+02  0.00000000000E+00 0. -1.
</event>
<event>
 7    1  0.2985411E-011  0.5052887E+02  0.7816164E-02  0.1300439E+00
        -11   -1    0    0    0    0  0.00000000000E+00  0.00000000000E+00  0.45593999997E+02  0.45594000000E+02  0.51100000000E-03 0.  1.
         11   -1    0    0    0    0 -0.00000000000E+00 -0.00000000000E+00 -0.45593999997E+02  0.45594000000E+02  0.51100000000E-03 0. -1.
    9900012    2    1    2    0    0 -0.37302469338E+02 -0.30959050117E+01 -0.15877857991E+02  0.50528865468E+02  0.30000017075E+02 0.  0.
        -12    1    1    2    0    0  0.37302469338E+02  0.30959050117E+01  0.15877857991E+02  0.40659134532E+02  0.00000000000E+00 0.  1.
         11    1    3    3    0    0 -0.18341880844E+02  0.26835765768E+01  0.40649066388E+01  0.18977608975E+02  0.51100000000E-03 0. -1.
        -11    1    3    3    0    0 -0.15955044466E+02  0.20218511964E+01 -0.13462076973E+02  0.20973288795E+02  0.51100000000E-03 0.  1.
         12    1    3    3    0    0 -0.30055440275E+01 -0.78013327849E+01 -0.64806876564E+01  0.10577967698E+02  0.00000000000E+00 0. -1.
</event>
<event>
 7    1  0.2985411E-011  0.5052892E+02  0.7816164E-02  0.1300439E+00
        -11   -1    0    0    0    0  0.00000000000E+00  0.00000000000E+00  0.45593999997E+02  0.45594000000E+02  0.51100000000E-03 0.  1.
         11   -1    0    0    0    0 -0.00000000000E+00 -0.00000000000E+00 -0.45593999997E+02  0.45594000000E+02  0.51100000000E-03 0. -1.
    9900012    2    1    2    0    0 -0.37840152453E+02  0.13933959257E+02 -0.52085327940E+01  0.50528915258E+02  0.30000168417E+02 0.  0.
        -12    1    1    2    0    0  0.37840152453E+02 -0.13933959257E+02  0.52085327940E+01  0.40659084742E+02  0.00000000000E+00 0.  1.
         11    1    3    3    0    0  0.65381532221E+00 -0.90468787026E+00  0.58514253692E+01  0.59569382849E+01  0.51100000000E-03 0. -1.
        -11    1    3    3    0    0  0.56347022917E+00  0.70516950483E+00  0.97390245136E+00  0.13278738553E+01  0.51100000000E-03 0.  1.
         12    1    3    3    0    0 -0.39057438004E+02  0.14133477622E+02 -0.12033860614E+02  0.43244103117E+02  0.00000000000E+00 0. -1.
</event>
<event>
 7    1  0.2985411E-011  0.5052886E+02  0.7816164E-02  0.1300439E+00
        -11   -1    0    0    0    0  0.00000000000E+00  0.00000000000E+00  0.45593999997E+02  0.45594000000E+02  0.51100000000E-03 0.  1.
         11   -1    0    0    0    0 -0.00000000000E+00 -0.00000000000E+00 -0.45593999997E+02  0.45594000000E+02  0.51100000000E-03 0. -1.
    9900012    2    1    2    0    0  0.24534233580E+02 -0.22302419145E+02 -0.23533793279E+02  0.50528856586E+02  0.29999990079E+02 0.  0.
        -12    1    1    2    0    0 -0.24534233580E+02  0.22302419145E+02  0.23533793279E+02  0.40659143414E+02  0.00000000000E+00 0.  1.
         11    1    3    3    0    0  0.88698064277E+01 -0.82076548699E+01  0.93109438853E+00  0.12120478602E+02  0.51100000000E-03 0. -1.
        -11    1    3    3    0    0  0.35318185758E+01 -0.87234204165E+01  0.12286214481E+01  0.94911178024E+01  0.51100000000E-03 0.  1.
        -12    1    3    3    0    0  0.12132608576E+02 -0.53713438582E+01 -0.25693509116E+02  0.28917260181E+02  0.00000000000E+00 0.  1.
</event>
<event>
 7    1  0.2985411E-011  0.5052888E+02  0.7816164E-02  0.1300439E+00
        -11   -1    0    0    0    0  0.00000000000E+00  0.00000000000E+00  0.45593999997E+02  0.45594000000E+02  0.51100000000E-03 0. -1.
         11   -1    0    0    0    0 -0.00000000000E+00 -0.00000000000E+00 -0.45593999997E+02  0.45594000000E+02  0.51100000000E-03 0.  1.
    9900012    2    1    2    0    0 -0.12170052237E+02 -0.18003428407E+02  0.34364673982E+02  0.50528875271E+02  0.30000046874E+02 0.  0.
        -12    1    1    2    0    0  0.12170052237E+02  0.18003428407E+02 -0.34364673982E+02  0.40659124729E+02  0.00000000000E+00 0.  1.
         11    1    3    3    0    0 -0.41466267711E+00 -0.96539179266E+01  0.41185535425E+01  0.10503930693E+02  0.51100000000E-03 0. -1.
        -11    1    3    3    0    0  0.56703513941E+01 -0.65723350158E+01  0.10715717434E+02  0.13790397851E+02  0.51100000000E-03 0.  1.
        -12    1    3    3    0    0 -0.17425740954E+02 -0.17771754641E+01  0.19530403005E+02  0.26234546727E+02  0.00000000000E+00 0.  1.
</event>
<event>
 7    1  0.2985411E-011  0.5052884E+02  0.7816164E-02  0.1300439E+00
        -11   -1    0    0    0    0  0.00000000000E+00  0.00000000000E+00  0.45593999997E+02  0.45594000000E+02  0.51100000000E-03 0. -1.
         11   -1    0    0    0    0 -0.00000000000E+00 -0.00000000000E+00 -0.45593999997E+02  0.45594000000E+02  0.51100000000E-03 0.  1.
    9900012    2    1    2    0    0 -0.26084961685E+02 -0.16565490102E+02  0.26425866522E+02  0.50528842238E+02  0.29999946468E+02 0.  0.
        -12    1    1    2    0    0  0.26084961685E+02  0.16565490102E+02 -0.26425866522E+02  0.40659157762E+02  0.00000000000E+00 0.  1.
         11    1    3    3    0    0 -0.15051228752E+02 -0.59780001212E+01  0.23008033891E+02  0.28136197258E+02  0.51100000000E-03 0. -1.
        -11    1    3    3    0    0 -0.33663870619E+01 -0.43663166118E+01  0.93640915153E+01  0.10866622878E+02  0.51100000000E-03 0.  1.
        -12    1    3    3    0    0 -0.76673458708E+01 -0.62211733690E+01 -0.59462588833E+01  0.11526022102E+02  0.00000000000E+00 0.  1.
</event>
<event>
 7    1  0.2985411E-011  0.5052886E+02  0.7816164E-02  0.1300439E+00
        -11   -1    0    0    0    0  0.00000000000E+00  0.00000000000E+00  0.45593999997E+02  0.45594000000E+02  0.51100000000E-03 0.  1.
         11   -1    0    0    0    0 -0.00000000000E+00 -0.00000000000E+00 -0.45593999997E+02  0.45594000000E+02  0.51100000000E-03 0. -1.
    9900012    2    1    2    0    0  0.90956764112E+01  0.23890341147E+02 -0.31617807480E+02  0.50528862290E+02  0.30000007417E+02 0.  0.
        -12    1    1    2    0    0 -0.90956764112E+01 -0.23890341147E+02  0.31617807480E+02  0.40659137710E+02  0.00000000000E+00 0.  1.
         11    1    3    3    0    0  0.13295617445E+02  0.16026256486E+02 -0.18814371284E+02  0.28064121352E+02  0.51100000000E-03 0. -1.
        -11    1    3    3    0    0  0.61082119103E+01  0.44630988864E+01 -0.59843213674E+01  0.96458077370E+01  0.51100000000E-03 0.  1.
        -12    1    3    3    0    0 -0.10308152944E+02  0.34009857748E+01 -0.68191148279E+01  0.12818933201E+02  0.00000000000E+00 0.  1.
</event>
<event>
 7    1  0.2985411E-011  0.5052883E+02  0.7816164E-02  0.1300439E+00
        -11   -1    0    0    0    0  0.00000000000E+00  0.00000000000E+00  0.45593999997E+02  0.45594000000E+02  0.51100000000E-03 0. -1.
         11   -1    0    0    0    0 -0.00000000000E+00 -0.00000000000E+00 -0.45593999997E+02  0.45594000000E+02  0.51100000000E-03 0.  1.
    9900012    2    1    2    0    0  0.17844716439E+02 -0.33013027489E+02  0.15648454306E+02  0.50528831158E+02  0.29999912787E+02 0.  0.
        -12    1    1    2    0    0 -0.17844716439E+02  0.33013027489E+02 -0.15648454306E+02  0.40659168842E+02  0.00000000000E+00 0.  1.
         11    1    3    3    0    0  0.69762231181E+01 -0.74118259174E+01  0.33392942563E+01  0.10712317154E+02  0.51100000000E-03 0. -1.
        -11    1    3    3    0    0  0.92096871602E+01 -0.18177672699E+02 -0.49372127196E+01  0.20967169386E+02  0.51100000000E-03 0.  1.
         12    1    3    3    0    0  0.16588061605E+01 -0.74235288723E+01  0.17246372770E+02  0.18849344618E+02  0.00000000000E+00 0. -1.
</event>
<event>
 7    1  0.2985411E-011  0.5052885E+02  0.7816164E-02  0.1300439E+00
        -11   -1    0    0    0    0  0.00000000000E+00  0.00000000000E+00  0.45593999997E+02  0.45594000000E+02  0.51100000000E-03 0. -1.
         11   -1    0    0    0    0 -0.00000000000E+00 -0.00000000000E+00 -0.45593999997E+02  0.45594000000E+02  0.51100000000E-03 0.  1.
    9900012    2    1    2    0    0  0.12776742334E+02 -0.29368646164E+02  0.25048028364E+02  0.50528852848E+02  0.29999978718E+02 0.  0.
        -12    1    1    2    0    0 -0.12776742334E+02  0.29368646164E+02 -0.25048028364E+02  0.40659147152E+02  0.00000000000E+00 0.  1.
         11    1    3    3    0    0 -0.45684479950E+01 -0.94404709955E+01  0.10066367250E+02  0.14537020312E+02  0.51100000000E-03 0. -1.
        -11    1    3    3    0    0  0.11107048292E+02 -0.25129782752E+01  0.13160808529E+02  0.17403691073E+02  0.51100000000E-03 0.  1.
        -12    1    3    3    0    0  0.62381420376E+01 -0.17415196893E+02  0.18208525859E+01  0.18588141463E+02  0.00000000000E+00 0.  1.
</event>
<event>
 7    1  0.2985411E-011  0.5052886E+02  0.7816164E-02  0.1300439E+00
        -11   -1    0    0    0    0  0.00000000000E+00  0.00000000000E+00  0.45593999997E+02  0.45594000000E+02  0.51100000000E-03 0.  1.
         11   -1    0    0    0    0 -0.00000000000E+00 -0.00000000000E+00 -0.45593999997E+02  0.45594000000E+02  0.51100000000E-03 0. -1.
    9900012    2    1    2    0    0 -0.35384463376E+02 -0.94808704441E+01 -0.17641378302E+02  0.50528863497E+02  0.30000011085E+02 0.  0.
        -12    1    1    2    0    0  0.35384463376E+02  0.94808704441E+01  0.17641378302E+02  0.40659136503E+02  0.00000000000E+00 0.  1.
         11    1    3    3    0    0 -0.18863565752E+02  0.19913151121E+01 -0.29592322220E+01  0.19197825512E+02  0.51100000000E-03 0. -1.
        -11    1    3    3    0    0  0.27445759174E+01  0.18159811836E+01  0.64699859062E+00  0.33539666163E+01  0.51100000000E-03 0.  1.
         12    1    3    3    0    0 -0.19265473541E+02 -0.13288166740E+02 -0.15329144670E+02  0.27977071369E+02  0.00000000000E+00 0. -1.
</event>
<event>
 7    1  0.2985411E-011  0.5052886E+02  0.7816164E-02  0.1300439E+00
        -11   -1    0    0    0    0  0.00000000000E+00  0.00000000000E+00  0.45593999997E+02  0.45594000000E+02  0.51100000000E-03 0.  1.
         11   -1    0    0    0    0 -0.00000000000E+00 -0.00000000000E+00 -0.45593999997E+02  0.45594000000E+02  0.51100000000E-03 0. -1.
    9900012    2    1    2    0    0 -0.39786061733E+01  0.88155156838E+01 -0.39492064385E+02  0.50528858676E+02  0.29999996431E+02 0.  0.
        -12    1    1    2    0    0  0.39786061733E+01 -0.88155156838E+01  0.39492064385E+02  0.40659141324E+02  0.00000000000E+00 0.  1.
         11    1    3    3    0    0 -0.69172451449E+01  0.76433916395E+01 -0.28775008106E+02  0.30565843812E+02  0.51100000000E-03 0. -1.
        -11    1    3    3    0    0  0.80742861344E+00  0.68814587831E+01 -0.11885757774E+02  0.13757821560E+02  0.51100000000E-03 0.  1.
         12    1    3    3    0    0  0.21312103582E+01 -0.57093347388E+01  0.11687014960E+01  0.62051933037E+01  0.00000000000E+00 0. -1.
</event>
<event>
 7    1  0.2985411E-011  0.5052886E+02  0.7816164E-02  0.1300439E+00
        -11   -1    0    0    0    0  0.00000000000E+00  0.00000000000E+00  0.45593999997E+02  0.45594000000E+02  0.51100000000E-03 0.  1.
         11   -1    0    0    0    0 -0.00000000000E+00 -0.00000000000E+00 -0.45593999997E+02  0.45594000000E+02  0.51100000000E-03 0. -1.
    9900012    2    1    2    0    0 -0.33733083762E+02 -0.43453532335E+01 -0.22279193511E+02  0.50528862056E+02  0.30000006706E+02 0.  0.
        -12    1    1    2    0    0  0.33733083762E+02  0.43453532335E+01  0.22279193511E+02  0.40659137944E+02  0.00000000000E+00 0.  1.
         11    1    3    3    0    0 -0.18722427185E+02 -0.17421237528E+01 -0.15905500762E+02  0.24628220188E+02  0.51100000000E-03 0. -1.
        -11    1    3    3    0    0 -0.15494403100E+02  0.16019049813E+01 -0.11419539854E+02  0.19314463952E+02  0.51100000000E-03 0.  1.
        -12    1    3    3    0    0  0.48374652288E+00 -0.42051344620E+01  0.50458471052E+01  0.65861779167E+01  0.00000000000E+00 0.  1.
</event>
<event>
 7    1  0.2985411E-011  0.5052879E+02  0.7816164E-02  0.1300439E+00
        -11   -1    0    0    0    0  0.00000000000E+00  0.00000000000E+00  0.45593999997E+02  0.45594000000E+02  0.51100000000E-03 0. -1.
         11   -1    0    0    0    0 -0.00000000000E+00 -0.00000000000E+00 -0.45593999997E+02  0.45594000000E+02  0.51100000000E-03 0.  1.
    9900012    2    1    2    0    0 -0.13329626583E+02  0.28156792962E+02  0.26128280956E+02  0.50528794395E+02  0.29999801042E+02 0.  0.
        -12    1    1    2    0    0  0.13329626583E+02 -0.28156792962E+02 -0.26128280956E+02  0.40659205605E+02  0.00000000000E+00 0.  1.
         11    1    3    3    0    0 -0.10265439687E+02  0.66587980546E+01  0.26373586588E+01  0.12516968661E+02  0.51100000000E-03 0. -1.
        -11    1    3    3    0    0 -0.30029922167E+01  0.26059016717E+01  0.17861595328E+02  0.18298777929E+02  0.51100000000E-03 0.  1.
         12    1    3    3    0    0 -0.61194679000E-01  0.18892093236E+02  0.56293269687E+01  0.19713047804E+02  0.00000000000E+00 0. -1.
</event>
<event>
 7    1  0.2985411E-011  0.5052887E+02  0.7816164E-02  0.1300439E+00
        -11   -1    0    0    0    0  0.00000000000E+00  0.00000000000E+00  0.45593999997E+02  0.45594000000E+02  0.51100000000E-03 0. -1.
         11   -1    0    0    0    0 -0.00000000000E+00 -0.00000000000E+00 -0.45593999997E+02  0.45594000000E+02  0.51100000000E-03 0.  1.
    9900012    2    1    2    0    0  0.27492222463E+02  0.29625119080E+02  0.44379275353E+01  0.50528866004E+02  0.30000018707E+02 0.  0.
        -12    1    1    2    0    0 -0.27492222463E+02 -0.29625119080E+02 -0.44379275353E+01  0.40659133996E+02  0.00000000000E+00 0.  1.
         11    1    3    3    0    0 -0.15232722994E+01  0.64490746615E+01 -0.36517474496E+01  0.75661206827E+01  0.51100000000E-03 0. -1.
        -11    1    3    3    0    0  0.10092342996E+01  0.16847672031E+01 -0.49532667506E+01  0.53283999628E+01  0.51100000000E-03 0.  1.
         12    1    3    3    0    0  0.28006260463E+02  0.21491277215E+02  0.13042941735E+02  0.37634345359E+02  0.00000000000E+00 0. -1.
</event>
<event>
 7    1  0.2985411E-011  0.5052887E+02  0.7816164E-02  0.1300439E+00
        -11   -1    0    0    0    0  0.00000000000E+00  0.00000000000E+00  0.45593999997E+02  0.45594000000E+02  0.51100000000E-03 0. -1.
         11   -1    0    0    0    0 -0.00000000000E+00 -0.00000000000E+00 -0.45593999997E+02  0.45594000000E+02  0.51100000000E-03 0.  1.
    9900012    2    1    2    0    0  0.23783012812E+02 -0.26566704163E+02  0.19538264027E+02  0.50528865360E+02  0.30000016748E+02 0.  0.
        -12    1    1    2    0    0 -0.23783012812E+02  0.26566704163E+02 -0.19538264027E+02  0.40659134640E+02  0.00000000000E+00 0.  1.
         11    1    3    3    0    0 -0.24953668487E+00  0.17767196479E+01 -0.72744260091E+00  0.19360202125E+01  0.51100000000E-03 0. -1.
        -11    1    3    3    0    0 -0.16346445057E+01  0.28617899938E+01  0.36137636091E+01  0.48909295959E+01  0.51100000000E-03 0.  1.
         12    1    3    3    0    0  0.25667194003E+02 -0.31205213804E+02  0.16651943019E+02  0.43701915551E+02  0.00000000000E+00 0. -1.
</event>
<event>
 7    1  0.2985411E-011  0.5052889E+02  0.7816164E-02  0.1300439E+00
        -11   -1    0    0    0    0  0.00000000000E+00  0.00000000000E+00  0.45593999997E+02  0.45594000000E+02  0.51100000000E-03 0.  1.
         11   -1    0    0    0    0 -0.00000000000E+00 -0.00000000000E+00 -0.45593999997E+02  0.45594000000E+02  0.51100000000E-03 0. -1.
    9900012    2    1    2    0    0 -0.84607381543E+01 -0.11578009835E+02 -0.38046406644E+02  0.50528887118E+02  0.30000082884E+02 0.  0.
        -12    1    1    2    0    0  0.84607381543E+01  0.11578009835E+02  0.38046406644E+02  0.40659112882E+02  0.00000000000E+00 0.  1.
         11    1    3    3    0    0 -0.75536841058E+01  0.18013734373E+01 -0.10180899924E+02  0.12804445063E+02  0.51100000000E-03 0. -1.
        -11    1    3    3    0    0  0.72837220859E+01  0.22335007422E+01 -0.64273800060E+01  0.99675647473E+01  0.51100000000E-03 0.  1.
         12    1    3    3    0    0 -0.81907761344E+01 -0.15612884014E+02 -0.21438126713E+02  0.27756877308E+02  0.00000000000E+00 0. -1.
</event>
<event>
 7    1  0.2985411E-011  0.5052886E+02  0.7816164E-02  0.1300439E+00
        -11   -1    0    0    0    0  0.00000000000E+00  0.00000000000E+00  0.45593999997E+02  0.45594000000E+02  0.51100000000E-03 0. -1.
         11   -1    0    0    0    0 -0.00000000000E+00 -0.00000000000E+00 -0.45593999997E+02  0.45594000000E+02  0.51100000000E-03 0.  1.
    9900012    2    1    2    0    0 -0.24136709889E+02  0.24306413637E+02  0.21903961724E+02  0.50528855304E+02  0.29999986182E+02 0.  0.
        -12    1    1    2    0    0  0.24136709889E+02 -0.24306413637E+02 -0.21903961724E+02  0.40659144696E+02  0.00000000000E+00 0.  1.
         11    1    3    3    0    0  0.16991662766E+01  0.18672552788E+01  0.20546207110E+01  0.32550383775E+01  0.51100000000E-03 0.  1.
        -11    1    3    3    0    0  0.30911126889E+00  0.67897439966E+01  0.14935664889E+02  0.16409456397E+02  0.51100000000E-03 0. -1.
        -12    1    3    3    0    0 -0.26144987435E+02  0.15649414362E+02  0.49136761242E+01  0.30864360529E+02  0.00000000000E+00 0.  1.
</event>
<event>
 7    1  0.2985411E-011  0.5052885E+02  0.7816164E-02  0.1300439E+00
        -11   -1    0    0    0    0  0.00000000000E+00  0.00000000000E+00  0.45593999997E+02  0.45594000000E+02  0.51100000000E-03 0. -1.
         11   -1    0    0    0    0 -0.00000000000E+00 -0.00000000000E+00 -0.45593999997E+02  0.45594000000E+02  0.51100000000E-03 0.  1.
    9900012    2    1    2    0    0  0.27672354262E+02  0.17472447712E+02  0.24127186169E+02  0.50528846887E+02  0.29999960597E+02 0.  0.
        -12    1    1    2    0    0 -0.27672354262E+02 -0.17472447712E+02 -0.24127186169E+02  0.40659153113E+02  0.00000000000E+00 0.  1.
         11    1    3    3    0    0  0.19926602943E+01  0.12606877668E+02  0.53343737023E+01  0.13833278810E+02  0.51100000000E-03 0. -1.
        -11    1    3    3    0    0  0.32003963231E-01  0.21688048039E+01  0.87585699294E+01  0.90231527750E+01  0.51100000000E-03 0.  1.
         12    1    3    3    0    0  0.25647690004E+02  0.26967652398E+01  0.10034242537E+02  0.27672415301E+02  0.00000000000E+00 0. -1.
</event>
<event>
 7    1  0.2985411E-011  0.5052886E+02  0.7816164E-02  0.1300439E+00
        -11   -1    0    0    0    0  0.00000000000E+00  0.00000000000E+00  0.45593999997E+02  0.45594000000E+02  0.51100000000E-03 0.  1.
         11   -1    0    0    0    0 -0.00000000000E+00 -0.00000000000E+00 -0.45593999997E+02  0.45594000000E+02  0.51100000000E-03 0. -1.
    9900012    2    1    2    0    0 -0.13640277266E+02 -0.66155920669E+01 -0.37727210453E+02  0.50528860426E+02  0.30000001752E+02 0.  0.
        -12    1    1    2    0    0  0.13640277266E+02  0.66155920669E+01  0.37727210453E+02  0.40659139574E+02  0.00000000000E+00 0.  1.
         11    1    3    3    0    0 -0.18760448494E+01 -0.37000383687E+01 -0.92911397917E+00  0.42512446712E+01  0.51100000000E-03 0. -1.
        -11    1    3    3    0    0 -0.12110706413E+02 -0.13114927912E+02 -0.23876901874E+02  0.29812362995E+02  0.51100000000E-03 0.  1.
         12    1    3    3    0    0  0.34647399642E+00  0.10199374214E+02 -0.12921194600E+02  0.16465252761E+02  0.00000000000E+00 0. -1.
</event>
<event>
 7    1  0.2985411E-011  0.5052886E+02  0.7816164E-02  0.1300439E+00
        -11   -1    0    0    0    0  0.00000000000E+00  0.00000000000E+00  0.45593999997E+02  0.45594000000E+02  0.51100000000E-03 0.  1.
         11   -1    0    0    0    0 -0.00000000000E+00 -0.00000000000E+00 -0.45593999997E+02  0.45594000000E+02  0.51100000000E-03 0. -1.
    9900012    2    1    2    0    0  0.16303779661E+02  0.16448729501E+02 -0.33418430305E+02  0.50528863050E+02  0.30000009727E+02 0.  0.
        -12    1    1    2    0    0 -0.16303779661E+02 -0.16448729501E+02  0.33418430305E+02  0.40659136950E+02  0.00000000000E+00 0.  1.
         11    1    3    3    0    0  0.92098739516E+01  0.48938547626E+01 -0.25883138028E+02  0.27905347643E+02  0.51100000000E-03 0. -1.
        -11    1    3    3    0    0 -0.45934657545E+01  0.73620809262E+01 -0.47717086682E+01  0.99029978834E+01  0.51100000000E-03 0.  1.
         12    1    3    3    0    0  0.11687371464E+02  0.41927938124E+01 -0.27635836089E+01  0.12720517523E+02  0.00000000000E+00 0. -1.
</event>
<event>
 7    1  0.2985411E-011  0.5052891E+02  0.7816164E-02  0.1300439E+00
        -11   -1    0    0    0    0  0.00000000000E+00  0.00000000000E+00  0.45593999997E+02  0.45594000000E+02  0.51100000000E-03 0. -1.
         11   -1    0    0    0    0 -0.00000000000E+00 -0.00000000000E+00 -0.45593999997E+02  0.45594000000E+02  0.51100000000E-03 0.  1.
    9900012    2    1    2    0    0  0.36802696461E+02  0.16966968851E+02  0.32932349416E+01  0.50528906366E+02  0.30000141389E+02 0.  0.
        -12    1    1    2    0    0 -0.36802696461E+02 -0.16966968851E+02 -0.32932349416E+01  0.40659093634E+02  0.00000000000E+00 0.  1.
         11    1    3    3    0    0  0.19648677238E+02 -0.17512693436E+01 -0.19479684427E+01  0.19822513535E+02  0.51100000000E-03 0. -1.
        -11    1    3    3    0    0 -0.32612260580E+01  0.34224918290E+01  0.12134634114E+01  0.48807314445E+01  0.51100000000E-03 0.  1.
        -12    1    3    3    0    0  0.20415245280E+02  0.15295746366E+02  0.40277399730E+01  0.25825661386E+02  0.00000000000E+00 0.  1.
</event>
<event>
 7    1  0.2985411E-011  0.5052886E+02  0.7816164E-02  0.1300439E+00
        -11   -1    0    0    0    0  0.00000000000E+00  0.00000000000E+00  0.45593999997E+02  0.45594000000E+02  0.51100000000E-03 0.  1.
         11   -1    0    0    0    0 -0.00000000000E+00 -0.00000000000E+00 -0.45593999997E+02  0.45594000000E+02  0.51100000000E-03 0. -1.
    9900012    2    1    2    0    0  0.20401854818E+02  0.10285810228E+02 -0.33632312541E+02  0.50528855654E+02  0.29999987247E+02 0.  0.
        -12    1    1    2    0    0 -0.20401854818E+02 -0.10285810228E+02  0.33632312541E+02  0.40659144346E+02  0.00000000000E+00 0.  1.
         11    1    3    3    0    0 -0.42387758998E+01 -0.26982420790E+01 -0.14086826038E+00  0.50266863413E+01  0.51100000000E-03 0. -1.
        -11    1    3    3    0    0  0.15100214157E+01 -0.22271846930E+01 -0.11394145362E+01  0.29221194498E+01  0.51100000000E-03 0.  1.
        -12    1    3    3    0    0  0.23130609302E+02  0.15211237000E+02 -0.32352029745E+02  0.42580049863E+02  0.00000000000E+00 0.  1.
</event>
<event>
 7    1  0.2985411E-011  0.5052887E+02  0.7816164E-02  0.1300439E+00
        -11   -1    0    0    0    0  0.00000000000E+00  0.00000000000E+00  0.45593999997E+02  0.45594000000E+02  0.51100000000E-03 0.  1.
         11   -1    0    0    0    0 -0.00000000000E+00 -0.00000000000E+00 -0.45593999997E+02  0.45594000000E+02  0.51100000000E-03 0. -1.
    9900012    2    1    2    0    0  0.15707272698E+02 -0.52153646573E+00 -0.37498996643E+02  0.50528866154E+02  0.30000019161E+02 0.  0.
        -12    1    1    2    0    0 -0.15707272698E+02  0.52153646573E+00  0.37498996643E+02  0.40659133846E+02  0.00000000000E+00 0.  1.
         11    1    3    3    0    0  0.15839005043E+02  0.46958155443E+01 -0.22425358270E+02  0.27853571732E+02  0.51100000000E-03 0. -1.
        -11    1    3    3    0    0  0.58876156946E+01 -0.15808167622E+01 -0.14367574484E+02  0.15607376366E+02  0.51100000000E-03 0.  1.
        -12    1    3    3    0    0 -0.60193480402E+01 -0.36365352478E+01 -0.70606388856E+00  0.70679180564E+01  0.00000000000E+00 0.  1.
</event>
<event>
 7    1  0.2985411E-011  0.5052886E+02  0.7816164E-02  0.1300439E+00
        -11   -1    0    0    0    0  0.00000000000E+00  0.00000000000E+00  0.45593999997E+02  0.45594000000E+02  0.51100000000E-03 0.  1.
         11   -1    0    0    0    0 -0.00000000000E+00 -0.00000000000E+00 -0.45593999997E+02  0.45594000000E+02  0.51100000000E-03 0. -1.
    9900012    2    1    2    0    0  0.37899925047E+02  0.14303940507E+02 -0.34869687273E+01  0.50528856090E+02  0.29999988571E+02 0.  0.
        -12    1    1    2    0    0 -0.37899925047E+02 -0.14303940507E+02  0.34869687273E+01  0.40659143910E+02  0.00000000000E+00 0.  1.
         11    1    3    3    0    0  0.13493978387E+02  0.10558432504E+02 -0.66194620064E+01  0.18368049085E+02  0.51100000000E-03 0. -1.
        -11    1    3    3    0    0  0.27462709657E+01 -0.68522609294E+01 -0.16824948224E+01  0.75714115692E+01  0.51100000000E-03 0.  1.
         12    1    3    3    0    0  0.21659675694E+02  0.10597768932E+02  0.48149881015E+01  0.24589395436E+02  0.00000000000E+00 0. -1.
</event>
<event>
 7    1  0.2985411E-011  0.5052887E+02  0.7816164E-02  0.1300439E+00
        -11   -1    0    0    0    0  0.00000000000E+00  0.00000000000E+00  0.45593999997E+02  0.45594000000E+02  0.51100000000E-03 0. -1.
         11   -1    0    0    0    0 -0.00000000000E+00 -0.00000000000E+00 -0.45593999997E+02  0.45594000000E+02  0.51100000000E-03 0.  1.
    9900012    2    1    2    0    0  0.28738199068E+02 -0.24267761298E+02  0.15438796252E+02  0.50528871212E+02  0.30000034535E+02 0.  0.
        -12    1    1    2    0    0 -0.28738199068E+02  0.24267761298E+02 -0.15438796252E+02  0.40659128788E+02  0.00000000000E+00 0.  1.
         11    1    3    3    0    0  0.24583075370E+02 -0.23342247607E+02  0.99676941987E+01  0.35334728609E+02  0.51100000000E-03 0. -1.
        -11    1    3    3    0    0  0.88483977098E+01 -0.21233315291E+01  0.48481247374E+01  0.10310528238E+02  0.51100000000E-03 0.  1.
        -12    1    3    3    0    0 -0.46932740118E+01  0.11978178377E+01  0.62297731614E+00  0.48836143642E+01  0.00000000000E+00 0.  1.
</event>
<event>
 7    1  0.2985411E-011  0.5052885E+02  0.7816164E-02  0.1300439E+00
        -11   -1    0    0    0    0  0.00000000000E+00  0.00000000000E+00  0.45593999997E+02  0.45594000000E+02  0.51100000000E-03 0. -1.
         11   -1    0    0    0    0 -0.00000000000E+00 -0.00000000000E+00 -0.45593999997E+02  0.45594000000E+02  0.51100000000E-03 0.  1.
    9900012    2    1    2    0    0  0.11586304616E+02  0.28659366587E+02  0.26411443605E+02  0.50528854644E+02  0.29999984175E+02 0.  0.
        -12    1    1    2    0    0 -0.11586304616E+02 -0.28659366587E+02 -0.26411443605E+02  0.40659145356E+02  0.00000000000E+00 0.  1.
         11    1    3    3    0    0  0.71396752910E+01  0.40873721076E+01 -0.38669820933E+01  0.90903863932E+01  0.51100000000E-03 0. -1.
        -11    1    3    3    0    0  0.53860937090E+01  0.24294185430E+01  0.86174411536E+01  0.10448558379E+02  0.51100000000E-03 0.  1.
         12    1    3    3    0    0 -0.93946438394E+00  0.22142575936E+02  0.21660984544E+02  0.30989909872E+02  0.00000000000E+00 0. -1.
</event>
<event>
 7    1  0.2985411E-011  0.5052879E+02  0.7816164E-02  0.1300439E+00
        -11   -1    0    0    0    0  0.00000000000E+00  0.00000000000E+00  0.45593999997E+02  0.45594000000E+02  0.51100000000E-03 0. -1.
         11   -1    0    0    0    0 -0.00000000000E+00 -0.00000000000E+00 -0.45593999997E+02  0.45594000000E+02  0.51100000000E-03 0.  1.
    9900012    2    1    2    0    0  0.38434377420E+02  0.95497506517E+01  0.92071758575E+01  0.50528792033E+02  0.29999793864E+02 0.  0.
        -12    1    1    2    0    0 -0.38434377420E+02 -0.95497506517E+01 -0.92071758575E+01  0.40659207967E+02  0.00000000000E+00 0.  1.
         11    1    3    3    0    0  0.25436084151E+02  0.81403346376E+01 -0.36999061326E+00  0.26709479933E+02  0.51100000000E-03 0. -1.
        -11    1    3    3    0    0  0.10124970814E+02  0.89465382205E+01  0.42953563384E+01  0.14177646717E+02  0.51100000000E-03 0.  1.
         12    1    3    3    0    0  0.28733224552E+01 -0.75371222064E+01  0.52818101323E+01  0.96416653831E+01  0.00000000000E+00 0. -1.
</event>
<event>
 7    1  0.2985411E-011  0.5052887E+02  0.7816164E-02  0.1300439E+00
        -11   -1    0    0    0    0  0.00000000000E+00  0.00000000000E+00  0.45593999997E+02  0.45594000000E+02  0.51100000000E-03 0.  1.
         11   -1    0    0    0    0 -0.00000000000E+00 -0.00000000000E+00 -0.45593999997E+02  0.45594000000E+02  0.51100000000E-03 0. -1.
    9900012    2    1    2    0    0 -0.21430663801E+02 -0.32613794490E+02  0.11411920725E+02  0.50528869702E+02  0.30000029945E+02 0.  0.
        -12    1    1    2    0    0  0.21430663801E+02  0.32613794490E+02 -0.11411920725E+02  0.40659130298E+02  0.00000000000E+00 0.  1.
         11    1    3    3    0    0 -0.12080554389E+02 -0.11417055114E+02 -0.41267319096E+01  0.17126554188E+02  0.51100000000E-03 0. -1.
        -11    1    3    3    0    0 -0.69575990128E+01 -0.63166501831E+01 -0.26665176656E+01  0.97682429474E+01  0.51100000000E-03 0.  1.
         12    1    3    3    0    0 -0.23925103986E+01 -0.14880089193E+02  0.18205170301E+02  0.23634072567E+02  0.00000000000E+00 0. -1.
</event>
<event>
 7    1  0.2985411E-011  0.5052887E+02  0.7816164E-02  0.1300439E+00
        -11   -1    0    0    0    0  0.00000000000E+00  0.00000000000E+00  0.45593999997E+02  0.45594000000E+02  0.51100000000E-03 0.  1.
         11   -1    0    0    0    0 -0.00000000000E+00 -0.00000000000E+00 -0.45593999997E+02  0.45594000000E+02  0.51100000000E-03 0. -1.
    9900012    2    1    2    0    0 -0.13267710392E+02 -0.21680990208E+02 -0.31734327406E+02  0.50528868045E+02  0.30000024908E+02 0.  0.
        -12    1    1    2    0    0  0.13267710392E+02  0.21680990208E+02  0.31734327406E+02  0.40659131955E+02  0.00000000000E+00 0.  1.
         11    1    3    3    0    0 -0.89050279556E+01 -0.71167150549E+01 -0.39136715228E+01  0.12052550813E+02  0.51100000000E-03 0. -1.
        -11    1    3    3    0    0  0.35403694819E+01 -0.23267733568E+01  0.24420225062E+01  0.48899452455E+01  0.51100000000E-03 0.  1.
         12    1    3    3    0    0 -0.79030519181E+01 -0.12237501796E+02 -0.30262678390E+02  0.33586371986E+02  0.00000000000E+00 0. -1.
</event>
<event>
 7    1  0.2985411E-011  0.5052887E+02  0.7816164E-02  0.1300439E+00
        -11   -1    0    0    0    0  0.00000000000E+00  0.00000000000E+00  0.45593999997E+02  0.45594000000E+02  0.51100000000E-03 0.  1.
         11   -1    0    0    0    0 -0.00000000000E+00 -0.00000000000E+00 -0.45593999997E+02  0.45594000000E+02  0.51100000000E-03 0. -1.
    9900012    2    1    2    0    0  0.40037781336E+02  0.48616573768E+01  0.51483203557E+01  0.50528870039E+02  0.30000030969E+02 0.  0.
        -12    1    1    2    0    0 -0.40037781336E+02 -0.48616573768E+01 -0.51483203557E+01  0.40659129961E+02  0.00000000000E+00 0.  1.
         11    1    3    3    0    0 -0.21533126837E+01  0.21900154027E+01 -0.22598475928E+01  0.38131134761E+01  0.51100000000E-03 0. -1.
        -11    1    3    3    0    0  0.11364555695E+02  0.48409589314E+01  0.97319462143E+01  0.15725736450E+02  0.51100000000E-03 0.  1.
        -12    1    3    3    0    0  0.30826538325E+02 -0.21693169573E+01 -0.23237782658E+01  0.30990020113E+02  0.00000000000E+00 0.  1.
</event>
<event>
 7    1  0.2985411E-011  0.5052886E+02  0.7816164E-02  0.1300439E+00
        -11   -1    0    0    0    0  0.00000000000E+00  0.00000000000E+00  0.45593999997E+02  0.45594000000E+02  0.51100000000E-03 0.  1.
         11   -1    0    0    0    0 -0.00000000000E+00 -0.00000000000E+00 -0.45593999997E+02  0.45594000000E+02  0.51100000000E-03 0. -1.
    9900012    2    1    2    0    0 -0.39926614138E+02 -0.74584894033E+01  0.18444623580E+01  0.50528860534E+02  0.30000002079E+02 0.  0.
        -12    1    1    2    0    0  0.39926614138E+02  0.74584894033E+01 -0.18444623580E+01  0.40659139466E+02  0.00000000000E+00 0.  1.
         11    1    3    3    0    0 -0.72513777586E+01  0.32561794495E+01  0.49118149728E+01  0.93440414486E+01  0.51100000000E-03 0. -1.
        -11    1    3    3    0    0 -0.12779221860E+02  0.36675665588E+01  0.65466463287E+01  0.14819518691E+02  0.51100000000E-03 0.  1.
         12    1    3    3    0    0 -0.19896014520E+02 -0.14382235412E+02 -0.96139989434E+01  0.26365300394E+02  0.00000000000E+00 0. -1.
</event>
<event>
 7    1  0.2985411E-011  0.5052881E+02  0.7816164E-02  0.1300439E+00
        -11   -1    0    0    0    0  0.00000000000E+00  0.00000000000E+00  0.45593999997E+02  0.45594000000E+02  0.51100000000E-03 0.  1.
         11   -1    0    0    0    0 -0.00000000000E+00 -0.00000000000E+00 -0.45593999997E+02  0.45594000000E+02  0.51100000000E-03 0. -1.
    9900012    2    1    2    0    0 -0.24959594782E+02  0.30454618461E+02 -0.10134326908E+02  0.50528809905E+02  0.29999848188E+02 0.  0.
        -12    1    1    2    0    0  0.24959594782E+02 -0.30454618461E+02  0.10134326908E+02  0.40659190095E+02  0.00000000000E+00 0.  1.
         11    1    3    3    0    0 -0.39218801675E+01  0.11149752892E+02 -0.43835771509E+00  0.11827522621E+02  0.51100000000E-03 0. -1.
        -11    1    3    3    0    0 -0.21391378050E+02  0.19675440298E+02 -0.72359704084E-01  0.29064054121E+02  0.51100000000E-03 0.  1.
        -12    1    3    3    0    0  0.35366343581E+00 -0.37057472867E+00 -0.96236094884E+01  0.96372331632E+01  0.00000000000E+00 0.  1.
</event>
<event>
 7    1  0.2985411E-011  0.5052886E+02  0.7816164E-02  0.1300439E+00
        -11   -1    0    0    0    0  0.00000000000E+00  0.00000000000E+00  0.45593999997E+02  0.45594000000E+02  0.51100000000E-03 0. -1.
         11   -1    0    0    0    0 -0.00000000000E+00 -0.00000000000E+00 -0.45593999997E+02  0.45594000000E+02  0.51100000000E-03 0.  1.
    9900012    2    1    2    0    0  0.28688216209E+01  0.23304658463E+02  0.33193800500E+02  0.50528860372E+02  0.30000001588E+02 0.  0.
        -12    1    1    2    0    0 -0.28688216209E+01 -0.23304658463E+02 -0.33193800500E+02  0.40659139628E+02  0.00000000000E+00 0.  1.
         11    1    3    3    0    0  0.15595826150E+01  0.11111514805E+02  0.96234650763E-02  0.11220434576E+02  0.51100000000E-03 0. -1.
        -11    1    3    3    0    0 -0.63854103675E+01  0.15328013909E+00  0.13995771543E+02  0.15384361596E+02  0.51100000000E-03 0.  1.
         12    1    3    3    0    0  0.76946493733E+01  0.12039863519E+02  0.19188405492E+02  0.23924064200E+02  0.00000000000E+00 0. -1.
</event>
<event>
 7    1  0.2985411E-011  0.5052886E+02  0.7816164E-02  0.1300439E+00
        -11   -1    0    0    0    0  0.00000000000E+00  0.00000000000E+00  0.45593999997E+02  0.45594000000E+02  0.51100000000E-03 0.  1.
         11   -1    0    0    0    0 -0.00000000000E+00 -0.00000000000E+00 -0.45593999997E+02  0.45594000000E+02  0.51100000000E-03 0. -1.
    9900012    2    1    2    0    0  0.86726597392E+01 -0.20430915282E+02 -0.34066529463E+02  0.50528858890E+02  0.29999997081E+02 0.  0.
        -12    1    1    2    0    0 -0.86726597392E+01  0.20430915282E+02  0.34066529463E+02  0.40659141110E+02  0.00000000000E+00 0.  1.
         11    1    3    3    0    0  0.70029767517E+01  0.14421390388E+01 -0.63524987556E+01  0.95642923990E+01  0.51100000000E-03 0. -1.
        -11    1    3    3    0    0  0.52353786006E+01  0.79891615818E+00 -0.12094067668E+02  0.13202800049E+02  0.51100000000E-03 0.  1.
         12    1    3    3    0    0 -0.35656956132E+01 -0.22671970479E+02 -0.15619963039E+02  0.27761766442E+02  0.00000000000E+00 0. -1.
</event>
<event>
 7    1  0.2985411E-011  0.5052886E+02  0.7816164E-02  0.1300439E+00
        -11   -1    0    0    0    0  0.00000000000E+00  0.00000000000E+00  0.45593999997E+02  0.45594000000E+02  0.51100000000E-03 0.  1.
         11   -1    0    0    0    0 -0.00000000000E+00 -0.00000000000E+00 -0.45593999997E+02  0.45594000000E+02  0.51100000000E-03 0. -1.
    9900012    2    1    2    0    0  0.33404002458E+02  0.61808056991E+01 -0.22341357297E+02  0.50528856069E+02  0.29999988508E+02 0.  0.
        -12    1    1    2    0    0 -0.33404002458E+02 -0.61808056991E+01  0.22341357297E+02  0.40659143931E+02  0.00000000000E+00 0.  1.
         11    1    3    3    0    0  0.87289440744E+01  0.17225305877E+01  0.46448341526E+01  0.10036735567E+02  0.51100000000E-03 0.  1.
        -11    1    3    3    0    0  0.11473926936E+02 -0.29957294817E+01 -0.31952902760E+01  0.12281501320E+02  0.51100000000E-03 0. -1.
         12    1    3    3    0    0  0.13201131447E+02  0.74540045931E+01 -0.23790901174E+02  0.28210619182E+02  0.00000000000E+00 0. -1.
</event>
<event>
 7    1  0.2985411E-011  0.5052885E+02  0.7816164E-02  0.1300439E+00
        -11   -1    0    0    0    0  0.00000000000E+00  0.00000000000E+00  0.45593999997E+02  0.45594000000E+02  0.51100000000E-03 0.  1.
         11   -1    0    0    0    0 -0.00000000000E+00 -0.00000000000E+00 -0.45593999997E+02  0.45594000000E+02  0.51100000000E-03 0. -1.
    9900012    2    1    2    0    0 -0.74538501397E+01 -0.26234317810E+02 -0.30155712969E+02  0.50528851736E+02  0.29999975336E+02 0.  0.
        -12    1    1    2    0    0  0.74538501397E+01  0.26234317810E+02  0.30155712969E+02  0.40659148264E+02  0.00000000000E+00 0.  1.
         11    1    3    3    0    0  0.67623980482E+01 -0.10434586029E+02 -0.13898133897E+02  0.18648558632E+02  0.51100000000E-03 0. -1.
        -11    1    3    3    0    0  0.31265428042E+01 -0.23279600244E+01  0.91351443702E+00  0.40036454225E+01  0.51100000000E-03 0.  1.
         12    1    3    3    0    0 -0.17342790992E+02 -0.13471771757E+02 -0.17171093510E+02  0.27876647682E+02  0.00000000000E+00 0. -1.
</event>
<event>
 7    1  0.2985411E-011  0.5052885E+02  0.7816164E-02  0.1300439E+00
        -11   -1    0    0    0    0  0.00000000000E+00  0.00000000000E+00  0.45593999997E+02  0.45594000000E+02  0.51100000000E-03 0. -1.
         11   -1    0    0    0    0 -0.00000000000E+00 -0.00000000000E+00 -0.45593999997E+02  0.45594000000E+02  0.51100000000E-03 0.  1.
    9900012    2    1    2    0    0 -0.75739751225E+01  0.27854533188E+00  0.39946511247E+02  0.50528850385E+02  0.29999971229E+02 0.  0.
        -12    1    1    2    0    0  0.75739751225E+01 -0.27854533188E+00 -0.39946511247E+02  0.40659149615E+02  0.00000000000E+00 0.  1.
         11    1    3    3    0    0 -0.41587066766E+01  0.82643118822E+01  0.20890832318E+02  0.22847769417E+02  0.51100000000E-03 0. -1.
        -11    1    3    3    0    0 -0.56342364038E+00 -0.13552052968E+02  0.15018799914E+02  0.20237093095E+02  0.51100000000E-03 0.  1.
         12    1    3    3    0    0 -0.28518448056E+01  0.55662864172E+01  0.40368790148E+01  0.74439878730E+01  0.00000000000E+00 0. -1.
</event>
<event>
 7    1  0.2985411E-011  0.5052892E+02  0.7816164E-02  0.1300439E+00
        -11   -1    0    0    0    0  0.00000000000E+00  0.00000000000E+00  0.45593999997E+02  0.45594000000E+02  0.51100000000E-03 0.  1.
         11   -1    0    0    0    0 -0.00000000000E+00 -0.00000000000E+00 -0.45593999997E+02  0.45594000000E+02  0.51100000000E-03 0. -1.
    9900012    2    1    2    0    0 -0.11744071343E+02  0.28819244311E+01 -0.38819224544E+02  0.50528918674E+02  0.30000178800E+02 0.  0.
        -12    1    1    2    0    0  0.11744071343E+02 -0.28819244311E+01  0.38819224544E+02  0.40659081326E+02  0.00000000000E+00 0.  1.
         11    1    3    3    0    0 -0.11241102136E+02  0.43966110610E+01 -0.23877564347E+02  0.26755011595E+02  0.51100000000E-03 0.  1.
        -11    1    3    3    0    0 -0.57486025728E+01  0.29488861642E+01 -0.15570358084E+02  0.16857592125E+02  0.51100000000E-03 0. -1.
        -12    1    3    3    0    0  0.52456333658E+01 -0.44635727941E+01  0.62869788702E+00  0.69163149530E+01  0.00000000000E+00 0.  1.
</event>
<event>
 7    1  0.2985411E-011  0.5052887E+02  0.7816164E-02  0.1300439E+00
        -11   -1    0    0    0    0  0.00000000000E+00  0.00000000000E+00  0.45593999997E+02  0.45594000000E+02  0.51100000000E-03 0.  1.
         11   -1    0    0    0    0 -0.00000000000E+00 -0.00000000000E+00 -0.45593999997E+02  0.45594000000E+02  0.51100000000E-03 0. -1.
    9900012    2    1    2    0    0 -0.28208130001E+02  0.34046425589E+01 -0.29083917890E+02  0.50528874715E+02  0.30000045184E+02 0.  0.
        -12    1    1    2    0    0  0.28208130001E+02 -0.34046425589E+01  0.29083917890E+02  0.40659125285E+02  0.00000000000E+00 0.  1.
         11    1    3    3    0    0  0.27715197171E+01 -0.19354750551E+01 -0.35075934389E+01  0.48714060829E+01  0.51100000000E-03 0. -1.
        -11    1    3    3    0    0 -0.18528649058E+01 -0.54524597286E+01 -0.58182040349E+00  0.57879997145E+01  0.51100000000E-03 0.  1.
         12    1    3    3    0    0 -0.29126784813E+02  0.10792577343E+02 -0.24994504047E+02  0.39869468918E+02  0.00000000000E+00 0. -1.
</event>
<event>
 7    1  0.2985411E-011  0.5052884E+02  0.7816164E-02  0.1300439E+00
        -11   -1    0    0    0    0  0.00000000000E+00  0.00000000000E+00  0.45593999997E+02  0.45594000000E+02  0.51100000000E-03 0.  1.
         11   -1    0    0    0    0 -0.00000000000E+00 -0.00000000000E+00 -0.45593999997E+02  0.45594000000E+02  0.51100000000E-03 0. -1.
    9900012    2    1    2    0    0 -0.17902034147E+01  0.24998809652E+02 -0.32015963806E+02  0.50528840507E+02  0.29999941204E+02 0.  0.
        -12    1    1    2    0    0  0.17902034147E+01 -0.24998809652E+02  0.32015963806E+02  0.40659159493E+02  0.00000000000E+00 0.  1.
         11    1    3    3    0    0 -0.11114298121E+02  0.16230854527E+02 -0.95248742286E+01  0.21856154528E+02  0.51100000000E-03 0. -1.
        -11    1    3    3    0    0  0.68608736233E+00  0.95149499775E+00  0.15582023303E+01  0.19503982575E+01  0.51100000000E-03 0.  1.
         12    1    3    3    0    0  0.86380073440E+01  0.78164601269E+01 -0.24049291908E+02  0.26722287721E+02  0.00000000000E+00 0. -1.
</event>
<event>
 7    1  0.2985411E-011  0.5052887E+02  0.7816164E-02  0.1300439E+00
        -11   -1    0    0    0    0  0.00000000000E+00  0.00000000000E+00  0.45593999997E+02  0.45594000000E+02  0.51100000000E-03 0.  1.
         11   -1    0    0    0    0 -0.00000000000E+00 -0.00000000000E+00 -0.45593999997E+02  0.45594000000E+02  0.51100000000E-03 0. -1.
    9900012    2    1    2    0    0  0.26671478295E+02 -0.55803903064E+00 -0.30683642062E+02  0.50528867542E+02  0.30000023381E+02 0.  0.
        -12    1    1    2    0    0 -0.26671478295E+02  0.55803903064E+00  0.30683642062E+02  0.40659132458E+02  0.00000000000E+00 0.  1.
         11    1    3    3    0    0  0.61341185591E+01  0.27354325329E+01 -0.69868974788E+01  0.96915807936E+01  0.51100000000E-03 0. -1.
        -11    1    3    3    0    0  0.25801470367E+02 -0.17550989537E+01 -0.13295228162E+02  0.29078503015E+02  0.51100000000E-03 0.  1.
        -12    1    3    3    0    0 -0.52641106313E+01 -0.15383726098E+01 -0.10401516421E+02  0.11758783734E+02  0.00000000000E+00 0.  1.
</event>
<event>
 7    1  0.2985411E-011  0.5052886E+02  0.7816164E-02  0.1300439E+00
        -11   -1    0    0    0    0  0.00000000000E+00  0.00000000000E+00  0.45593999997E+02  0.45594000000E+02  0.51100000000E-03 0. -1.
         11   -1    0    0    0    0 -0.00000000000E+00 -0.00000000000E+00 -0.45593999997E+02  0.45594000000E+02  0.51100000000E-03 0.  1.
    9900012    2    1    2    0    0 -0.35537839384E+02 -0.19742631189E+02  0.67534895763E+00  0.50528860676E+02  0.30000002511E+02 0.  0.
        -12    1    1    2    0    0  0.35537839384E+02  0.19742631189E+02 -0.67534895763E+00  0.40659139324E+02  0.00000000000E+00 0.  1.
         11    1    3    3    0    0 -0.14746556604E+02 -0.58675861384E+01  0.28025644876E+01  0.16116571184E+02  0.51100000000E-03 0. -1.
        -11    1    3    3    0    0 -0.10061725910E+02 -0.82372617832E+01  0.10644590589E+02  0.16804705265E+02  0.51100000000E-03 0.  1.
        -12    1    3    3    0    0 -0.10729556870E+02 -0.56377832674E+01 -0.12771806119E+02  0.17607584227E+02  0.00000000000E+00 0.  1.
</event>
<event>
 7    1  0.2985411E-011  0.5052886E+02  0.7816164E-02  0.1300439E+00
        -11   -1    0    0    0    0  0.00000000000E+00  0.00000000000E+00  0.45593999997E+02  0.45594000000E+02  0.51100000000E-03 0.  1.
         11   -1    0    0    0    0 -0.00000000000E+00 -0.00000000000E+00 -0.45593999997E+02  0.45594000000E+02  0.51100000000E-03 0. -1.
    9900012    2    1    2    0    0 -0.14695392473E+02 -0.96444151276E+01 -0.36663286052E+02  0.50528857766E+02  0.29999993666E+02 0.  0.
        -12    1    1    2    0    0  0.14695392473E+02  0.96444151276E+01  0.36663286052E+02  0.40659142234E+02  0.00000000000E+00 0.  1.
         11    1    3    3    0    0  0.51265124940E+01  0.10124731382E+00  0.22503707047E+01  0.55996026591E+01  0.51100000000E-03 0.  1.
        -11    1    3    3    0    0 -0.79686794818E+01 -0.45140861940E+01 -0.12360452077E+02  0.15383679751E+02  0.51100000000E-03 0. -1.
        -12    1    3    3    0    0 -0.11853225485E+02 -0.52315762475E+01 -0.26553204679E+02  0.29545575357E+02  0.00000000000E+00 0.  1.
</event>
<event>
 7    1  0.2985411E-011  0.5052884E+02  0.7816164E-02  0.1300439E+00
        -11   -1    0    0    0    0  0.00000000000E+00  0.00000000000E+00  0.45593999997E+02  0.45594000000E+02  0.51100000000E-03 0. -1.
         11   -1    0    0    0    0 -0.00000000000E+00 -0.00000000000E+00 -0.45593999997E+02  0.45594000000E+02  0.51100000000E-03 0.  1.
    9900012    2    1    2    0    0 -0.17080180270E+02  0.32630294453E+02  0.17224932690E+02  0.50528843832E+02  0.29999951310E+02 0.  0.
        -12    1    1    2    0    0  0.17080180270E+02 -0.32630294453E+02 -0.17224932690E+02  0.40659156168E+02  0.00000000000E+00 0.  1.
         11    1    3    3    0    0 -0.50268913009E+01  0.95577288707E+01  0.56776416970E+01  0.12200632476E+02  0.51100000000E-03 0. -1.
        -11    1    3    3    0    0 -0.15734059501E+02  0.25269003706E+02  0.45363699791E+01  0.30110825786E+02  0.51100000000E-03 0.  1.
        -12    1    3    3    0    0  0.36807705313E+01 -0.21964381235E+01  0.70109210144E+01  0.82173855699E+01  0.00000000000E+00 0.  1.
</event>
<event>
 7    1  0.2985411E-011  0.5052891E+02  0.7816164E-02  0.1300439E+00
        -11   -1    0    0    0    0  0.00000000000E+00  0.00000000000E+00  0.45593999997E+02  0.45594000000E+02  0.51100000000E-03 0.  1.
         11   -1    0    0    0    0 -0.00000000000E+00 -0.00000000000E+00 -0.45593999997E+02  0.45594000000E+02  0.51100000000E-03 0. -1.
    9900012    2    1    2    0    0 -0.15636527242E+02 -0.34570065221E+02 -0.14614066319E+02  0.50528913341E+02  0.30000162589E+02 0.  0.
        -12    1    1    2    0    0  0.15636527242E+02  0.34570065221E+02  0.14614066319E+02  0.40659086659E+02  0.00000000000E+00 0.  1.
         11    1    3    3    0    0 -0.22714943884E+01 -0.18961034137E+01  0.30589437533E+01  0.42558233115E+01  0.51100000000E-03 0. -1.
        -11    1    3    3    0    0  0.15080320972E+01  0.23978296281E+01 -0.56591498790E+01  0.63284852331E+01  0.51100000000E-03 0.  1.
         12    1    3    3    0    0 -0.14873064951E+02 -0.35071791436E+02 -0.12013860194E+02  0.39944604796E+02  0.00000000000E+00 0. -1.
</event>
<event>
 7    1  0.2985411E-011  0.5052886E+02  0.7816164E-02  0.1300439E+00
        -11   -1    0    0    0    0  0.00000000000E+00  0.00000000000E+00  0.45593999997E+02  0.45594000000E+02  0.51100000000E-03 0. -1.
         11   -1    0    0    0    0 -0.00000000000E+00 -0.00000000000E+00 -0.45593999997E+02  0.45594000000E+02  0.51100000000E-03 0.  1.
    9900012    2    1    2    0    0 -0.36050117138E+02 -0.36792307999E+01 -0.18439581874E+02  0.50528857552E+02  0.29999993014E+02 0.  0.
        -12    1    1    2    0    0  0.36050117138E+02  0.36792307999E+01  0.18439581874E+02  0.40659142448E+02  0.00000000000E+00 0.  1.
         11    1    3    3    0    0 -0.80546122365E-01  0.49688007627E+01  0.10241941929E+01  0.50738981762E+01  0.51100000000E-03 0. -1.
        -11    1    3    3    0    0 -0.16451871251E+01 -0.34325488667E+01 -0.80567356242E+01  0.89106689748E+01  0.51100000000E-03 0.  1.
         12    1    3    3    0    0 -0.34324383891E+02 -0.52154826959E+01 -0.11407040443E+02  0.36544290401E+02  0.00000000000E+00 0. -1.
</event>
<event>
 7    1  0.2985411E-011  0.5052885E+02  0.7816164E-02  0.1300439E+00
        -11   -1    0    0    0    0  0.00000000000E+00  0.00000000000E+00  0.45593999997E+02  0.45594000000E+02  0.51100000000E-03 0.  1.
         11   -1    0    0    0    0 -0.00000000000E+00 -0.00000000000E+00 -0.45593999997E+02  0.45594000000E+02  0.51100000000E-03 0. -1.
    9900012    2    1    2    0    0  0.13282736994E+02  0.35129492845E+02 -0.15577354660E+02  0.50528851610E+02  0.29999974953E+02 0.  0.
        -12    1    1    2    0    0 -0.13282736994E+02 -0.35129492845E+02  0.15577354660E+02  0.40659148390E+02  0.00000000000E+00 0.  1.
         11    1    3    3    0    0 -0.10955266278E+01  0.12432472839E+02  0.27829086277E+01  0.12787147460E+02  0.51100000000E-03 0.  1.
        -11    1    3    3    0    0 -0.37784935748E+01  0.10175059172E+02 -0.49554022620E+01  0.11931674430E+02  0.51100000000E-03 0. -1.
         12    1    3    3    0    0  0.18156757196E+02  0.12521960834E+02 -0.13404861026E+02  0.25810029720E+02  0.00000000000E+00 0. -1.
</event>
<event>
 7    1  0.2985411E-011  0.5052886E+02  0.7816164E-02  0.1300439E+00
        -11   -1    0    0    0    0  0.00000000000E+00  0.00000000000E+00  0.45593999997E+02  0.45594000000E+02  0.51100000000E-03 0. -1.
         11   -1    0    0    0    0 -0.00000000000E+00 -0.00000000000E+00 -0.45593999997E+02  0.45594000000E+02  0.51100000000E-03 0.  1.
    9900012    2    1    2    0    0  0.17134889057E+02 -0.26535786577E+02  0.25601047322E+02  0.50528855687E+02  0.29999987346E+02 0.  0.
        -12    1    1    2    0    0 -0.17134889057E+02  0.26535786577E+02 -0.25601047322E+02  0.40659144313E+02  0.00000000000E+00 0.  1.
         11    1    3    3    0    0  0.40398106094E+01 -0.64913120558E+01  0.75571059072E+01  0.10750211715E+02  0.51100000000E-03 0. -1.
        -11    1    3    3    0    0  0.10513713660E+02 -0.24607983271E+02  0.71654547678E+01  0.27702612835E+02  0.51100000000E-03 0.  1.
         12    1    3    3    0    0  0.25813647875E+01  0.45635087501E+01  0.10878486647E+02  0.12076031136E+02  0.00000000000E+00 0. -1.
</event>
<event>
 7    1  0.2985411E-011  0.5052886E+02  0.7816164E-02  0.1300439E+00
        -11   -1    0    0    0    0  0.00000000000E+00  0.00000000000E+00  0.45593999997E+02  0.45594000000E+02  0.51100000000E-03 0. -1.
         11   -1    0    0    0    0 -0.00000000000E+00 -0.00000000000E+00 -0.45593999997E+02  0.45594000000E+02  0.51100000000E-03 0.  1.
    9900012    2    1    2    0    0 -0.21308324575E+02  0.31288100364E+02  0.14838307451E+02  0.50528864635E+02  0.30000014546E+02 0.  0.
        -12    1    1    2    0    0  0.21308324575E+02 -0.31288100364E+02 -0.14838307451E+02  0.40659135365E+02  0.00000000000E+00 0.  1.
         11    1    3    3    0    0 -0.26328608273E+01  0.92026352795E+01 -0.25416567783E+01  0.99035585353E+01  0.51100000000E-03 0. -1.
        -11    1    3    3    0    0  0.44384346674E+01  0.38958668980E+01  0.76090990519E+01  0.96320231429E+01  0.51100000000E-03 0.  1.
        -12    1    3    3    0    0 -0.23113898415E+02  0.18189598187E+02  0.97708651770E+01  0.30993282957E+02  0.00000000000E+00 0.  1.
</event>
<event>
 7    1  0.2985411E-011  0.5052887E+02  0.7816164E-02  0.1300439E+00
        -11   -1    0    0    0    0  0.00000000000E+00  0.00000000000E+00  0.45593999997E+02  0.45594000000E+02  0.51100000000E-03 0. -1.
         11   -1    0    0    0    0 -0.00000000000E+00 -0.00000000000E+00 -0.45593999997E+02  0.45594000000E+02  0.51100000000E-03 0.  1.
    9900012    2    1    2    0    0  0.28844912631E+01 -0.34194345520E+02  0.21808060958E+02  0.50528867224E+02  0.30000022414E+02 0.  0.
        -12    1    1    2    0    0 -0.28844912631E+01  0.34194345520E+02 -0.21808060958E+02  0.40659132776E+02  0.00000000000E+00 0.  1.
         11    1    3    3    0    0  0.54286050876E+01 -0.36007010630E+01  0.41113572151E+01  0.77031201311E+01  0.51100000000E-03 0. -1.
        -11    1    3    3    0    0  0.23943644373E+01 -0.80449576570E+01  0.17868701354E+02  0.19741955656E+02  0.51100000000E-03 0.  1.
        -12    1    3    3    0    0 -0.49384782618E+01 -0.22548686800E+02 -0.17199761200E+00  0.23083791437E+02  0.00000000000E+00 0.  1.
</event>
<event>
 7    1  0.2985411E-011  0.5052886E+02  0.7816164E-02  0.1300439E+00
        -11   -1    0    0    0    0  0.00000000000E+00  0.00000000000E+00  0.45593999997E+02  0.45594000000E+02  0.51100000000E-03 0. -1.
         11   -1    0    0    0    0 -0.00000000000E+00 -0.00000000000E+00 -0.45593999997E+02  0.45594000000E+02  0.51100000000E-03 0.  1.
    9900012    2    1    2    0    0 -0.12966164511E+02 -0.36625744642E+02  0.11983276863E+02  0.50528861825E+02  0.30000006005E+02 0.  0.
        -12    1    1    2    0    0  0.12966164511E+02  0.36625744642E+02 -0.11983276863E+02  0.40659138175E+02  0.00000000000E+00 0.  1.
         11    1    3    3    0    0 -0.17647609056E+02 -0.13444900873E+02  0.34718144924E+01  0.22455666567E+02  0.51100000000E-03 0. -1.
        -11    1    3    3    0    0 -0.17918271932E+01  0.66739819016E+00 -0.72789826670E-01  0.19134690106E+01  0.51100000000E-03 0.  1.
         12    1    3    3    0    0  0.64732717376E+01 -0.23848241960E+02  0.85842521975E+01  0.26159726247E+02  0.00000000000E+00 0. -1.
</event>
<event>
 7    1  0.2985411E-011  0.5052884E+02  0.7816164E-02  0.1300439E+00
        -11   -1    0    0    0    0  0.00000000000E+00  0.00000000000E+00  0.45593999997E+02  0.45594000000E+02  0.51100000000E-03 0.  1.
         11   -1    0    0    0    0 -0.00000000000E+00 -0.00000000000E+00 -0.45593999997E+02  0.45594000000E+02  0.51100000000E-03 0. -1.
    9900012    2    1    2    0    0  0.16361106874E+02 -0.36867465622E+02 -0.51255919413E+01  0.50528837044E+02  0.29999930679E+02 0.  0.
        -12    1    1    2    0    0 -0.16361106874E+02  0.36867465622E+02  0.51255919413E+01  0.40659162956E+02  0.00000000000E+00 0.  1.
         11    1    3    3    0    0  0.60683702774E+01 -0.23301581101E+02 -0.86450620301E+01  0.25583703747E+02  0.51100000000E-03 0. -1.
        -11    1    3    3    0    0  0.24818316533E+01 -0.39077842479E+01 -0.71853605979E+01  0.85474951457E+01  0.51100000000E-03 0.  1.
        -12    1    3    3    0    0  0.78109049438E+01 -0.96581002728E+01  0.10704830687E+02  0.16397638152E+02  0.00000000000E+00 0.  1.
</event>
<event>
 7    1  0.2985411E-011  0.5052886E+02  0.7816164E-02  0.1300439E+00
        -11   -1    0    0    0    0  0.00000000000E+00  0.00000000000E+00  0.45593999997E+02  0.45594000000E+02  0.51100000000E-03 0.  1.
         11   -1    0    0    0    0 -0.00000000000E+00 -0.00000000000E+00 -0.45593999997E+02  0.45594000000E+02  0.51100000000E-03 0. -1.
    9900012    2    1    2    0    0  0.28689578337E+02  0.25295502592E+02  0.13791720331E+02  0.50528857040E+02  0.29999991460E+02 0.  0.
        -12    1    1    2    0    0 -0.28689578337E+02 -0.25295502592E+02 -0.13791720331E+02  0.40659142960E+02  0.00000000000E+00 0.  1.
         11    1    3    3    0    0  0.28961278863E+02  0.11972524992E+02  0.12653577213E+02  0.33796598122E+02  0.51100000000E-03 0. -1.
        -11    1    3    3    0    0  0.77823207294E+00 -0.15700588767E+01  0.30788320643E+00  0.17791914921E+01  0.51100000000E-03 0.  1.
        -12    1    3    3    0    0 -0.10499325990E+01  0.14893036476E+02  0.83025991210E+00  0.14953067426E+02  0.00000000000E+00 0.  1.
</event>
<event>
 7    1  0.2985411E-011  0.5052882E+02  0.7816164E-02  0.1300439E+00
        -11   -1    0    0    0    0  0.00000000000E+00  0.00000000000E+00  0.45593999997E+02  0.45594000000E+02  0.51100000000E-03 0.  1.
         11   -1    0    0    0    0 -0.00000000000E+00 -0.00000000000E+00 -0.45593999997E+02  0.45594000000E+02  0.51100000000E-03 0. -1.
    9900012    2    1    2    0    0 -0.14902401419E+02 -0.34555911407E+02 -0.15394048854E+02  0.50528815043E+02  0.29999863805E+02 0.  0.
        -12    1    1    2    0    0  0.14902401419E+02  0.34555911407E+02  0.15394048854E+02  0.40659184957E+02  0.00000000000E+00 0.  1.
         11    1    3    3    0    0 -0.65839981149E+01 -0.12791828396E+02  0.31436228870E+01  0.14726244260E+02  0.51100000000E-03 0.  1.
        -11    1    3    3    0    0  0.60731297120E+01 -0.50194472090E+01 -0.17631318317E+01  0.80738088224E+01  0.51100000000E-03 0. -1.
        -12    1    3    3    0    0 -0.14391533016E+02 -0.16744635802E+02 -0.16774539909E+02  0.27728761960E+02  0.00000000000E+00 0.  1.
</event>
<event>
 7    1  0.2985411E-011  0.5052885E+02  0.7816164E-02  0.1300439E+00
        -11   -1    0    0    0    0  0.00000000000E+00  0.00000000000E+00  0.45593999997E+02  0.45594000000E+02  0.51100000000E-03 0.  1.
         11   -1    0    0    0    0 -0.00000000000E+00 -0.00000000000E+00 -0.45593999997E+02  0.45594000000E+02  0.51100000000E-03 0. -1.
    9900012    2    1    2    0    0  0.18104573602E+02 -0.21662369555E+02 -0.29259747836E+02  0.50528847482E+02  0.29999962407E+02 0.  0.
        -12    1    1    2    0    0 -0.18104573602E+02  0.21662369555E+02  0.29259747836E+02  0.40659152518E+02  0.00000000000E+00 0.  1.
         11    1    3    3    0    0 -0.16677952179E+01  0.18041786179E+01 -0.25930354418E+01  0.35721750290E+01  0.51100000000E-03 0. -1.
        -11    1    3    3    0    0  0.76207214471E+00  0.35220579898E+01 -0.86000210970E+01  0.93244844129E+01  0.51100000000E-03 0.  1.
        -12    1    3    3    0    0  0.19010296675E+02 -0.26988606163E+02 -0.18066691297E+02  0.37632188040E+02  0.00000000000E+00 0.  1.
</event>
<event>
 7    1  0.2985411E-011  0.5052887E+02  0.7816164E-02  0.1300439E+00
        -11   -1    0    0    0    0  0.00000000000E+00  0.00000000000E+00  0.45593999997E+02  0.45594000000E+02  0.51100000000E-03 0.  1.
         11   -1    0    0    0    0 -0.00000000000E+00 -0.00000000000E+00 -0.45593999997E+02  0.45594000000E+02  0.51100000000E-03 0. -1.
    9900012    2    1    2    0    0  0.10634991483E+02 -0.33562466827E+02 -0.20337724435E+02  0.50528865005E+02  0.30000015668E+02 0.  0.
        -12    1    1    2    0    0 -0.10634991483E+02  0.33562466827E+02  0.20337724435E+02  0.40659134995E+02  0.00000000000E+00 0.  1.
         11    1    3    3    0    0  0.68139733177E+01 -0.25076141669E+02 -0.22139542008E+02  0.34137991065E+02  0.51100000000E-03 0. -1.
        -11    1    3    3    0    0  0.26593000243E+01 -0.43460145236E+01 -0.57611002527E+01  0.76909034087E+01  0.51100000000E-03 0.  1.
        -12    1    3    3    0    0  0.11617181412E+01 -0.41403106344E+01  0.75629178262E+01  0.86999705306E+01  0.00000000000E+00 0.  1.
</event>
<event>
 7    1  0.2985411E-011  0.5052886E+02  0.7816164E-02  0.1300439E+00
        -11   -1    0    0    0    0  0.00000000000E+00  0.00000000000E+00  0.45593999997E+02  0.45594000000E+02  0.51100000000E-03 0. -1.
         11   -1    0    0    0    0 -0.00000000000E+00 -0.00000000000E+00 -0.45593999997E+02  0.45594000000E+02  0.51100000000E-03 0.  1.
    9900012    2    1    2    0    0  0.74084487552E+01 -0.25465664498E+02  0.30818503892E+02  0.50528863716E+02  0.30000011750E+02 0.  0.
        -12    1    1    2    0    0 -0.74084487552E+01  0.25465664498E+02 -0.30818503892E+02  0.40659136284E+02  0.00000000000E+00 0.  1.
         11    1    3    3    0    0 -0.62187006005E+00 -0.10587464895E+02  0.17441545259E+02  0.20412952666E+02  0.51100000000E-03 0. -1.
        -11    1    3    3    0    0  0.92109878123E+01 -0.16050484072E+02  0.17623658237E+02  0.25554914701E+02  0.51100000000E-03 0.  1.
        -12    1    3    3    0    0 -0.11806689970E+01  0.11722844696E+01 -0.42466996046E+01  0.45609963484E+01  0.00000000000E+00 0.  1.
</event>
<event>
 7    1  0.2985411E-011  0.5052881E+02  0.7816164E-02  0.1300439E+00
        -11   -1    0    0    0    0  0.00000000000E+00  0.00000000000E+00  0.45593999997E+02  0.45594000000E+02  0.51100000000E-03 0.  1.
         11   -1    0    0    0    0 -0.00000000000E+00 -0.00000000000E+00 -0.45593999997E+02  0.45594000000E+02  0.51100000000E-03 0. -1.
    9900012    2    1    2    0    0 -0.17601232109E+02 -0.27073348368E+01 -0.36551835324E+02  0.50528810396E+02  0.29999849680E+02 0.  0.
        -12    1    1    2    0    0  0.17601232109E+02  0.27073348368E+01  0.36551835324E+02  0.40659189604E+02  0.00000000000E+00 0.  1.
         11    1    3    3    0    0 -0.16540938172E+02 -0.45864640583E+00 -0.82008611891E+01  0.18468002508E+02  0.51100000000E-03 0. -1.
        -11    1    3    3    0    0 -0.16606383956E+00 -0.48963171582E+01 -0.15847163268E+01  0.51490605949E+01  0.51100000000E-03 0.  1.
         12    1    3    3    0    0 -0.89423009808E+00  0.26476287273E+01 -0.26766257808E+02  0.26911747294E+02  0.00000000000E+00 0. -1.
</event>
<event>
 7    1  0.2985411E-011  0.5052894E+02  0.7816164E-02  0.1300438E+00
        -11   -1    0    0    0    0  0.00000000000E+00  0.00000000000E+00  0.45593999997E+02  0.45594000000E+02  0.51100000000E-03 0.  1.
         11   -1    0    0    0    0 -0.00000000000E+00 -0.00000000000E+00 -0.45593999997E+02  0.45594000000E+02  0.51100000000E-03 0. -1.
    9900012    2    1    2    0    0  0.15752062697E+02 -0.78831124783E+01 -0.36645435878E+02  0.50528943047E+02  0.30000252886E+02 0.  0.
        -12    1    1    2    0    0 -0.15752062697E+02  0.78831124783E+01  0.36645435878E+02  0.40659056953E+02  0.00000000000E+00 0.  1.
         11    1    3    3    0    0 -0.96172760278E+00 -0.24367306985E+01 -0.53467639542E+01  0.59540290159E+01  0.51100000000E-03 0. -1.
        -11    1    3    3    0    0  0.34477781923E+01 -0.13331801726E+02 -0.23611674673E+02  0.27333775679E+02  0.51100000000E-03 0.  1.
        -12    1    3    3    0    0  0.13266012107E+02  0.78854199465E+01 -0.76869972516E+01  0.17241138353E+02  0.00000000000E+00 0.  1.
</event>
<event>
 7    1  0.2985411E-011  0.5052885E+02  0.7816164E-02  0.1300439E+00
        -11   -1    0    0    0    0  0.00000000000E+00  0.00000000000E+00  0.45593999997E+02  0.45594000000E+02  0.51100000000E-03 0. -1.
         11   -1    0    0    0    0 -0.00000000000E+00 -0.00000000000E+00 -0.45593999997E+02  0.45594000000E+02  0.51100000000E-03 0.  1.
    9900012    2    1    2    0    0  0.22533529604E+02 -0.85855535539E+01  0.32736746926E+02  0.50528852376E+02  0.29999977281E+02 0.  0.
        -12    1    1    2    0    0 -0.22533529604E+02  0.85855535539E+01 -0.32736746926E+02  0.40659147624E+02  0.00000000000E+00 0.  1.
         11    1    3    3    0    0  0.19293503817E+02 -0.64943905044E+01  0.36351615021E+02  0.41663608971E+02  0.51100000000E-03 0. -1.
        -11    1    3    3    0    0  0.30715119639E+01 -0.39840446903E+01 -0.29411700794E+00  0.50391768092E+01  0.51100000000E-03 0.  1.
        -12    1    3    3    0    0  0.16851382294E+00  0.18928816409E+01 -0.33207510868E+01  0.38260665958E+01  0.00000000000E+00 0.  1.
</event>
<event>
 7    1  0.2985411E-011  0.5052886E+02  0.7816164E-02  0.1300439E+00
        -11   -1    0    0    0    0  0.00000000000E+00  0.00000000000E+00  0.45593999997E+02  0.45594000000E+02  0.51100000000E-03 0. -1.
         11   -1    0    0    0    0 -0.00000000000E+00 -0.00000000000E+00 -0.45593999997E+02  0.45594000000E+02  0.51100000000E-03 0.  1.
    9900012    2    1    2    0    0  0.27598166138E+02  0.22152949845E+02  0.20018828509E+02  0.50528862578E+02  0.30000008292E+02 0.  0.
        -12    1    1    2    0    0 -0.27598166138E+02 -0.22152949845E+02 -0.20018828509E+02  0.40659137422E+02  0.00000000000E+00 0.  1.
         11    1    3    3    0    0 -0.11279677143E+01 -0.18381127285E+00 -0.27841460665E+00  0.11762706759E+01  0.51100000000E-03 0. -1.
        -11    1    3    3    0    0  0.10848295415E+02 -0.52651597251E+01  0.45190502323E+01  0.12877470078E+02  0.51100000000E-03 0.  1.
         12    1    3    3    0    0  0.17877838437E+02  0.27601920843E+02  0.15778192883E+02  0.36475121824E+02  0.00000000000E+00 0. -1.
</event>
<event>
 7    1  0.2985411E-011  0.5052886E+02  0.7816164E-02  0.1300439E+00
        -11   -1    0    0    0    0  0.00000000000E+00  0.00000000000E+00  0.45593999997E+02  0.45594000000E+02  0.51100000000E-03 0.  1.
         11   -1    0    0    0    0 -0.00000000000E+00 -0.00000000000E+00 -0.45593999997E+02  0.45594000000E+02  0.51100000000E-03 0. -1.
    9900012    2    1    2    0    0  0.54689861361E+01 -0.87125309557E+01 -0.39336341018E+02  0.50528859211E+02  0.29999998059E+02 0.  0.
        -12    1    1    2    0    0 -0.54689861361E+01  0.87125309557E+01  0.39336341018E+02  0.40659140789E+02  0.00000000000E+00 0.  1.
         11    1    3    3    0    0  0.46661980332E+01  0.48519151061E+01 -0.19964106440E+01  0.70214058423E+01  0.51100000000E-03 0. -1.
        -11    1    3    3    0    0 -0.39957081537E+01  0.30388129596E+01 -0.75316692639E+01  0.90513043267E+01  0.51100000000E-03 0.  1.
         12    1    3    3    0    0  0.47984962566E+01 -0.16603259021E+02 -0.29808261110E+02  0.34456149043E+02  0.00000000000E+00 0. -1.
</event>
<event>
 7    1  0.2985411E-011  0.5052889E+02  0.7816164E-02  0.1300439E+00
        -11   -1    0    0    0    0  0.00000000000E+00  0.00000000000E+00  0.45593999997E+02  0.45594000000E+02  0.51100000000E-03 0.  1.
         11   -1    0    0    0    0 -0.00000000000E+00 -0.00000000000E+00 -0.45593999997E+02  0.45594000000E+02  0.51100000000E-03 0. -1.
    9900012    2    1    2    0    0 -0.25995195230E+02 -0.11962955919E+02 -0.28884263850E+02  0.50528890473E+02  0.30000093082E+02 0.  0.
        -12    1    1    2    0    0  0.25995195230E+02  0.11962955919E+02  0.28884263850E+02  0.40659109527E+02  0.00000000000E+00 0.  1.
         11    1    3    3    0    0  0.64324468102E+00  0.16835263605E+01 -0.47683417314E+01  0.50975590094E+01  0.51100000000E-03 0. -1.
        -11    1    3    3    0    0 -0.35933707914E+01 -0.12917589438E+02 -0.21370142820E+01  0.13577306833E+02  0.51100000000E-03 0.  1.
         12    1    3    3    0    0 -0.23045069119E+02 -0.72889284163E+00 -0.21978907837E+02  0.31854024631E+02  0.00000000000E+00 0. -1.
</event>
<event>
 7    1  0.2985411E-011  0.5052886E+02  0.7816164E-02  0.1300439E+00
        -11   -1    0    0    0    0  0.00000000000E+00  0.00000000000E+00  0.45593999997E+02  0.45594000000E+02  0.51100000000E-03 0.  1.
         11   -1    0    0    0    0 -0.00000000000E+00 -0.00000000000E+00 -0.45593999997E+02  0.45594000000E+02  0.51100000000E-03 0. -1.
    9900012    2    1    2    0    0 -0.68031975046E+01 -0.38291222824E+02 -0.11860191621E+02  0.50528863426E+02  0.30000010869E+02 0.  0.
        -12    1    1    2    0    0  0.68031975046E+01  0.38291222824E+02  0.11860191621E+02  0.40659136574E+02  0.00000000000E+00 0.  1.
         11    1    3    3    0    0 -0.41967498146E+01 -0.20048734042E+02 -0.11720757585E+02  0.23599589071E+02  0.51100000000E-03 0. -1.
        -11    1    3    3    0    0 -0.72641581453E+00 -0.83018312988E+01 -0.98526537726E+01  0.12904374044E+02  0.51100000000E-03 0.  1.
        -12    1    3    3    0    0 -0.18800318754E+01 -0.99406574833E+01  0.97132197370E+01  0.14024900310E+02  0.00000000000E+00 0.  1.
</event>
<event>
 7    1  0.2985411E-011  0.5052886E+02  0.7816164E-02  0.1300439E+00
        -11   -1    0    0    0    0  0.00000000000E+00  0.00000000000E+00  0.45593999997E+02  0.45594000000E+02  0.51100000000E-03 0.  1.
         11   -1    0    0    0    0 -0.00000000000E+00 -0.00000000000E+00 -0.45593999997E+02  0.45594000000E+02  0.51100000000E-03 0. -1.
    9900012    2    1    2    0    0  0.19296535548E+02 -0.14531301866E+02  0.32705519781E+02  0.50528855368E+02  0.29999986376E+02 0.  0.
        -12    1    1    2    0    0 -0.19296535548E+02  0.14531301866E+02 -0.32705519781E+02  0.40659144632E+02  0.00000000000E+00 0.  1.
         11    1    3    3    0    0  0.11365431889E+02 -0.36745412695E+01  0.58775568573E+01  0.13312436683E+02  0.51100000000E-03 0. -1.
        -11    1    3    3    0    0 -0.30582034565E+01  0.33491496021E+01 -0.44896767417E+00  0.45575194648E+01  0.51100000000E-03 0.  1.
        -12    1    3    3    0    0  0.10989307116E+02 -0.14205910199E+02  0.27276930598E+02  0.32658899220E+02  0.00000000000E+00 0.  1.
</event>
<event>
 7    1  0.2985411E-011  0.5052888E+02  0.7816164E-02  0.1300439E+00
        -11   -1    0    0    0    0  0.00000000000E+00  0.00000000000E+00  0.45593999997E+02  0.45594000000E+02  0.51100000000E-03 0.  1.
         11   -1    0    0    0    0 -0.00000000000E+00 -0.00000000000E+00 -0.45593999997E+02  0.45594000000E+02  0.51100000000E-03 0. -1.
    9900012    2    1    2    0    0  0.36722378569E+02 -0.67993289420E+01 -0.16074839712E+02  0.50528875149E+02  0.30000046504E+02 0.  0.
        -12    1    1    2    0    0 -0.36722378569E+02  0.67993289420E+01  0.16074839712E+02  0.40659124851E+02  0.00000000000E+00 0.  1.
         11    1    3    3    0    0  0.17805311980E+02 -0.80304618819E-01 -0.99157233197E+01  0.20380312872E+02  0.51100000000E-03 0. -1.
        -11    1    3    3    0    0  0.23391303163E+02 -0.77183075531E+01 -0.67145199337E+01  0.25530572131E+02  0.51100000000E-03 0.  1.
        -12    1    3    3    0    0 -0.44742365741E+01  0.99928322993E+00  0.55540354151E+00  0.46179901460E+01  0.00000000000E+00 0.  1.
</event>
<event>
 7    1  0.2985411E-011  0.5052885E+02  0.7816164E-02  0.1300439E+00
        -11   -1    0    0    0    0  0.00000000000E+00  0.00000000000E+00  0.45593999997E+02  0.45594000000E+02  0.51100000000E-03 0.  1.
         11   -1    0    0    0    0 -0.00000000000E+00 -0.00000000000E+00 -0.45593999997E+02  0.45594000000E+02  0.51100000000E-03 0. -1.
    9900012    2    1    2    0    0 -0.16262333683E+02  0.18424958427E+02 -0.32391720669E+02  0.50528853947E+02  0.29999982058E+02 0.  0.
        -12    1    1    2    0    0  0.16262333683E+02 -0.18424958427E+02  0.32391720669E+02  0.40659146053E+02  0.00000000000E+00 0.  1.
         11    1    3    3    0    0  0.26604145212E+00 -0.10244974611E+01 -0.22394804789E+01  0.24770236532E+01  0.51100000000E-03 0. -1.
        -11    1    3    3    0    0 -0.53558169960E+01 -0.69049952659E+01 -0.60149225297E+01  0.10608629912E+02  0.51100000000E-03 0.  1.
         12    1    3    3    0    0 -0.11172558139E+02  0.26354451154E+02 -0.24137317660E+02  0.37443200382E+02  0.00000000000E+00 0. -1.
</event>
<event>
 7    1  0.2985411E-011  0.5052886E+02  0.7816164E-02  0.1300439E+00
        -11   -1    0    0    0    0  0.00000000000E+00  0.00000000000E+00  0.45593999997E+02  0.45594000000E+02  0.51100000000E-03 0.  1.
         11   -1    0    0    0    0 -0.00000000000E+00 -0.00000000000E+00 -0.45593999997E+02  0.45594000000E+02  0.51100000000E-03 0. -1.
    9900012    2    1    2    0    0 -0.19492212726E+02 -0.30756134772E+02 -0.18090874699E+02  0.50528856742E+02  0.29999990554E+02 0.  0.
        -12    1    1    2    0    0  0.19492212726E+02  0.30756134772E+02  0.18090874699E+02  0.40659143258E+02  0.00000000000E+00 0.  1.
         11    1    3    3    0    0 -0.50416394135E+01 -0.10756137047E+02 -0.29915658073E+00  0.11882849283E+02  0.51100000000E-03 0. -1.
        -11    1    3    3    0    0  0.23305122267E+01 -0.15238559310E+02 -0.13936596156E+02  0.20781570916E+02  0.51100000000E-03 0.  1.
        -12    1    3    3    0    0 -0.16781085540E+02 -0.47614384147E+01 -0.38551219630E+01  0.17864436543E+02  0.00000000000E+00 0.  1.
</event>
<event>
 7    1  0.2985411E-011  0.5052886E+02  0.7816164E-02  0.1300439E+00
        -11   -1    0    0    0    0  0.00000000000E+00  0.00000000000E+00  0.45593999997E+02  0.45594000000E+02  0.51100000000E-03 0. -1.
         11   -1    0    0    0    0 -0.00000000000E+00 -0.00000000000E+00 -0.45593999997E+02  0.45594000000E+02  0.51100000000E-03 0.  1.
    9900012    2    1    2    0    0  0.22118715278E+02  0.68440227397E+01  0.33422858481E+02  0.50528859799E+02  0.29999999846E+02 0.  0.
        -12    1    1    2    0    0 -0.22118715278E+02 -0.68440227397E+01 -0.33422858481E+02  0.40659140201E+02  0.00000000000E+00 0.  1.
         11    1    3    3    0    0  0.10072023424E+02  0.13336850662E+02  0.71327942045E+01  0.18171240873E+02  0.51100000000E-03 0. -1.
        -11    1    3    3    0    0 -0.88143860660E+00 -0.13378067140E+01  0.13050037915E+02  0.13148009381E+02  0.51100000000E-03 0.  1.
        -12    1    3    3    0    0  0.12928130461E+02 -0.51550212084E+01  0.13240026361E+02  0.19209609546E+02  0.00000000000E+00 0.  1.
</event>
<event>
 7    1  0.2985411E-011  0.5052886E+02  0.7816164E-02  0.1300439E+00
        -11   -1    0    0    0    0  0.00000000000E+00  0.00000000000E+00  0.45593999997E+02  0.45594000000E+02  0.51100000000E-03 0.  1.
         11   -1    0    0    0    0 -0.00000000000E+00 -0.00000000000E+00 -0.45593999997E+02  0.45594000000E+02  0.51100000000E-03 0. -1.
    9900012    2    1    2    0    0 -0.29338035510E+02  0.17325149792E+02 -0.22187477644E+02  0.50528864407E+02  0.30000013853E+02 0.  0.
        -12    1    1    2    0    0  0.29338035510E+02 -0.17325149792E+02  0.22187477644E+02  0.40659135593E+02  0.00000000000E+00 0.  1.
         11    1    3    3    0    0 -0.68355553432E+01 -0.20395134890E+01 -0.11826276240E+02  0.13811055068E+02  0.51100000000E-03 0. -1.
        -11    1    3    3    0    0 -0.14104258746E+02  0.14785459178E+01 -0.92405285069E+01  0.16926416636E+02  0.51100000000E-03 0.  1.
        -12    1    3    3    0    0 -0.83982214215E+01  0.17886117363E+02 -0.11206728971E+01  0.19791392703E+02  0.00000000000E+00 0.  1.
</event>
<event>
 7    1  0.2985411E-011  0.5052886E+02  0.7816164E-02  0.1300439E+00
        -11   -1    0    0    0    0  0.00000000000E+00  0.00000000000E+00  0.45593999997E+02  0.45594000000E+02  0.51100000000E-03 0.  1.
         11   -1    0    0    0    0 -0.00000000000E+00 -0.00000000000E+00 -0.45593999997E+02  0.45594000000E+02  0.51100000000E-03 0. -1.
    9900012    2    1    2    0    0  0.17639426078E+02  0.36500084764E+02 -0.31240813734E+01  0.50528862963E+02  0.30000009463E+02 0.  0.
        -12    1    1    2    0    0 -0.17639426078E+02 -0.36500084764E+02  0.31240813734E+01  0.40659137037E+02  0.00000000000E+00 0.  1.
         11    1    3    3    0    0  0.13537831261E+01  0.18625590806E+01 -0.48842692337E+01  0.53998093753E+01  0.51100000000E-03 0. -1.
        -11    1    3    3    0    0 -0.59977075314E+01  0.76425610850E+01 -0.20161512517E+01  0.99220008920E+01  0.51100000000E-03 0.  1.
        -12    1    3    3    0    0  0.22283350483E+02  0.26994964599E+02  0.37763391120E+01  0.35207052696E+02  0.00000000000E+00 0.  1.
</event>
<event>
 7    1  0.2985411E-011  0.5052884E+02  0.7816164E-02  0.1300439E+00
        -11   -1    0    0    0    0  0.00000000000E+00  0.00000000000E+00  0.45593999997E+02  0.45594000000E+02  0.51100000000E-03 0.  1.
         11   -1    0    0    0    0 -0.00000000000E+00 -0.00000000000E+00 -0.45593999997E+02  0.45594000000E+02  0.51100000000E-03 0. -1.
    9900012    2    1    2    0    0 -0.18103801148E+02 -0.15760255599E+02 -0.32818199110E+02  0.50528837867E+02  0.29999933180E+02 0.  0.
        -12    1    1    2    0    0  0.18103801148E+02  0.15760255599E+02  0.32818199110E+02  0.40659162133E+02  0.00000000000E+00 0.  1.
         11    1    3    3    0    0 -0.10847441671E+00 -0.32822517429E+00  0.65103647593E+00  0.73712089798E+00  0.51100000000E-03 0. -1.
        -11    1    3    3    0    0 -0.14566926423E+02  0.39756641370E+01 -0.22895056197E+02  0.27425988574E+02  0.51100000000E-03 0.  1.
         12    1    3    3    0    0 -0.34284003084E+01 -0.19407694562E+02 -0.10574179389E+02  0.22365728395E+02  0.00000000000E+00 0. -1.
</event>
<event>
 7    1  0.2985411E-011  0.5052885E+02  0.7816164E-02  0.1300439E+00
        -11   -1    0    0    0    0  0.00000000000E+00  0.00000000000E+00  0.45593999997E+02  0.45594000000E+02  0.51100000000E-03 0. -1.
         11   -1    0    0    0    0 -0.00000000000E+00 -0.00000000000E+00 -0.45593999997E+02  0.45594000000E+02  0.51100000000E-03 0.  1.
    9900012    2    1    2    0    0 -0.36844600576E+02 -0.17104745705E+02 -0.17520375723E+01  0.50528849088E+02  0.29999967288E+02 0.  0.
        -12    1    1    2    0    0  0.36844600576E+02  0.17104745705E+02  0.17520375723E+01  0.40659150912E+02  0.00000000000E+00 0.  1.
         11    1    3    3    0    0 -0.55849444229E+00 -0.27878415911E+01  0.37022565677E+00  0.28672363135E+01  0.51100000000E-03 0. -1.
        -11    1    3    3    0    0 -0.22123464387E+02 -0.19247541583E+02  0.69471988164E+01  0.30136010106E+02  0.51100000000E-03 0.  1.
         12    1    3    3    0    0 -0.14162641747E+02  0.49306374692E+01 -0.90694620454E+01  0.17525602669E+02  0.00000000000E+00 0. -1.
</event>
<event>
 7    1  0.2985411E-011  0.5052885E+02  0.7816164E-02  0.1300439E+00
        -11   -1    0    0    0    0  0.00000000000E+00  0.00000000000E+00  0.45593999997E+02  0.45594000000E+02  0.51100000000E-03 0. -1.
         11   -1    0    0    0    0 -0.00000000000E+00 -0.00000000000E+00 -0.45593999997E+02  0.45594000000E+02  0.51100000000E-03 0.  1.
    9900012    2    1    2    0    0 -0.28276052573E+02  0.22239657350E+02  0.18948056916E+02  0.50528851348E+02  0.29999974159E+02 0.  0.
        -12    1    1    2    0    0  0.28276052573E+02 -0.22239657350E+02 -0.18948056916E+02  0.40659148652E+02  0.00000000000E+00 0.  1.
         11    1    3    3    0    0 -0.79987825357E+01  0.89854180800E+00  0.95969826443E+01  0.12525572864E+02  0.51100000000E-03 0. -1.
        -11    1    3    3    0    0 -0.98383722360E+01  0.26941475579E+01  0.12788603883E+02  0.16358495923E+02  0.51100000000E-03 0.  1.
        -12    1    3    3    0    0 -0.10438897801E+02  0.18646967985E+02 -0.34375296109E+01  0.21644782562E+02  0.00000000000E+00 0.  1.
</event>
<event>
 7    1  0.2985411E-011  0.5052886E+02  0.7816164E-02  0.1300439E+00
        -11   -1    0    0    0    0  0.00000000000E+00  0.00000000000E+00  0.45593999997E+02  0.45594000000E+02  0.51100000000E-03 0. -1.
         11   -1    0    0    0    0 -0.00000000000E+00 -0.00000000000E+00 -0.45593999997E+02  0.45594000000E+02  0.51100000000E-03 0.  1.
    9900012    2    1    2    0    0 -0.39923778582E+02  0.75464109222E+01  0.15196830812E+01  0.50528857722E+02  0.29999993533E+02 0.  0.
        -12    1    1    2    0    0  0.39923778582E+02 -0.75464109222E+01 -0.15196830812E+01  0.40659142278E+02  0.00000000000E+00 0.  1.
         11    1    3    3    0    0 -0.68402358288E+01  0.51076285770E+01  0.59616726339E+01  0.10412407826E+02  0.51100000000E-03 0. -1.
        -11    1    3    3    0    0 -0.15133134115E+02  0.84823254510E+01  0.61614230832E+01  0.18409908416E+02  0.51100000000E-03 0.  1.
        -12    1    3    3    0    0 -0.17950408638E+02 -0.60435431057E+01 -0.10603412636E+02  0.21706541481E+02  0.00000000000E+00 0.  1.
</event>
<event>
 7    1  0.2985411E-011  0.5052885E+02  0.7816164E-02  0.1300439E+00
        -11   -1    0    0    0    0  0.00000000000E+00  0.00000000000E+00  0.45593999997E+02  0.45594000000E+02  0.51100000000E-03 0.  1.
         11   -1    0    0    0    0 -0.00000000000E+00 -0.00000000000E+00 -0.45593999997E+02  0.45594000000E+02  0.51100000000E-03 0. -1.
    9900012    2    1    2    0    0  0.34626641924E+02 -0.20254059740E+02 -0.66283756030E+01  0.50528848139E+02  0.29999964405E+02 0.  0.
        -12    1    1    2    0    0 -0.34626641924E+02  0.20254059740E+02  0.66283756030E+01  0.40659151861E+02  0.00000000000E+00 0.  1.
         11    1    3    3    0    0  0.26415231479E+02 -0.17259618517E+02  0.14707148042E+00  0.31554405647E+02  0.51100000000E-03 0. -1.
        -11    1    3    3    0    0  0.77882437450E+01 -0.82796312500E+01 -0.75068810548E+01  0.13622125300E+02  0.51100000000E-03 0.  1.
        -12    1    3    3    0    0  0.42316670018E+00  0.52851900267E+01  0.73143397146E+00  0.53523171925E+01  0.00000000000E+00 0.  1.
</event>
<event>
 7    1  0.2985411E-011  0.5052885E+02  0.7816164E-02  0.1300439E+00
        -11   -1    0    0    0    0  0.00000000000E+00  0.00000000000E+00  0.45593999997E+02  0.45594000000E+02  0.51100000000E-03 0. -1.
         11   -1    0    0    0    0 -0.00000000000E+00 -0.00000000000E+00 -0.45593999997E+02  0.45594000000E+02  0.51100000000E-03 0.  1.
    9900012    2    1    2    0    0  0.39841626646E+02 -0.41641630962E+01  0.69620931463E+01  0.50528853316E+02  0.29999980140E+02 0.  0.
        -12    1    1    2    0    0 -0.39841626646E+02  0.41641630962E+01 -0.69620931463E+01  0.40659146684E+02  0.00000000000E+00 0.  1.
         11    1    3    3    0    0  0.14159455257E+02 -0.57930756228E+01  0.82850164275E+01  0.17398028504E+02  0.51100000000E-03 0. -1.
        -11    1    3    3    0    0  0.89563787598E+01 -0.94491743212E+01  0.85533969513E-01  0.13019636407E+02  0.51100000000E-03 0.  1.
         12    1    3    3    0    0  0.16725792629E+02  0.11078086848E+02 -0.14084572508E+01  0.20111188406E+02  0.00000000000E+00 0. -1.
</event>
<event>
 7    1  0.2985411E-011  0.5052887E+02  0.7816164E-02  0.1300439E+00
        -11   -1    0    0    0    0  0.00000000000E+00  0.00000000000E+00  0.45593999997E+02  0.45594000000E+02  0.51100000000E-03 0. -1.
         11   -1    0    0    0    0 -0.00000000000E+00 -0.00000000000E+00 -0.45593999997E+02  0.45594000000E+02  0.51100000000E-03 0.  1.
    9900012    2    1    2    0    0 -0.11298293774E+02 -0.37766224352E+02 -0.99612120583E+01  0.50528869541E+02  0.30000029458E+02 0.  0.
        -12    1    1    2    0    0  0.11298293774E+02  0.37766224352E+02  0.99612120583E+01  0.40659130459E+02  0.00000000000E+00 0.  1.
         11    1    3    3    0    0 -0.12123820539E+01 -0.18642246165E+02 -0.37131422954E+01  0.19047063771E+02  0.51100000000E-03 0. -1.
        -11    1    3    3    0    0  0.66917606303E+01 -0.91535227755E+01 -0.23468278942E+01  0.11579043180E+02  0.51100000000E-03 0.  1.
        -12    1    3    3    0    0 -0.16777672351E+02 -0.99704554109E+01 -0.39012418687E+01  0.19902762590E+02  0.00000000000E+00 0.  1.
</event>
<event>
 7    1  0.2985411E-011  0.5052887E+02  0.7816164E-02  0.1300439E+00
        -11   -1    0    0    0    0  0.00000000000E+00  0.00000000000E+00  0.45593999997E+02  0.45594000000E+02  0.51100000000E-03 0. -1.
         11   -1    0    0    0    0 -0.00000000000E+00 -0.00000000000E+00 -0.45593999997E+02  0.45594000000E+02  0.51100000000E-03 0.  1.
    9900012    2    1    2    0    0  0.39649389644E+02 -0.89746501357E+01 -0.73922986483E+00  0.50528869353E+02  0.30000028885E+02 0.  0.
        -12    1    1    2    0    0 -0.39649389644E+02  0.89746501357E+01  0.73922986483E+00  0.40659130647E+02  0.00000000000E+00 0.  1.
         11    1    3    3    0    0  0.14674331430E+02  0.29505659738E+01 -0.92772882903E+01  0.17609938125E+02  0.51100000000E-03 0. -1.
        -11    1    3    3    0    0  0.42283738270E+01 -0.69631291201E+01 -0.29821613720E+01  0.86751137787E+01  0.51100000000E-03 0.  1.
        -12    1    3    3    0    0  0.20746684386E+02 -0.49620869895E+01  0.11520219798E+02  0.24243817449E+02  0.00000000000E+00 0.  1.
</event>
<event>
 7    1  0.2985411E-011  0.5052886E+02  0.7816164E-02  0.1300439E+00
        -11   -1    0    0    0    0  0.00000000000E+00  0.00000000000E+00  0.45593999997E+02  0.45594000000E+02  0.51100000000E-03 0. -1.
         11   -1    0    0    0    0 -0.00000000000E+00 -0.00000000000E+00 -0.45593999997E+02  0.45594000000E+02  0.51100000000E-03 0.  1.
    9900012    2    1    2    0    0  0.29206758942E+02  0.27864783078E+02  0.48667131106E+01  0.50528858342E+02  0.29999995416E+02 0.  0.
        -12    1    1    2    0    0 -0.29206758942E+02 -0.27864783078E+02 -0.48667131106E+01  0.40659141658E+02  0.00000000000E+00 0.  1.
         11    1    3    3    0    0  0.23161076995E+01  0.66980900249E+01  0.24836532149E+01  0.75098134737E+01  0.51100000000E-03 0. -1.
        -11    1    3    3    0    0  0.89362388306E+01  0.21096369370E+02 -0.52573446428E+01  0.23506442479E+02  0.51100000000E-03 0.  1.
        -12    1    3    3    0    0  0.17954412412E+02  0.70323682394E-01  0.76404045385E+01  0.19512602389E+02  0.00000000000E+00 0.  1.
</event>
<event>
 7    1  0.2985411E-011  0.5052886E+02  0.7816164E-02  0.1300439E+00
        -11   -1    0    0    0    0  0.00000000000E+00  0.00000000000E+00  0.45593999997E+02  0.45594000000E+02  0.51100000000E-03 0.  1.
         11   -1    0    0    0    0 -0.00000000000E+00 -0.00000000000E+00 -0.45593999997E+02  0.45594000000E+02  0.51100000000E-03 0. -1.
    9900012    2    1    2    0    0 -0.25913490308E+02 -0.21577664279E+02 -0.22716984665E+02  0.50528856282E+02  0.29999989154E+02 0.  0.
        -12    1    1    2    0    0  0.25913490308E+02  0.21577664279E+02  0.22716984665E+02  0.40659143718E+02  0.00000000000E+00 0.  1.
         11    1    3    3    0    0 -0.13367586118E+02 -0.22917860750E+02 -0.17533834125E+02  0.31801824466E+02  0.51100000000E-03 0. -1.
        -11    1    3    3    0    0 -0.11006554935E+02 -0.40386665865E+01 -0.10498564578E+01  0.11771035561E+02  0.51100000000E-03 0.  1.
        -12    1    3    3    0    0 -0.15393492545E+01  0.53788630582E+01 -0.41332940821E+01  0.69559962547E+01  0.00000000000E+00 0.  1.
</event>
<event>
 7    1  0.2985411E-011  0.5052886E+02  0.7816164E-02  0.1300439E+00
        -11   -1    0    0    0    0  0.00000000000E+00  0.00000000000E+00  0.45593999997E+02  0.45594000000E+02  0.51100000000E-03 0.  1.
         11   -1    0    0    0    0 -0.00000000000E+00 -0.00000000000E+00 -0.45593999997E+02  0.45594000000E+02  0.51100000000E-03 0. -1.
    9900012    2    1    2    0    0  0.24827954478E+02 -0.91141578721E+00 -0.32185519763E+02  0.50528859764E+02  0.29999999739E+02 0.  0.
        -12    1    1    2    0    0 -0.24827954478E+02  0.91141578721E+00  0.32185519763E+02  0.40659140236E+02  0.00000000000E+00 0.  1.
         11    1    3    3    0    0  0.36294907166E+01 -0.71328601034E+01 -0.12021578653E+02  0.14441926800E+02  0.51100000000E-03 0. -1.
        -11    1    3    3    0    0  0.76513397969E+01 -0.73741442787E+01 -0.57345304988E+01  0.12075009103E+02  0.51100000000E-03 0.  1.
        -12    1    3    3    0    0  0.13547123964E+02  0.13595588595E+02 -0.14429410611E+02  0.24011923862E+02  0.00000000000E+00 0.  1.
</event>
<event>
 7    1  0.2985411E-011  0.5052887E+02  0.7816164E-02  0.1300439E+00
        -11   -1    0    0    0    0  0.00000000000E+00  0.00000000000E+00  0.45593999997E+02  0.45594000000E+02  0.51100000000E-03 0.  1.
         11   -1    0    0    0    0 -0.00000000000E+00 -0.00000000000E+00 -0.45593999997E+02  0.45594000000E+02  0.51100000000E-03 0. -1.
    9900012    2    1    2    0    0 -0.14287655230E+02 -0.32146904731E+02 -0.20386377479E+02  0.50528868646E+02  0.30000026735E+02 0.  0.
        -12    1    1    2    0    0  0.14287655230E+02  0.32146904731E+02  0.20386377479E+02  0.40659131354E+02  0.00000000000E+00 0.  1.
         11    1    3    3    0    0 -0.21764731899E+01 -0.68502187491E+01 -0.73027042546E+01  0.10246561479E+02  0.51100000000E-03 0.  1.
        -11    1    3    3    0    0 -0.33041666403E+01  0.14645467189E+01  0.54645028020E+01  0.65515803752E+01  0.51100000000E-03 0. -1.
         12    1    3    3    0    0 -0.88070154001E+01 -0.26761232701E+02 -0.18548176027E+02  0.33730726791E+02  0.00000000000E+00 0. -1.
</event>
<event>
 7    1  0.2985411E-011  0.5052888E+02  0.7816164E-02  0.1300439E+00
        -11   -1    0    0    0    0  0.00000000000E+00  0.00000000000E+00  0.45593999997E+02  0.45594000000E+02  0.51100000000E-03 0.  1.
         11   -1    0    0    0    0 -0.00000000000E+00 -0.00000000000E+00 -0.45593999997E+02  0.45594000000E+02  0.51100000000E-03 0. -1.
    9900012    2    1    2    0    0  0.15829002781E+02 -0.23513983186E+02 -0.29149600275E+02  0.50528881336E+02  0.30000065309E+02 0.  0.
        -12    1    1    2    0    0 -0.15829002781E+02  0.23513983186E+02  0.29149600275E+02  0.40659118664E+02  0.00000000000E+00 0.  1.
         11    1    3    3    0    0  0.66223826342E+01  0.34409770579E+01 -0.10783179894E+02  0.13113856937E+02  0.51100000000E-03 0. -1.
        -11    1    3    3    0    0 -0.30494717546E+01 -0.70483730767E+00 -0.39975109830E+01  0.50770235308E+01  0.51100000000E-03 0.  1.
         12    1    3    3    0    0  0.12256091902E+02 -0.26250122936E+02 -0.14368909398E+02  0.32338000868E+02  0.00000000000E+00 0. -1.
</event>
<event>
 7    1  0.2985411E-011  0.5052886E+02  0.7816164E-02  0.1300439E+00
        -11   -1    0    0    0    0  0.00000000000E+00  0.00000000000E+00  0.45593999997E+02  0.45594000000E+02  0.51100000000E-03 0.  1.
         11   -1    0    0    0    0 -0.00000000000E+00 -0.00000000000E+00 -0.45593999997E+02  0.45594000000E+02  0.51100000000E-03 0. -1.
    9900012    2    1    2    0    0 -0.12346843816E+02 -0.20584164669E+02 -0.32817880354E+02  0.50528860090E+02  0.30000000729E+02 0.  0.
        -12    1    1    2    0    0  0.12346843816E+02  0.20584164669E+02  0.32817880354E+02  0.40659139910E+02  0.00000000000E+00 0.  1.
         11    1    3    3    0    0 -0.10176260781E+02 -0.88972264940E+01 -0.14772066130E+02  0.20023257996E+02  0.51100000000E-03 0. -1.
        -11    1    3    3    0    0 -0.10166026663E+02 -0.14379977098E+01 -0.12991357996E+02  0.16558723332E+02  0.51100000000E-03 0.  1.
        -12    1    3    3    0    0  0.79954436275E+01 -0.10248940465E+02 -0.50544562278E+01  0.13946878762E+02  0.00000000000E+00 0.  1.
</event>
<event>
 7    1  0.2985411E-011  0.5052886E+02  0.7816164E-02  0.1300439E+00
        -11   -1    0    0    0    0  0.00000000000E+00  0.00000000000E+00  0.45593999997E+02  0.45594000000E+02  0.51100000000E-03 0.  1.
         11   -1    0    0    0    0 -0.00000000000E+00 -0.00000000000E+00 -0.45593999997E+02  0.45594000000E+02  0.51100000000E-03 0. -1.
    9900012    2    1    2    0    0  0.23893453512E+02  0.26943517543E+02 -0.18876324883E+02  0.50528857124E+02  0.29999991715E+02 0.  0.
        -12    1    1    2    0    0 -0.23893453512E+02 -0.26943517543E+02  0.18876324883E+02  0.40659142876E+02  0.00000000000E+00 0.  1.
         11    1    3    3    0    0 -0.11526400658E+01  0.19869710641E+00 -0.39234070259E+01  0.40940423316E+01  0.51100000000E-03 0. -1.
        -11    1    3    3    0    0  0.10798003699E+02  0.18619769418E+01 -0.13956707511E+02  0.17744112455E+02  0.51100000000E-03 0.  1.
        -12    1    3    3    0    0  0.14248089879E+02  0.24882843495E+02 -0.99621034666E+00  0.28690702338E+02  0.00000000000E+00 0.  1.
</event>
<event>
 7    1  0.2985411E-011  0.5052886E+02  0.7816164E-02  0.1300439E+00
        -11   -1    0    0    0    0  0.00000000000E+00  0.00000000000E+00  0.45593999997E+02  0.45594000000E+02  0.51100000000E-03 0. -1.
         11   -1    0    0    0    0 -0.00000000000E+00 -0.00000000000E+00 -0.45593999997E+02  0.45594000000E+02  0.51100000000E-03 0.  1.
    9900012    2    1    2    0    0  0.17295169340E+02  0.36419887591E+02 -0.52568538016E+01  0.50528860725E+02  0.30000002661E+02 0.  0.
        -12    1    1    2    0    0 -0.17295169340E+02 -0.36419887591E+02  0.52568538016E+01  0.40659139275E+02  0.00000000000E+00 0.  1.
         11    1    3    3    0    0  0.53363813504E+01  0.24499552739E+01 -0.44731452397E+01  0.73816173944E+01  0.51100000000E-03 0. -1.
        -11    1    3    3    0    0 -0.27871194912E+01  0.24895885919E+01 -0.69032466742E+01  0.78498981727E+01  0.51100000000E-03 0.  1.
         12    1    3    3    0    0  0.14745907481E+02  0.31480343725E+02  0.61195381123E+01  0.35297345158E+02  0.00000000000E+00 0. -1.
</event>
<event>
 7    1  0.2985411E-011  0.5052886E+02  0.7816164E-02  0.1300439E+00
        -11   -1    0    0    0    0  0.00000000000E+00  0.00000000000E+00  0.45593999997E+02  0.45594000000E+02  0.51100000000E-03 0. -1.
         11   -1    0    0    0    0 -0.00000000000E+00 -0.00000000000E+00 -0.45593999997E+02  0.45594000000E+02  0.51100000000E-03 0.  1.
    9900012    2    1    2    0    0  0.14234353868E+01  0.40339678983E+02 -0.48836266447E+01  0.50528859847E+02  0.29999999992E+02 0.  0.
        -12    1    1    2    0    0 -0.14234353868E+01 -0.40339678983E+02  0.48836266447E+01  0.40659140153E+02  0.00000000000E+00 0.  1.
         11    1    3    3    0    0  0.36347666878E+01  0.12546107381E+02  0.20594207909E+01  0.13223371489E+02  0.51100000000E-03 0. -1.
        -11    1    3    3    0    0 -0.54170754738E+01  0.21363738657E+02  0.56987829224E+01  0.22764669186E+02  0.51100000000E-03 0.  1.
        -12    1    3    3    0    0  0.32057441728E+01  0.64298329455E+01 -0.12641830358E+02  0.14540819173E+02  0.00000000000E+00 0.  1.
</event>
<event>
 7    1  0.2985411E-011  0.5052886E+02  0.7816164E-02  0.1300439E+00
        -11   -1    0    0    0    0  0.00000000000E+00  0.00000000000E+00  0.45593999997E+02  0.45594000000E+02  0.51100000000E-03 0.  1.
         11   -1    0    0    0    0 -0.00000000000E+00 -0.00000000000E+00 -0.45593999997E+02  0.45594000000E+02  0.51100000000E-03 0. -1.
    9900012    2    1    2    0    0  0.12380304748E+02  0.25486133095E+02 -0.29160778956E+02  0.50528856439E+02  0.29999989632E+02 0.  0.
        -12    1    1    2    0    0 -0.12380304748E+02 -0.25486133095E+02  0.29160778956E+02  0.40659143561E+02  0.00000000000E+00 0.  1.
         11    1    3    3    0    0  0.10398051954E+02  0.26294105573E+01  0.28324317185E+01  0.11093058821E+02  0.51100000000E-03 0.  1.
        -11    1    3    3    0    0  0.18132501636E+00  0.31257323504E+01 -0.31345590958E+01  0.44304110954E+01  0.51100000000E-03 0. -1.
        -12    1    3    3    0    0  0.18009277781E+01  0.19730990187E+02 -0.28858651579E+02  0.35005386522E+02  0.00000000000E+00 0.  1.
</event>
<event>
 7    1  0.2985411E-011  0.5052887E+02  0.7816164E-02  0.1300439E+00
        -11   -1    0    0    0    0  0.00000000000E+00  0.00000000000E+00  0.45593999997E+02  0.45594000000E+02  0.51100000000E-03 0.  1.
         11   -1    0    0    0    0 -0.00000000000E+00 -0.00000000000E+00 -0.45593999997E+02  0.45594000000E+02  0.51100000000E-03 0. -1.
    9900012    2    1    2    0    0  0.13250893622E+02 -0.90095693808E+01 -0.37368525236E+02  0.50528865718E+02  0.30000017837E+02 0.  0.
        -12    1    1    2    0    0 -0.13250893622E+02  0.90095693808E+01  0.37368525236E+02  0.40659134282E+02  0.00000000000E+00 0.  1.
         11    1    3    3    0    0 -0.41653034827E+01 -0.74943148480E+01 -0.85429270949E+01  0.12103557814E+02  0.51100000000E-03 0. -1.
        -11    1    3    3    0    0  0.14250801977E+02 -0.66302978508E+01 -0.99212625381E+01  0.18587029273E+02  0.51100000000E-03 0.  1.
         12    1    3    3    0    0  0.31653951277E+01  0.51150433181E+01 -0.18904335603E+02  0.19838278631E+02  0.00000000000E+00 0. -1.
</event>
<event>
 7    1  0.2985411E-011  0.5052886E+02  0.7816164E-02  0.1300439E+00
        -11   -1    0    0    0    0  0.00000000000E+00  0.00000000000E+00  0.45593999997E+02  0.45594000000E+02  0.51100000000E-03 0. -1.
         11   -1    0    0    0    0 -0.00000000000E+00 -0.00000000000E+00 -0.45593999997E+02  0.45594000000E+02  0.51100000000E-03 0.  1.
    9900012    2    1    2    0    0 -0.16789898828E+02 -0.36613055314E+02  0.55451860599E+01  0.50528860677E+02  0.30000002513E+02 0.  0.
        -12    1    1    2    0    0  0.16789898828E+02  0.36613055314E+02 -0.55451860599E+01  0.40659139323E+02  0.00000000000E+00 0.  1.
         11    1    3    3    0    0  0.30110627344E+01  0.14784359325E+01 -0.21425691495E+01  0.39803108444E+01  0.51100000000E-03 0. -1.
        -11    1    3    3    0    0 -0.49563838476E+01 -0.43545426296E+01 -0.41994260479E+01  0.78206752746E+01  0.51100000000E-03 0.  1.
         12    1    3    3    0    0 -0.14844577714E+02 -0.33736948617E+02  0.11887181257E+02  0.38727874558E+02  0.00000000000E+00 0. -1.
</event>
<event>
 7    1  0.2985411E-011  0.5052885E+02  0.7816164E-02  0.1300439E+00
        -11   -1    0    0    0    0  0.00000000000E+00  0.00000000000E+00  0.45593999997E+02  0.45594000000E+02  0.51100000000E-03 0.  1.
         11   -1    0    0    0    0 -0.00000000000E+00 -0.00000000000E+00 -0.45593999997E+02  0.45594000000E+02  0.51100000000E-03 0. -1.
    9900012    2    1    2    0    0 -0.10730703165E+02  0.68772914321E+01 -0.38609856616E+02  0.50528853972E+02  0.29999982133E+02 0.  0.
        -12    1    1    2    0    0  0.10730703165E+02 -0.68772914321E+01  0.38609856616E+02  0.40659146028E+02  0.00000000000E+00 0.  1.
         11    1    3    3    0    0 -0.60444128172E+01 -0.69213510011E+00 -0.41469872945E+01  0.73628446393E+01  0.51100000000E-03 0. -1.
        -11    1    3    3    0    0 -0.52626491444E+01  0.11655628622E+01  0.22889040987E+01  0.58560306554E+01  0.51100000000E-03 0.  1.
        -12    1    3    3    0    0  0.57635879685E+00  0.64038636700E+01 -0.36751773420E+02  0.37309978677E+02  0.00000000000E+00 0.  1.
</event>
<event>
 7    1  0.2985411E-011  0.5052887E+02  0.7816164E-02  0.1300439E+00
        -11   -1    0    0    0    0  0.00000000000E+00  0.00000000000E+00  0.45593999997E+02  0.45594000000E+02  0.51100000000E-03 0. -1.
         11   -1    0    0    0    0 -0.00000000000E+00 -0.00000000000E+00 -0.45593999997E+02  0.45594000000E+02  0.51100000000E-03 0.  1.
    9900012    2    1    2    0    0  0.31352497168E+02 -0.15375823153E+02 -0.20827137083E+02  0.50528872422E+02  0.30000038214E+02 0.  0.
        -12    1    1    2    0    0 -0.31352497168E+02  0.15375823153E+02  0.20827137083E+02  0.40659127578E+02  0.00000000000E+00 0.  1.
         11    1    3    3    0    0  0.10791738064E+02 -0.13387322767E+02 -0.10289096213E+01  0.17226162561E+02  0.51100000000E-03 0. -1.
        -11    1    3    3    0    0  0.89227366878E+00 -0.49734417420E+01 -0.98270577517E+01  0.11049992732E+02  0.51100000000E-03 0.  1.
         12    1    3    3    0    0  0.19668485435E+02  0.29849413562E+01 -0.99711697104E+01  0.22252717129E+02  0.00000000000E+00 0. -1.
</event>
<event>
 7    1  0.2985411E-011  0.5052885E+02  0.7816164E-02  0.1300439E+00
        -11   -1    0    0    0    0  0.00000000000E+00  0.00000000000E+00  0.45593999997E+02  0.45594000000E+02  0.51100000000E-03 0.  1.
         11   -1    0    0    0    0 -0.00000000000E+00 -0.00000000000E+00 -0.45593999997E+02  0.45594000000E+02  0.51100000000E-03 0. -1.
    9900012    2    1    2    0    0 -0.20441402788E+02 -0.46784579308E+01 -0.34834289195E+02  0.50528848260E+02  0.29999964770E+02 0.  0.
        -12    1    1    2    0    0  0.20441402788E+02  0.46784579308E+01  0.34834289195E+02  0.40659151740E+02  0.00000000000E+00 0.  1.
         11    1    3    3    0    0 -0.61646951467E+01  0.59243572851E+01 -0.23478874640E+02  0.24987177314E+02  0.51100000000E-03 0. -1.
        -11    1    3    3    0    0 -0.10639698459E+02 -0.60291217932E+01 -0.14449223187E+02  0.18929700047E+02  0.51100000000E-03 0.  1.
        -12    1    3    3    0    0 -0.36370091819E+01 -0.45736934226E+01  0.30938086324E+01  0.66119708989E+01  0.00000000000E+00 0.  1.
</event>
<event>
 7    1  0.2985411E-011  0.5052886E+02  0.7816164E-02  0.1300439E+00
        -11   -1    0    0    0    0  0.00000000000E+00  0.00000000000E+00  0.45593999997E+02  0.45594000000E+02  0.51100000000E-03 0.  1.
         11   -1    0    0    0    0 -0.00000000000E+00 -0.00000000000E+00 -0.45593999997E+02  0.45594000000E+02  0.51100000000E-03 0. -1.
    9900012    2    1    2    0    0 -0.20263332243E+02 -0.30765025431E+02 -0.17206864698E+02  0.50528860608E+02  0.30000002304E+02 0.  0.
        -12    1    1    2    0    0  0.20263332243E+02  0.30765025431E+02  0.17206864698E+02  0.40659139392E+02  0.00000000000E+00 0.  1.
         11    1    3    3    0    0  0.11424121122E+01 -0.13923970719E+02 -0.80125977418E+01  0.16105396265E+02  0.51100000000E-03 0. -1.
        -11    1    3    3    0    0 -0.13212301407E+00 -0.79841412650E+01 -0.80691490611E+01  0.11352318488E+02  0.51100000000E-03 0.  1.
        -12    1    3    3    0    0 -0.21273621341E+02 -0.88569134473E+01 -0.11251178952E+01  0.23071145855E+02  0.00000000000E+00 0.  1.
</event>
<event>
 7    1  0.2985411E-011  0.5052886E+02  0.7816164E-02  0.1300439E+00
        -11   -1    0    0    0    0  0.00000000000E+00  0.00000000000E+00  0.45593999997E+02  0.45594000000E+02  0.51100000000E-03 0.  1.
         11   -1    0    0    0    0 -0.00000000000E+00 -0.00000000000E+00 -0.45593999997E+02  0.45594000000E+02  0.51100000000E-03 0. -1.
    9900012    2    1    2    0    0 -0.15227571270E+02 -0.17261787798E+02 -0.33515926282E+02  0.50528861306E+02  0.30000004427E+02 0.  0.
        -12    1    1    2    0    0  0.15227571270E+02  0.17261787798E+02  0.33515926282E+02  0.40659138694E+02  0.00000000000E+00 0.  1.
         11    1    3    3    0    0 -0.22282476116E+00  0.31641201502E+00  0.11558850968E+01  0.12189495706E+01  0.51100000000E-03 0. -1.
        -11    1    3    3    0    0 -0.67211810833E+01  0.38991189966E+01 -0.94363436469E-01  0.77708628108E+01  0.51100000000E-03 0.  1.
         12    1    3    3    0    0 -0.82835654258E+01 -0.21477318809E+02 -0.34577447942E+02  0.41539048925E+02  0.00000000000E+00 0. -1.
</event>
<event>
 7    1  0.2985411E-011  0.5052885E+02  0.7816164E-02  0.1300439E+00
        -11   -1    0    0    0    0  0.00000000000E+00  0.00000000000E+00  0.45593999997E+02  0.45594000000E+02  0.51100000000E-03 0.  1.
         11   -1    0    0    0    0 -0.00000000000E+00 -0.00000000000E+00 -0.45593999997E+02  0.45594000000E+02  0.51100000000E-03 0. -1.
    9900012    2    1    2    0    0 -0.52098927895E+01  0.18937540244E+02 -0.35600469702E+02  0.50528845356E+02  0.29999955943E+02 0.  0.
        -12    1    1    2    0    0  0.52098927895E+01 -0.18937540244E+02  0.35600469702E+02  0.40659154644E+02  0.00000000000E+00 0.  1.
         11    1    3    3    0    0 -0.38083808293E+01  0.17786046013E+02 -0.13132968803E+02  0.22434840475E+02  0.51100000000E-03 0. -1.
        -11    1    3    3    0    0  0.36679581049E+01  0.77083360648E+01 -0.10407170567E+02  0.13460370018E+02  0.51100000000E-03 0.  1.
         12    1    3    3    0    0 -0.50694700651E+01 -0.65568418332E+01 -0.12060330332E+02  0.14633634863E+02  0.00000000000E+00 0. -1.
</event>
<event>
 7    1  0.2985411E-011  0.5052886E+02  0.7816164E-02  0.1300439E+00
        -11   -1    0    0    0    0  0.00000000000E+00  0.00000000000E+00  0.45593999997E+02  0.45594000000E+02  0.51100000000E-03 0. -1.
         11   -1    0    0    0    0 -0.00000000000E+00 -0.00000000000E+00 -0.45593999997E+02  0.45594000000E+02  0.51100000000E-03 0.  1.
    9900012    2    1    2    0    0 -0.38038200668E+02  0.12880510814E+02  0.63524246441E+01  0.50528861202E+02  0.30000004110E+02 0.  0.
        -12    1    1    2    0    0  0.38038200668E+02 -0.12880510814E+02 -0.63524246441E+01  0.40659138798E+02  0.00000000000E+00 0.  1.
         11    1    3    3    0    0 -0.22346025944E+02 -0.14988883895E+01  0.50247187424E+01  0.22952981083E+02  0.51100000000E-03 0. -1.
        -11    1    3    3    0    0 -0.71387373592E+01 -0.23113878512E+01  0.42051619754E+01  0.86015970833E+01  0.51100000000E-03 0.  1.
        -12    1    3    3    0    0 -0.85534373648E+01  0.16690787055E+02 -0.28774560737E+01  0.18974283036E+02  0.00000000000E+00 0.  1.
</event>
<event>
 7    1  0.2985411E-011  0.5052886E+02  0.7816164E-02  0.1300439E+00
        -11   -1    0    0    0    0  0.00000000000E+00  0.00000000000E+00  0.45593999997E+02  0.45594000000E+02  0.51100000000E-03 0.  1.
         11   -1    0    0    0    0 -0.00000000000E+00 -0.00000000000E+00 -0.45593999997E+02  0.45594000000E+02  0.51100000000E-03 0. -1.
    9900012    2    1    2    0    0 -0.25379009746E+02  0.31604070719E+02  0.32022414591E+01  0.50528858690E+02  0.29999996474E+02 0.  0.
        -12    1    1    2    0    0  0.25379009746E+02 -0.31604070719E+02 -0.32022414591E+01  0.40659141310E+02  0.00000000000E+00 0.  1.
         11    1    3    3    0    0 -0.54309774910E+01 -0.49121933987E+01 -0.36193735187E+01  0.81685387569E+01  0.51100000000E-03 0. -1.
        -11    1    3    3    0    0 -0.43851631251E+00  0.29250498597E+01  0.63298795216E+00  0.30247127544E+01  0.51100000000E-03 0.  1.
         12    1    3    3    0    0 -0.19509515942E+02  0.33591214258E+02  0.61886270256E+01  0.39335607179E+02  0.00000000000E+00 0. -1.
</event>
<event>
 7    1  0.2985411E-011  0.5052881E+02  0.7816164E-02  0.1300439E+00
        -11   -1    0    0    0    0  0.00000000000E+00  0.00000000000E+00  0.45593999997E+02  0.45594000000E+02  0.51100000000E-03 0. -1.
         11   -1    0    0    0    0 -0.00000000000E+00 -0.00000000000E+00 -0.45593999997E+02  0.45594000000E+02  0.51100000000E-03 0.  1.
    9900012    2    1    2    0    0  0.33294096161E+02 -0.17782722153E+02  0.15114473901E+02  0.50528814474E+02  0.29999862074E+02 0.  0.
        -12    1    1    2    0    0 -0.33294096161E+02  0.17782722153E+02 -0.15114473901E+02  0.40659185526E+02  0.00000000000E+00 0.  1.
         11    1    3    3    0    0  0.65474364331E+01  0.18977672027E+00  0.31712840893E+01  0.72774983398E+01  0.51100000000E-03 0. -1.
        -11    1    3    3    0    0  0.76583057179E+01  0.66370163528E+01  0.51780083589E+01  0.11380307701E+02  0.51100000000E-03 0.  1.
        -12    1    3    3    0    0  0.19088354010E+02 -0.24609515226E+02  0.67651814530E+01  0.31871008433E+02  0.00000000000E+00 0.  1.
</event>
<event>
 7    1  0.2985411E-011  0.5052886E+02  0.7816164E-02  0.1300439E+00
        -11   -1    0    0    0    0  0.00000000000E+00  0.00000000000E+00  0.45593999997E+02  0.45594000000E+02  0.51100000000E-03 0. -1.
         11   -1    0    0    0    0 -0.00000000000E+00 -0.00000000000E+00 -0.45593999997E+02  0.45594000000E+02  0.51100000000E-03 0.  1.
    9900012    2    1    2    0    0 -0.22024471378E+02 -0.48750292262E+01  0.33827829631E+02  0.50528864410E+02  0.30000013859E+02 0.  0.
        -12    1    1    2    0    0  0.22024471378E+02  0.48750292262E+01 -0.33827829631E+02  0.40659135590E+02  0.00000000000E+00 0.  1.
         11    1    3    3    0    0 -0.97757732172E+01 -0.58031466381E+01  0.21574838096E+02  0.24386797494E+02  0.51100000000E-03 0. -1.
        -11    1    3    3    0    0 -0.13344274114E+02 -0.10500774783E+01  0.16550488841E+02  0.21285934217E+02  0.51100000000E-03 0.  1.
        -12    1    3    3    0    0  0.10955759533E+01  0.19781948902E+01 -0.42974973060E+01  0.48561326988E+01  0.00000000000E+00 0.  1.
</event>
<event>
 7    1  0.2985411E-011  0.5052887E+02  0.7816164E-02  0.1300439E+00
        -11   -1    0    0    0    0  0.00000000000E+00  0.00000000000E+00  0.45593999997E+02  0.45594000000E+02  0.51100000000E-03 0.  1.
         11   -1    0    0    0    0 -0.00000000000E+00 -0.00000000000E+00 -0.45593999997E+02  0.45594000000E+02  0.51100000000E-03 0. -1.
    9900012    2    1    2    0    0  0.38169392799E+02 -0.12917836176E+02  0.54214292218E+01  0.50528869009E+02  0.30000027841E+02 0.  0.
        -12    1    1    2    0    0 -0.38169392799E+02  0.12917836176E+02 -0.54214292218E+01  0.40659130991E+02  0.00000000000E+00 0.  1.
         11    1    3    3    0    0  0.14394681635E+02  0.46708468293E+01  0.10371889201E+02  0.18346655154E+02  0.51100000000E-03 0. -1.
        -11    1    3    3    0    0  0.18835257833E+02 -0.12208904658E+02  0.14198956696E+01  0.22490895815E+02  0.51100000000E-03 0.  1.
        -12    1    3    3    0    0  0.49394533305E+01 -0.53797783472E+01 -0.63703556486E+01  0.96913180403E+01  0.00000000000E+00 0.  1.
</event>
<event>
 7    1  0.2985411E-011  0.5052886E+02  0.7816164E-02  0.1300439E+00
        -11   -1    0    0    0    0  0.00000000000E+00  0.00000000000E+00  0.45593999997E+02  0.45594000000E+02  0.51100000000E-03 0.  1.
         11   -1    0    0    0    0 -0.00000000000E+00 -0.00000000000E+00 -0.45593999997E+02  0.45594000000E+02  0.51100000000E-03 0. -1.
    9900012    2    1    2    0    0  0.24585285803E+02  0.32309267871E+02 -0.22001386095E+01  0.50528859843E+02  0.29999999979E+02 0.  0.
        -12    1    1    2    0    0 -0.24585285803E+02 -0.32309267871E+02  0.22001386095E+01  0.40659140157E+02  0.00000000000E+00 0.  1.
         11    1    3    3    0    0 -0.37716580917E+01  0.48942766950E+01 -0.36838140173E+01  0.71937358238E+01  0.51100000000E-03 0. -1.
        -11    1    3    3    0    0 -0.11776428707E+01  0.28165237996E-01  0.27976522782E+01  0.30355385918E+01  0.51100000000E-03 0.  1.
         12    1    3    3    0    0  0.29534586766E+02  0.27386825938E+02 -0.13139768705E+01  0.40299585427E+02  0.00000000000E+00 0. -1.
</event>
<event>
 7    1  0.2985411E-011  0.5052885E+02  0.7816164E-02  0.1300439E+00
        -11   -1    0    0    0    0  0.00000000000E+00  0.00000000000E+00  0.45593999997E+02  0.45594000000E+02  0.51100000000E-03 0.  1.
         11   -1    0    0    0    0 -0.00000000000E+00 -0.00000000000E+00 -0.45593999997E+02  0.45594000000E+02  0.51100000000E-03 0. -1.
    9900012    2    1    2    0    0  0.18786093442E+02  0.11735671227E+02 -0.34095788657E+02  0.50528854779E+02  0.29999984587E+02 0.  0.
        -12    1    1    2    0    0 -0.18786093442E+02 -0.11735671227E+02  0.34095788657E+02  0.40659145221E+02  0.00000000000E+00 0.  1.
         11    1    3    3    0    0 -0.57027072671E+01  0.60267969553E+00 -0.57906815756E+01  0.81496065158E+01  0.51100000000E-03 0. -1.
        -11    1    3    3    0    0  0.76262066713E+00 -0.13252536010E+01  0.16073178072E+01  0.22184134383E+01  0.51100000000E-03 0.  1.
         12    1    3    3    0    0  0.23726180042E+02  0.12458245132E+02 -0.29912424888E+02  0.40160834825E+02  0.00000000000E+00 0. -1.
</event>
<event>
 7    1  0.2985411E-011  0.5052881E+02  0.7816164E-02  0.1300439E+00
        -11   -1    0    0    0    0  0.00000000000E+00  0.00000000000E+00  0.45593999997E+02  0.45594000000E+02  0.51100000000E-03 0.  1.
         11   -1    0    0    0    0 -0.00000000000E+00 -0.00000000000E+00 -0.45593999997E+02  0.45594000000E+02  0.51100000000E-03 0. -1.
    9900012    2    1    2    0    0  0.97069064870E-01  0.27696204071E+01 -0.40564630339E+02  0.50528813410E+02  0.29999858842E+02 0.  0.
        -12    1    1    2    0    0 -0.97069064870E-01 -0.27696204071E+01  0.40564630339E+02  0.40659186590E+02  0.00000000000E+00 0.  1.
         11    1    3    3    0    0  0.19019422480E+00 -0.56271840600E+01 -0.37401616381E+01  0.67594514295E+01  0.51100000000E-03 0. -1.
        -11    1    3    3    0    0 -0.21073643127E+01 -0.28208861774E+01  0.14694224878E+01  0.38154404570E+01  0.51100000000E-03 0.  1.
         12    1    3    3    0    0  0.20142391527E+01  0.11217690645E+02 -0.38293891189E+02  0.39953921524E+02  0.00000000000E+00 0. -1.
</event>
<event>
 7    1  0.2985411E-011  0.5052883E+02  0.7816164E-02  0.1300439E+00
        -11   -1    0    0    0    0  0.00000000000E+00  0.00000000000E+00  0.45593999997E+02  0.45594000000E+02  0.51100000000E-03 0.  1.
         11   -1    0    0    0    0 -0.00000000000E+00 -0.00000000000E+00 -0.45593999997E+02  0.45594000000E+02  0.51100000000E-03 0. -1.
    9900012    2    1    2    0    0  0.56078565268E+01  0.31783137064E+02 -0.24729588517E+02  0.50528826316E+02  0.29999898070E+02 0.  0.
        -12    1    1    2    0    0 -0.56078565268E+01 -0.31783137064E+02  0.24729588517E+02  0.40659173684E+02  0.00000000000E+00 0.  1.
         11    1    3    3    0    0 -0.11392541816E+00  0.24112895655E+02 -0.18357461711E+02  0.30305793450E+02  0.51100000000E-03 0. -1.
        -11    1    3    3    0    0 -0.50969950247E+01  0.49007782758E+01 -0.56161548227E+01  0.90298494585E+01  0.51100000000E-03 0.  1.
        -12    1    3    3    0    0  0.10818776970E+02  0.27694631333E+01 -0.75597198252E+00  0.11193183408E+02  0.00000000000E+00 0.  1.
</event>
<event>
 7    1  0.2985411E-011  0.5052886E+02  0.7816164E-02  0.1300439E+00
        -11   -1    0    0    0    0  0.00000000000E+00  0.00000000000E+00  0.45593999997E+02  0.45594000000E+02  0.51100000000E-03 0.  1.
         11   -1    0    0    0    0 -0.00000000000E+00 -0.00000000000E+00 -0.45593999997E+02  0.45594000000E+02  0.51100000000E-03 0. -1.
    9900012    2    1    2    0    0  0.12010143488E+02 -0.91581240761E+01 -0.37749841955E+02  0.50528863870E+02  0.30000012218E+02 0.  0.
        -12    1    1    2    0    0 -0.12010143488E+02  0.91581240761E+01  0.37749841955E+02  0.40659136130E+02  0.00000000000E+00 0.  1.
         11    1    3    3    0    0  0.10222885699E+02 -0.45348109827E+01 -0.33400272800E+01  0.11671661628E+02  0.51100000000E-03 0. -1.
        -11    1    3    3    0    0 -0.37621774530E+01 -0.86057888172E+01 -0.10964956282E+02  0.14437584524E+02  0.51100000000E-03 0.  1.
         12    1    3    3    0    0  0.55494352419E+01  0.39824757238E+01 -0.23444858393E+02  0.24419617718E+02  0.00000000000E+00 0. -1.
</event>
<event>
 7    1  0.2985411E-011  0.5052886E+02  0.7816164E-02  0.1300439E+00
        -11   -1    0    0    0    0  0.00000000000E+00  0.00000000000E+00  0.45593999997E+02  0.45594000000E+02  0.51100000000E-03 0.  1.
         11   -1    0    0    0    0 -0.00000000000E+00 -0.00000000000E+00 -0.45593999997E+02  0.45594000000E+02  0.51100000000E-03 0. -1.
    9900012    2    1    2    0    0  0.36840407534E+02  0.11954961994E+02  0.12370470569E+02  0.50528864671E+02  0.30000014655E+02 0.  0.
        -12    1    1    2    0    0 -0.36840407534E+02 -0.11954961994E+02 -0.12370470569E+02  0.40659135329E+02  0.00000000000E+00 0.  1.
         11    1    3    3    0    0  0.13796965085E+02  0.42926353247E+01  0.21839626137E+01  0.14613440955E+02  0.51100000000E-03 0. -1.
        -11    1    3    3    0    0  0.17767231787E+02 -0.20774853718E+01 -0.35827746295E+01  0.18243539819E+02  0.51100000000E-03 0.  1.
        -12    1    3    3    0    0  0.52762106621E+01  0.97398120414E+01  0.13769282585E+02  0.17671883897E+02  0.00000000000E+00 0.  1.
</event>
<event>
 7    1  0.2985411E-011  0.5052887E+02  0.7816164E-02  0.1300439E+00
        -11   -1    0    0    0    0  0.00000000000E+00  0.00000000000E+00  0.45593999997E+02  0.45594000000E+02  0.51100000000E-03 0.  1.
         11   -1    0    0    0    0 -0.00000000000E+00 -0.00000000000E+00 -0.45593999997E+02  0.45594000000E+02  0.51100000000E-03 0. -1.
    9900012    2    1    2    0    0 -0.28279195758E+02  0.15424963555E+02 -0.24809726838E+02  0.50528868686E+02  0.30000026859E+02 0.  0.
        -12    1    1    2    0    0  0.28279195758E+02 -0.15424963555E+02  0.24809726838E+02  0.40659131314E+02  0.00000000000E+00 0.  1.
         11    1    3    3    0    0 -0.67825061669E+00  0.59514217744E+01 -0.16251212944E+02  0.17319970192E+02  0.51100000000E-03 0. -1.
        -11    1    3    3    0    0 -0.42293639411E+00 -0.23683174740E+01 -0.23765175062E+00  0.24174948742E+01  0.51100000000E-03 0.  1.
         12    1    3    3    0    0 -0.27178008748E+02  0.11841859254E+02 -0.83208621426E+01  0.30791403620E+02  0.00000000000E+00 0. -1.
</event>
<event>
 7    1  0.2985411E-011  0.5052888E+02  0.7816164E-02  0.1300439E+00
        -11   -1    0    0    0    0  0.00000000000E+00  0.00000000000E+00  0.45593999997E+02  0.45594000000E+02  0.51100000000E-03 0.  1.
         11   -1    0    0    0    0 -0.00000000000E+00 -0.00000000000E+00 -0.45593999997E+02  0.45594000000E+02  0.51100000000E-03 0. -1.
    9900012    2    1    2    0    0  0.90467865709E+01  0.39211710500E+02 -0.58104883008E+01  0.50528876032E+02  0.30000049186E+02 0.  0.
        -12    1    1    2    0    0 -0.90467865709E+01 -0.39211710500E+02  0.58104883008E+01  0.40659123968E+02  0.00000000000E+00 0.  1.
         11    1    3    3    0    0  0.92781899932E+01  0.33818551925E+01  0.12707015604E+01  0.99567282181E+01  0.51100000000E-03 0. -1.
        -11    1    3    3    0    0  0.18963962214E+01  0.85538926187E+01  0.56196946305E+01  0.10408956027E+02  0.51100000000E-03 0.  1.
         12    1    3    3    0    0 -0.21277996436E+01  0.27275962689E+02 -0.12700884492E+02  0.30163191787E+02  0.00000000000E+00 0. -1.
</event>
<event>
 7    1  0.2985411E-011  0.5052886E+02  0.7816164E-02  0.1300439E+00
        -11   -1    0    0    0    0  0.00000000000E+00  0.00000000000E+00  0.45593999997E+02  0.45594000000E+02  0.51100000000E-03 0.  1.
         11   -1    0    0    0    0 -0.00000000000E+00 -0.00000000000E+00 -0.45593999997E+02  0.45594000000E+02  0.51100000000E-03 0. -1.
    9900012    2    1    2    0    0  0.82253903993E+01 -0.28319481486E+02 -0.27991348799E+02  0.50528859743E+02  0.29999999674E+02 0.  0.
        -12    1    1    2    0    0 -0.82253903993E+01  0.28319481486E+02  0.27991348799E+02  0.40659140257E+02  0.00000000000E+00 0.  1.
         11    1    3    3    0    0 -0.62507958654E+01 -0.57524454723E+01 -0.28394918678E+01  0.89568851836E+01  0.51100000000E-03 0. -1.
        -11    1    3    3    0    0 -0.34903622881E+01  0.68107711356E+00 -0.15258297933E+01  0.38697095183E+01  0.51100000000E-03 0.  1.
         12    1    3    3    0    0  0.17966548553E+02 -0.23248113127E+02 -0.23626027138E+02  0.37702265041E+02  0.00000000000E+00 0. -1.
</event>
<event>
 7    1  0.2985411E-011  0.5052885E+02  0.7816164E-02  0.1300439E+00
        -11   -1    0    0    0    0  0.00000000000E+00  0.00000000000E+00  0.45593999997E+02  0.45594000000E+02  0.51100000000E-03 0. -1.
         11   -1    0    0    0    0 -0.00000000000E+00 -0.00000000000E+00 -0.45593999997E+02  0.45594000000E+02  0.51100000000E-03 0.  1.
    9900012    2    1    2    0    0  0.22803718475E+02 -0.33658639552E+02  0.50275977136E+00  0.50528851458E+02  0.29999974492E+02 0.  0.
        -12    1    1    2    0    0 -0.22803718475E+02  0.33658639552E+02 -0.50275977136E+00  0.40659148542E+02  0.00000000000E+00 0.  1.
         11    1    3    3    0    0  0.93096381275E+01 -0.15089872310E+02  0.12246805972E+02  0.21548964364E+02  0.51100000000E-03 0. -1.
        -11    1    3    3    0    0  0.59889749043E+01 -0.36604002057E+01  0.20657110654E+01  0.73166599304E+01  0.51100000000E-03 0.  1.
         12    1    3    3    0    0  0.75051054427E+01 -0.14908367037E+02 -0.13809757266E+02  0.21663227164E+02  0.00000000000E+00 0. -1.
</event>
<event>
 7    1  0.2985411E-011  0.5052886E+02  0.7816164E-02  0.1300439E+00
        -11   -1    0    0    0    0  0.00000000000E+00  0.00000000000E+00  0.45593999997E+02  0.45594000000E+02  0.51100000000E-03 0.  1.
         11   -1    0    0    0    0 -0.00000000000E+00 -0.00000000000E+00 -0.45593999997E+02  0.45594000000E+02  0.51100000000E-03 0. -1.
    9900012    2    1    2    0    0 -0.16994072546E+02 -0.36912774301E+02  0.13470098283E+01  0.50528857809E+02  0.29999993796E+02 0.  0.
        -12    1    1    2    0    0  0.16994072546E+02  0.36912774301E+02 -0.13470098283E+01  0.40659142191E+02  0.00000000000E+00 0.  1.
         11    1    3    3    0    0 -0.36554592460E+00 -0.34042357136E+01 -0.10856461659E+01  0.35918062971E+01  0.51100000000E-03 0. -1.
        -11    1    3    3    0    0 -0.19240682408E+02 -0.12100733353E+02  0.89180328881E+01  0.24416447696E+02  0.51100000000E-03 0.  1.
        -12    1    3    3    0    0  0.26121557875E+01 -0.21407805234E+02 -0.64853768938E+01  0.22520603816E+02  0.00000000000E+00 0.  1.
</event>
<event>
 7    1  0.2985411E-011  0.5052875E+02  0.7816164E-02  0.1300439E+00
        -11   -1    0    0    0    0  0.00000000000E+00  0.00000000000E+00  0.45593999997E+02  0.45594000000E+02  0.51100000000E-03 0. -1.
         11   -1    0    0    0    0 -0.00000000000E+00 -0.00000000000E+00 -0.45593999997E+02  0.45594000000E+02  0.51100000000E-03 0.  1.
    9900012    2    1    2    0    0  0.12196783036E+02 -0.77796245036E+01  0.37998559018E+02  0.50528750606E+02  0.29999667939E+02 0.  0.
        -12    1    1    2    0    0 -0.12196783036E+02  0.77796245036E+01 -0.37998559018E+02  0.40659249394E+02  0.00000000000E+00 0.  1.
         11    1    3    3    0    0  0.73503927392E+01  0.43428744684E+01  0.20055137549E+02  0.21796728526E+02  0.51100000000E-03 0. -1.
        -11    1    3    3    0    0  0.49998004593E+01  0.37165060076E+01  0.28432844901E+01  0.68479696619E+01  0.51100000000E-03 0.  1.
        -12    1    3    3    0    0 -0.15341016269E+00 -0.15839004980E+02  0.15100136979E+02  0.21884052418E+02  0.00000000000E+00 0.  1.
</event>
<event>
 7    1  0.2985411E-011  0.5052881E+02  0.7816164E-02  0.1300439E+00
        -11   -1    0    0    0    0  0.00000000000E+00  0.00000000000E+00  0.45593999997E+02  0.45594000000E+02  0.51100000000E-03 0.  1.
         11   -1    0    0    0    0 -0.00000000000E+00 -0.00000000000E+00 -0.45593999997E+02  0.45594000000E+02  0.51100000000E-03 0. -1.
    9900012    2    1    2    0    0  0.29279468939E+02  0.79139899981E+01 -0.27078618011E+02  0.50528805561E+02  0.29999834982E+02 0.  0.
        -12    1    1    2    0    0 -0.29279468939E+02 -0.79139899981E+01  0.27078618011E+02  0.40659194439E+02  0.00000000000E+00 0.  1.
         11    1    3    3    0    0  0.18044864238E+01 -0.39059831679E+01 -0.73933088385E+01  0.85541739288E+01  0.51100000000E-03 0. -1.
        -11    1    3    3    0    0  0.18085050952E+01  0.52972717469E+01 -0.13735363782E+02  0.14832127195E+02  0.51100000000E-03 0.  1.
        -12    1    3    3    0    0  0.25666477420E+02  0.65227014192E+01 -0.59499453906E+01  0.27142504437E+02  0.00000000000E+00 0.  1.
</event>
<event>
 7    1  0.2985411E-011  0.5052886E+02  0.7816164E-02  0.1300439E+00
        -11   -1    0    0    0    0  0.00000000000E+00  0.00000000000E+00  0.45593999997E+02  0.45594000000E+02  0.51100000000E-03 0. -1.
         11   -1    0    0    0    0 -0.00000000000E+00 -0.00000000000E+00 -0.45593999997E+02  0.45594000000E+02  0.51100000000E-03 0.  1.
    9900012    2    1    2    0    0  0.10844617560E+02  0.39135708198E+02 -0.19890713374E+01  0.50528858458E+02  0.29999995767E+02 0.  0.
        -12    1    1    2    0    0 -0.10844617560E+02 -0.39135708198E+02  0.19890713374E+01  0.40659141542E+02  0.00000000000E+00 0.  1.
         11    1    3    3    0    0  0.11759405347E+02  0.62256174637E+01 -0.41681704845E+01  0.13943298475E+02  0.51100000000E-03 0. -1.
        -11    1    3    3    0    0  0.46656553041E+01  0.30431983174E+01  0.27155599274E+01  0.61970687745E+01  0.51100000000E-03 0.  1.
         12    1    3    3    0    0 -0.55804430906E+01  0.29866892417E+02 -0.53646078034E+00  0.30388491208E+02  0.00000000000E+00 0. -1.
</event>
<event>
 7    1  0.2985411E-011  0.5052886E+02  0.7816164E-02  0.1300439E+00
        -11   -1    0    0    0    0  0.00000000000E+00  0.00000000000E+00  0.45593999997E+02  0.45594000000E+02  0.51100000000E-03 0.  1.
         11   -1    0    0    0    0 -0.00000000000E+00 -0.00000000000E+00 -0.45593999997E+02  0.45594000000E+02  0.51100000000E-03 0. -1.
    9900012    2    1    2    0    0 -0.50067508265E+01  0.30878334052E+02 -0.25973573947E+02  0.50528860667E+02  0.30000002485E+02 0.  0.
        -12    1    1    2    0    0  0.50067508265E+01 -0.30878334052E+02  0.25973573947E+02  0.40659139333E+02  0.00000000000E+00 0.  1.
         11    1    3    3    0    0 -0.40454288118E+01 -0.36807412773E+01 -0.22826819740E+01  0.59265494073E+01  0.51100000000E-03 0. -1.
        -11    1    3    3    0    0 -0.48695709090E+01  0.25399651179E+01 -0.42017657270E+01  0.69151268335E+01  0.51100000000E-03 0.  1.
         12    1    3    3    0    0  0.39082488944E+01  0.32019110211E+02 -0.19489126246E+02  0.37687184426E+02  0.00000000000E+00 0. -1.
</event>
<event>
 7    1  0.2985411E-011  0.5052886E+02  0.7816164E-02  0.1300439E+00
        -11   -1    0    0    0    0  0.00000000000E+00  0.00000000000E+00  0.45593999997E+02  0.45594000000E+02  0.51100000000E-03 0.  1.
         11   -1    0    0    0    0 -0.00000000000E+00 -0.00000000000E+00 -0.45593999997E+02  0.45594000000E+02  0.51100000000E-03 0. -1.
    9900012    2    1    2    0    0 -0.81198427841E+01 -0.29289619612E+02 -0.27006515271E+02  0.50528861655E+02  0.30000005488E+02 0.  0.
        -12    1    1    2    0    0  0.81198427841E+01  0.29289619612E+02  0.27006515271E+02  0.40659138345E+02  0.00000000000E+00 0.  1.
         11    1    3    3    0    0 -0.31610028067E+00 -0.18411717673E+02 -0.22380563513E+02  0.28982423820E+02  0.51100000000E-03 0. -1.
        -11    1    3    3    0    0 -0.56522735156E+01 -0.15031502567E+02 -0.50882663617E+01  0.16845911081E+02  0.51100000000E-03 0.  1.
        -12    1    3    3    0    0 -0.21514689879E+01  0.41536006277E+01  0.46231460364E+00  0.47005267548E+01  0.00000000000E+00 0.  1.
</event>
<event>
 7    1  0.2985411E-011  0.5052886E+02  0.7816164E-02  0.1300439E+00
        -11   -1    0    0    0    0  0.00000000000E+00  0.00000000000E+00  0.45593999997E+02  0.45594000000E+02  0.51100000000E-03 0. -1.
         11   -1    0    0    0    0 -0.00000000000E+00 -0.00000000000E+00 -0.45593999997E+02  0.45594000000E+02  0.51100000000E-03 0.  1.
    9900012    2    1    2    0    0 -0.21767613448E+02 -0.33847472580E+02  0.58038958705E+01  0.50528860775E+02  0.30000002811E+02 0.  0.
        -12    1    1    2    0    0  0.21767613448E+02  0.33847472580E+02 -0.58038958705E+01  0.40659139225E+02  0.00000000000E+00 0.  1.
         11    1    3    3    0    0 -0.91233778946E+01 -0.14004788112E+02 -0.42936540224E+01  0.17257044341E+02  0.51100000000E-03 0. -1.
        -11    1    3    3    0    0  0.82358677164E+00 -0.53092429241E+01 -0.57722224627E+01  0.78857408033E+01  0.51100000000E-03 0.  1.
         12    1    3    3    0    0 -0.13467822325E+02 -0.14533441543E+02  0.15869772356E+02  0.25386075630E+02  0.00000000000E+00 0. -1.
</event>
<event>
 7    1  0.2985411E-011  0.5052887E+02  0.7816164E-02  0.1300439E+00
        -11   -1    0    0    0    0  0.00000000000E+00  0.00000000000E+00  0.45593999997E+02  0.45594000000E+02  0.51100000000E-03 0.  1.
         11   -1    0    0    0    0 -0.00000000000E+00 -0.00000000000E+00 -0.45593999997E+02  0.45594000000E+02  0.51100000000E-03 0. -1.
    9900012    2    1    2    0    0 -0.35268667732E+02 -0.12101463490E+02 -0.16212360849E+02  0.50528868351E+02  0.30000025839E+02 0.  0.
        -12    1    1    2    0    0  0.35268667732E+02  0.12101463490E+02  0.16212360849E+02  0.40659131649E+02  0.00000000000E+00 0.  1.
         11    1    3    3    0    0 -0.12433296463E+02 -0.16688653194E+02 -0.14876606498E+02  0.25581466485E+02  0.51100000000E-03 0.  1.
        -11    1    3    3    0    0 -0.35784586378E+01 -0.10266493189E+01 -0.30543011171E+01  0.48154055511E+01  0.51100000000E-03 0. -1.
        -12    1    3    3    0    0 -0.19256912630E+02  0.56138390222E+01  0.17185467665E+01  0.20131996315E+02  0.00000000000E+00 0.  1.
</event>
<event>
 7    1  0.2985411E-011  0.5052887E+02  0.7816164E-02  0.1300439E+00
        -11   -1    0    0    0    0  0.00000000000E+00  0.00000000000E+00  0.45593999997E+02  0.45594000000E+02  0.51100000000E-03 0.  1.
         11   -1    0    0    0    0 -0.00000000000E+00 -0.00000000000E+00 -0.45593999997E+02  0.45594000000E+02  0.51100000000E-03 0. -1.
    9900012    2    1    2    0    0  0.47046160338E+01 -0.27076015438E+02 -0.29965330389E+02  0.50528867577E+02  0.30000023488E+02 0.  0.
        -12    1    1    2    0    0 -0.47046160338E+01  0.27076015438E+02  0.29965330389E+02  0.40659132423E+02  0.00000000000E+00 0.  1.
         11    1    3    3    0    0 -0.46089164537E+01 -0.11994891591E+02 -0.32894562677E+01  0.13264239818E+02  0.51100000000E-03 0. -1.
        -11    1    3    3    0    0  0.11798017708E+02 -0.18204344307E+02 -0.20106800056E+02  0.29578282274E+02  0.51100000000E-03 0.  1.
        -12    1    3    3    0    0 -0.24844852201E+01  0.31232204601E+01 -0.65690740650E+01  0.76863454855E+01  0.00000000000E+00 0.  1.
</event>
<event>
 7    1  0.2985411E-011  0.5052891E+02  0.7816164E-02  0.1300439E+00
        -11   -1    0    0    0    0  0.00000000000E+00  0.00000000000E+00  0.45593999997E+02  0.45594000000E+02  0.51100000000E-03 0.  1.
         11   -1    0    0    0    0 -0.00000000000E+00 -0.00000000000E+00 -0.45593999997E+02  0.45594000000E+02  0.51100000000E-03 0. -1.
    9900012    2    1    2    0    0 -0.23876786647E+02  0.27264841140E+02 -0.18430657698E+02  0.50528909428E+02  0.30000150697E+02 0.  0.
        -12    1    1    2    0    0  0.23876786647E+02 -0.27264841140E+02  0.18430657698E+02  0.40659090572E+02  0.00000000000E+00 0.  1.
         11    1    3    3    0    0 -0.17274806630E+02  0.20914374158E+02 -0.17819734701E+02  0.32455707288E+02  0.51100000000E-03 0. -1.
        -11    1    3    3    0    0 -0.99923595468E+01  0.75426997119E+01  0.31099991023E+01  0.12900064455E+02  0.51100000000E-03 0.  1.
        -12    1    3    3    0    0  0.33903795299E+01 -0.11922327299E+01 -0.37209220994E+01  0.51731376851E+01  0.00000000000E+00 0.  1.
</event>
<event>
 7    1  0.2985411E-011  0.5052887E+02  0.7816164E-02  0.1300439E+00
        -11   -1    0    0    0    0  0.00000000000E+00  0.00000000000E+00  0.45593999997E+02  0.45594000000E+02  0.51100000000E-03 0. -1.
         11   -1    0    0    0    0 -0.00000000000E+00 -0.00000000000E+00 -0.45593999997E+02  0.45594000000E+02  0.51100000000E-03 0.  1.
    9900012    2    1    2    0    0  0.35931916526E+02 -0.19023563501E+02  0.40790489009E+00  0.50528868432E+02  0.30000026085E+02 0.  0.
        -12    1    1    2    0    0 -0.35931916526E+02  0.19023563501E+02 -0.40790489009E+00  0.40659131568E+02  0.00000000000E+00 0.  1.
         11    1    3    3    0    0  0.80528431181E+01 -0.10368231830E+02 -0.28931349083E+01  0.13443167165E+02  0.51100000000E-03 0. -1.
        -11    1    3    3    0    0  0.29963691317E+02 -0.48189520093E+01  0.72454966819E+01  0.31201639673E+02  0.51100000000E-03 0.  1.
         12    1    3    3    0    0 -0.20846179099E+01 -0.38363796617E+01 -0.39444568835E+01  0.58840615942E+01  0.00000000000E+00 0. -1.
</event>
<event>
 7    1  0.2985411E-011  0.5052887E+02  0.7816164E-02  0.1300439E+00
        -11   -1    0    0    0    0  0.00000000000E+00  0.00000000000E+00  0.45593999997E+02  0.45594000000E+02  0.51100000000E-03 0.  1.
         11   -1    0    0    0    0 -0.00000000000E+00 -0.00000000000E+00 -0.45593999997E+02  0.45594000000E+02  0.51100000000E-03 0. -1.
    9900012    2    1    2    0    0 -0.25906366358E+01 -0.38335209118E+02 -0.13299067805E+02  0.50528869896E+02  0.30000030537E+02 0.  0.
        -12    1    1    2    0    0  0.25906366358E+01  0.38335209118E+02  0.13299067805E+02  0.40659130104E+02  0.00000000000E+00 0.  1.
         11    1    3    3    0    0 -0.75806152133E+01 -0.33872623716E+01 -0.19601805792E+01  0.85312121970E+01  0.51100000000E-03 0. -1.
        -11    1    3    3    0    0 -0.22604867201E+01 -0.17617764937E+01  0.38400257531E+01  0.47916025160E+01  0.51100000000E-03 0.  1.
         12    1    3    3    0    0  0.72504652976E+01 -0.33186170253E+02 -0.15178912979E+02  0.37206055183E+02  0.00000000000E+00 0. -1.
</event>
<event>
 7    1  0.2985411E-011  0.5052887E+02  0.7816164E-02  0.1300439E+00
        -11   -1    0    0    0    0  0.00000000000E+00  0.00000000000E+00  0.45593999997E+02  0.45594000000E+02  0.51100000000E-03 0.  1.
         11   -1    0    0    0    0 -0.00000000000E+00 -0.00000000000E+00 -0.45593999997E+02  0.45594000000E+02  0.51100000000E-03 0. -1.
    9900012    2    1    2    0    0 -0.24328937257E+01 -0.36183423006E+02 -0.18384931397E+02  0.50528870954E+02  0.30000033752E+02 0.  0.
        -12    1    1    2    0    0  0.24328937257E+01  0.36183423006E+02  0.18384931397E+02  0.40659129046E+02  0.00000000000E+00 0.  1.
         11    1    3    3    0    0  0.74083669267E+00 -0.18084119807E+02 -0.98442103018E+01  0.20603220742E+02  0.51100000000E-03 0. -1.
        -11    1    3    3    0    0 -0.13334316000E+01 -0.51828896057E+01 -0.14592993808E+02  0.15543353983E+02  0.51100000000E-03 0.  1.
        -12    1    3    3    0    0 -0.18402988184E+01 -0.12916413593E+02  0.60522727124E+01  0.14382296229E+02  0.00000000000E+00 0.  1.
</event>
<event>
 7    1  0.2985411E-011  0.5052887E+02  0.7816164E-02  0.1300439E+00
        -11   -1    0    0    0    0  0.00000000000E+00  0.00000000000E+00  0.45593999997E+02  0.45594000000E+02  0.51100000000E-03 0.  1.
         11   -1    0    0    0    0 -0.00000000000E+00 -0.00000000000E+00 -0.45593999997E+02  0.45594000000E+02  0.51100000000E-03 0. -1.
    9900012    2    1    2    0    0 -0.96584082289E+01 -0.70068438423E+01 -0.38868811238E+02  0.50528865759E+02  0.30000017961E+02 0.  0.
        -12    1    1    2    0    0  0.96584082289E+01  0.70068438423E+01  0.38868811238E+02  0.40659134241E+02  0.00000000000E+00 0.  1.
         11    1    3    3    0    0 -0.81883393733E+01 -0.59976406428E+01 -0.81114786210E+01  0.12992947343E+02  0.51100000000E-03 0. -1.
        -11    1    3    3    0    0 -0.22705535597E+01  0.78206810004E+01 -0.34838499590E+01  0.88575208482E+01  0.51100000000E-03 0.  1.
         12    1    3    3    0    0  0.80048470404E+00 -0.88298841999E+01 -0.27273482658E+02  0.28678397568E+02  0.00000000000E+00 0. -1.
</event>
<event>
 7    1  0.2985411E-011  0.5052885E+02  0.7816164E-02  0.1300439E+00
        -11   -1    0    0    0    0  0.00000000000E+00  0.00000000000E+00  0.45593999997E+02  0.45594000000E+02  0.51100000000E-03 0.  1.
         11   -1    0    0    0    0 -0.00000000000E+00 -0.00000000000E+00 -0.45593999997E+02  0.45594000000E+02  0.51100000000E-03 0. -1.
    9900012    2    1    2    0    0 -0.34396708697E+02  0.20821109856E+02 -0.60426825042E+01  0.50528853469E+02  0.29999980604E+02 0.  0.
        -12    1    1    2    0    0  0.34396708697E+02 -0.20821109856E+02  0.60426825042E+01  0.40659146531E+02  0.00000000000E+00 0.  1.
         11    1    3    3    0    0 -0.11340215323E+02  0.15237768739E+02  0.38388809862E+01  0.19378521285E+02  0.51100000000E-03 0. -1.
        -11    1    3    3    0    0 -0.11171743999E+02 -0.22009820369E+01  0.32108503984E+01  0.11830542948E+02  0.51100000000E-03 0.  1.
        -12    1    3    3    0    0 -0.11884749375E+02  0.77843231543E+01 -0.13092413889E+02  0.19319789236E+02  0.00000000000E+00 0.  1.
</event>
<event>
 7    1  0.2985411E-011  0.5052886E+02  0.7816164E-02  0.1300439E+00
        -11   -1    0    0    0    0  0.00000000000E+00  0.00000000000E+00  0.45593999997E+02  0.45594000000E+02  0.51100000000E-03 0. -1.
         11   -1    0    0    0    0 -0.00000000000E+00 -0.00000000000E+00 -0.45593999997E+02  0.45594000000E+02  0.51100000000E-03 0.  1.
    9900012    2    1    2    0    0  0.24083514775E+02  0.31253660216E+02  0.98162506419E+01  0.50528859115E+02  0.29999997766E+02 0.  0.
        -12    1    1    2    0    0 -0.24083514775E+02 -0.31253660216E+02 -0.98162506419E+01  0.40659140885E+02  0.00000000000E+00 0.  1.
         11    1    3    3    0    0  0.32925527197E+01  0.26522741454E+01  0.27898119267E+01  0.50654232204E+01  0.51100000000E-03 0. -1.
        -11    1    3    3    0    0  0.20361195715E+02  0.26061393326E+02 -0.47472292461E+01  0.33411236116E+02  0.51100000000E-03 0.  1.
         12    1    3    3    0    0  0.42976634070E+00  0.25399927452E+01  0.11773667961E+02  0.12052199779E+02  0.00000000000E+00 0. -1.
</event>
<event>
 7    1  0.2985411E-011  0.5052889E+02  0.7816164E-02  0.1300439E+00
        -11   -1    0    0    0    0  0.00000000000E+00  0.00000000000E+00  0.45593999997E+02  0.45594000000E+02  0.51100000000E-03 0.  1.
         11   -1    0    0    0    0 -0.00000000000E+00 -0.00000000000E+00 -0.45593999997E+02  0.45594000000E+02  0.51100000000E-03 0. -1.
    9900012    2    1    2    0    0 -0.18328920564E+02 -0.15948042140E+02 -0.32601746709E+02  0.50528889513E+02  0.30000090163E+02 0.  0.
        -12    1    1    2    0    0  0.18328920564E+02  0.15948042140E+02  0.32601746709E+02  0.40659110487E+02  0.00000000000E+00 0.  1.
         11    1    3    3    0    0 -0.15570718103E+02 -0.10729948551E+02 -0.19660281077E+02  0.27278301092E+02  0.51100000000E-03 0. -1.
        -11    1    3    3    0    0  0.24344220098E+01  0.54817412170E+01 -0.46861790867E+00  0.60162696331E+01  0.51100000000E-03 0.  1.
         12    1    3    3    0    0 -0.51926244703E+01 -0.10699834806E+02 -0.12472847723E+02  0.17234318788E+02  0.00000000000E+00 0. -1.
</event>
<event>
 7    1  0.2985411E-011  0.5052885E+02  0.7816164E-02  0.1300439E+00
        -11   -1    0    0    0    0  0.00000000000E+00  0.00000000000E+00  0.45593999997E+02  0.45594000000E+02  0.51100000000E-03 0. -1.
         11   -1    0    0    0    0 -0.00000000000E+00 -0.00000000000E+00 -0.45593999997E+02  0.45594000000E+02  0.51100000000E-03 0.  1.
    9900012    2    1    2    0    0  0.30447131144E+02  0.30043443619E+01  0.26778956440E+02  0.50528851116E+02  0.29999973452E+02 0.  0.
        -12    1    1    2    0    0 -0.30447131144E+02 -0.30043443619E+01 -0.26778956440E+02  0.40659148884E+02  0.00000000000E+00 0.  1.
         11    1    3    3    0    0  0.95713935806E+00 -0.17865293196E+01 -0.23822648017E+01  0.31277769433E+01  0.51100000000E-03 0.  1.
        -11    1    3    3    0    0  0.20201414270E+02  0.72672492969E+01  0.59501735767E+01  0.22278119685E+02  0.51100000000E-03 0. -1.
         12    1    3    3    0    0  0.92885775162E+01 -0.24763756154E+01  0.23211047665E+02  0.25122954488E+02  0.00000000000E+00 0. -1.
</event>
<event>
 7    1  0.2985411E-011  0.5052886E+02  0.7816164E-02  0.1300439E+00
        -11   -1    0    0    0    0  0.00000000000E+00  0.00000000000E+00  0.45593999997E+02  0.45594000000E+02  0.51100000000E-03 0. -1.
         11   -1    0    0    0    0 -0.00000000000E+00 -0.00000000000E+00 -0.45593999997E+02  0.45594000000E+02  0.51100000000E-03 0.  1.
    9900012    2    1    2    0    0  0.25927866676E+02 -0.29492703914E+02 -0.10540009253E+02  0.50528860196E+02  0.30000001053E+02 0.  0.
        -12    1    1    2    0    0 -0.25927866676E+02  0.29492703914E+02  0.10540009253E+02  0.40659139804E+02  0.00000000000E+00 0.  1.
         11    1    3    3    0    0  0.33725534243E+00 -0.10962853093E+02 -0.73614209956E+01  0.13209406059E+02  0.51100000000E-03 0. -1.
        -11    1    3    3    0    0  0.15440460419E+02 -0.11215668226E+01 -0.66895063219E+01  0.16864614587E+02  0.51100000000E-03 0.  1.
         12    1    3    3    0    0  0.10150150915E+02 -0.17408283998E+02  0.35109180643E+01  0.20454839550E+02  0.00000000000E+00 0. -1.
</event>
<event>
 7    1  0.2985411E-011  0.5052886E+02  0.7816164E-02  0.1300439E+00
        -11   -1    0    0    0    0  0.00000000000E+00  0.00000000000E+00  0.45593999997E+02  0.45594000000E+02  0.51100000000E-03 0.  1.
         11   -1    0    0    0    0 -0.00000000000E+00 -0.00000000000E+00 -0.45593999997E+02  0.45594000000E+02  0.51100000000E-03 0. -1.
    9900012    2    1    2    0    0 -0.18381025329E+02 -0.17916439613E+02 -0.31532601163E+02  0.50528857896E+02  0.29999994059E+02 0.  0.
        -12    1    1    2    0    0  0.18381025329E+02  0.17916439613E+02  0.31532601163E+02  0.40659142104E+02  0.00000000000E+00 0.  1.
         11    1    3    3    0    0 -0.55265732819E+01  0.67355215590E+00 -0.42005113142E+01  0.69743085900E+01  0.51100000000E-03 0. -1.
        -11    1    3    3    0    0 -0.55069640611E+01  0.59676298680E+01 -0.84362131052E+01  0.11709353152E+02  0.51100000000E-03 0.  1.
        -12    1    3    3    0    0 -0.73474879860E+01 -0.24557621637E+02 -0.18895876744E+02  0.31845196154E+02  0.00000000000E+00 0.  1.
</event>
<event>
 7    1  0.2985411E-011  0.5052886E+02  0.7816164E-02  0.1300439E+00
        -11   -1    0    0    0    0  0.00000000000E+00  0.00000000000E+00  0.45593999997E+02  0.45594000000E+02  0.51100000000E-03 0.  1.
         11   -1    0    0    0    0 -0.00000000000E+00 -0.00000000000E+00 -0.45593999997E+02  0.45594000000E+02  0.51100000000E-03 0. -1.
    9900012    2    1    2    0    0 -0.12348200725E+01  0.14476682460E+01 -0.40614591036E+02  0.50528861679E+02  0.30000005560E+02 0.  0.
        -12    1    1    2    0    0  0.12348200725E+01 -0.14476682460E+01  0.40614591036E+02  0.40659138321E+02  0.00000000000E+00 0.  1.
         11    1    3    3    0    0  0.74277226283E+00 -0.50587939362E+01 -0.19511685850E+01  0.54726744679E+01  0.51100000000E-03 0. -1.
        -11    1    3    3    0    0  0.75400355219E+01 -0.43360290103E+01 -0.13928246825E+02  0.16421003110E+02  0.51100000000E-03 0.  1.
         12    1    3    3    0    0 -0.95176278572E+01  0.10842491193E+02 -0.24735175626E+02  0.28635184102E+02  0.00000000000E+00 0. -1.
</event>
<event>
 7    1  0.2985411E-011  0.5052890E+02  0.7816164E-02  0.1300439E+00
        -11   -1    0    0    0    0  0.00000000000E+00  0.00000000000E+00  0.45593999997E+02  0.45594000000E+02  0.51100000000E-03 0.  1.
         11   -1    0    0    0    0 -0.00000000000E+00 -0.00000000000E+00 -0.45593999997E+02  0.45594000000E+02  0.51100000000E-03 0. -1.
    9900012    2    1    2    0    0 -0.47790443184E+01 -0.17071606364E+02 -0.36590757097E+02  0.50528898763E+02  0.30000118280E+02 0.  0.
        -12    1    1    2    0    0  0.47790443184E+01  0.17071606364E+02  0.36590757097E+02  0.40659101237E+02  0.00000000000E+00 0.  1.
         11    1    3    3    0    0  0.15050151070E+01 -0.11184383808E+02 -0.20597316435E+02  0.23486271654E+02  0.51100000000E-03 0. -1.
        -11    1    3    3    0    0  0.48140808921E+01 -0.83414412685E+01 -0.11021356487E+02  0.14636437966E+02  0.51100000000E-03 0.  1.
         12    1    3    3    0    0 -0.11098140318E+02  0.24542187122E+01 -0.49720841754E+01  0.12406189143E+02  0.00000000000E+00 0. -1.
</event>
<event>
 7    1  0.2985411E-011  0.5052887E+02  0.7816164E-02  0.1300439E+00
        -11   -1    0    0    0    0  0.00000000000E+00  0.00000000000E+00  0.45593999997E+02  0.45594000000E+02  0.51100000000E-03 0.  1.
         11   -1    0    0    0    0 -0.00000000000E+00 -0.00000000000E+00 -0.45593999997E+02  0.45594000000E+02  0.51100000000E-03 0. -1.
    9900012    2    1    2    0    0  0.29175904021E+02 -0.40213727066E+01 -0.28031417848E+02  0.50528865719E+02  0.30000017841E+02 0.  0.
        -12    1    1    2    0    0 -0.29175904021E+02  0.40213727066E+01  0.28031417848E+02  0.40659134281E+02  0.00000000000E+00 0.  1.
         11    1    3    3    0    0 -0.21669923830E+01 -0.15253662498E+01 -0.41147951898E+01  0.48942964662E+01  0.51100000000E-03 0.  1.
        -11    1    3    3    0    0  0.21417007111E+02 -0.99987153300E+01 -0.70305501985E+01  0.24659504014E+02  0.51100000000E-03 0. -1.
         12    1    3    3    0    0  0.99258892931E+01  0.75027088732E+01 -0.16886072459E+02  0.20975065239E+02  0.00000000000E+00 0. -1.
</event>
<event>
 7    1  0.2985411E-011  0.5052886E+02  0.7816164E-02  0.1300439E+00
        -11   -1    0    0    0    0  0.00000000000E+00  0.00000000000E+00  0.45593999997E+02  0.45594000000E+02  0.51100000000E-03 0.  1.
         11   -1    0    0    0    0 -0.00000000000E+00 -0.00000000000E+00 -0.45593999997E+02  0.45594000000E+02  0.51100000000E-03 0. -1.
    9900012    2    1    2    0    0  0.30477164375E+02 -0.17336315847E+02 -0.20585439626E+02  0.50528859329E+02  0.29999998416E+02 0.  0.
        -12    1    1    2    0    0 -0.30477164375E+02  0.17336315847E+02  0.20585439626E+02  0.40659140671E+02  0.00000000000E+00 0.  1.
         11    1    3    3    0    0  0.99873858822E+01 -0.24445778606E+01  0.17993536581E+01  0.10438463082E+02  0.51100000000E-03 0. -1.
        -11    1    3    3    0    0  0.72099370100E+01 -0.18179896478E+02 -0.13865238895E+02  0.23973666334E+02  0.51100000000E-03 0.  1.
         12    1    3    3    0    0  0.13279841483E+02  0.32881584911E+01 -0.85195543893E+01  0.16116729912E+02  0.00000000000E+00 0. -1.
</event>
<event>
 7    1  0.2985411E-011  0.5052886E+02  0.7816164E-02  0.1300439E+00
        -11   -1    0    0    0    0  0.00000000000E+00  0.00000000000E+00  0.45593999997E+02  0.45594000000E+02  0.51100000000E-03 0.  1.
         11   -1    0    0    0    0 -0.00000000000E+00 -0.00000000000E+00 -0.45593999997E+02  0.45594000000E+02  0.51100000000E-03 0. -1.
    9900012    2    1    2    0    0  0.82059008076E+01 -0.96525086828E+01 -0.38634936388E+02  0.50528855375E+02  0.29999986397E+02 0.  0.
        -12    1    1    2    0    0 -0.82059008076E+01  0.96525086828E+01  0.38634936388E+02  0.40659144625E+02  0.00000000000E+00 0.  1.
         11    1    3    3    0    0  0.32507117876E+01 -0.65740652899E+01 -0.10407709084E+02  0.12732080356E+02  0.51100000000E-03 0. -1.
        -11    1    3    3    0    0  0.77642821489E+01 -0.12821995918E+02 -0.16429353189E+02  0.22239858432E+02  0.51100000000E-03 0.  1.
         12    1    3    3    0    0 -0.28090931288E+01  0.97435525254E+01 -0.11797874116E+02  0.15556916586E+02  0.00000000000E+00 0. -1.
</event>
<event>
 7    1  0.2985411E-011  0.5052886E+02  0.7816164E-02  0.1300439E+00
        -11   -1    0    0    0    0  0.00000000000E+00  0.00000000000E+00  0.45593999997E+02  0.45594000000E+02  0.51100000000E-03 0.  1.
         11   -1    0    0    0    0 -0.00000000000E+00 -0.00000000000E+00 -0.45593999997E+02  0.45594000000E+02  0.51100000000E-03 0. -1.
    9900012    2    1    2    0    0 -0.15128863222E+02  0.37685524593E+02  0.20209647722E+01  0.50528861238E+02  0.30000004220E+02 0.  0.
        -12    1    1    2    0    0  0.15128863222E+02 -0.37685524593E+02 -0.20209647722E+01  0.40659138762E+02  0.00000000000E+00 0.  1.
         11    1    3    3    0    0 -0.90384458732E+01  0.27169949897E+01 -0.62818616408E+00  0.94588679922E+01  0.51100000000E-03 0. -1.
        -11    1    3    3    0    0 -0.12680877253E+00  0.16832768919E+02  0.11129844750E+02  0.20179981030E+02  0.51100000000E-03 0.  1.
         12    1    3    3    0    0 -0.59636085761E+01  0.18135760684E+02 -0.84806938136E+01  0.20890012216E+02  0.00000000000E+00 0. -1.
</event>
<event>
 7    1  0.2985411E-011  0.5052885E+02  0.7816164E-02  0.1300439E+00
        -11   -1    0    0    0    0  0.00000000000E+00  0.00000000000E+00  0.45593999997E+02  0.45594000000E+02  0.51100000000E-03 0.  1.
         11   -1    0    0    0    0 -0.00000000000E+00 -0.00000000000E+00 -0.45593999997E+02  0.45594000000E+02  0.51100000000E-03 0. -1.
    9900012    2    1    2    0    0  0.19515255705E+00 -0.70796164469E+01 -0.40037575469E+02  0.50528849701E+02  0.29999969152E+02 0.  0.
        -12    1    1    2    0    0 -0.19515255705E+00  0.70796164469E+01  0.40037575469E+02  0.40659150299E+02  0.00000000000E+00 0.  1.
         11    1    3    3    0    0 -0.51315716216E+01  0.76960676260E+01 -0.84694543577E+01  0.12541696121E+02  0.51100000000E-03 0.  1.
        -11    1    3    3    0    0  0.64799819213E+01 -0.32090358275E+01 -0.44699621925E+01  0.85010963355E+01  0.51100000000E-03 0. -1.
        -12    1    3    3    0    0 -0.11532577426E+01 -0.11566648245E+02 -0.27098158919E+02  0.29486057245E+02  0.00000000000E+00 0.  1.
</event>
<event>
 7    1  0.2985411E-011  0.5052888E+02  0.7816164E-02  0.1300439E+00
        -11   -1    0    0    0    0  0.00000000000E+00  0.00000000000E+00  0.45593999997E+02  0.45594000000E+02  0.51100000000E-03 0.  1.
         11   -1    0    0    0    0 -0.00000000000E+00 -0.00000000000E+00 -0.45593999997E+02  0.45594000000E+02  0.51100000000E-03 0. -1.
    9900012    2    1    2    0    0  0.15076030055E+02  0.33756193442E+02 -0.16923269196E+02  0.50528876569E+02  0.30000050820E+02 0.  0.
        -12    1    1    2    0    0 -0.15076030055E+02 -0.33756193442E+02  0.16923269196E+02  0.40659123431E+02  0.00000000000E+00 0.  1.
         11    1    3    3    0    0  0.95995149080E+01  0.35413998483E+02 -0.11236193247E+02  0.38373871501E+02  0.51100000000E-03 0. -1.
        -11    1    3    3    0    0  0.40875028593E+01  0.34691725411E+01 -0.35465464621E+01  0.64281280178E+01  0.51100000000E-03 0.  1.
        -12    1    3    3    0    0  0.13890122872E+01 -0.51269775827E+01 -0.21405294863E+01  0.57268770504E+01  0.00000000000E+00 0.  1.
</event>
<event>
 7    1  0.2985411E-011  0.5052886E+02  0.7816164E-02  0.1300439E+00
        -11   -1    0    0    0    0  0.00000000000E+00  0.00000000000E+00  0.45593999997E+02  0.45594000000E+02  0.51100000000E-03 0. -1.
         11   -1    0    0    0    0 -0.00000000000E+00 -0.00000000000E+00 -0.45593999997E+02  0.45594000000E+02  0.51100000000E-03 0.  1.
    9900012    2    1    2    0    0 -0.23077034473E+02  0.16091515194E+02  0.29354379931E+02  0.50528855858E+02  0.29999987865E+02 0.  0.
        -12    1    1    2    0    0  0.23077034473E+02 -0.16091515194E+02 -0.29354379931E+02  0.40659144142E+02  0.00000000000E+00 0.  1.
         11    1    3    3    0    0 -0.57702231981E+00  0.51618793449E+01  0.44258199184E+01  0.68239164224E+01  0.51100000000E-03 0. -1.
        -11    1    3    3    0    0  0.51509362021E+01  0.42635663406E+01  0.86495138092E+01  0.10932713803E+02  0.51100000000E-03 0.  1.
         12    1    3    3    0    0 -0.27650948355E+02  0.66660695081E+01  0.16279046203E+02  0.32772225632E+02  0.00000000000E+00 0. -1.
</event>
<event>
 7    1  0.2985411E-011  0.5052886E+02  0.7816164E-02  0.1300439E+00
        -11   -1    0    0    0    0  0.00000000000E+00  0.00000000000E+00  0.45593999997E+02  0.45594000000E+02  0.51100000000E-03 0.  1.
         11   -1    0    0    0    0 -0.00000000000E+00 -0.00000000000E+00 -0.45593999997E+02  0.45594000000E+02  0.51100000000E-03 0. -1.
    9900012    2    1    2    0    0 -0.99246963536E+00  0.40643555811E+02  0.53091007267E+00  0.50528862154E+02  0.30000007002E+02 0.  0.
        -12    1    1    2    0    0  0.99246963536E+00 -0.40643555811E+02 -0.53091007267E+00  0.40659137846E+02  0.00000000000E+00 0.  1.
         11    1    3    3    0    0  0.17751583803E+00  0.11993964456E+02 -0.10986501947E+01  0.12045485784E+02  0.51100000000E-03 0. -1.
        -11    1    3    3    0    0  0.11872767649E+02  0.13937222595E+02 -0.22389483097E+01  0.18445098946E+02  0.51100000000E-03 0.  1.
        -12    1    3    3    0    0 -0.13042753123E+02  0.14712368759E+02  0.38685085771E+01  0.20038277424E+02  0.00000000000E+00 0.  1.
</event>
<event>
 7    1  0.2985411E-011  0.5052886E+02  0.7816164E-02  0.1300439E+00
        -11   -1    0    0    0    0  0.00000000000E+00  0.00000000000E+00  0.45593999997E+02  0.45594000000E+02  0.51100000000E-03 0.  1.
         11   -1    0    0    0    0 -0.00000000000E+00 -0.00000000000E+00 -0.45593999997E+02  0.45594000000E+02  0.51100000000E-03 0. -1.
    9900012    2    1    2    0    0  0.13265274753E+01 -0.33680312450E+02 -0.22738562839E+02  0.50528863735E+02  0.30000011808E+02 0.  0.
        -12    1    1    2    0    0 -0.13265274753E+01  0.33680312450E+02  0.22738562839E+02  0.40659136265E+02  0.00000000000E+00 0.  1.
         11    1    3    3    0    0 -0.67875306577E+00  0.25521122428E+01 -0.21434647652E+01  0.34012386104E+01  0.51100000000E-03 0. -1.
        -11    1    3    3    0    0  0.23752431171E+01  0.22195356091E+01  0.46591261628E+00  0.32840817609E+01  0.51100000000E-03 0.  1.
         12    1    3    3    0    0 -0.36996257601E+00 -0.38451960302E+02 -0.21061010690E+02  0.43843543363E+02  0.00000000000E+00 0. -1.
</event>
<event>
 7    1  0.2985411E-011  0.5052887E+02  0.7816164E-02  0.1300439E+00
        -11   -1    0    0    0    0  0.00000000000E+00  0.00000000000E+00  0.45593999997E+02  0.45594000000E+02  0.51100000000E-03 0. -1.
         11   -1    0    0    0    0 -0.00000000000E+00 -0.00000000000E+00 -0.45593999997E+02  0.45594000000E+02  0.51100000000E-03 0.  1.
    9900012    2    1    2    0    0 -0.56308051473E+00 -0.37835827744E+02  0.14876083216E+02  0.50528870981E+02  0.30000033833E+02 0.  0.
        -12    1    1    2    0    0  0.56308051473E+00  0.37835827744E+02 -0.14876083216E+02  0.40659129019E+02  0.00000000000E+00 0.  1.
         11    1    3    3    0    0  0.27910355778E+01  0.21550682044E+01  0.45600509965E+01  0.57643962315E+01  0.51100000000E-03 0. -1.
        -11    1    3    3    0    0  0.29484554612E+01 -0.20789314218E+01 -0.23421653393E+01  0.43012886674E+01  0.51100000000E-03 0.  1.
         12    1    3    3    0    0 -0.63025715537E+01 -0.37911964527E+02  0.12658197559E+02  0.40463186082E+02  0.00000000000E+00 0. -1.
</event>
<event>
 7    1  0.2985411E-011  0.5052887E+02  0.7816164E-02  0.1300439E+00
        -11   -1    0    0    0    0  0.00000000000E+00  0.00000000000E+00  0.45593999997E+02  0.45594000000E+02  0.51100000000E-03 0. -1.
         11   -1    0    0    0    0 -0.00000000000E+00 -0.00000000000E+00 -0.45593999997E+02  0.45594000000E+02  0.51100000000E-03 0.  1.
    9900012    2    1    2    0    0  0.20281573921E+02  0.31954018591E+02  0.14858104709E+02  0.50528870393E+02  0.30000032048E+02 0.  0.
        -12    1    1    2    0    0 -0.20281573921E+02 -0.31954018591E+02 -0.14858104709E+02  0.40659129607E+02  0.00000000000E+00 0.  1.
         11    1    3    3    0    0  0.76260565570E+01  0.13541894539E+01  0.99870071093E+01  0.12638468220E+02  0.51100000000E-03 0. -1.
        -11    1    3    3    0    0 -0.15014971435E+01  0.39566729526E+01  0.64092627541E+01  0.76803908649E+01  0.51100000000E-03 0.  1.
        -12    1    3    3    0    0  0.14157014507E+02  0.26643156184E+02 -0.15381651539E+01  0.30210011308E+02  0.00000000000E+00 0.  1.
</event>
<event>
 7    1  0.2985411E-011  0.5052886E+02  0.7816164E-02  0.1300439E+00
        -11   -1    0    0    0    0  0.00000000000E+00  0.00000000000E+00  0.45593999997E+02  0.45594000000E+02  0.51100000000E-03 0.  1.
         11   -1    0    0    0    0 -0.00000000000E+00 -0.00000000000E+00 -0.45593999997E+02  0.45594000000E+02  0.51100000000E-03 0. -1.
    9900012    2    1    2    0    0  0.80842465569E+01  0.39832659471E+02  0.10815578705E+01  0.50528861170E+02  0.30000004013E+02 0.  0.
        -12    1    1    2    0    0 -0.80842465569E+01 -0.39832659471E+02 -0.10815578705E+01  0.40659138830E+02  0.00000000000E+00 0.  1.
         11    1    3    3    0    0 -0.12079889827E+01  0.34485624758E+02 -0.81473636709E+00  0.34516392453E+02  0.51100000000E-03 0. -1.
        -11    1    3    3    0    0  0.80709030772E+01  0.63788695912E+01 -0.31179647653E+01  0.10749472465E+02  0.51100000000E-03 0.  1.
        -12    1    3    3    0    0  0.12213324624E+01 -0.10318348784E+01  0.50142590029E+01  0.52629962520E+01  0.00000000000E+00 0.  1.
</event>
<event>
 7    1  0.2985411E-011  0.5052886E+02  0.7816164E-02  0.1300439E+00
        -11   -1    0    0    0    0  0.00000000000E+00  0.00000000000E+00  0.45593999997E+02  0.45594000000E+02  0.51100000000E-03 0.  1.
         11   -1    0    0    0    0 -0.00000000000E+00 -0.00000000000E+00 -0.45593999997E+02  0.45594000000E+02  0.51100000000E-03 0. -1.
    9900012    2    1    2    0    0 -0.31246392953E+02  0.23329842815E+02 -0.11512910245E+02  0.50528859076E+02  0.29999997649E+02 0.  0.
        -12    1    1    2    0    0  0.31246392953E+02 -0.23329842815E+02  0.11512910245E+02  0.40659140924E+02  0.00000000000E+00 0.  1.
         11    1    3    3    0    0 -0.17487892387E+02 -0.19503880616E+01 -0.41635141121E+01  0.18082180282E+02  0.51100000000E-03 0. -1.
        -11    1    3    3    0    0 -0.58330205973E+01  0.92368150267E+00 -0.23139160290E+01  0.63428325264E+01  0.51100000000E-03 0.  1.
        -12    1    3    3    0    0 -0.79254799692E+01  0.24356549374E+02 -0.50354801035E+01  0.26103846268E+02  0.00000000000E+00 0.  1.
</event>
<event>
 7    1  0.2985411E-011  0.5052886E+02  0.7816164E-02  0.1300439E+00
        -11   -1    0    0    0    0  0.00000000000E+00  0.00000000000E+00  0.45593999997E+02  0.45594000000E+02  0.51100000000E-03 0. -1.
         11   -1    0    0    0    0 -0.00000000000E+00 -0.00000000000E+00 -0.45593999997E+02  0.45594000000E+02  0.51100000000E-03 0.  1.
    9900012    2    1    2    0    0 -0.29521543482E+02  0.24825868395E+02  0.12857689238E+02  0.50528862728E+02  0.30000008749E+02 0.  0.
        -12    1    1    2    0    0  0.29521543482E+02 -0.24825868395E+02 -0.12857689238E+02  0.40659137272E+02  0.00000000000E+00 0.  1.
         11    1    3    3    0    0  0.25470988434E+01 -0.35063954006E+01  0.23130081326E+01  0.49124869573E+01  0.51100000000E-03 0. -1.
        -11    1    3    3    0    0  0.82316547258E+00  0.70083165479E+00  0.12718107935E+01  0.16692121972E+01  0.51100000000E-03 0.  1.
         12    1    3    3    0    0 -0.32891807798E+02  0.27631432141E+02  0.92728703115E+01  0.43947163574E+02  0.00000000000E+00 0. -1.
</event>
<event>
 7    1  0.2985411E-011  0.5052886E+02  0.7816164E-02  0.1300439E+00
        -11   -1    0    0    0    0  0.00000000000E+00  0.00000000000E+00  0.45593999997E+02  0.45594000000E+02  0.51100000000E-03 0.  1.
         11   -1    0    0    0    0 -0.00000000000E+00 -0.00000000000E+00 -0.45593999997E+02  0.45594000000E+02  0.51100000000E-03 0. -1.
    9900012    2    1    2    0    0  0.22525736212E+02 -0.27503894003E+02  0.19730509700E+02  0.50528856007E+02  0.29999988320E+02 0.  0.
        -12    1    1    2    0    0 -0.22525736212E+02  0.27503894003E+02 -0.19730509700E+02  0.40659143993E+02  0.00000000000E+00 0.  1.
         11    1    3    3    0    0  0.10940727352E+02 -0.31753678819E+01  0.31323933053E+00  0.11396516807E+02  0.51100000000E-03 0. -1.
        -11    1    3    3    0    0 -0.57155975024E+01 -0.86146401738E+01  0.37603321661E+01  0.11000917161E+02  0.51100000000E-03 0.  1.
         12    1    3    3    0    0  0.17300606362E+02 -0.15713885947E+02  0.15656938203E+02  0.28131422039E+02  0.00000000000E+00 0. -1.
</event>
<event>
 7    1  0.2985411E-011  0.5052886E+02  0.7816164E-02  0.1300439E+00
        -11   -1    0    0    0    0  0.00000000000E+00  0.00000000000E+00  0.45593999997E+02  0.45594000000E+02  0.51100000000E-03 0. -1.
         11   -1    0    0    0    0 -0.00000000000E+00 -0.00000000000E+00 -0.45593999997E+02  0.45594000000E+02  0.51100000000E-03 0.  1.
    9900012    2    1    2    0    0  0.81676772349E+01 -0.27331948339E+02  0.28972727118E+02  0.50528864888E+02  0.30000015314E+02 0.  0.
        -12    1    1    2    0    0 -0.81676772349E+01  0.27331948339E+02 -0.28972727118E+02  0.40659135112E+02  0.00000000000E+00 0.  1.
         11    1    3    3    0    0  0.13595366978E+01 -0.30495421790E+02  0.24720723054E+02  0.39280188884E+02  0.51100000000E-03 0. -1.
        -11    1    3    3    0    0  0.54123292837E+00 -0.18725494112E+01  0.22238409908E+01  0.29571681375E+01  0.51100000000E-03 0.  1.
        -12    1    3    3    0    0  0.62669076088E+01  0.50360228627E+01  0.20281630728E+01  0.82915078666E+01  0.00000000000E+00 0.  1.
</event>
<event>
 7    1  0.2985411E-011  0.5052885E+02  0.7816164E-02  0.1300439E+00
        -11   -1    0    0    0    0  0.00000000000E+00  0.00000000000E+00  0.45593999997E+02  0.45594000000E+02  0.51100000000E-03 0. -1.
         11   -1    0    0    0    0 -0.00000000000E+00 -0.00000000000E+00 -0.45593999997E+02  0.45594000000E+02  0.51100000000E-03 0.  1.
    9900012    2    1    2    0    0  0.37869505126E+02  0.63379453547E+01 -0.13375247503E+02  0.50528853236E+02  0.29999979897E+02 0.  0.
        -12    1    1    2    0    0 -0.37869505126E+02 -0.63379453547E+01  0.13375247503E+02  0.40659146764E+02  0.00000000000E+00 0.  1.
         11    1    3    3    0    0  0.10842878195E+02 -0.36308780700E+01  0.53208950876E+01  0.12612026320E+02  0.51100000000E-03 0.  1.
        -11    1    3    3    0    0  0.36201371110E+01  0.33821342265E-01  0.28346489117E+01  0.45980181926E+01  0.51100000000E-03 0. -1.
        -12    1    3    3    0    0  0.23406489820E+02  0.99350020824E+01 -0.21530791502E+02  0.33318808724E+02  0.00000000000E+00 0.  1.
</event>
<event>
 7    1  0.2985411E-011  0.5052885E+02  0.7816164E-02  0.1300439E+00
        -11   -1    0    0    0    0  0.00000000000E+00  0.00000000000E+00  0.45593999997E+02  0.45594000000E+02  0.51100000000E-03 0. -1.
         11   -1    0    0    0    0 -0.00000000000E+00 -0.00000000000E+00 -0.45593999997E+02  0.45594000000E+02  0.51100000000E-03 0.  1.
    9900012    2    1    2    0    0  0.24969498541E+02 -0.13515908663E+02  0.29103450134E+02  0.50528850303E+02  0.29999970980E+02 0.  0.
        -12    1    1    2    0    0 -0.24969498541E+02  0.13515908663E+02 -0.29103450134E+02  0.40659149697E+02  0.00000000000E+00 0.  1.
         11    1    3    3    0    0  0.10699771898E+02 -0.70393529483E+01  0.10035528423E+02  0.16271122874E+02  0.51100000000E-03 0. -1.
        -11    1    3    3    0    0  0.17565274593E+02 -0.86125005799E+01  0.57762427178E+01  0.20398015049E+02  0.51100000000E-03 0.  1.
        -12    1    3    3    0    0 -0.32955479502E+01  0.21359448648E+01  0.13291678994E+02  0.13859712379E+02  0.00000000000E+00 0.  1.
</event>
<event>
 7    1  0.2985411E-011  0.5052886E+02  0.7816164E-02  0.1300439E+00
        -11   -1    0    0    0    0  0.00000000000E+00  0.00000000000E+00  0.45593999997E+02  0.45594000000E+02  0.51100000000E-03 0. -1.
         11   -1    0    0    0    0 -0.00000000000E+00 -0.00000000000E+00 -0.45593999997E+02  0.45594000000E+02  0.51100000000E-03 0.  1.
    9900012    2    1    2    0    0 -0.34047160333E+02 -0.15403838101E+02  0.16021184662E+02  0.50528859417E+02  0.29999998683E+02 0.  0.
        -12    1    1    2    0    0  0.34047160333E+02  0.15403838101E+02 -0.16021184662E+02  0.40659140583E+02  0.00000000000E+00 0.  1.
         11    1    3    3    0    0 -0.20369935630E+02 -0.68440402601E+01  0.16410284858E+02  0.27038354499E+02  0.51100000000E-03 0. -1.
        -11    1    3    3    0    0 -0.43714682107E+01 -0.24345492147E+01  0.80747216997E+01  0.94993628726E+01  0.51100000000E-03 0.  1.
         12    1    3    3    0    0 -0.93057564926E+01 -0.61252486265E+01 -0.84638218955E+01  0.13991142045E+02  0.00000000000E+00 0. -1.
</event>
<event>
 7    1  0.2985411E-011  0.5052885E+02  0.7816164E-02  0.1300439E+00
        -11   -1    0    0    0    0  0.00000000000E+00  0.00000000000E+00  0.45593999997E+02  0.45594000000E+02  0.51100000000E-03 0.  1.
         11   -1    0    0    0    0 -0.00000000000E+00 -0.00000000000E+00 -0.45593999997E+02  0.45594000000E+02  0.51100000000E-03 0. -1.
    9900012    2    1    2    0    0  0.28535245586E+02  0.92384178364E+01 -0.27451002550E+02  0.50528854094E+02  0.29999982505E+02 0.  0.
        -12    1    1    2    0    0 -0.28535245586E+02 -0.92384178364E+01  0.27451002550E+02  0.40659145906E+02  0.00000000000E+00 0.  1.
         11    1    3    3    0    0  0.21054879633E+01 -0.35070346721E+00 -0.12351235995E+02  0.12534317027E+02  0.51100000000E-03 0. -1.
        -11    1    3    3    0    0  0.38305582675E+01 -0.51037900892E+01 -0.77808546425E+01  0.10062979139E+02  0.51100000000E-03 0.  1.
         12    1    3    3    0    0  0.22599199355E+02  0.14692911393E+02 -0.73189119129E+01  0.27931557928E+02  0.00000000000E+00 0. -1.
</event>
<event>
 7    1  0.2985411E-011  0.5052887E+02  0.7816164E-02  0.1300439E+00
        -11   -1    0    0    0    0  0.00000000000E+00  0.00000000000E+00  0.45593999997E+02  0.45594000000E+02  0.51100000000E-03 0.  1.
         11   -1    0    0    0    0 -0.00000000000E+00 -0.00000000000E+00 -0.45593999997E+02  0.45594000000E+02  0.51100000000E-03 0. -1.
    9900012    2    1    2    0    0 -0.28751386371E+02 -0.84519498218E+01 -0.27478855233E+02  0.50528866229E+02  0.30000019391E+02 0.  0.
        -12    1    1    2    0    0  0.28751386371E+02  0.84519498218E+01  0.27478855233E+02  0.40659133771E+02  0.00000000000E+00 0.  1.
         11    1    3    3    0    0 -0.16972424733E+02 -0.12318071243E+00 -0.17105969081E+02  0.24097563222E+02  0.51100000000E-03 0. -1.
        -11    1    3    3    0    0 -0.95876731938E+01 -0.26449192482E+01 -0.15535403121E+02  0.18446349923E+02  0.51100000000E-03 0.  1.
        -12    1    3    3    0    0 -0.21912884448E+01 -0.56838498611E+01  0.51625169690E+01  0.79849530836E+01  0.00000000000E+00 0.  1.
</event>
<event>
 7    1  0.2985411E-011  0.5052886E+02  0.7816164E-02  0.1300439E+00
        -11   -1    0    0    0    0  0.00000000000E+00  0.00000000000E+00  0.45593999997E+02  0.45594000000E+02  0.51100000000E-03 0. -1.
         11   -1    0    0    0    0 -0.00000000000E+00 -0.00000000000E+00 -0.45593999997E+02  0.45594000000E+02  0.51100000000E-03 0.  1.
    9900012    2    1    2    0    0  0.14897337065E+02  0.17027564652E+02  0.33783089713E+02  0.50528858837E+02  0.29999996920E+02 0.  0.
        -12    1    1    2    0    0 -0.14897337065E+02 -0.17027564652E+02 -0.33783089713E+02  0.40659141163E+02  0.00000000000E+00 0.  1.
         11    1    3    3    0    0  0.10623394619E+01 -0.61168604492E+00  0.54652171561E+00  0.13421666054E+01  0.51100000000E-03 0. -1.
        -11    1    3    3    0    0  0.11458796992E+01  0.22111889254E+02  0.25070344978E+02  0.33448032592E+02  0.51100000000E-03 0.  1.
        -12    1    3    3    0    0  0.12689117904E+02 -0.44726385573E+01  0.81662230190E+01  0.15738659639E+02  0.00000000000E+00 0.  1.
</event>
<event>
 7    1  0.2985411E-011  0.5052886E+02  0.7816164E-02  0.1300439E+00
        -11   -1    0    0    0    0  0.00000000000E+00  0.00000000000E+00  0.45593999997E+02  0.45594000000E+02  0.51100000000E-03 0.  1.
         11   -1    0    0    0    0 -0.00000000000E+00 -0.00000000000E+00 -0.45593999997E+02  0.45594000000E+02  0.51100000000E-03 0. -1.
    9900012    2    1    2    0    0  0.18429046939E+02 -0.11260724531E+02 -0.34448977264E+02  0.50528859299E+02  0.29999998324E+02 0.  0.
        -12    1    1    2    0    0 -0.18429046939E+02  0.11260724531E+02  0.34448977264E+02  0.40659140701E+02  0.00000000000E+00 0.  1.
         11    1    3    3    0    0  0.24356414193E+01 -0.36258901722E+01  0.11215477741E+01  0.45096893834E+01  0.51100000000E-03 0. -1.
        -11    1    3    3    0    0  0.15321076566E+02 -0.14130449558E+01 -0.72376399280E+01  0.17003397166E+02  0.51100000000E-03 0.  1.
         12    1    3    3    0    0  0.67232895372E+00 -0.62217894033E+01 -0.28332885110E+02  0.29015772750E+02  0.00000000000E+00 0. -1.
</event>
<event>
 7    1  0.2985411E-011  0.5052885E+02  0.7816164E-02  0.1300439E+00
        -11   -1    0    0    0    0  0.00000000000E+00  0.00000000000E+00  0.45593999997E+02  0.45594000000E+02  0.51100000000E-03 0. -1.
         11   -1    0    0    0    0 -0.00000000000E+00 -0.00000000000E+00 -0.45593999997E+02  0.45594000000E+02  0.51100000000E-03 0.  1.
    9900012    2    1    2    0    0 -0.92721171149E+01  0.17065858687E+02  0.35720447980E+02  0.50528854750E+02  0.29999984498E+02 0.  0.
        -12    1    1    2    0    0  0.92721171149E+01 -0.17065858687E+02 -0.35720447980E+02  0.40659145250E+02  0.00000000000E+00 0.  1.
         11    1    3    3    0    0 -0.93443889597E+01 -0.86974079880E+00  0.14528184375E+02  0.17295727668E+02  0.51100000000E-03 0. -1.
        -11    1    3    3    0    0  0.60230791669E+01  0.71212753085E+01  0.18323495744E+02  0.20560655174E+02  0.51100000000E-03 0.  1.
        -12    1    3    3    0    0 -0.59508073221E+01  0.10814324178E+02  0.28687678623E+01  0.12672471908E+02  0.00000000000E+00 0.  1.
</event>
<event>
 7    1  0.2985411E-011  0.5052886E+02  0.7816164E-02  0.1300439E+00
        -11   -1    0    0    0    0  0.00000000000E+00  0.00000000000E+00  0.45593999997E+02  0.45594000000E+02  0.51100000000E-03 0. -1.
         11   -1    0    0    0    0 -0.00000000000E+00 -0.00000000000E+00 -0.45593999997E+02  0.45594000000E+02  0.51100000000E-03 0.  1.
    9900012    2    1    2    0    0  0.35252944237E+02 -0.14724540605E+02  0.13913437618E+02  0.50528856874E+02  0.29999990954E+02 0.  0.
        -12    1    1    2    0    0 -0.35252944237E+02  0.14724540605E+02 -0.13913437618E+02  0.40659143126E+02  0.00000000000E+00 0.  1.
         11    1    3    3    0    0  0.10701302647E+01  0.17925761981E+01 -0.24732187005E+01  0.32365597803E+01  0.51100000000E-03 0. -1.
        -11    1    3    3    0    0  0.86961857619E+01 -0.73803105046E+01 -0.53245731278E+01  0.12587442520E+02  0.51100000000E-03 0.  1.
         12    1    3    3    0    0  0.25486628211E+02 -0.91368062980E+01  0.21711229446E+02  0.34704854573E+02  0.00000000000E+00 0. -1.
</event>
<event>
 7    1  0.2985411E-011  0.5052886E+02  0.7816164E-02  0.1300439E+00
        -11   -1    0    0    0    0  0.00000000000E+00  0.00000000000E+00  0.45593999997E+02  0.45594000000E+02  0.51100000000E-03 0. -1.
         11   -1    0    0    0    0 -0.00000000000E+00 -0.00000000000E+00 -0.45593999997E+02  0.45594000000E+02  0.51100000000E-03 0.  1.
    9900012    2    1    2    0    0 -0.26760043628E+01 -0.30176328605E+02  0.27118144566E+02  0.50528861148E+02  0.30000003946E+02 0.  0.
        -12    1    1    2    0    0  0.26760043628E+01  0.30176328605E+02 -0.27118144566E+02  0.40659138852E+02  0.00000000000E+00 0.  1.
         11    1    3    3    0    0 -0.56368498741E+01 -0.12330377449E+02  0.46881634876E+01  0.14345423022E+02  0.51100000000E-03 0. -1.
        -11    1    3    3    0    0 -0.89229450685E+01 -0.81562512610E+01  0.53191042355E+01  0.13207431751E+02  0.51100000000E-03 0.  1.
        -12    1    3    3    0    0  0.11883790580E+02 -0.96896998954E+01  0.17110876843E+02  0.22976006375E+02  0.00000000000E+00 0.  1.
</event>
<event>
 7    1  0.2985411E-011  0.5052886E+02  0.7816164E-02  0.1300439E+00
        -11   -1    0    0    0    0  0.00000000000E+00  0.00000000000E+00  0.45593999997E+02  0.45594000000E+02  0.51100000000E-03 0. -1.
         11   -1    0    0    0    0 -0.00000000000E+00 -0.00000000000E+00 -0.45593999997E+02  0.45594000000E+02  0.51100000000E-03 0.  1.
    9900012    2    1    2    0    0 -0.27147699284E+01  0.12860321858E+02  0.38476066647E+02  0.50528861314E+02  0.30000004449E+02 0.  0.
        -12    1    1    2    0    0  0.27147699284E+01 -0.12860321858E+02 -0.38476066647E+02  0.40659138686E+02  0.00000000000E+00 0.  1.
         11    1    3    3    0    0  0.37017539901E+01  0.14731463304E+02  0.22197467777E+02  0.26896962090E+02  0.51100000000E-03 0. -1.
        -11    1    3    3    0    0  0.86962865733E+00 -0.45336701865E+01  0.15094544470E+02  0.15784666369E+02  0.51100000000E-03 0.  1.
         12    1    3    3    0    0 -0.72861525759E+01  0.26625287408E+01  0.11840544000E+01  0.78472328547E+01  0.00000000000E+00 0. -1.
</event>
<event>
 7    1  0.2985411E-011  0.5052886E+02  0.7816164E-02  0.1300439E+00
        -11   -1    0    0    0    0  0.00000000000E+00  0.00000000000E+00  0.45593999997E+02  0.45594000000E+02  0.51100000000E-03 0.  1.
         11   -1    0    0    0    0 -0.00000000000E+00 -0.00000000000E+00 -0.45593999997E+02  0.45594000000E+02  0.51100000000E-03 0. -1.
    9900012    2    1    2    0    0 -0.16737744991E+02  0.11687798929E+00 -0.37054014685E+02  0.50528858689E+02  0.29999996472E+02 0.  0.
        -12    1    1    2    0    0  0.16737744991E+02 -0.11687798929E+00  0.37054014685E+02  0.40659141311E+02  0.00000000000E+00 0.  1.
         11    1    3    3    0    0 -0.18723921645E+02 -0.92352133671E+01 -0.30438455617E+02  0.36910350693E+02  0.51100000000E-03 0. -1.
        -11    1    3    3    0    0  0.80096593660E+00 -0.95198765596E+00  0.12227872018E+00  0.12501117051E+01  0.51100000000E-03 0.  1.
         12    1    3    3    0    0  0.11852107177E+01  0.10304079012E+02 -0.67378377885E+01  0.12368396291E+02  0.00000000000E+00 0. -1.
</event>
<event>
 7    1  0.2985411E-011  0.5052886E+02  0.7816164E-02  0.1300439E+00
        -11   -1    0    0    0    0  0.00000000000E+00  0.00000000000E+00  0.45593999997E+02  0.45594000000E+02  0.51100000000E-03 0. -1.
         11   -1    0    0    0    0 -0.00000000000E+00 -0.00000000000E+00 -0.45593999997E+02  0.45594000000E+02  0.51100000000E-03 0.  1.
    9900012    2    1    2    0    0 -0.21850877959E+02 -0.20775265114E+02 -0.27278068956E+02  0.50528861371E+02  0.30000004623E+02 0.  0.
        -12    1    1    2    0    0  0.21850877959E+02  0.20775265114E+02  0.27278068956E+02  0.40659138629E+02  0.00000000000E+00 0.  1.
         11    1    3    3    0    0 -0.92548813602E+01 -0.16354785782E+02 -0.17308143029E+02  0.25548065726E+02  0.51100000000E-03 0. -1.
        -11    1    3    3    0    0  0.21194920162E+01 -0.47960472594E+01  0.23872554502E+01  0.57613630823E+01  0.51100000000E-03 0.  1.
         12    1    3    3    0    0 -0.14715488614E+02  0.37556792768E+00 -0.12357181377E+02  0.19219432562E+02  0.00000000000E+00 0. -1.
</event>
<event>
 7    1  0.2985411E-011  0.5052885E+02  0.7816164E-02  0.1300439E+00
        -11   -1    0    0    0    0  0.00000000000E+00  0.00000000000E+00  0.45593999997E+02  0.45594000000E+02  0.51100000000E-03 0. -1.
         11   -1    0    0    0    0 -0.00000000000E+00 -0.00000000000E+00 -0.45593999997E+02  0.45594000000E+02  0.51100000000E-03 0.  1.
    9900012    2    1    2    0    0 -0.25607344132E+02 -0.27713184493E+02  0.15146277780E+02  0.50528850982E+02  0.29999973045E+02 0.  0.
        -12    1    1    2    0    0  0.25607344132E+02  0.27713184493E+02 -0.15146277780E+02  0.40659149018E+02  0.00000000000E+00 0.  1.
         11    1    3    3    0    0  0.19960790209E+01 -0.16305314638E+01  0.54357102306E+01  0.60158050404E+01  0.51100000000E-03 0.  1.
        -11    1    3    3    0    0 -0.27331695201E+02 -0.24363794310E+02  0.14527683506E+02  0.39391237910E+02  0.51100000000E-03 0. -1.
         12    1    3    3    0    0 -0.27172795190E+00 -0.17188587196E+01 -0.48171159565E+01  0.51218080319E+01  0.00000000000E+00 0. -1.
</event>
<event>
 7    1  0.2985411E-011  0.5052885E+02  0.7816164E-02  0.1300439E+00
        -11   -1    0    0    0    0  0.00000000000E+00  0.00000000000E+00  0.45593999997E+02  0.45594000000E+02  0.51100000000E-03 0.  1.
         11   -1    0    0    0    0 -0.00000000000E+00 -0.00000000000E+00 -0.45593999997E+02  0.45594000000E+02  0.51100000000E-03 0. -1.
    9900012    2    1    2    0    0  0.17020746679E+02 -0.36890170936E+02  0.16050744641E+01  0.50528846132E+02  0.29999958304E+02 0.  0.
        -12    1    1    2    0    0 -0.17020746679E+02  0.36890170936E+02 -0.16050744641E+01  0.40659153868E+02  0.00000000000E+00 0.  1.
         11    1    3    3    0    0  0.18588000169E+01 -0.33894116652E+01 -0.11202417030E+00  0.38672727619E+01  0.51100000000E-03 0. -1.
        -11    1    3    3    0    0  0.19466234517E+02 -0.35645624183E+02  0.48783276006E+01  0.40906514030E+02  0.51100000000E-03 0.  1.
         12    1    3    3    0    0 -0.43042878551E+01  0.21448649122E+01 -0.31612289663E+01  0.57550593401E+01  0.00000000000E+00 0. -1.
</event>
<event>
 7    1  0.2985411E-011  0.5052886E+02  0.7816164E-02  0.1300439E+00
        -11   -1    0    0    0    0  0.00000000000E+00  0.00000000000E+00  0.45593999997E+02  0.45594000000E+02  0.51100000000E-03 0.  1.
         11   -1    0    0    0    0 -0.00000000000E+00 -0.00000000000E+00 -0.45593999997E+02  0.45594000000E+02  0.51100000000E-03 0. -1.
    9900012    2    1    2    0    0 -0.36320638901E+02  0.52740761187E+01 -0.17497462115E+02  0.50528857491E+02  0.29999992830E+02 0.  0.
        -12    1    1    2    0    0  0.36320638901E+02 -0.52740761187E+01  0.17497462115E+02  0.40659142509E+02  0.00000000000E+00 0.  1.
         11    1    3    3    0    0 -0.25013502763E+02  0.60866571908E+01 -0.22875608563E+01  0.25844837998E+02  0.51100000000E-03 0.  1.
        -11    1    3    3    0    0 -0.11613728607E+02  0.50414197402E+01 -0.66269242784E+01  0.14290232007E+02  0.51100000000E-03 0. -1.
        -12    1    3    3    0    0  0.30659246909E+00 -0.58540008123E+01 -0.85829769802E+01  0.10393787486E+02  0.00000000000E+00 0.  1.
</event>
<event>
 7    1  0.2985411E-011  0.5052888E+02  0.7816164E-02  0.1300439E+00
        -11   -1    0    0    0    0  0.00000000000E+00  0.00000000000E+00  0.45593999997E+02  0.45594000000E+02  0.51100000000E-03 0.  1.
         11   -1    0    0    0    0 -0.00000000000E+00 -0.00000000000E+00 -0.45593999997E+02  0.45594000000E+02  0.51100000000E-03 0. -1.
    9900012    2    1    2    0    0  0.17867623314E+02  0.20659065121E+02 -0.30118348813E+02  0.50528882083E+02  0.30000067580E+02 0.  0.
        -12    1    1    2    0    0 -0.17867623314E+02 -0.20659065121E+02  0.30118348813E+02  0.40659117917E+02  0.00000000000E+00 0.  1.
         11    1    3    3    0    0  0.93582138052E+01  0.11647231456E+02 -0.36883825183E+01  0.15389552692E+02  0.51100000000E-03 0. -1.
        -11    1    3    3    0    0  0.95544292238E+01  0.14464414619E+02 -0.17559535097E+02  0.24674757975E+02  0.51100000000E-03 0.  1.
        -12    1    3    3    0    0 -0.10450197150E+01 -0.54525809546E+01 -0.88704311980E+01  0.10464571415E+02  0.00000000000E+00 0.  1.
</event>
<event>
 7    1  0.2985411E-011  0.5052885E+02  0.7816164E-02  0.1300439E+00
        -11   -1    0    0    0    0  0.00000000000E+00  0.00000000000E+00  0.45593999997E+02  0.45594000000E+02  0.51100000000E-03 0.  1.
         11   -1    0    0    0    0 -0.00000000000E+00 -0.00000000000E+00 -0.45593999997E+02  0.45594000000E+02  0.51100000000E-03 0. -1.
    9900012    2    1    2    0    0  0.16262378701E+02 -0.33181841131E+02  0.16960737476E+02  0.50528853949E+02  0.29999982063E+02 0.  0.
        -12    1    1    2    0    0 -0.16262378701E+02  0.33181841131E+02 -0.16960737476E+02  0.40659146051E+02  0.00000000000E+00 0.  1.
         11    1    3    3    0    0  0.26590650365E+01  0.28353018497E+01  0.33478606675E+00  0.39014927167E+01  0.51100000000E-03 0. -1.
        -11    1    3    3    0    0 -0.16730868108E+01 -0.19136430194E+02  0.14456970611E+01  0.19263754055E+02  0.51100000000E-03 0.  1.
         12    1    3    3    0    0  0.15276400475E+02 -0.16880712787E+02  0.15180254349E+02  0.27363607177E+02  0.00000000000E+00 0. -1.
</event>
<event>
 7    1  0.2985411E-011  0.5052887E+02  0.7816164E-02  0.1300439E+00
        -11   -1    0    0    0    0  0.00000000000E+00  0.00000000000E+00  0.45593999997E+02  0.45594000000E+02  0.51100000000E-03 0. -1.
         11   -1    0    0    0    0 -0.00000000000E+00 -0.00000000000E+00 -0.45593999997E+02  0.45594000000E+02  0.51100000000E-03 0.  1.
    9900012    2    1    2    0    0 -0.12373250702E+01 -0.32253115583E+02  0.24725897891E+02  0.50528874768E+02  0.30000045345E+02 0.  0.
        -12    1    1    2    0    0  0.12373250702E+01  0.32253115583E+02 -0.24725897891E+02  0.40659125232E+02  0.00000000000E+00 0.  1.
         11    1    3    3    0    0  0.12229264888E+01  0.22463640823E+01  0.11657004402E+01  0.28107932269E+01  0.51100000000E-03 0. -1.
        -11    1    3    3    0    0 -0.25427220291E+00  0.30812956408E+01 -0.36492815187E+00  0.31132314396E+01  0.51100000000E-03 0.  1.
         12    1    3    3    0    0 -0.22059793561E+01 -0.37580775306E+02  0.23925125602E+02  0.44604850102E+02  0.00000000000E+00 0. -1.
</event>
<event>
 7    1  0.2985411E-011  0.5052886E+02  0.7816164E-02  0.1300439E+00
        -11   -1    0    0    0    0  0.00000000000E+00  0.00000000000E+00  0.45593999997E+02  0.45594000000E+02  0.51100000000E-03 0.  1.
         11   -1    0    0    0    0 -0.00000000000E+00 -0.00000000000E+00 -0.45593999997E+02  0.45594000000E+02  0.51100000000E-03 0. -1.
    9900012    2    1    2    0    0  0.37261347531E+02 -0.14313605701E+02 -0.77380947628E+01  0.50528862792E+02  0.30000008941E+02 0.  0.
        -12    1    1    2    0    0 -0.37261347531E+02  0.14313605701E+02  0.77380947628E+01  0.40659137208E+02  0.00000000000E+00 0.  1.
         11    1    3    3    0    0  0.74737468872E+01  0.39806034862E+01  0.68228173325E+01  0.10874416456E+02  0.51100000000E-03 0.  1.
        -11    1    3    3    0    0  0.45236276547E+01 -0.87744355038E+01 -0.43923851344E+01  0.10804951319E+02  0.51100000000E-03 0. -1.
        -12    1    3    3    0    0  0.25263972989E+02 -0.95197736834E+01 -0.10168526961E+02  0.28849495017E+02  0.00000000000E+00 0.  1.
</event>
<event>
 7    1  0.2985411E-011  0.5052887E+02  0.7816164E-02  0.1300439E+00
        -11   -1    0    0    0    0  0.00000000000E+00  0.00000000000E+00  0.45593999997E+02  0.45594000000E+02  0.51100000000E-03 0.  1.
         11   -1    0    0    0    0 -0.00000000000E+00 -0.00000000000E+00 -0.45593999997E+02  0.45594000000E+02  0.51100000000E-03 0. -1.
    9900012    2    1    2    0    0  0.26087074473E+02 -0.24791689633E+02  0.18920930907E+02  0.50528868728E+02  0.30000026986E+02 0.  0.
        -12    1    1    2    0    0 -0.26087074473E+02  0.24791689633E+02 -0.18920930907E+02  0.40659131272E+02  0.00000000000E+00 0.  1.
         11    1    3    3    0    0  0.98248933522E+01 -0.70410034452E+01  0.11003301109E+02  0.16345546625E+02  0.51100000000E-03 0. -1.
        -11    1    3    3    0    0  0.26580221583E+01 -0.11798604591E+02  0.13675993312E+02  0.18256641132E+02  0.51100000000E-03 0.  1.
        -12    1    3    3    0    0  0.13604158963E+02 -0.59520815962E+01 -0.57583635144E+01  0.15926680972E+02  0.00000000000E+00 0.  1.
</event>
<event>
 7    1  0.2985411E-011  0.5052886E+02  0.7816164E-02  0.1300439E+00
        -11   -1    0    0    0    0  0.00000000000E+00  0.00000000000E+00  0.45593999997E+02  0.45594000000E+02  0.51100000000E-03 0.  1.
         11   -1    0    0    0    0 -0.00000000000E+00 -0.00000000000E+00 -0.45593999997E+02  0.45594000000E+02  0.51100000000E-03 0. -1.
    9900012    2    1    2    0    0  0.52212110731E+01 -0.10118976234E+02 -0.39032175328E+02  0.50528862823E+02  0.30000009038E+02 0.  0.
        -12    1    1    2    0    0 -0.52212110731E+01  0.10118976234E+02  0.39032175328E+02  0.40659137177E+02  0.00000000000E+00 0.  1.
         11    1    3    3    0    0  0.10464111650E+01 -0.54448564694E+01 -0.79370942550E+00  0.56010189440E+01  0.51100000000E-03 0. -1.
        -11    1    3    3    0    0 -0.26902177491E+01  0.39120968194E+01  0.39166682562E+00  0.47639454473E+01  0.51100000000E-03 0.  1.
        -12    1    3    3    0    0  0.68650176571E+01 -0.85862165841E+01 -0.38630132728E+02  0.40163898432E+02  0.00000000000E+00 0.  1.
</event>
<event>
 7    1  0.2985411E-011  0.5052886E+02  0.7816164E-02  0.1300439E+00
        -11   -1    0    0    0    0  0.00000000000E+00  0.00000000000E+00  0.45593999997E+02  0.45594000000E+02  0.51100000000E-03 0. -1.
         11   -1    0    0    0    0 -0.00000000000E+00 -0.00000000000E+00 -0.45593999997E+02  0.45594000000E+02  0.51100000000E-03 0.  1.
    9900012    2    1    2    0    0 -0.12633852778E+01  0.37369606057E+02  0.15971292245E+02  0.50528858652E+02  0.29999996358E+02 0.  0.
        -12    1    1    2    0    0  0.12633852778E+01 -0.37369606057E+02 -0.15971292245E+02  0.40659141348E+02  0.00000000000E+00 0.  1.
         11    1    3    3    0    0  0.83688524421E+01  0.31124219681E+01  0.16568502888E+01  0.90813002838E+01  0.51100000000E-03 0. -1.
        -11    1    3    3    0    0 -0.11538025703E+01 -0.65981110793E+00 -0.16586987026E+01  0.21255335134E+01  0.51100000000E-03 0.  1.
         12    1    3    3    0    0 -0.84784351496E+01  0.34916995197E+02  0.15973140659E+02  0.39322024854E+02  0.00000000000E+00 0. -1.
</event>
<event>
 7    1  0.2985411E-011  0.5052886E+02  0.7816164E-02  0.1300439E+00
        -11   -1    0    0    0    0  0.00000000000E+00  0.00000000000E+00  0.45593999997E+02  0.45594000000E+02  0.51100000000E-03 0.  1.
         11   -1    0    0    0    0 -0.00000000000E+00 -0.00000000000E+00 -0.45593999997E+02  0.45594000000E+02  0.51100000000E-03 0. -1.
    9900012    2    1    2    0    0  0.13006856544E+02  0.24245494569E+02 -0.29935650285E+02  0.50528862257E+02  0.30000007315E+02 0.  0.
        -12    1    1    2    0    0 -0.13006856544E+02 -0.24245494569E+02  0.29935650285E+02  0.40659137743E+02  0.00000000000E+00 0.  1.
         11    1    3    3    0    0  0.12906736537E+01  0.12070673392E+01 -0.11279596788E+02  0.11417186781E+02  0.51100000000E-03 0. -1.
        -11    1    3    3    0    0  0.11899505545E+02  0.81324211843E+01 -0.19421024995E+02  0.24184927510E+02  0.51100000000E-03 0.  1.
         12    1    3    3    0    0 -0.18332265529E+00  0.14906006046E+02  0.76497149766E+00  0.14926747966E+02  0.00000000000E+00 0. -1.
</event>
<event>
 7    1  0.2985411E-011  0.5052885E+02  0.7816164E-02  0.1300439E+00
        -11   -1    0    0    0    0  0.00000000000E+00  0.00000000000E+00  0.45593999997E+02  0.45594000000E+02  0.51100000000E-03 0.  1.
         11   -1    0    0    0    0 -0.00000000000E+00 -0.00000000000E+00 -0.45593999997E+02  0.45594000000E+02  0.51100000000E-03 0. -1.
    9900012    2    1    2    0    0 -0.37743397329E+02  0.54887854798E+01 -0.14088128837E+02  0.50528853647E+02  0.29999981146E+02 0.  0.
        -12    1    1    2    0    0  0.37743397329E+02 -0.54887854798E+01  0.14088128837E+02  0.40659146353E+02  0.00000000000E+00 0.  1.
         11    1    3    3    0    0 -0.28149260583E+02  0.13935618806E+02 -0.31545151960E+01  0.31567915821E+02  0.51100000000E-03 0. -1.
        -11    1    3    3    0    0 -0.88804033911E+01 -0.31216794097E+01 -0.95577292219E+01  0.13414791645E+02  0.51100000000E-03 0.  1.
        -12    1    3    3    0    0 -0.71373335525E+00 -0.53251539167E+01 -0.13758844189E+01  0.55461461821E+01  0.00000000000E+00 0.  1.
</event>
<event>
 7    1  0.2985411E-011  0.5052885E+02  0.7816164E-02  0.1300439E+00
        -11   -1    0    0    0    0  0.00000000000E+00  0.00000000000E+00  0.45593999997E+02  0.45594000000E+02  0.51100000000E-03 0.  1.
         11   -1    0    0    0    0 -0.00000000000E+00 -0.00000000000E+00 -0.45593999997E+02  0.45594000000E+02  0.51100000000E-03 0. -1.
    9900012    2    1    2    0    0 -0.18370485652E+02 -0.10535344036E+02 -0.34708766289E+02  0.50528847595E+02  0.29999962748E+02 0.  0.
        -12    1    1    2    0    0  0.18370485652E+02  0.10535344036E+02  0.34708766289E+02  0.40659152405E+02  0.00000000000E+00 0.  1.
         11    1    3    3    0    0 -0.91146324224E+01  0.88218703962E+01 -0.22122425618E+02  0.25501051683E+02  0.51100000000E-03 0. -1.
        -11    1    3    3    0    0 -0.10851207502E+01 -0.82414791585E+00 -0.56815108281E+00  0.14763139042E+01  0.51100000000E-03 0.  1.
         12    1    3    3    0    0 -0.81707324798E+01 -0.18533066516E+02 -0.12018189588E+02  0.23551482007E+02  0.00000000000E+00 0. -1.
</event>
<event>
 7    1  0.2985411E-011  0.5052886E+02  0.7816164E-02  0.1300439E+00
        -11   -1    0    0    0    0  0.00000000000E+00  0.00000000000E+00  0.45593999997E+02  0.45594000000E+02  0.51100000000E-03 0.  1.
         11   -1    0    0    0    0 -0.00000000000E+00 -0.00000000000E+00 -0.45593999997E+02  0.45594000000E+02  0.51100000000E-03 0. -1.
    9900012    2    1    2    0    0 -0.11987008878E+02  0.30619783667E+02 -0.23914551099E+02  0.50528864644E+02  0.30000014571E+02 0.  0.
        -12    1    1    2    0    0  0.11987008878E+02 -0.30619783667E+02  0.23914551099E+02  0.40659135356E+02  0.00000000000E+00 0.  1.
         11    1    3    3    0    0 -0.11893373841E+02  0.78238361215E+01 -0.37675917607E+01  0.14726150241E+02  0.51100000000E-03 0.  1.
        -11    1    3    3    0    0  0.21822294850E+00  0.25841051077E+02 -0.15186874781E+02  0.29974133981E+02  0.51100000000E-03 0. -1.
         12    1    3    3    0    0 -0.31185798593E+00 -0.30451035319E+01 -0.49600845579E+01  0.58285804227E+01  0.00000000000E+00 0. -1.
</event>
<event>
 7    1  0.2985411E-011  0.5052886E+02  0.7816164E-02  0.1300439E+00
        -11   -1    0    0    0    0  0.00000000000E+00  0.00000000000E+00  0.45593999997E+02  0.45594000000E+02  0.51100000000E-03 0.  1.
         11   -1    0    0    0    0 -0.00000000000E+00 -0.00000000000E+00 -0.45593999997E+02  0.45594000000E+02  0.51100000000E-03 0. -1.
    9900012    2    1    2    0    0  0.63113497673E+01  0.56894813445E+01 -0.39761316123E+02  0.50528860884E+02  0.30000003143E+02 0.  0.
        -12    1    1    2    0    0 -0.63113497673E+01 -0.56894813445E+01  0.39761316123E+02  0.40659139116E+02  0.00000000000E+00 0.  1.
         11    1    3    3    0    0 -0.56803947518E+01 -0.84961069395E+01 -0.81966323610E+01  0.13100973246E+02  0.51100000000E-03 0. -1.
        -11    1    3    3    0    0  0.11340178265E+00 -0.35480852022E+00 -0.43444633503E+01  0.43604026320E+01  0.51100000000E-03 0.  1.
        -12    1    3    3    0    0  0.11878342736E+02  0.14540396804E+02 -0.27220220411E+02  0.33067485006E+02  0.00000000000E+00 0.  1.
</event>
<event>
 7    1  0.2985411E-011  0.5052884E+02  0.7816164E-02  0.1300439E+00
        -11   -1    0    0    0    0  0.00000000000E+00  0.00000000000E+00  0.45593999997E+02  0.45594000000E+02  0.51100000000E-03 0. -1.
         11   -1    0    0    0    0 -0.00000000000E+00 -0.00000000000E+00 -0.45593999997E+02  0.45594000000E+02  0.51100000000E-03 0.  1.
    9900012    2    1    2    0    0  0.31841008818E+02 -0.16402137381E+02  0.19242860935E+02  0.50528835595E+02  0.29999926273E+02 0.  0.
        -12    1    1    2    0    0 -0.31841008818E+02  0.16402137381E+02 -0.19242860935E+02  0.40659164405E+02  0.00000000000E+00 0.  1.
         11    1    3    3    0    0  0.11329933634E+02 -0.85126830528E+01  0.79845967357E+01  0.16266129048E+02  0.51100000000E-03 0. -1.
        -11    1    3    3    0    0  0.94502937614E+01 -0.10658425226E+02  0.16427686388E+02  0.21743480881E+02  0.51100000000E-03 0.  1.
        -12    1    3    3    0    0  0.11060781422E+02  0.27689708987E+01 -0.51694221889E+01  0.12519225666E+02  0.00000000000E+00 0.  1.
</event>
<event>
 7    1  0.2985411E-011  0.5052886E+02  0.7816164E-02  0.1300439E+00
        -11   -1    0    0    0    0  0.00000000000E+00  0.00000000000E+00  0.45593999997E+02  0.45594000000E+02  0.51100000000E-03 0.  1.
         11   -1    0    0    0    0 -0.00000000000E+00 -0.00000000000E+00 -0.45593999997E+02  0.45594000000E+02  0.51100000000E-03 0. -1.
    9900012    2    1    2    0    0 -0.42373226330E+01  0.28572280931E+02  0.28615302843E+02  0.50528859607E+02  0.29999999261E+02 0.  0.
        -12    1    1    2    0    0  0.42373226330E+01 -0.28572280931E+02 -0.28615302843E+02  0.40659140393E+02  0.00000000000E+00 0.  1.
         11    1    3    3    0    0 -0.65936955753E+01  0.17477504134E+02  0.14141923161E+02  0.23429339791E+02  0.51100000000E-03 0. -1.
        -11    1    3    3    0    0  0.74808354713E+01  0.13040996775E+02  0.44565797941E+01  0.15680931094E+02  0.51100000000E-03 0.  1.
         12    1    3    3    0    0 -0.51244625291E+01 -0.19462199779E+01  0.10016799888E+02  0.11418588722E+02  0.00000000000E+00 0. -1.
</event>
<event>
 7    1  0.2985411E-011  0.5052886E+02  0.7816164E-02  0.1300439E+00
        -11   -1    0    0    0    0  0.00000000000E+00  0.00000000000E+00  0.45593999997E+02  0.45594000000E+02  0.51100000000E-03 0. -1.
         11   -1    0    0    0    0 -0.00000000000E+00 -0.00000000000E+00 -0.45593999997E+02  0.45594000000E+02  0.51100000000E-03 0.  1.
    9900012    2    1    2    0    0  0.16250426460E+02 -0.20097971788E+02  0.31387268309E+02  0.50528862749E+02  0.30000008812E+02 0.  0.
        -12    1    1    2    0    0 -0.16250426460E+02  0.20097971788E+02 -0.31387268309E+02  0.40659137251E+02  0.00000000000E+00 0.  1.
         11    1    3    3    0    0  0.61003728803E+01 -0.83419436749E+01  0.73565813067E+01  0.12685498112E+02  0.51100000000E-03 0. -1.
        -11    1    3    3    0    0  0.56208379148E+01 -0.17764179500E+02  0.82827101119E+01  0.20390271681E+02  0.51100000000E-03 0.  1.
        -12    1    3    3    0    0  0.45292156648E+01  0.60081513870E+01  0.15747976890E+02  0.17453092957E+02  0.00000000000E+00 0.  1.
</event>
<event>
 7    1  0.2985411E-011  0.5052885E+02  0.7816164E-02  0.1300439E+00
        -11   -1    0    0    0    0  0.00000000000E+00  0.00000000000E+00  0.45593999997E+02  0.45594000000E+02  0.51100000000E-03 0.  1.
         11   -1    0    0    0    0 -0.00000000000E+00 -0.00000000000E+00 -0.45593999997E+02  0.45594000000E+02  0.51100000000E-03 0. -1.
    9900012    2    1    2    0    0  0.26987192975E+02  0.15433504796E+02 -0.26204284777E+02  0.50528853481E+02  0.29999980641E+02 0.  0.
        -12    1    1    2    0    0 -0.26987192975E+02 -0.15433504796E+02  0.26204284777E+02  0.40659146519E+02  0.00000000000E+00 0.  1.
         11    1    3    3    0    0  0.74731292674E+01  0.43157937165E+01 -0.69435029842E+01  0.11076369911E+02  0.51100000000E-03 0. -1.
        -11    1    3    3    0    0  0.24702164569E+02  0.13274295498E+02 -0.12614132500E+02  0.30749312095E+02  0.51100000000E-03 0.  1.
        -12    1    3    3    0    0 -0.51881008608E+01 -0.21565844185E+01 -0.66466492930E+01  0.87031714748E+01  0.00000000000E+00 0.  1.
</event>
<event>
 7    1  0.2985411E-011  0.5052887E+02  0.7816164E-02  0.1300439E+00
        -11   -1    0    0    0    0  0.00000000000E+00  0.00000000000E+00  0.45593999997E+02  0.45594000000E+02  0.51100000000E-03 0. -1.
         11   -1    0    0    0    0 -0.00000000000E+00 -0.00000000000E+00 -0.45593999997E+02  0.45594000000E+02  0.51100000000E-03 0.  1.
    9900012    2    1    2    0    0 -0.33970838129E+02  0.94088550124E+01  0.20263762372E+02  0.50528874809E+02  0.30000045470E+02 0.  0.
        -12    1    1    2    0    0  0.33970838129E+02 -0.94088550124E+01 -0.20263762372E+02  0.40659125191E+02  0.00000000000E+00 0.  1.
         11    1    3    3    0    0  0.26665415440E+01 -0.40418209326E+01  0.51768043366E+01  0.70884457858E+01  0.51100000000E-03 0.  1.
        -11    1    3    3    0    0 -0.14810271683E+02  0.93863192240E+01  0.19488439827E+01  0.17642140716E+02  0.51100000000E-03 0. -1.
        -12    1    3    3    0    0 -0.21827107990E+02  0.40643567210E+01  0.13138114052E+02  0.25798288308E+02  0.00000000000E+00 0.  1.
</event>
<event>
 7    1  0.2985411E-011  0.5052899E+02  0.7816164E-02  0.1300438E+00
        -11   -1    0    0    0    0  0.00000000000E+00  0.00000000000E+00  0.45593999997E+02  0.45594000000E+02  0.51100000000E-03 0. -1.
         11   -1    0    0    0    0 -0.00000000000E+00 -0.00000000000E+00 -0.45593999997E+02  0.45594000000E+02  0.51100000000E-03 0.  1.
    9900012    2    1    2    0    0  0.13922840085E+02 -0.31653721784E+02  0.21385780936E+02  0.50528988636E+02  0.30000391457E+02 0.  0.
        -12    1    1    2    0    0 -0.13922840085E+02  0.31653721784E+02 -0.21385780936E+02  0.40659011364E+02  0.00000000000E+00 0.  1.
         11    1    3    3    0    0  0.36330526534E+01 -0.26867379745E+02  0.28003268781E+01  0.27256136866E+02  0.51100000000E-03 0. -1.
        -11    1    3    3    0    0  0.79827250730E+01 -0.80603459092E+00  0.64495266790E+01  0.10294172429E+02  0.51100000000E-03 0.  1.
        -12    1    3    3    0    0  0.23070623583E+01 -0.39803074480E+01  0.12135927379E+02  0.12978679341E+02  0.00000000000E+00 0.  1.
</event>
<event>
 7    1  0.2985411E-011  0.5052885E+02  0.7816164E-02  0.1300439E+00
        -11   -1    0    0    0    0  0.00000000000E+00  0.00000000000E+00  0.45593999997E+02  0.45594000000E+02  0.51100000000E-03 0.  1.
         11   -1    0    0    0    0 -0.00000000000E+00 -0.00000000000E+00 -0.45593999997E+02  0.45594000000E+02  0.51100000000E-03 0. -1.
    9900012    2    1    2    0    0  0.26491906612E+02 -0.25402543151E+01 -0.30739100413E+02  0.50528852172E+02  0.29999976662E+02 0.  0.
        -12    1    1    2    0    0 -0.26491906612E+02  0.25402543151E+01  0.30739100413E+02  0.40659147828E+02  0.00000000000E+00 0.  1.
         11    1    3    3    0    0  0.18423153879E+02  0.54833857385E+01 -0.15946154199E+02  0.24975186726E+02  0.51100000000E-03 0. -1.
        -11    1    3    3    0    0  0.81273659561E+00  0.37207214980E+01  0.15924308024E+01  0.41279710950E+01  0.51100000000E-03 0.  1.
         12    1    3    3    0    0  0.72560161368E+01 -0.11744361552E+02 -0.16385377016E+02  0.21425694351E+02  0.00000000000E+00 0. -1.
</event>
<event>
 7    1  0.2985411E-011  0.5052886E+02  0.7816164E-02  0.1300439E+00
        -11   -1    0    0    0    0  0.00000000000E+00  0.00000000000E+00  0.45593999997E+02  0.45594000000E+02  0.51100000000E-03 0.  1.
         11   -1    0    0    0    0 -0.00000000000E+00 -0.00000000000E+00 -0.45593999997E+02  0.45594000000E+02  0.51100000000E-03 0. -1.
    9900012    2    1    2    0    0 -0.41862867198E+00  0.39893883058E+02 -0.78401627199E+01  0.50528864410E+02  0.30000013861E+02 0.  0.
        -12    1    1    2    0    0  0.41862867198E+00 -0.39893883058E+02  0.78401627199E+01  0.40659135590E+02  0.00000000000E+00 0.  1.
         11    1    3    3    0    0  0.25380934472E+01 -0.20674931230E+01 -0.13316585795E+01  0.35340855952E+01  0.51100000000E-03 0. -1.
        -11    1    3    3    0    0  0.21588940614E+01 -0.15935026294E+01 -0.52538699815E+00  0.27342468720E+01  0.51100000000E-03 0.  1.
         12    1    3    3    0    0 -0.51156161806E+01  0.43554878811E+02 -0.59831171423E+01  0.44260531943E+02  0.00000000000E+00 0. -1.
</event>
<event>
 7    1  0.2985411E-011  0.5052894E+02  0.7816164E-02  0.1300439E+00
        -11   -1    0    0    0    0  0.00000000000E+00  0.00000000000E+00  0.45593999997E+02  0.45594000000E+02  0.51100000000E-03 0. -1.
         11   -1    0    0    0    0 -0.00000000000E+00 -0.00000000000E+00 -0.45593999997E+02  0.45594000000E+02  0.51100000000E-03 0.  1.
    9900012    2    1    2    0    0  0.27451859171E+02  0.27819282347E+02  0.11209014099E+02  0.50528941485E+02  0.30000248136E+02 0.  0.
        -12    1    1    2    0    0 -0.27451859171E+02 -0.27819282347E+02 -0.11209014099E+02  0.40659058515E+02  0.00000000000E+00 0.  1.
         11    1    3    3    0    0 -0.54784418250E+00  0.59109999765E+01  0.33604084622E+01  0.68214660641E+01  0.51100000000E-03 0. -1.
        -11    1    3    3    0    0  0.15832106277E+02  0.24391306546E+02  0.10666118732E+02  0.30973496949E+02  0.51100000000E-03 0.  1.
        -12    1    3    3    0    0  0.12167597076E+02 -0.24830241750E+01 -0.28175130951E+01  0.12733978471E+02  0.00000000000E+00 0.  1.
</event>
<event>
 7    1  0.2985411E-011  0.5052885E+02  0.7816164E-02  0.1300439E+00
        -11   -1    0    0    0    0  0.00000000000E+00  0.00000000000E+00  0.45593999997E+02  0.45594000000E+02  0.51100000000E-03 0.  1.
         11   -1    0    0    0    0 -0.00000000000E+00 -0.00000000000E+00 -0.45593999997E+02  0.45594000000E+02  0.51100000000E-03 0. -1.
    9900012    2    1    2    0    0  0.24491296710E+02 -0.43289643318E+01 -0.32165243598E+02  0.50528850446E+02  0.29999971416E+02 0.  0.
        -12    1    1    2    0    0 -0.24491296710E+02  0.43289643318E+01  0.32165243598E+02  0.40659149554E+02  0.00000000000E+00 0.  1.
         11    1    3    3    0    0  0.54311624780E+01 -0.24132895328E+00 -0.62208871760E+01  0.82616707175E+01  0.51100000000E-03 0. -1.
        -11    1    3    3    0    0  0.15716906051E+02 -0.45175174267E-01  0.82235774468E-01  0.15717186122E+02  0.51100000000E-03 0.  1.
         12    1    3    3    0    0  0.33432281815E+01 -0.40424602043E+01 -0.26026592196E+02  0.26549993607E+02  0.00000000000E+00 0. -1.
</event>
<event>
 7    1  0.2985411E-011  0.5052886E+02  0.7816164E-02  0.1300439E+00
        -11   -1    0    0    0    0  0.00000000000E+00  0.00000000000E+00  0.45593999997E+02  0.45594000000E+02  0.51100000000E-03 0.  1.
         11   -1    0    0    0    0 -0.00000000000E+00 -0.00000000000E+00 -0.45593999997E+02  0.45594000000E+02  0.51100000000E-03 0. -1.
    9900012    2    1    2    0    0  0.18793319227E+02  0.27200601011E+02 -0.23666518053E+02  0.50528860564E+02  0.30000002169E+02 0.  0.
        -12    1    1    2    0    0 -0.18793319227E+02 -0.27200601011E+02  0.23666518053E+02  0.40659139436E+02  0.00000000000E+00 0.  1.
         11    1    3    3    0    0  0.15047875305E+02  0.68933366512E+01 -0.10677059167E+02  0.19696604634E+02  0.51100000000E-03 0. -1.
        -11    1    3    3    0    0  0.10048271497E+02  0.14610168712E+02 -0.13551825924E+02  0.22317633745E+02  0.51100000000E-03 0.  1.
        -12    1    3    3    0    0 -0.63028275743E+01  0.56970956484E+01  0.56236703853E+00  0.85146221845E+01  0.00000000000E+00 0.  1.
</event>
<event>
 7    1  0.2985411E-011  0.5052886E+02  0.7816164E-02  0.1300439E+00
        -11   -1    0    0    0    0  0.00000000000E+00  0.00000000000E+00  0.45593999997E+02  0.45594000000E+02  0.51100000000E-03 0.  1.
         11   -1    0    0    0    0 -0.00000000000E+00 -0.00000000000E+00 -0.45593999997E+02  0.45594000000E+02  0.51100000000E-03 0. -1.
    9900012    2    1    2    0    0  0.14453209834E+02 -0.12652090700E+02 -0.35835663962E+02  0.50528862218E+02  0.30000007199E+02 0.  0.
        -12    1    1    2    0    0 -0.14453209834E+02  0.12652090700E+02  0.35835663962E+02  0.40659137782E+02  0.00000000000E+00 0.  1.
         11    1    3    3    0    0 -0.79304270989E+00 -0.56001704141E+01 -0.12619719468E+01  0.57951185374E+01  0.51100000000E-03 0. -1.
        -11    1    3    3    0    0  0.73316278813E+01 -0.15241577621E+02 -0.18957775228E+02  0.25405820153E+02  0.51100000000E-03 0.  1.
         12    1    3    3    0    0  0.79146246625E+01  0.81896573354E+01 -0.15615916787E+02  0.19327923528E+02  0.00000000000E+00 0. -1.
</event>
<event>
 7    1  0.2985411E-011  0.5052885E+02  0.7816164E-02  0.1300439E+00
        -11   -1    0    0    0    0  0.00000000000E+00  0.00000000000E+00  0.45593999997E+02  0.45594000000E+02  0.51100000000E-03 0. -1.
         11   -1    0    0    0    0 -0.00000000000E+00 -0.00000000000E+00 -0.45593999997E+02  0.45594000000E+02  0.51100000000E-03 0.  1.
    9900012    2    1    2    0    0 -0.18676872240E+02 -0.66409943138E+01  0.35499827938E+02  0.50528854094E+02  0.29999982504E+02 0.  0.
        -12    1    1    2    0    0  0.18676872240E+02  0.66409943138E+01 -0.35499827938E+02  0.40659145906E+02  0.00000000000E+00 0.  1.
         11    1    3    3    0    0 -0.19437731834E+02  0.40613465006E+01  0.25874134406E+02  0.32615805766E+02  0.51100000000E-03 0. -1.
        -11    1    3    3    0    0 -0.53119442051E+00  0.20449752984E+01  0.46764354497E+00  0.21639737128E+01  0.51100000000E-03 0.  1.
         12    1    3    3    0    0  0.12920540146E+01 -0.12747316113E+02  0.91580499879E+01  0.15749074615E+02  0.00000000000E+00 0. -1.
</event>
<event>
 7    1  0.2985411E-011  0.5052882E+02  0.7816164E-02  0.1300439E+00
        -11   -1    0    0    0    0  0.00000000000E+00  0.00000000000E+00  0.45593999997E+02  0.45594000000E+02  0.51100000000E-03 0. -1.
         11   -1    0    0    0    0 -0.00000000000E+00 -0.00000000000E+00 -0.45593999997E+02  0.45594000000E+02  0.51100000000E-03 0.  1.
    9900012    2    1    2    0    0 -0.35026981441E+02  0.11237911474E+02  0.17320190451E+02  0.50528818006E+02  0.29999872810E+02 0.  0.
        -12    1    1    2    0    0  0.35026981441E+02 -0.11237911474E+02 -0.17320190451E+02  0.40659181994E+02  0.00000000000E+00 0.  1.
         11    1    3    3    0    0 -0.16298424063E+02  0.13687404758E+02  0.11696695420E+02  0.24285723377E+02  0.51100000000E-03 0. -1.
        -11    1    3    3    0    0  0.26800582190E+01  0.24049657198E+01  0.79679326560E-01  0.36017941678E+01  0.51100000000E-03 0.  1.
         12    1    3    3    0    0 -0.21408615597E+02 -0.48544590034E+01  0.55438157052E+01  0.22641300461E+02  0.00000000000E+00 0. -1.
</event>
<event>
 7    1  0.2985411E-011  0.5052886E+02  0.7816164E-02  0.1300439E+00
        -11   -1    0    0    0    0  0.00000000000E+00  0.00000000000E+00  0.45593999997E+02  0.45594000000E+02  0.51100000000E-03 0. -1.
         11   -1    0    0    0    0 -0.00000000000E+00 -0.00000000000E+00 -0.45593999997E+02  0.45594000000E+02  0.51100000000E-03 0.  1.
    9900012    2    1    2    0    0 -0.31745585152E+02 -0.22579952054E+02 -0.11641686142E+02  0.50528864893E+02  0.30000015330E+02 0.  0.
        -12    1    1    2    0    0  0.31745585152E+02  0.22579952054E+02  0.11641686142E+02  0.40659135107E+02  0.00000000000E+00 0.  1.
         11    1    3    3    0    0 -0.88171499231E+01 -0.53095535580E+01 -0.62962183927E+01  0.12065482090E+02  0.51100000000E-03 0. -1.
        -11    1    3    3    0    0 -0.34419648479E+00  0.90317713324E+00 -0.91726602515E+01  0.92234427686E+01  0.51100000000E-03 0.  1.
         12    1    3    3    0    0 -0.22584238744E+02 -0.18173575630E+02  0.38271925023E+01  0.29239940035E+02  0.00000000000E+00 0. -1.
</event>
<event>
 7    1  0.2985411E-011  0.5052886E+02  0.7816164E-02  0.1300439E+00
        -11   -1    0    0    0    0  0.00000000000E+00  0.00000000000E+00  0.45593999997E+02  0.45594000000E+02  0.51100000000E-03 0.  1.
         11   -1    0    0    0    0 -0.00000000000E+00 -0.00000000000E+00 -0.45593999997E+02  0.45594000000E+02  0.51100000000E-03 0. -1.
    9900012    2    1    2    0    0 -0.29555044596E+02 -0.23451545500E+02 -0.15155516033E+02  0.50528864328E+02  0.30000013611E+02 0.  0.
        -12    1    1    2    0    0  0.29555044596E+02  0.23451545500E+02  0.15155516033E+02  0.40659135672E+02  0.00000000000E+00 0.  1.
         11    1    3    3    0    0 -0.89567629197E+00 -0.51842759904E+01  0.55715345328E+01  0.76629596682E+01  0.51100000000E-03 0. -1.
        -11    1    3    3    0    0 -0.34995188325E+01 -0.42998074269E+00  0.24441215856E+01  0.42901335742E+01  0.51100000000E-03 0.  1.
         12    1    3    3    0    0 -0.25159849471E+02 -0.17837288767E+02 -0.23171172151E+02  0.38575771085E+02  0.00000000000E+00 0. -1.
</event>
<event>
 7    1  0.2985411E-011  0.5052886E+02  0.7816164E-02  0.1300439E+00
        -11   -1    0    0    0    0  0.00000000000E+00  0.00000000000E+00  0.45593999997E+02  0.45594000000E+02  0.51100000000E-03 0. -1.
         11   -1    0    0    0    0 -0.00000000000E+00 -0.00000000000E+00 -0.45593999997E+02  0.45594000000E+02  0.51100000000E-03 0.  1.
    9900012    2    1    2    0    0 -0.36156080475E+02  0.10079359345E+02  0.15630430086E+02  0.50528856074E+02  0.29999988522E+02 0.  0.
        -12    1    1    2    0    0  0.36156080475E+02 -0.10079359345E+02 -0.15630430086E+02  0.40659143926E+02  0.00000000000E+00 0.  1.
         11    1    3    3    0    0 -0.51743559965E+01  0.39418885309E+01  0.95134864625E+01  0.11524706942E+02  0.51100000000E-03 0. -1.
        -11    1    3    3    0    0 -0.77331086575E+00  0.56591507742E+01 -0.41882717172E+01  0.70827690502E+01  0.51100000000E-03 0.  1.
        -12    1    3    3    0    0 -0.30208413613E+02  0.47832004008E+00  0.10305215340E+02  0.31921380081E+02  0.00000000000E+00 0.  1.
</event>
<event>
 7    1  0.2985411E-011  0.5052886E+02  0.7816164E-02  0.1300439E+00
        -11   -1    0    0    0    0  0.00000000000E+00  0.00000000000E+00  0.45593999997E+02  0.45594000000E+02  0.51100000000E-03 0.  1.
         11   -1    0    0    0    0 -0.00000000000E+00 -0.00000000000E+00 -0.45593999997E+02  0.45594000000E+02  0.51100000000E-03 0. -1.
    9900012    2    1    2    0    0 -0.20951254762E+01  0.20491133174E+02 -0.35055522828E+02  0.50528858712E+02  0.29999996542E+02 0.  0.
        -12    1    1    2    0    0  0.20951254762E+01 -0.20491133174E+02  0.35055522828E+02  0.40659141288E+02  0.00000000000E+00 0.  1.
         11    1    3    3    0    0  0.24582316026E+01  0.13863389876E+02 -0.17095040889E+02  0.22146713181E+02  0.51100000000E-03 0. -1.
        -11    1    3    3    0    0 -0.12019432518E+02  0.19819186271E+01 -0.61176420823E+01  0.13631592145E+02  0.51100000000E-03 0.  1.
         12    1    3    3    0    0  0.74660754390E+01  0.46458246706E+01 -0.11842839857E+02  0.14750553386E+02  0.00000000000E+00 0. -1.
</event>
<event>
 7    1  0.2985411E-011  0.5052887E+02  0.7816164E-02  0.1300439E+00
        -11   -1    0    0    0    0  0.00000000000E+00  0.00000000000E+00  0.45593999997E+02  0.45594000000E+02  0.51100000000E-03 0.  1.
         11   -1    0    0    0    0 -0.00000000000E+00 -0.00000000000E+00 -0.45593999997E+02  0.45594000000E+02  0.51100000000E-03 0. -1.
    9900012    2    1    2    0    0 -0.23799594028E+02  0.26093061105E+02 -0.20146876740E+02  0.50528866265E+02  0.30000019498E+02 0.  0.
        -12    1    1    2    0    0  0.23799594028E+02 -0.26093061105E+02  0.20146876740E+02  0.40659133735E+02  0.00000000000E+00 0.  1.
         11    1    3    3    0    0 -0.18141333392E+02  0.13695954032E+02 -0.17276519473E+02  0.28551099094E+02  0.51100000000E-03 0. -1.
        -11    1    3    3    0    0 -0.85040068403E+01  0.73705306654E+01 -0.83522302182E+01  0.14014371356E+02  0.51100000000E-03 0.  1.
        -12    1    3    3    0    0  0.28457462043E+01  0.50265764079E+01  0.54818729516E+01  0.79633958147E+01  0.00000000000E+00 0.  1.
</event>
<event>
 7    1  0.2985411E-011  0.5052887E+02  0.7816164E-02  0.1300439E+00
        -11   -1    0    0    0    0  0.00000000000E+00  0.00000000000E+00  0.45593999997E+02  0.45594000000E+02  0.51100000000E-03 0.  1.
         11   -1    0    0    0    0 -0.00000000000E+00 -0.00000000000E+00 -0.45593999997E+02  0.45594000000E+02  0.51100000000E-03 0. -1.
    9900012    2    1    2    0    0  0.21045934414E+02  0.26508119479E+02 -0.22528939221E+02  0.50528869954E+02  0.30000030713E+02 0.  0.
        -12    1    1    2    0    0 -0.21045934414E+02 -0.26508119479E+02  0.22528939221E+02  0.40659130046E+02  0.00000000000E+00 0.  1.
         11    1    3    3    0    0  0.83640003148E+00  0.23942659265E+01 -0.10659453107E+02  0.10957007581E+02  0.51100000000E-03 0. -1.
        -11    1    3    3    0    0  0.22288740205E+02  0.22581400845E+02 -0.15342679692E+02  0.35243516062E+02  0.51100000000E-03 0.  1.
        -12    1    3    3    0    0 -0.20792058230E+01  0.15324527078E+01  0.34731935779E+01  0.43283463107E+01  0.00000000000E+00 0.  1.
</event>
<event>
 7    1  0.2985411E-011  0.5052886E+02  0.7816164E-02  0.1300439E+00
        -11   -1    0    0    0    0  0.00000000000E+00  0.00000000000E+00  0.45593999997E+02  0.45594000000E+02  0.51100000000E-03 0.  1.
         11   -1    0    0    0    0 -0.00000000000E+00 -0.00000000000E+00 -0.45593999997E+02  0.45594000000E+02  0.51100000000E-03 0. -1.
    9900012    2    1    2    0    0 -0.32963031860E+02 -0.18804719368E+02 -0.14594078008E+02  0.50528855237E+02  0.29999985980E+02 0.  0.
        -12    1    1    2    0    0  0.32963031860E+02  0.18804719368E+02  0.14594078008E+02  0.40659144763E+02  0.00000000000E+00 0.  1.
         11    1    3    3    0    0 -0.40437923380E+01 -0.11621740946E+02 -0.56111525373E+01  0.13524132215E+02  0.51100000000E-03 0. -1.
        -11    1    3    3    0    0  0.21494644159E+01 -0.27239922266E+01  0.16808872909E+01  0.38556080288E+01  0.51100000000E-03 0.  1.
        -12    1    3    3    0    0 -0.31068703938E+02 -0.44589861946E+01 -0.10663812762E+02  0.33149114994E+02  0.00000000000E+00 0.  1.
</event>
<event>
 7    1  0.2985411E-011  0.5052886E+02  0.7816164E-02  0.1300439E+00
        -11   -1    0    0    0    0  0.00000000000E+00  0.00000000000E+00  0.45593999997E+02  0.45594000000E+02  0.51100000000E-03 0.  1.
         11   -1    0    0    0    0 -0.00000000000E+00 -0.00000000000E+00 -0.45593999997E+02  0.45594000000E+02  0.51100000000E-03 0. -1.
    9900012    2    1    2    0    0  0.10520315640E+01 -0.13217121612E-01 -0.40645522564E+02  0.50528862656E+02  0.30000008529E+02 0.  0.
        -12    1    1    2    0    0 -0.10520315640E+01  0.13217121612E-01  0.40645522564E+02  0.40659137344E+02  0.00000000000E+00 0.  1.
         11    1    3    3    0    0  0.52101241552E+01  0.20245583965E+01 -0.26995133087E+02  0.27567760901E+02  0.51100000000E-03 0. -1.
        -11    1    3    3    0    0  0.35451998073E+01 -0.77650191236E+01 -0.85894057861E+01  0.12109577023E+02  0.51100000000E-03 0.  1.
        -12    1    3    3    0    0 -0.77032923985E+01  0.57272436055E+01 -0.50609836900E+01  0.10851524732E+02  0.00000000000E+00 0.  1.
</event>
<event>
 7    1  0.2985411E-011  0.5052887E+02  0.7816164E-02  0.1300439E+00
        -11   -1    0    0    0    0  0.00000000000E+00  0.00000000000E+00  0.45593999997E+02  0.45594000000E+02  0.51100000000E-03 0. -1.
         11   -1    0    0    0    0 -0.00000000000E+00 -0.00000000000E+00 -0.45593999997E+02  0.45594000000E+02  0.51100000000E-03 0.  1.
    9900012    2    1    2    0    0 -0.63456447739E+01  0.30893043546E+02  0.25661602935E+02  0.50528865573E+02  0.30000017396E+02 0.  0.
        -12    1    1    2    0    0  0.63456447739E+01 -0.30893043546E+02 -0.25661602935E+02  0.40659134427E+02  0.00000000000E+00 0.  1.
         11    1    3    3    0    0 -0.37372806599E+01  0.57181842197E+01 -0.14919547658E+01  0.69921975648E+01  0.51100000000E-03 0. -1.
        -11    1    3    3    0    0 -0.75720215433E+01  0.21862081380E+02  0.96933393694E+01  0.25084795014E+02  0.51100000000E-03 0.  1.
         12    1    3    3    0    0  0.49636574293E+01  0.33127779462E+01  0.17460218332E+02  0.18451872994E+02  0.00000000000E+00 0. -1.
</event>
<event>
 7    1  0.2985411E-011  0.5052887E+02  0.7816164E-02  0.1300439E+00
        -11   -1    0    0    0    0  0.00000000000E+00  0.00000000000E+00  0.45593999997E+02  0.45594000000E+02  0.51100000000E-03 0.  1.
         11   -1    0    0    0    0 -0.00000000000E+00 -0.00000000000E+00 -0.45593999997E+02  0.45594000000E+02  0.51100000000E-03 0. -1.
    9900012    2    1    2    0    0  0.10497030843E+02 -0.36655171907E+02 -0.14120054505E+02  0.50528865439E+02  0.30000016988E+02 0.  0.
        -12    1    1    2    0    0 -0.10497030843E+02  0.36655171907E+02  0.14120054505E+02  0.40659134561E+02  0.00000000000E+00 0.  1.
         11    1    3    3    0    0  0.32288963190E+01 -0.80420716410E+01 -0.43762745363E+01  0.97083709651E+01  0.51100000000E-03 0. -1.
        -11    1    3    3    0    0  0.12205786664E+02 -0.13450354861E+02 -0.15489129862E+02  0.23870618301E+02  0.51100000000E-03 0.  1.
        -12    1    3    3    0    0 -0.49376521398E+01 -0.15162745405E+02  0.57453498927E+01  0.16949876173E+02  0.00000000000E+00 0.  1.
</event>
<event>
 7    1  0.2985411E-011  0.5052885E+02  0.7816164E-02  0.1300439E+00
        -11   -1    0    0    0    0  0.00000000000E+00  0.00000000000E+00  0.45593999997E+02  0.45594000000E+02  0.51100000000E-03 0. -1.
         11   -1    0    0    0    0 -0.00000000000E+00 -0.00000000000E+00 -0.45593999997E+02  0.45594000000E+02  0.51100000000E-03 0.  1.
    9900012    2    1    2    0    0 -0.38521188780E+02 -0.88402701417E+01  0.95464230028E+01  0.50528849082E+02  0.29999967269E+02 0.  0.
        -12    1    1    2    0    0  0.38521188780E+02  0.88402701417E+01 -0.95464230028E+01  0.40659150918E+02  0.00000000000E+00 0.  1.
         11    1    3    3    0    0 -0.78569005242E+00  0.38125615244E+00  0.22272081226E+01  0.23923046200E+01  0.51100000000E-03 0. -1.
        -11    1    3    3    0    0 -0.42483121377E+00 -0.37123593597E+01 -0.68863160768E+01  0.78347586399E+01  0.51100000000E-03 0.  1.
         12    1    3    3    0    0 -0.37310667514E+02 -0.55091669345E+01  0.14205530957E+02  0.40301785822E+02  0.00000000000E+00 0. -1.
</event>
<event>
 7    1  0.2985411E-011  0.5052886E+02  0.7816164E-02  0.1300439E+00
        -11   -1    0    0    0    0  0.00000000000E+00  0.00000000000E+00  0.45593999997E+02  0.45594000000E+02  0.51100000000E-03 0. -1.
         11   -1    0    0    0    0 -0.00000000000E+00 -0.00000000000E+00 -0.45593999997E+02  0.45594000000E+02  0.51100000000E-03 0.  1.
    9900012    2    1    2    0    0  0.11620486795E+02  0.21969360259E+02  0.32178833926E+02  0.50528857653E+02  0.29999993322E+02 0.  0.
        -12    1    1    2    0    0 -0.11620486795E+02 -0.21969360259E+02 -0.32178833926E+02  0.40659142347E+02  0.00000000000E+00 0.  1.
         11    1    3    3    0    0  0.20340976980E+01 -0.21355043169E+01  0.15304619601E+00  0.29531941237E+01  0.51100000000E-03 0.  1.
        -11    1    3    3    0    0  0.14037166772E+02  0.12413991088E+02  0.29288605870E+02  0.34770269769E+02  0.51100000000E-03 0. -1.
         12    1    3    3    0    0 -0.44507776754E+01  0.11690873488E+02  0.27371818600E+01  0.12805393761E+02  0.00000000000E+00 0. -1.
</event>
<event>
 7    1  0.2985411E-011  0.5052887E+02  0.7816164E-02  0.1300439E+00
        -11   -1    0    0    0    0  0.00000000000E+00  0.00000000000E+00  0.45593999997E+02  0.45594000000E+02  0.51100000000E-03 0. -1.
         11   -1    0    0    0    0 -0.00000000000E+00 -0.00000000000E+00 -0.45593999997E+02  0.45594000000E+02  0.51100000000E-03 0.  1.
    9900012    2    1    2    0    0 -0.22038475813E+02 -0.33519964225E+02 -0.66243682119E+01  0.50528872217E+02  0.30000037592E+02 0.  0.
        -12    1    1    2    0    0  0.22038475813E+02  0.33519964225E+02  0.66243682119E+01  0.40659127783E+02  0.00000000000E+00 0.  1.
         11    1    3    3    0    0 -0.10167445809E+01 -0.90449059866E+01 -0.12302105060E+02  0.15303133111E+02  0.51100000000E-03 0. -1.
        -11    1    3    3    0    0 -0.38245678686E+01 -0.82231329134E+01 -0.36716343714E+01  0.97840755062E+01  0.51100000000E-03 0.  1.
        -12    1    3    3    0    0 -0.17197163363E+02 -0.16251925325E+02  0.93493712196E+01  0.25441663600E+02  0.00000000000E+00 0.  1.
</event>
<event>
 7    1  0.2985411E-011  0.5052885E+02  0.7816164E-02  0.1300439E+00
        -11   -1    0    0    0    0  0.00000000000E+00  0.00000000000E+00  0.45593999997E+02  0.45594000000E+02  0.51100000000E-03 0. -1.
         11   -1    0    0    0    0 -0.00000000000E+00 -0.00000000000E+00 -0.45593999997E+02  0.45594000000E+02  0.51100000000E-03 0.  1.
    9900012    2    1    2    0    0 -0.37185548252E+01  0.39786210804E+02  0.75097247043E+01  0.50528853609E+02  0.29999981030E+02 0.  0.
        -12    1    1    2    0    0  0.37185548252E+01 -0.39786210804E+02 -0.75097247043E+01  0.40659146391E+02  0.00000000000E+00 0.  1.
         11    1    3    3    0    0 -0.55307913405E+01  0.19021644690E+02  0.55761423762E+01  0.20579261008E+02  0.51100000000E-03 0. -1.
        -11    1    3    3    0    0 -0.82938439892E+01  0.14657136875E+02  0.53270828245E+01  0.17663445903E+02  0.51100000000E-03 0.  1.
        -12    1    3    3    0    0  0.10106080505E+02  0.61074292380E+01 -0.33935004964E+01  0.12286146698E+02  0.00000000000E+00 0.  1.
</event>
<event>
 7    1  0.2985411E-011  0.5052885E+02  0.7816164E-02  0.1300439E+00
        -11   -1    0    0    0    0  0.00000000000E+00  0.00000000000E+00  0.45593999997E+02  0.45594000000E+02  0.51100000000E-03 0. -1.
         11   -1    0    0    0    0 -0.00000000000E+00 -0.00000000000E+00 -0.45593999997E+02  0.45594000000E+02  0.51100000000E-03 0.  1.
    9900012    2    1    2    0    0  0.38150805656E+02  0.10474068064E+02 -0.93795892767E+01  0.50528846430E+02  0.29999959210E+02 0.  0.
        -12    1    1    2    0    0 -0.38150805656E+02 -0.10474068064E+02  0.93795892767E+01  0.40659153570E+02  0.00000000000E+00 0.  1.
         11    1    3    3    0    0  0.40557353945E+01 -0.82633263010E+00  0.27092213308E+01  0.49468874746E+01  0.51100000000E-03 0. -1.
        -11    1    3    3    0    0 -0.31041074822E+01 -0.19934857384E+01 -0.36455595917E+01  0.51864798898E+01  0.51100000000E-03 0.  1.
         12    1    3    3    0    0  0.37199177743E+02  0.13293886432E+02 -0.84432510158E+01  0.40395479066E+02  0.00000000000E+00 0. -1.
</event>
<event>
 7    1  0.2985411E-011  0.5052883E+02  0.7816164E-02  0.1300439E+00
        -11   -1    0    0    0    0  0.00000000000E+00  0.00000000000E+00  0.45593999997E+02  0.45594000000E+02  0.51100000000E-03 0.  1.
         11   -1    0    0    0    0 -0.00000000000E+00 -0.00000000000E+00 -0.45593999997E+02  0.45594000000E+02  0.51100000000E-03 0. -1.
    9900012    2    1    2    0    0  0.10556757618E+02  0.11352185176E+02 -0.37587909989E+02  0.50528828624E+02  0.29999905086E+02 0.  0.
        -12    1    1    2    0    0 -0.10556757618E+02 -0.11352185176E+02  0.37587909989E+02  0.40659171376E+02  0.00000000000E+00 0.  1.
         11    1    3    3    0    0  0.14965118624E+02  0.11946749469E+02 -0.10012206913E+02  0.21608421641E+02  0.51100000000E-03 0. -1.
        -11    1    3    3    0    0  0.10865184169E+00 -0.17975320888E+01 -0.19549126359E+02  0.19631894165E+02  0.51100000000E-03 0.  1.
        -12    1    3    3    0    0 -0.45170128479E+01  0.12029677953E+01 -0.80265767162E+01  0.92885128178E+01  0.00000000000E+00 0.  1.
</event>
<event>
 7    1  0.2985411E-011  0.5052886E+02  0.7816164E-02  0.1300439E+00
        -11   -1    0    0    0    0  0.00000000000E+00  0.00000000000E+00  0.45593999997E+02  0.45594000000E+02  0.51100000000E-03 0. -1.
         11   -1    0    0    0    0 -0.00000000000E+00 -0.00000000000E+00 -0.45593999997E+02  0.45594000000E+02  0.51100000000E-03 0.  1.
    9900012    2    1    2    0    0  0.95982638317E+01 -0.39178846172E+02  0.51046197501E+01  0.50528858362E+02  0.29999995477E+02 0.  0.
        -12    1    1    2    0    0 -0.95982638317E+01  0.39178846172E+02 -0.51046197501E+01  0.40659141638E+02  0.00000000000E+00 0.  1.
         11    1    3    3    0    0  0.11129720094E+02 -0.25839786537E+02  0.46169144665E+01  0.28511070431E+02  0.51100000000E-03 0. -1.
        -11    1    3    3    0    0 -0.39069361021E+01 -0.17079022625E+02  0.10501066128E+01  0.17551634901E+02  0.51100000000E-03 0.  1.
        -12    1    3    3    0    0  0.23754798393E+01  0.37399629900E+01 -0.56240132923E+00  0.44661530302E+01  0.00000000000E+00 0.  1.
</event>
<event>
 7    1  0.2985411E-011  0.5052880E+02  0.7816164E-02  0.1300439E+00
        -11   -1    0    0    0    0  0.00000000000E+00  0.00000000000E+00  0.45593999997E+02  0.45594000000E+02  0.51100000000E-03 0.  1.
         11   -1    0    0    0    0 -0.00000000000E+00 -0.00000000000E+00 -0.45593999997E+02  0.45594000000E+02  0.51100000000E-03 0. -1.
    9900012    2    1    2    0    0  0.16911062918E+02  0.20900376663E+02 -0.30501816487E+02  0.50528799286E+02  0.29999815910E+02 0.  0.
        -12    1    1    2    0    0 -0.16911062918E+02 -0.20900376663E+02  0.30501816487E+02  0.40659200714E+02  0.00000000000E+00 0.  1.
         11    1    3    3    0    0 -0.10776099924E+01  0.30951849103E+01 -0.95886456326E+01  0.10133288620E+02  0.51100000000E-03 0. -1.
        -11    1    3    3    0    0  0.10252837428E+02  0.15431146345E+02 -0.25169133332E+02  0.31252619503E+02  0.51100000000E-03 0.  1.
        -12    1    3    3    0    0  0.77358354827E+01  0.23740454077E+01  0.42559624778E+01  0.91428911634E+01  0.00000000000E+00 0.  1.
</event>
<event>
 7    1  0.2985411E-011  0.5052886E+02  0.7816164E-02  0.1300439E+00
        -11   -1    0    0    0    0  0.00000000000E+00  0.00000000000E+00  0.45593999997E+02  0.45594000000E+02  0.51100000000E-03 0.  1.
         11   -1    0    0    0    0 -0.00000000000E+00 -0.00000000000E+00 -0.45593999997E+02  0.45594000000E+02  0.51100000000E-03 0. -1.
    9900012    2    1    2    0    0 -0.37153343008E+02  0.69808697526E+01 -0.14968696394E+02  0.50528864361E+02  0.30000013711E+02 0.  0.
        -12    1    1    2    0    0  0.37153343008E+02 -0.69808697526E+01  0.14968696394E+02  0.40659135639E+02  0.00000000000E+00 0.  1.
         11    1    3    3    0    0  0.35731631284E+01 -0.22521879133E+01  0.67209205300E-02  0.42237294623E+01  0.51100000000E-03 0. -1.
        -11    1    3    3    0    0 -0.79253451672E+01  0.10907957885E+01  0.23341927653E+01  0.83336299173E+01  0.51100000000E-03 0.  1.
         12    1    3    3    0    0 -0.32801160969E+02  0.81422618774E+01 -0.17309610080E+02  0.37971504981E+02  0.00000000000E+00 0. -1.
</event>
<event>
 7    1  0.2985411E-011  0.5052886E+02  0.7816164E-02  0.1300439E+00
        -11   -1    0    0    0    0  0.00000000000E+00  0.00000000000E+00  0.45593999997E+02  0.45594000000E+02  0.51100000000E-03 0. -1.
         11   -1    0    0    0    0 -0.00000000000E+00 -0.00000000000E+00 -0.45593999997E+02  0.45594000000E+02  0.51100000000E-03 0.  1.
    9900012    2    1    2    0    0 -0.30577411518E+02  0.26796014227E+02 -0.40178318763E+00  0.50528857076E+02  0.29999991569E+02 0.  0.
        -12    1    1    2    0    0  0.30577411518E+02 -0.26796014227E+02  0.40178318763E+00  0.40659142924E+02  0.00000000000E+00 0.  1.
         11    1    3    3    0    0 -0.36138244630E+01  0.90302561306E+01 -0.69263476296E+01  0.11940667686E+02  0.51100000000E-03 0. -1.
        -11    1    3    3    0    0  0.76718545943E+00 -0.25372993325E+01  0.30551292570E+01  0.40447838595E+01  0.51100000000E-03 0.  1.
         12    1    3    3    0    0 -0.27730772514E+02  0.20303057429E+02  0.34694351850E+01  0.34543405531E+02  0.00000000000E+00 0. -1.
</event>
<event>
 7    1  0.2985411E-011  0.5052884E+02  0.7816164E-02  0.1300439E+00
        -11   -1    0    0    0    0  0.00000000000E+00  0.00000000000E+00  0.45593999997E+02  0.45594000000E+02  0.51100000000E-03 0.  1.
         11   -1    0    0    0    0 -0.00000000000E+00 -0.00000000000E+00 -0.45593999997E+02  0.45594000000E+02  0.51100000000E-03 0. -1.
    9900012    2    1    2    0    0 -0.31145530654E+01  0.28219806149E+02 -0.29105145645E+02  0.50528838635E+02  0.29999935514E+02 0.  0.
        -12    1    1    2    0    0  0.31145530654E+01 -0.28219806149E+02  0.29105145645E+02  0.40659161365E+02  0.00000000000E+00 0.  1.
         11    1    3    3    0    0  0.18909789958E+01  0.76643015915E+01 -0.19521750006E+02  0.21057446284E+02  0.51100000000E-03 0. -1.
        -11    1    3    3    0    0  0.44449313920E+01 -0.18163508328E-01 -0.43808225650E+01  0.62409415636E+01  0.51100000000E-03 0.  1.
         12    1    3    3    0    0 -0.94504634532E+01  0.20573668066E+02 -0.52025730738E+01  0.23230450787E+02  0.00000000000E+00 0. -1.
</event>
<event>
 7    1  0.2985411E-011  0.5052888E+02  0.7816164E-02  0.1300439E+00
        -11   -1    0    0    0    0  0.00000000000E+00  0.00000000000E+00  0.45593999997E+02  0.45594000000E+02  0.51100000000E-03 0.  1.
         11   -1    0    0    0    0 -0.00000000000E+00 -0.00000000000E+00 -0.45593999997E+02  0.45594000000E+02  0.51100000000E-03 0. -1.
    9900012    2    1    2    0    0  0.50235704522E+01 -0.30202592185E+02 -0.26753154634E+02  0.50528879035E+02  0.30000058314E+02 0.  0.
        -12    1    1    2    0    0 -0.50235704522E+01  0.30202592185E+02  0.26753154634E+02  0.40659120965E+02  0.00000000000E+00 0.  1.
         11    1    3    3    0    0  0.48618073412E+01 -0.16835986675E+02 -0.22498373098E+02  0.28517791118E+02  0.51100000000E-03 0. -1.
        -11    1    3    3    0    0  0.63736941938E+01 -0.13490502150E+02 -0.50397169369E+01  0.15748535583E+02  0.51100000000E-03 0.  1.
        -12    1    3    3    0    0 -0.62119310828E+01  0.12389663992E+00  0.78493540051E+00  0.62625523342E+01  0.00000000000E+00 0.  1.
</event>
<event>
 7    1  0.2985411E-011  0.5052886E+02  0.7816164E-02  0.1300439E+00
        -11   -1    0    0    0    0  0.00000000000E+00  0.00000000000E+00  0.45593999997E+02  0.45594000000E+02  0.51100000000E-03 0.  1.
         11   -1    0    0    0    0 -0.00000000000E+00 -0.00000000000E+00 -0.45593999997E+02  0.45594000000E+02  0.51100000000E-03 0. -1.
    9900012    2    1    2    0    0  0.18385957465E+02  0.29543235943E+02 -0.21031382291E+02  0.50528864951E+02  0.30000015504E+02 0.  0.
        -12    1    1    2    0    0 -0.18385957465E+02 -0.29543235943E+02  0.21031382291E+02  0.40659135049E+02  0.00000000000E+00 0.  1.
         11    1    3    3    0    0  0.71062624690E+00  0.14160543233E+02 -0.10207561932E+02  0.17470555090E+02  0.51100000000E-03 0. -1.
        -11    1    3    3    0    0  0.10520253892E+02  0.38214069879E+01 -0.15108574212E+02  0.18802869682E+02  0.51100000000E-03 0.  1.
        -12    1    3    3    0    0  0.71550773260E+01  0.11561285722E+02  0.42847538525E+01  0.14255440178E+02  0.00000000000E+00 0.  1.
</event>
<event>
 7    1  0.2985411E-011  0.5052886E+02  0.7816164E-02  0.1300439E+00
        -11   -1    0    0    0    0  0.00000000000E+00  0.00000000000E+00  0.45593999997E+02  0.45594000000E+02  0.51100000000E-03 0. -1.
         11   -1    0    0    0    0 -0.00000000000E+00 -0.00000000000E+00 -0.45593999997E+02  0.45594000000E+02  0.51100000000E-03 0.  1.
    9900012    2    1    2    0    0  0.28881367379E+01  0.32578301712E+02  0.24155300854E+02  0.50528860368E+02  0.30000001576E+02 0.  0.
        -12    1    1    2    0    0 -0.28881367379E+01 -0.32578301712E+02 -0.24155300854E+02  0.40659139632E+02  0.00000000000E+00 0.  1.
         11    1    3    3    0    0 -0.38103828214E+01  0.20324105159E+02  0.96836128437E+01  0.22833322704E+02  0.51100000000E-03 0. -1.
        -11    1    3    3    0    0 -0.59961839919E+01  0.89115263408E-01  0.43426840982E+01  0.74041251632E+01  0.51100000000E-03 0.  1.
         12    1    3    3    0    0  0.12694703551E+02  0.12165081289E+02  0.10129003912E+02  0.20291412501E+02  0.00000000000E+00 0. -1.
</event>
<event>
 7    1  0.2985411E-011  0.5052889E+02  0.7816164E-02  0.1300439E+00
        -11   -1    0    0    0    0  0.00000000000E+00  0.00000000000E+00  0.45593999997E+02  0.45594000000E+02  0.51100000000E-03 0. -1.
         11   -1    0    0    0    0 -0.00000000000E+00 -0.00000000000E+00 -0.45593999997E+02  0.45594000000E+02  0.51100000000E-03 0.  1.
    9900012    2    1    2    0    0 -0.39084688713E+02  0.11152585424E+02  0.10817887564E+01  0.50528888839E+02  0.30000088116E+02 0.  0.
        -12    1    1    2    0    0  0.39084688713E+02 -0.11152585424E+02 -0.10817887564E+01  0.40659111161E+02  0.00000000000E+00 0.  1.
         11    1    3    3    0    0 -0.32943055230E+02  0.11032543530E+01  0.80678907693E+01  0.33934538744E+02  0.51100000000E-03 0. -1.
        -11    1    3    3    0    0 -0.27625086920E+01  0.95903775602E+00 -0.62115142444E+01  0.68654291316E+01  0.51100000000E-03 0.  1.
        -12    1    3    3    0    0 -0.33791247917E+01  0.90902933150E+01 -0.77458776846E+00  0.97289209639E+01  0.00000000000E+00 0.  1.
</event>
<event>
 7    1  0.2985411E-011  0.5052890E+02  0.7816164E-02  0.1300439E+00
        -11   -1    0    0    0    0  0.00000000000E+00  0.00000000000E+00  0.45593999997E+02  0.45594000000E+02  0.51100000000E-03 0. -1.
         11   -1    0    0    0    0 -0.00000000000E+00 -0.00000000000E+00 -0.45593999997E+02  0.45594000000E+02  0.51100000000E-03 0.  1.
    9900012    2    1    2    0    0  0.35974321731E+02  0.18934495929E+02  0.70413823180E+00  0.50528895598E+02  0.30000108659E+02 0.  0.
        -12    1    1    2    0    0 -0.35974321731E+02 -0.18934495929E+02 -0.70413823180E+00  0.40659104402E+02  0.00000000000E+00 0.  1.
         11    1    3    3    0    0  0.11290962480E+02  0.15224542367E+02  0.15093624639E+01  0.19014486565E+02  0.51100000000E-03 0. -1.
        -11    1    3    3    0    0  0.57044109013E+01  0.66645634088E+01  0.65486445459E+01  0.10947212194E+02  0.51100000000E-03 0.  1.
        -12    1    3    3    0    0  0.18978948350E+02 -0.29546098469E+01 -0.73538687780E+01  0.20567196840E+02  0.00000000000E+00 0.  1.
</event>
<event>
 7    1  0.2985411E-011  0.5052886E+02  0.7816164E-02  0.1300439E+00
        -11   -1    0    0    0    0  0.00000000000E+00  0.00000000000E+00  0.45593999997E+02  0.45594000000E+02  0.51100000000E-03 0. -1.
         11   -1    0    0    0    0 -0.00000000000E+00 -0.00000000000E+00 -0.45593999997E+02  0.45594000000E+02  0.51100000000E-03 0.  1.
    9900012    2    1    2    0    0 -0.22777398518E+02  0.25298494098E+02  0.22233809412E+02  0.50528856283E+02  0.29999989157E+02 0.  0.
        -12    1    1    2    0    0  0.22777398518E+02 -0.25298494098E+02 -0.22233809412E+02  0.40659143717E+02  0.00000000000E+00 0.  1.
         11    1    3    3    0    0 -0.35708336703E+01 -0.88365521677E+00  0.17776709537E+01  0.40855616412E+01  0.51100000000E-03 0. -1.
        -11    1    3    3    0    0 -0.21000243528E+01  0.17554494594E+02 -0.96278373529E+00  0.17705855967E+02  0.51100000000E-03 0.  1.
         12    1    3    3    0    0 -0.17106540494E+02  0.86276547213E+01  0.21418922193E+02  0.28737438675E+02  0.00000000000E+00 0. -1.
</event>
<event>
 7    1  0.2985411E-011  0.5052884E+02  0.7816164E-02  0.1300439E+00
        -11   -1    0    0    0    0  0.00000000000E+00  0.00000000000E+00  0.45593999997E+02  0.45594000000E+02  0.51100000000E-03 0.  1.
         11   -1    0    0    0    0 -0.00000000000E+00 -0.00000000000E+00 -0.45593999997E+02  0.45594000000E+02  0.51100000000E-03 0. -1.
    9900012    2    1    2    0    0  0.37205358462E+02  0.63820157129E+01 -0.15106227156E+02  0.50528844552E+02  0.29999953501E+02 0.  0.
        -12    1    1    2    0    0 -0.37205358462E+02 -0.63820157129E+01  0.15106227156E+02  0.40659155448E+02  0.00000000000E+00 0.  1.
         11    1    3    3    0    0  0.14553809963E+02  0.94917657257E+01 -0.80445362303E+01  0.19147364426E+02  0.51100000000E-03 0. -1.
        -11    1    3    3    0    0  0.12299557199E+02  0.65519251344E+01  0.26836415219E+01  0.14191855493E+02  0.51100000000E-03 0.  1.
         12    1    3    3    0    0  0.10351991300E+02 -0.96616751472E+01 -0.97453324473E+01  0.17189624633E+02  0.00000000000E+00 0. -1.
</event>
<event>
 7    1  0.2985411E-011  0.5052888E+02  0.7816164E-02  0.1300439E+00
        -11   -1    0    0    0    0  0.00000000000E+00  0.00000000000E+00  0.45593999997E+02  0.45594000000E+02  0.51100000000E-03 0.  1.
         11   -1    0    0    0    0 -0.00000000000E+00 -0.00000000000E+00 -0.45593999997E+02  0.45594000000E+02  0.51100000000E-03 0. -1.
    9900012    2    1    2    0    0 -0.25430515477E+02  0.30087078526E+02  0.10060840411E+02  0.50528881448E+02  0.30000065650E+02 0.  0.
        -12    1    1    2    0    0  0.25430515477E+02 -0.30087078526E+02 -0.10060840411E+02  0.40659118552E+02  0.00000000000E+00 0.  1.
         11    1    3    3    0    0 -0.98307194633E+01  0.19196644512E+02  0.92961887912E+01  0.23485598395E+02  0.51100000000E-03 0. -1.
        -11    1    3    3    0    0  0.37266267533E+00  0.33947689386E+01 -0.69829633822E+01  0.77733590857E+01  0.51100000000E-03 0.  1.
         12    1    3    3    0    0 -0.15972458689E+02  0.74956650760E+01  0.77476150016E+01  0.19269923967E+02  0.00000000000E+00 0. -1.
</event>
<event>
 7    1  0.2985411E-011  0.5052886E+02  0.7816164E-02  0.1300439E+00
        -11   -1    0    0    0    0  0.00000000000E+00  0.00000000000E+00  0.45593999997E+02  0.45594000000E+02  0.51100000000E-03 0.  1.
         11   -1    0    0    0    0 -0.00000000000E+00 -0.00000000000E+00 -0.45593999997E+02  0.45594000000E+02  0.51100000000E-03 0. -1.
    9900012    2    1    2    0    0 -0.21471877980E+02  0.11296216977E+02 -0.32626982353E+02  0.50528855402E+02  0.29999986481E+02 0.  0.
        -12    1    1    2    0    0  0.21471877980E+02 -0.11296216977E+02  0.32626982353E+02  0.40659144598E+02  0.00000000000E+00 0.  1.
         11    1    3    3    0    0 -0.20570942746E+01 -0.38635193083E+01  0.30566391195E+01  0.53386759846E+01  0.51100000000E-03 0. -1.
        -11    1    3    3    0    0 -0.54013729817E+01  0.43421311333E+00 -0.18619028778E+01  0.57297516266E+01  0.51100000000E-03 0.  1.
         12    1    3    3    0    0 -0.14013410724E+02  0.14725523172E+02 -0.33821718594E+02  0.39460427791E+02  0.00000000000E+00 0. -1.
</event>
<event>
 7    1  0.2985411E-011  0.5052886E+02  0.7816164E-02  0.1300439E+00
        -11   -1    0    0    0    0  0.00000000000E+00  0.00000000000E+00  0.45593999997E+02  0.45594000000E+02  0.51100000000E-03 0.  1.
         11   -1    0    0    0    0 -0.00000000000E+00 -0.00000000000E+00 -0.45593999997E+02  0.45594000000E+02  0.51100000000E-03 0. -1.
    9900012    2    1    2    0    0  0.11228516504E+02 -0.37642450407E+02 -0.10494380343E+02  0.50528859893E+02  0.30000000130E+02 0.  0.
        -12    1    1    2    0    0 -0.11228516504E+02  0.37642450407E+02  0.10494380343E+02  0.40659140107E+02  0.00000000000E+00 0.  1.
         11    1    3    3    0    0  0.45319627472E+01  0.25673778270E+00 -0.96435294918E+01  0.10658436187E+02  0.51100000000E-03 0. -1.
        -11    1    3    3    0    0  0.20310468455E+01 -0.43918025368E+00 -0.41205572413E+00  0.21184477253E+01  0.51100000000E-03 0.  1.
        -12    1    3    3    0    0  0.46655069110E+01 -0.37460007936E+02 -0.43879512662E+00  0.37751975981E+02  0.00000000000E+00 0.  1.
</event>
<event>
 7    1  0.2985411E-011  0.5052886E+02  0.7816164E-02  0.1300439E+00
        -11   -1    0    0    0    0  0.00000000000E+00  0.00000000000E+00  0.45593999997E+02  0.45594000000E+02  0.51100000000E-03 0. -1.
         11   -1    0    0    0    0 -0.00000000000E+00 -0.00000000000E+00 -0.45593999997E+02  0.45594000000E+02  0.51100000000E-03 0.  1.
    9900012    2    1    2    0    0 -0.68763822905E+00 -0.34161947855E+02  0.22037562228E+02  0.50528859865E+02  0.30000000047E+02 0.  0.
        -12    1    1    2    0    0  0.68763822905E+00  0.34161947855E+02 -0.22037562228E+02  0.40659140135E+02  0.00000000000E+00 0.  1.
         11    1    3    3    0    0 -0.92138152778E+01 -0.63665935923E+01  0.29164524819E+01  0.11572968560E+02  0.51100000000E-03 0.  1.
        -11    1    3    3    0    0 -0.42877475400E+01 -0.63993535241E+01  0.94861743921E+01  0.12219820349E+02  0.51100000000E-03 0. -1.
         12    1    3    3    0    0  0.12813924589E+02 -0.21396000738E+02  0.96349353535E+01  0.26736070957E+02  0.00000000000E+00 0. -1.
</event>
<event>
 7    1  0.2985411E-011  0.5052885E+02  0.7816164E-02  0.1300439E+00
        -11   -1    0    0    0    0  0.00000000000E+00  0.00000000000E+00  0.45593999997E+02  0.45594000000E+02  0.51100000000E-03 0.  1.
         11   -1    0    0    0    0 -0.00000000000E+00 -0.00000000000E+00 -0.45593999997E+02  0.45594000000E+02  0.51100000000E-03 0. -1.
    9900012    2    1    2    0    0  0.79854737307E+01  0.11818059760E+02 -0.38075347984E+02  0.50528850337E+02  0.29999971085E+02 0.  0.
        -12    1    1    2    0    0 -0.79854737307E+01 -0.11818059760E+02  0.38075347984E+02  0.40659149663E+02  0.00000000000E+00 0.  1.
         11    1    3    3    0    0  0.25725436194E+01  0.17007170995E+02 -0.17691116360E+02  0.24674631593E+02  0.51100000000E-03 0. -1.
        -11    1    3    3    0    0  0.41269994709E+01  0.39372481235E+01 -0.12444413998E+02  0.13689320196E+02  0.51100000000E-03 0.  1.
        -12    1    3    3    0    0  0.12859306404E+01 -0.91263593584E+01 -0.79398176253E+01  0.12164898548E+02  0.00000000000E+00 0.  1.
</event>
<event>
 7    1  0.2985411E-011  0.5052886E+02  0.7816164E-02  0.1300439E+00
        -11   -1    0    0    0    0  0.00000000000E+00  0.00000000000E+00  0.45593999997E+02  0.45594000000E+02  0.51100000000E-03 0.  1.
         11   -1    0    0    0    0 -0.00000000000E+00 -0.00000000000E+00 -0.45593999997E+02  0.45594000000E+02  0.51100000000E-03 0. -1.
    9900012    2    1    2    0    0  0.11444502386E+02  0.36617531917E+02 -0.13466445251E+02  0.50528862943E+02  0.30000009401E+02 0.  0.
        -12    1    1    2    0    0 -0.11444502386E+02 -0.36617531917E+02  0.13466445251E+02  0.40659137057E+02  0.00000000000E+00 0.  1.
         11    1    3    3    0    0 -0.38232599755E+00  0.30064808681E+01 -0.87048242900E+01  0.92173242625E+01  0.51100000000E-03 0. -1.
        -11    1    3    3    0    0 -0.35586121379E+01  0.23439015666E+01 -0.48605274938E+01  0.64639247119E+01  0.51100000000E-03 0.  1.
         12    1    3    3    0    0  0.15385440521E+02  0.31267149482E+02  0.98906533363E-01  0.34847613968E+02  0.00000000000E+00 0. -1.
</event>
<event>
 7    1  0.2985411E-011  0.5052887E+02  0.7816164E-02  0.1300439E+00
        -11   -1    0    0    0    0  0.00000000000E+00  0.00000000000E+00  0.45593999997E+02  0.45594000000E+02  0.51100000000E-03 0.  1.
         11   -1    0    0    0    0 -0.00000000000E+00 -0.00000000000E+00 -0.45593999997E+02  0.45594000000E+02  0.51100000000E-03 0. -1.
    9900012    2    1    2    0    0 -0.35763069337E+02  0.15614506271E+02 -0.11417323280E+02  0.50528865659E+02  0.30000017657E+02 0.  0.
        -12    1    1    2    0    0  0.35763069337E+02 -0.15614506271E+02  0.11417323280E+02  0.40659134341E+02  0.00000000000E+00 0.  1.
         11    1    3    3    0    0 -0.14261669740E+02  0.10708421846E+01  0.39446844315E+01  0.14835850575E+02  0.51100000000E-03 0. -1.
        -11    1    3    3    0    0  0.14401982368E+01  0.36043646550E+01  0.25099294801E+01  0.46222680346E+01  0.51100000000E-03 0.  1.
         12    1    3    3    0    0 -0.22941597834E+02  0.10939299431E+02 -0.17871937192E+02  0.31070747049E+02  0.00000000000E+00 0. -1.
</event>
<event>
 7    1  0.2985411E-011  0.5052884E+02  0.7816164E-02  0.1300439E+00
        -11   -1    0    0    0    0  0.00000000000E+00  0.00000000000E+00  0.45593999997E+02  0.45594000000E+02  0.51100000000E-03 0. -1.
         11   -1    0    0    0    0 -0.00000000000E+00 -0.00000000000E+00 -0.45593999997E+02  0.45594000000E+02  0.51100000000E-03 0.  1.
    9900012    2    1    2    0    0  0.25960967983E+01 -0.13810528197E+02  0.38153597674E+02  0.50528838386E+02  0.29999934758E+02 0.  0.
        -12    1    1    2    0    0 -0.25960967983E+01  0.13810528197E+02 -0.38153597674E+02  0.40659161614E+02  0.00000000000E+00 0.  1.
         11    1    3    3    0    0 -0.52726463457E+01 -0.11139879695E+02  0.29065795968E+02  0.31570844377E+02  0.51100000000E-03 0. -1.
        -11    1    3    3    0    0 -0.30231468603E+01  0.14346789650E+00  0.68488829076E+01  0.74878032372E+01  0.51100000000E-03 0.  1.
        -12    1    3    3    0    0  0.10891890004E+02 -0.28141163979E+01  0.22389187982E+01  0.11470190772E+02  0.00000000000E+00 0.  1.
</event>
<event>
 7    1  0.2985411E-011  0.5052885E+02  0.7816164E-02  0.1300439E+00
        -11   -1    0    0    0    0  0.00000000000E+00  0.00000000000E+00  0.45593999997E+02  0.45594000000E+02  0.51100000000E-03 0. -1.
         11   -1    0    0    0    0 -0.00000000000E+00 -0.00000000000E+00 -0.45593999997E+02  0.45594000000E+02  0.51100000000E-03 0.  1.
    9900012    2    1    2    0    0  0.15342164221E+02  0.21364145377E+02  0.31005774027E+02  0.50528846865E+02  0.29999960530E+02 0.  0.
        -12    1    1    2    0    0 -0.15342164221E+02 -0.21364145377E+02 -0.31005774027E+02  0.40659153135E+02  0.00000000000E+00 0.  1.
         11    1    3    3    0    0  0.10859218450E+02  0.14659685461E+01  0.12327565871E+02  0.16493652406E+02  0.51100000000E-03 0. -1.
        -11    1    3    3    0    0  0.53788543571E+01 -0.82267509910E+00 -0.89835015290E+00  0.55150613571E+01  0.51100000000E-03 0.  1.
         12    1    3    3    0    0 -0.89590858626E+00  0.20720851930E+02  0.19576558308E+02  0.28520133101E+02  0.00000000000E+00 0. -1.
</event>
<event>
 7    1  0.2985411E-011  0.5052886E+02  0.7816164E-02  0.1300439E+00
        -11   -1    0    0    0    0  0.00000000000E+00  0.00000000000E+00  0.45593999997E+02  0.45594000000E+02  0.51100000000E-03 0.  1.
         11   -1    0    0    0    0 -0.00000000000E+00 -0.00000000000E+00 -0.45593999997E+02  0.45594000000E+02  0.51100000000E-03 0. -1.
    9900012    2    1    2    0    0  0.35337699616E+02  0.13830149817E+02 -0.14599292347E+02  0.50528863325E+02  0.30000010563E+02 0.  0.
        -12    1    1    2    0    0 -0.35337699616E+02 -0.13830149817E+02  0.14599292347E+02  0.40659136675E+02  0.00000000000E+00 0.  1.
         11    1    3    3    0    0  0.47829228637E-01  0.11367279315E+00  0.14852491657E+01  0.14903605216E+01  0.51100000000E-03 0. -1.
        -11    1    3    3    0    0  0.14406372185E+02  0.93685220896E+01  0.61255840955E+01  0.18243781035E+02  0.51100000000E-03 0.  1.
         12    1    3    3    0    0  0.20883498202E+02  0.43479549347E+01 -0.22210125608E+02  0.30794721769E+02  0.00000000000E+00 0. -1.
</event>
<event>
 7    1  0.2985411E-011  0.5052887E+02  0.7816164E-02  0.1300439E+00
        -11   -1    0    0    0    0  0.00000000000E+00  0.00000000000E+00  0.45593999997E+02  0.45594000000E+02  0.51100000000E-03 0.  1.
         11   -1    0    0    0    0 -0.00000000000E+00 -0.00000000000E+00 -0.45593999997E+02  0.45594000000E+02  0.51100000000E-03 0. -1.
    9900012    2    1    2    0    0  0.79274215065E+01  0.49840131822E+01 -0.39566151997E+02  0.50528870853E+02  0.30000033444E+02 0.  0.
        -12    1    1    2    0    0 -0.79274215065E+01 -0.49840131822E+01  0.39566151997E+02  0.40659129147E+02  0.00000000000E+00 0.  1.
         11    1    3    3    0    0 -0.28072623392E+00  0.23861644795E+01  0.24237590947E+01  0.34127989322E+01  0.51100000000E-03 0. -1.
        -11    1    3    3    0    0 -0.10089422871E+01 -0.22558969432E+01  0.11575743537E+01  0.27289218022E+01  0.51100000000E-03 0.  1.
         12    1    3    3    0    0  0.92170900275E+01  0.48537456459E+01 -0.43147485445E+02  0.44387150118E+02  0.00000000000E+00 0. -1.
</event>
<event>
 7    1  0.2985411E-011  0.5052884E+02  0.7816164E-02  0.1300439E+00
        -11   -1    0    0    0    0  0.00000000000E+00  0.00000000000E+00  0.45593999997E+02  0.45594000000E+02  0.51100000000E-03 0.  1.
         11   -1    0    0    0    0 -0.00000000000E+00 -0.00000000000E+00 -0.45593999997E+02  0.45594000000E+02  0.51100000000E-03 0. -1.
    9900012    2    1    2    0    0  0.37143927684E+02  0.16491251565E+02 -0.12387304602E+01  0.50528841190E+02  0.29999943281E+02 0.  0.
        -12    1    1    2    0    0 -0.37143927684E+02 -0.16491251565E+02  0.12387304602E+01  0.40659158810E+02  0.00000000000E+00 0.  1.
         11    1    3    3    0    0  0.13206065578E+02  0.14481740609E+02 -0.44806565510E+01  0.20104657731E+02  0.51100000000E-03 0. -1.
        -11    1    3    3    0    0  0.86328384471E+01  0.95288293310E+01 -0.85597948116E+00  0.12886317907E+02  0.51100000000E-03 0.  1.
         12    1    3    3    0    0  0.15305023659E+02 -0.75193183744E+01  0.40979055720E+01  0.17537865551E+02  0.00000000000E+00 0. -1.
</event>
<event>
 7    1  0.2985411E-011  0.5052888E+02  0.7816164E-02  0.1300439E+00
        -11   -1    0    0    0    0  0.00000000000E+00  0.00000000000E+00  0.45593999997E+02  0.45594000000E+02  0.51100000000E-03 0. -1.
         11   -1    0    0    0    0 -0.00000000000E+00 -0.00000000000E+00 -0.45593999997E+02  0.45594000000E+02  0.51100000000E-03 0.  1.
    9900012    2    1    2    0    0  0.87695983713E+00 -0.31647437544E+02  0.25511458119E+02  0.50528882240E+02  0.30000068058E+02 0.  0.
        -12    1    1    2    0    0 -0.87695983713E+00  0.31647437544E+02 -0.25511458119E+02  0.40659117760E+02  0.00000000000E+00 0.  1.
         11    1    3    3    0    0  0.34881477430E+01 -0.14260787398E+02  0.15705410301E+02  0.21498770776E+02  0.51100000000E-03 0. -1.
        -11    1    3    3    0    0 -0.32842368401E+01 -0.77426390000E+01  0.15626262279E+02  0.17745837353E+02  0.51100000000E-03 0.  1.
         12    1    3    3    0    0  0.67304893431E+00 -0.96440111454E+01 -0.58202144609E+01  0.11284274111E+02  0.00000000000E+00 0. -1.
</event>
<event>
 7    1  0.2985411E-011  0.5052885E+02  0.7816164E-02  0.1300439E+00
        -11   -1    0    0    0    0  0.00000000000E+00  0.00000000000E+00  0.45593999997E+02  0.45594000000E+02  0.51100000000E-03 0.  1.
         11   -1    0    0    0    0 -0.00000000000E+00 -0.00000000000E+00 -0.45593999997E+02  0.45594000000E+02  0.51100000000E-03 0. -1.
    9900012    2    1    2    0    0  0.20886842866E+02  0.84848241039E+01 -0.33836578869E+02  0.50528849559E+02  0.29999968721E+02 0.  0.
        -12    1    1    2    0    0 -0.20886842866E+02 -0.84848241039E+01  0.33836578869E+02  0.40659150441E+02  0.00000000000E+00 0.  1.
         11    1    3    3    0    0 -0.27698337208E+01 -0.40756186434E+01 -0.13310100522E+01  0.51043348428E+01  0.51100000000E-03 0. -1.
        -11    1    3    3    0    0  0.51542251142E+01 -0.10570469698E+01  0.41797573173E+00  0.52780762402E+01  0.51100000000E-03 0.  1.
         12    1    3    3    0    0  0.18502451473E+02  0.13617489717E+02 -0.32923544549E+02  0.40146438476E+02  0.00000000000E+00 0. -1.
</event>
<event>
 7    1  0.2985411E-011  0.5052885E+02  0.7816164E-02  0.1300439E+00
        -11   -1    0    0    0    0  0.00000000000E+00  0.00000000000E+00  0.45593999997E+02  0.45594000000E+02  0.51100000000E-03 0.  1.
         11   -1    0    0    0    0 -0.00000000000E+00 -0.00000000000E+00 -0.45593999997E+02  0.45594000000E+02  0.51100000000E-03 0. -1.
    9900012    2    1    2    0    0 -0.27509422365E+02 -0.10431626458E+02 -0.28063843017E+02  0.50528850546E+02  0.29999971719E+02 0.  0.
        -12    1    1    2    0    0  0.27509422365E+02  0.10431626458E+02  0.28063843017E+02  0.40659149454E+02  0.00000000000E+00 0.  1.
         11    1    3    3    0    0 -0.17039140560E+02 -0.13376525471E+02 -0.13060089071E+02  0.25294854645E+02  0.51100000000E-03 0. -1.
        -11    1    3    3    0    0 -0.78289142285E+00 -0.65966319896E+01 -0.41155734283E+01  0.78145004634E+01  0.51100000000E-03 0.  1.
         12    1    3    3    0    0 -0.96873903825E+01  0.95415310032E+01 -0.10888180518E+02  0.17419495438E+02  0.00000000000E+00 0. -1.
</event>
<event>
 7    1  0.2985411E-011  0.5052886E+02  0.7816164E-02  0.1300439E+00
        -11   -1    0    0    0    0  0.00000000000E+00  0.00000000000E+00  0.45593999997E+02  0.45594000000E+02  0.51100000000E-03 0.  1.
         11   -1    0    0    0    0 -0.00000000000E+00 -0.00000000000E+00 -0.45593999997E+02  0.45594000000E+02  0.51100000000E-03 0. -1.
    9900012    2    1    2    0    0  0.17133485061E+02 -0.16030727409E+02 -0.33205793817E+02  0.50528864808E+02  0.30000015069E+02 0.  0.
        -12    1    1    2    0    0 -0.17133485061E+02  0.16030727409E+02  0.33205793817E+02  0.40659135192E+02  0.00000000000E+00 0.  1.
         11    1    3    3    0    0  0.50593642039E+01 -0.13025328770E+02 -0.29753943699E+02  0.32871773935E+02  0.51100000000E-03 0. -1.
        -11    1    3    3    0    0  0.64557545910E+01 -0.74956013433E+01 -0.56960909546E+00  0.99088476434E+01  0.51100000000E-03 0.  1.
        -12    1    3    3    0    0  0.56183662657E+01  0.44902027052E+01 -0.28822410231E+01  0.77482432296E+01  0.00000000000E+00 0.  1.
</event>
<event>
 7    1  0.2985411E-011  0.5052886E+02  0.7816164E-02  0.1300439E+00
        -11   -1    0    0    0    0  0.00000000000E+00  0.00000000000E+00  0.45593999997E+02  0.45594000000E+02  0.51100000000E-03 0.  1.
         11   -1    0    0    0    0 -0.00000000000E+00 -0.00000000000E+00 -0.45593999997E+02  0.45594000000E+02  0.51100000000E-03 0. -1.
    9900012    2    1    2    0    0 -0.22815608327E+02  0.25105344015E+02 -0.22412843662E+02  0.50528857824E+02  0.29999993842E+02 0.  0.
        -12    1    1    2    0    0  0.22815608327E+02 -0.25105344015E+02  0.22412843662E+02  0.40659142176E+02  0.00000000000E+00 0.  1.
         11    1    3    3    0    0 -0.50867505647E+01  0.20744813795E+01 -0.67902057952E+01  0.87341513213E+01  0.51100000000E-03 0. -1.
        -11    1    3    3    0    0 -0.23953226332E+02  0.14572561207E+02 -0.13332089294E+02  0.31046114041E+02  0.51100000000E-03 0.  1.
         12    1    3    3    0    0  0.62243685694E+01  0.84583014283E+01 -0.22905485726E+01  0.10748592462E+02  0.00000000000E+00 0. -1.
</event>
<event>
 7    1  0.2985411E-011  0.5052887E+02  0.7816164E-02  0.1300439E+00
        -11   -1    0    0    0    0  0.00000000000E+00  0.00000000000E+00  0.45593999997E+02  0.45594000000E+02  0.51100000000E-03 0.  1.
         11   -1    0    0    0    0 -0.00000000000E+00 -0.00000000000E+00 -0.45593999997E+02  0.45594000000E+02  0.51100000000E-03 0. -1.
    9900012    2    1    2    0    0  0.24934627012E+02 -0.11249792082E+02 -0.30081082698E+02  0.50528868401E+02  0.30000025990E+02 0.  0.
        -12    1    1    2    0    0 -0.24934627012E+02  0.11249792082E+02  0.30081082698E+02  0.40659131599E+02  0.00000000000E+00 0.  1.
         11    1    3    3    0    0  0.18457175466E+02 -0.15229597758E+02 -0.22207282153E+02  0.32646153754E+02  0.51100000000E-03 0. -1.
        -11    1    3    3    0    0 -0.14801557712E+01 -0.18179053436E+01  0.26047691940E+01  0.35043492635E+01  0.51100000000E-03 0.  1.
        -12    1    3    3    0    0  0.79576073179E+01  0.57977110205E+01 -0.10478569739E+02  0.14378365383E+02  0.00000000000E+00 0.  1.
</event>
<event>
 7    1  0.2985411E-011  0.5052886E+02  0.7816164E-02  0.1300439E+00
        -11   -1    0    0    0    0  0.00000000000E+00  0.00000000000E+00  0.45593999997E+02  0.45594000000E+02  0.51100000000E-03 0.  1.
         11   -1    0    0    0    0 -0.00000000000E+00 -0.00000000000E+00 -0.45593999997E+02  0.45594000000E+02  0.51100000000E-03 0. -1.
    9900012    2    1    2    0    0  0.17782567301E+02 -0.35507570150E+02  0.87268879131E+01  0.50528858218E+02  0.29999995039E+02 0.  0.
        -12    1    1    2    0    0 -0.17782567301E+02  0.35507570150E+02 -0.87268879131E+01  0.40659141782E+02  0.00000000000E+00 0.  1.
         11    1    3    3    0    0  0.53358152713E+01 -0.10718587633E+01 -0.17881278644E+01  0.57286304942E+01  0.51100000000E-03 0. -1.
        -11    1    3    3    0    0 -0.21032920777E+01  0.22494315642E+01 -0.16615677718E+01  0.34992267213E+01  0.51100000000E-03 0.  1.
        -12    1    3    3    0    0  0.14550044108E+02 -0.36685142951E+02  0.12176583549E+02  0.41301001002E+02  0.00000000000E+00 0.  1.
</event>
<event>
 7    1  0.2985411E-011  0.5052887E+02  0.7816164E-02  0.1300439E+00
        -11   -1    0    0    0    0  0.00000000000E+00  0.00000000000E+00  0.45593999997E+02  0.45594000000E+02  0.51100000000E-03 0.  1.
         11   -1    0    0    0    0 -0.00000000000E+00 -0.00000000000E+00 -0.45593999997E+02  0.45594000000E+02  0.51100000000E-03 0. -1.
    9900012    2    1    2    0    0  0.34094137183E+02 -0.51934545836E+01 -0.21535605789E+02  0.50528874610E+02  0.30000044864E+02 0.  0.
        -12    1    1    2    0    0 -0.34094137183E+02  0.51934545836E+01  0.21535605789E+02  0.40659125390E+02  0.00000000000E+00 0.  1.
         11    1    3    3    0    0  0.21290192110E+01  0.22446064773E+01 -0.19592161387E+01  0.36618996679E+01  0.51100000000E-03 0. -1.
        -11    1    3    3    0    0  0.25377419149E+02  0.49182982821E+01 -0.20266625838E+02  0.32847209680E+02  0.51100000000E-03 0.  1.
         12    1    3    3    0    0  0.65876988235E+01 -0.12356359343E+02  0.69023618780E+00  0.14019765262E+02  0.00000000000E+00 0. -1.
</event>
<event>
 7    1  0.2985411E-011  0.5052886E+02  0.7816164E-02  0.1300439E+00
        -11   -1    0    0    0    0  0.00000000000E+00  0.00000000000E+00  0.45593999997E+02  0.45594000000E+02  0.51100000000E-03 0.  1.
         11   -1    0    0    0    0 -0.00000000000E+00 -0.00000000000E+00 -0.45593999997E+02  0.45594000000E+02  0.51100000000E-03 0. -1.
    9900012    2    1    2    0    0 -0.24094670730E+02 -0.32483827630E+02 -0.41729340646E+01  0.50528860882E+02  0.30000003138E+02 0.  0.
        -12    1    1    2    0    0  0.24094670730E+02  0.32483827630E+02  0.41729340646E+01  0.40659139118E+02  0.00000000000E+00 0.  1.
         11    1    3    3    0    0  0.16178056335E+01 -0.42207194660E+01 -0.15646324561E+01  0.47832878716E+01  0.51100000000E-03 0. -1.
        -11    1    3    3    0    0  0.50016362707E+01 -0.34286429652E+01  0.72402565912E+00  0.61070591436E+01  0.51100000000E-03 0.  1.
         12    1    3    3    0    0 -0.30714112634E+02 -0.24834465199E+02 -0.33323272676E+01  0.39638513867E+02  0.00000000000E+00 0. -1.
</event>
<event>
 7    1  0.2985411E-011  0.5052886E+02  0.7816164E-02  0.1300439E+00
        -11   -1    0    0    0    0  0.00000000000E+00  0.00000000000E+00  0.45593999997E+02  0.45594000000E+02  0.51100000000E-03 0.  1.
         11   -1    0    0    0    0 -0.00000000000E+00 -0.00000000000E+00 -0.45593999997E+02  0.45594000000E+02  0.51100000000E-03 0. -1.
    9900012    2    1    2    0    0 -0.15356416443E+02  0.20929323373E+02 -0.31293922740E+02  0.50528859536E+02  0.29999999047E+02 0.  0.
        -12    1    1    2    0    0  0.15356416443E+02 -0.20929323373E+02  0.31293922740E+02  0.40659140464E+02  0.00000000000E+00 0.  1.
         11    1    3    3    0    0  0.13214181090E+01  0.58681438583E+00 -0.30165493116E+01  0.33451557441E+01  0.51100000000E-03 0. -1.
        -11    1    3    3    0    0  0.52314736643E+01  0.28901947960E+01  0.16425076291E+01  0.61983364084E+01  0.51100000000E-03 0.  1.
         12    1    3    3    0    0 -0.21909308216E+02  0.17452314191E+02 -0.29919881057E+02  0.40985367384E+02  0.00000000000E+00 0. -1.
</event>
<event>
 7    1  0.2985411E-011  0.5052886E+02  0.7816164E-02  0.1300439E+00
        -11   -1    0    0    0    0  0.00000000000E+00  0.00000000000E+00  0.45593999997E+02  0.45594000000E+02  0.51100000000E-03 0.  1.
         11   -1    0    0    0    0 -0.00000000000E+00 -0.00000000000E+00 -0.45593999997E+02  0.45594000000E+02  0.51100000000E-03 0. -1.
    9900012    2    1    2    0    0  0.31660333255E+02  0.10227434828E+02 -0.23370681197E+02  0.50528857552E+02  0.29999993016E+02 0.  0.
        -12    1    1    2    0    0 -0.31660333255E+02 -0.10227434828E+02  0.23370681197E+02  0.40659142448E+02  0.00000000000E+00 0.  1.
         11    1    3    3    0    0  0.74957821612E+01  0.29897633283E+00 -0.46986013412E+00  0.75164423674E+01  0.51100000000E-03 0. -1.
        -11    1    3    3    0    0  0.24931178574E+02  0.41806797089E+00 -0.97683574009E+01  0.26779829209E+02  0.51100000000E-03 0.  1.
         12    1    3    3    0    0 -0.76662748018E+00  0.95103905247E+01 -0.13132463662E+02  0.16232585976E+02  0.00000000000E+00 0. -1.
</event>
<event>
 7    1  0.2985411E-011  0.5052886E+02  0.7816164E-02  0.1300439E+00
        -11   -1    0    0    0    0  0.00000000000E+00  0.00000000000E+00  0.45593999997E+02  0.45594000000E+02  0.51100000000E-03 0.  1.
         11   -1    0    0    0    0 -0.00000000000E+00 -0.00000000000E+00 -0.45593999997E+02  0.45594000000E+02  0.51100000000E-03 0. -1.
    9900012    2    1    2    0    0 -0.11632889571E+01  0.32493021553E+02 -0.24413445677E+02  0.50528855632E+02  0.29999987181E+02 0.  0.
        -12    1    1    2    0    0  0.11632889571E+01 -0.32493021553E+02  0.24413445677E+02  0.40659144368E+02  0.00000000000E+00 0.  1.
         11    1    3    3    0    0 -0.23114378095E+01  0.26582684250E+02 -0.43954650740E+01  0.27042595293E+02  0.51100000000E-03 0. -1.
        -11    1    3    3    0    0  0.62484740301E-01  0.89308391172E+01 -0.16196517766E+02  0.18495701654E+02  0.51100000000E-03 0.  1.
        -12    1    3    3    0    0  0.10856641121E+01 -0.30205018143E+01 -0.38214628376E+01  0.49905586855E+01  0.00000000000E+00 0.  1.
</event>
<event>
 7    1  0.2985411E-011  0.5052885E+02  0.7816164E-02  0.1300439E+00
        -11   -1    0    0    0    0  0.00000000000E+00  0.00000000000E+00  0.45593999997E+02  0.45594000000E+02  0.51100000000E-03 0. -1.
         11   -1    0    0    0    0 -0.00000000000E+00 -0.00000000000E+00 -0.45593999997E+02  0.45594000000E+02  0.51100000000E-03 0.  1.
    9900012    2    1    2    0    0 -0.13314980784E+02 -0.37251069920E+02 -0.93933649341E+01  0.50528853080E+02  0.29999979422E+02 0.  0.
        -12    1    1    2    0    0  0.13314980784E+02  0.37251069920E+02  0.93933649341E+01  0.40659146920E+02  0.00000000000E+00 0.  1.
         11    1    3    3    0    0  0.53322965789E+01 -0.10913337668E+02 -0.49498130486E+01  0.13116210403E+02  0.51100000000E-03 0. -1.
        -11    1    3    3    0    0  0.19982790175E+01 -0.91815918796E+01 -0.48324946831E+01  0.10566350060E+02  0.51100000000E-03 0.  1.
         12    1    3    3    0    0 -0.20645556381E+02 -0.17156140373E+02  0.38894279760E+00  0.26846292617E+02  0.00000000000E+00 0. -1.
</event>
<event>
 7    1  0.2985411E-011  0.5052885E+02  0.7816164E-02  0.1300439E+00
        -11   -1    0    0    0    0  0.00000000000E+00  0.00000000000E+00  0.45593999997E+02  0.45594000000E+02  0.51100000000E-03 0. -1.
         11   -1    0    0    0    0 -0.00000000000E+00 -0.00000000000E+00 -0.45593999997E+02  0.45594000000E+02  0.51100000000E-03 0.  1.
    9900012    2    1    2    0    0  0.59935305329E+01 -0.22979653074E+02  0.33002727035E+02  0.50528845368E+02  0.29999955981E+02 0.  0.
        -12    1    1    2    0    0 -0.59935305329E+01  0.22979653074E+02 -0.33002727035E+02  0.40659154632E+02  0.00000000000E+00 0.  1.
         11    1    3    3    0    0  0.29813518352E+01 -0.89667050284E+01  0.54030215612E+01  0.10884985075E+02  0.51100000000E-03 0. -1.
        -11    1    3    3    0    0  0.55700053346E+01 -0.69761895269E+01 -0.19692784096E+01  0.91416758561E+01  0.51100000000E-03 0.  1.
        -12    1    3    3    0    0 -0.25578266370E+01 -0.70367585190E+01  0.29568983883E+02  0.30502184437E+02  0.00000000000E+00 0.  1.
</event>
<event>
 7    1  0.2985411E-011  0.5052886E+02  0.7816164E-02  0.1300439E+00
        -11   -1    0    0    0    0  0.00000000000E+00  0.00000000000E+00  0.45593999997E+02  0.45594000000E+02  0.51100000000E-03 0.  1.
         11   -1    0    0    0    0 -0.00000000000E+00 -0.00000000000E+00 -0.45593999997E+02  0.45594000000E+02  0.51100000000E-03 0. -1.
    9900012    2    1    2    0    0 -0.32424512331E+02  0.23322898946E+02 -0.76065325062E+01  0.50528856478E+02  0.29999989751E+02 0.  0.
        -12    1    1    2    0    0  0.32424512331E+02 -0.23322898946E+02  0.76065325062E+01  0.40659143522E+02  0.00000000000E+00 0.  1.
         11    1    3    3    0    0 -0.96638787500E+01  0.11061210868E+02  0.16445200363E+01  0.14779897996E+02  0.51100000000E-03 0. -1.
        -11    1    3    3    0    0 -0.13416801030E+02  0.18796124532E+02 -0.54241283654E+01  0.23721846810E+02  0.51100000000E-03 0.  1.
        -12    1    3    3    0    0 -0.93438325511E+01 -0.65344364536E+01 -0.38269241771E+01  0.12027111672E+02  0.00000000000E+00 0.  1.
</event>
<event>
 7    1  0.2985411E-011  0.5052887E+02  0.7816164E-02  0.1300439E+00
        -11   -1    0    0    0    0  0.00000000000E+00  0.00000000000E+00  0.45593999997E+02  0.45594000000E+02  0.51100000000E-03 0.  1.
         11   -1    0    0    0    0 -0.00000000000E+00 -0.00000000000E+00 -0.45593999997E+02  0.45594000000E+02  0.51100000000E-03 0. -1.
    9900012    2    1    2    0    0 -0.14924998937E+02 -0.10507483960E+02 -0.36331831921E+02  0.50528870358E+02  0.30000031942E+02 0.  0.
        -12    1    1    2    0    0  0.14924998937E+02  0.10507483960E+02  0.36331831921E+02  0.40659129642E+02  0.00000000000E+00 0.  1.
         11    1    3    3    0    0 -0.11893404692E+01  0.54976614468E+01 -0.20168909898E+01  0.59755051385E+01  0.51100000000E-03 0. -1.
        -11    1    3    3    0    0 -0.30518137375E+01 -0.29771698094E+01  0.18567153012E+01  0.46502149556E+01  0.51100000000E-03 0.  1.
         12    1    3    3    0    0 -0.10683844730E+02 -0.13027975597E+02 -0.36171656233E+02  0.39903150264E+02  0.00000000000E+00 0. -1.
</event>
<event>
 7    1  0.2985411E-011  0.5052886E+02  0.7816164E-02  0.1300439E+00
        -11   -1    0    0    0    0  0.00000000000E+00  0.00000000000E+00  0.45593999997E+02  0.45594000000E+02  0.51100000000E-03 0. -1.
         11   -1    0    0    0    0 -0.00000000000E+00 -0.00000000000E+00 -0.45593999997E+02  0.45594000000E+02  0.51100000000E-03 0.  1.
    9900012    2    1    2    0    0  0.98834720561E+01  0.30740512925E+01  0.39319623830E+02  0.50528860444E+02  0.30000001807E+02 0.  0.
        -12    1    1    2    0    0 -0.98834720561E+01 -0.30740512925E+01 -0.39319623830E+02  0.40659139556E+02  0.00000000000E+00 0.  1.
         11    1    3    3    0    0 -0.87635352890E+00 -0.12442050017E+02  0.17677531421E+02  0.21634872811E+02  0.51100000000E-03 0. -1.
        -11    1    3    3    0    0  0.26928248654E+01  0.56117353005E+01  0.88171683247E+01  0.10792837271E+02  0.51100000000E-03 0.  1.
        -12    1    3    3    0    0  0.80670007196E+01  0.99043660094E+01  0.12824924085E+02  0.18101150363E+02  0.00000000000E+00 0.  1.
</event>
<event>
 7    1  0.2985411E-011  0.5052886E+02  0.7816164E-02  0.1300439E+00
        -11   -1    0    0    0    0  0.00000000000E+00  0.00000000000E+00  0.45593999997E+02  0.45594000000E+02  0.51100000000E-03 0.  1.
         11   -1    0    0    0    0 -0.00000000000E+00 -0.00000000000E+00 -0.45593999997E+02  0.45594000000E+02  0.51100000000E-03 0. -1.
    9900012    2    1    2    0    0  0.46514912618E+01 -0.27599155159E+01 -0.40297793627E+02  0.50528859874E+02  0.30000000072E+02 0.  0.
        -12    1    1    2    0    0 -0.46514912618E+01  0.27599155159E+01  0.40297793627E+02  0.40659140126E+02  0.00000000000E+00 0.  1.
         11    1    3    3    0    0  0.10037372248E+02 -0.66858116641E+01 -0.20951455572E+02  0.24174623267E+02  0.51100000000E-03 0. -1.
        -11    1    3    3    0    0 -0.47781021831E+01 -0.43140982177E+01 -0.13867013965E+01  0.65851837429E+01  0.51100000000E-03 0.  1.
        -12    1    3    3    0    0 -0.60777880292E+00  0.82399943659E+01 -0.17959636658E+02  0.19769052863E+02  0.00000000000E+00 0.  1.
</event>
<event>
 7    1  0.2985411E-011  0.5052886E+02  0.7816164E-02  0.1300439E+00
        -11   -1    0    0    0    0  0.00000000000E+00  0.00000000000E+00  0.45593999997E+02  0.45594000000E+02  0.51100000000E-03 0.  1.
         11   -1    0    0    0    0 -0.00000000000E+00 -0.00000000000E+00 -0.45593999997E+02  0.45594000000E+02  0.51100000000E-03 0. -1.
    9900012    2    1    2    0    0  0.40598690972E+02  0.15705532400E+01 -0.15636680324E+01  0.50528863218E+02  0.30000010239E+02 0.  0.
        -12    1    1    2    0    0 -0.40598690972E+02 -0.15705532400E+01  0.15636680324E+01  0.40659136782E+02  0.00000000000E+00 0.  1.
         11    1    3    3    0    0  0.13199795991E+02  0.20410240490E+01 -0.88173656201E+01  0.16004572163E+02  0.51100000000E-03 0. -1.
        -11    1    3    3    0    0  0.19027073259E+01  0.22117154812E+01  0.83691985858E+01  0.88631521350E+01  0.51100000000E-03 0.  1.
         12    1    3    3    0    0  0.25496187655E+02 -0.26821862902E+01 -0.11155009980E+01  0.25661138921E+02  0.00000000000E+00 0. -1.
</event>
<event>
 7    1  0.2985411E-011  0.5052886E+02  0.7816164E-02  0.1300439E+00
        -11   -1    0    0    0    0  0.00000000000E+00  0.00000000000E+00  0.45593999997E+02  0.45594000000E+02  0.51100000000E-03 0.  1.
         11   -1    0    0    0    0 -0.00000000000E+00 -0.00000000000E+00 -0.45593999997E+02  0.45594000000E+02  0.51100000000E-03 0. -1.
    9900012    2    1    2    0    0 -0.33266517983E+02  0.22632594649E+02  0.58540583893E+01  0.50528861312E+02  0.30000004443E+02 0.  0.
        -12    1    1    2    0    0  0.33266517983E+02 -0.22632594649E+02 -0.58540583893E+01  0.40659138688E+02  0.00000000000E+00 0.  1.
         11    1    3    3    0    0 -0.17630076197E+02  0.30267013191E+01 -0.94913562108E+00  0.17913161817E+02  0.51100000000E-03 0. -1.
        -11    1    3    3    0    0 -0.59932852726E+01 -0.23206256387E+01 -0.25318570436E+01  0.69076097215E+01  0.51100000000E-03 0.  1.
        -12    1    3    3    0    0 -0.96431565131E+01  0.21926518968E+02  0.93350510539E+01  0.25708089773E+02  0.00000000000E+00 0.  1.
</event>
<event>
 7    1  0.2985411E-011  0.5052886E+02  0.7816164E-02  0.1300439E+00
        -11   -1    0    0    0    0  0.00000000000E+00  0.00000000000E+00  0.45593999997E+02  0.45594000000E+02  0.51100000000E-03 0. -1.
         11   -1    0    0    0    0 -0.00000000000E+00 -0.00000000000E+00 -0.45593999997E+02  0.45594000000E+02  0.51100000000E-03 0.  1.
    9900012    2    1    2    0    0 -0.28170260097E+00  0.40439531479E+02  0.42107864241E+01  0.50528858532E+02  0.29999995994E+02 0.  0.
        -12    1    1    2    0    0  0.28170260097E+00 -0.40439531479E+02 -0.42107864241E+01  0.40659141468E+02  0.00000000000E+00 0.  1.
         11    1    3    3    0    0 -0.62827762428E+01  0.12151123400E+02 -0.12943865416E+01  0.13740397155E+02  0.51100000000E-03 0. -1.
        -11    1    3    3    0    0 -0.64340188692E+01  0.62055595704E+01 -0.39047036015E+01  0.97546029580E+01  0.51100000000E-03 0.  1.
         12    1    3    3    0    0  0.12435092511E+02  0.22082848508E+02  0.94098765673E+01  0.27033858419E+02  0.00000000000E+00 0. -1.
</event>
<event>
 7    1  0.2985411E-011  0.5052886E+02  0.7816164E-02  0.1300439E+00
        -11   -1    0    0    0    0  0.00000000000E+00  0.00000000000E+00  0.45593999997E+02  0.45594000000E+02  0.51100000000E-03 0.  1.
         11   -1    0    0    0    0 -0.00000000000E+00 -0.00000000000E+00 -0.45593999997E+02  0.45594000000E+02  0.51100000000E-03 0. -1.
    9900012    2    1    2    0    0  0.92738534404E+01  0.33837627874E+02 -0.20546928983E+02  0.50528859473E+02  0.29999998854E+02 0.  0.
        -12    1    1    2    0    0 -0.92738534404E+01 -0.33837627874E+02  0.20546928983E+02  0.40659140527E+02  0.00000000000E+00 0.  1.
         11    1    3    3    0    0  0.45496291481E+01  0.72304533732E+00 -0.42531478356E+01  0.62698633732E+01  0.51100000000E-03 0. -1.
        -11    1    3    3    0    0  0.11913353257E+02  0.84598467219E+01 -0.10329517002E+02  0.17894018949E+02  0.51100000000E-03 0.  1.
         12    1    3    3    0    0 -0.71891289651E+01  0.24654735815E+02 -0.59642641458E+01  0.26364977151E+02  0.00000000000E+00 0. -1.
</event>
<event>
 7    1  0.2985411E-011  0.5052884E+02  0.7816164E-02  0.1300439E+00
        -11   -1    0    0    0    0  0.00000000000E+00  0.00000000000E+00  0.45593999997E+02  0.45594000000E+02  0.51100000000E-03 0.  1.
         11   -1    0    0    0    0 -0.00000000000E+00 -0.00000000000E+00 -0.45593999997E+02  0.45594000000E+02  0.51100000000E-03 0. -1.
    9900012    2    1    2    0    0 -0.38769034509E+02  0.18972629584E+01 -0.12104941564E+02  0.50528840469E+02  0.29999941091E+02 0.  0.
        -12    1    1    2    0    0  0.38769034509E+02 -0.18972629584E+01  0.12104941564E+02  0.40659159531E+02  0.00000000000E+00 0.  1.
         11    1    3    3    0    0 -0.24952285407E+01 -0.70068079144E+00 -0.45352761741E+01  0.52235858639E+01  0.51100000000E-03 0. -1.
        -11    1    3    3    0    0 -0.35797489886E+02 -0.25136925178E+01 -0.12681523181E+02  0.38060477699E+02  0.51100000000E-03 0.  1.
        -12    1    3    3    0    0 -0.47631608203E+00  0.51116362676E+01  0.51118577918E+01  0.72447769065E+01  0.00000000000E+00 0.  1.
</event>
<event>
 7    1  0.2985411E-011  0.5052886E+02  0.7816164E-02  0.1300439E+00
        -11   -1    0    0    0    0  0.00000000000E+00  0.00000000000E+00  0.45593999997E+02  0.45594000000E+02  0.51100000000E-03 0.  1.
         11   -1    0    0    0    0 -0.00000000000E+00 -0.00000000000E+00 -0.45593999997E+02  0.45594000000E+02  0.51100000000E-03 0. -1.
    9900012    2    1    2    0    0 -0.20010166343E+01 -0.20125956125E+02 -0.35271909197E+02  0.50528858889E+02  0.29999997078E+02 0.  0.
        -12    1    1    2    0    0  0.20010166343E+01  0.20125956125E+02  0.35271909197E+02  0.40659141111E+02  0.00000000000E+00 0.  1.
         11    1    3    3    0    0  0.36048882765E+01 -0.99907844558E+01 -0.69026583895E-01  0.10621476284E+02  0.51100000000E-03 0. -1.
        -11    1    3    3    0    0  0.46642732203E+01 -0.46874007615E+01 -0.83901496966E+01  0.10682779730E+02  0.51100000000E-03 0.  1.
        -12    1    3    3    0    0 -0.10270178131E+02 -0.54477709079E+01 -0.26812732916E+02  0.29224602874E+02  0.00000000000E+00 0.  1.
</event>
<event>
 7    1  0.2985411E-011  0.5052885E+02  0.7816164E-02  0.1300439E+00
        -11   -1    0    0    0    0  0.00000000000E+00  0.00000000000E+00  0.45593999997E+02  0.45594000000E+02  0.51100000000E-03 0.  1.
         11   -1    0    0    0    0 -0.00000000000E+00 -0.00000000000E+00 -0.45593999997E+02  0.45594000000E+02  0.51100000000E-03 0. -1.
    9900012    2    1    2    0    0  0.32471993625E+02  0.13864642465E+01 -0.24429777059E+02  0.50528847768E+02  0.29999963274E+02 0.  0.
        -12    1    1    2    0    0 -0.32471993625E+02 -0.13864642465E+01  0.24429777059E+02  0.40659152232E+02  0.00000000000E+00 0.  1.
         11    1    3    3    0    0  0.22740183223E+02  0.88210728786E+00 -0.18612684884E+02  0.29399423210E+02  0.51100000000E-03 0.  1.
        -11    1    3    3    0    0  0.83951392740E+01  0.85014219342E+01 -0.50964076745E+01  0.12989453791E+02  0.51100000000E-03 0. -1.
        -12    1    3    3    0    0  0.13366711288E+01 -0.79970649755E+01 -0.72068450071E+00  0.81399707665E+01  0.00000000000E+00 0.  1.
</event>
<event>
 7    1  0.2985411E-011  0.5052886E+02  0.7816164E-02  0.1300439E+00
        -11   -1    0    0    0    0  0.00000000000E+00  0.00000000000E+00  0.45593999997E+02  0.45594000000E+02  0.51100000000E-03 0.  1.
         11   -1    0    0    0    0 -0.00000000000E+00 -0.00000000000E+00 -0.45593999997E+02  0.45594000000E+02  0.51100000000E-03 0. -1.
    9900012    2    1    2    0    0  0.40256924458E+02  0.40772398331E+01 -0.39902191314E+01  0.50528859574E+02  0.29999999161E+02 0.  0.
        -12    1    1    2    0    0 -0.40256924458E+02 -0.40772398331E+01  0.39902191314E+01  0.40659140426E+02  0.00000000000E+00 0.  1.
         11    1    3    3    0    0  0.19983304616E+01 -0.37772134590E+01 -0.17284442741E+01  0.46095754706E+01  0.51100000000E-03 0. -1.
        -11    1    3    3    0    0  0.14164072420E+02 -0.53743017864E+01  0.72999914367E+01  0.16816478301E+02  0.51100000000E-03 0.  1.
         12    1    3    3    0    0  0.24094521577E+02  0.13228755079E+02 -0.95617662940E+01  0.29102805803E+02  0.00000000000E+00 0. -1.
</event>
<event>
 7    1  0.2985411E-011  0.5052886E+02  0.7816164E-02  0.1300439E+00
        -11   -1    0    0    0    0  0.00000000000E+00  0.00000000000E+00  0.45593999997E+02  0.45594000000E+02  0.51100000000E-03 0. -1.
         11   -1    0    0    0    0 -0.00000000000E+00 -0.00000000000E+00 -0.45593999997E+02  0.45594000000E+02  0.51100000000E-03 0.  1.
    9900012    2    1    2    0    0 -0.94513995713E+01 -0.37392511303E+02  0.12869995285E+02  0.50528860387E+02  0.30000001634E+02 0.  0.
        -12    1    1    2    0    0  0.94513995713E+01  0.37392511303E+02 -0.12869995285E+02  0.40659139613E+02  0.00000000000E+00 0.  1.
         11    1    3    3    0    0 -0.30411136549E+01  0.10522787735E+01 -0.50063796930E+01  0.59514284647E+01  0.51100000000E-03 0.  1.
        -11    1    3    3    0    0  0.21052868888E+01 -0.99006261094E+01  0.88694846424E+01  0.13458171805E+02  0.51100000000E-03 0. -1.
        -12    1    3    3    0    0 -0.85155728053E+01 -0.28544163967E+02  0.90068903352E+01  0.31119260118E+02  0.00000000000E+00 0.  1.
</event>
<event>
 7    1  0.2985411E-011  0.5052886E+02  0.7816164E-02  0.1300439E+00
        -11   -1    0    0    0    0  0.00000000000E+00  0.00000000000E+00  0.45593999997E+02  0.45594000000E+02  0.51100000000E-03 0.  1.
         11   -1    0    0    0    0 -0.00000000000E+00 -0.00000000000E+00 -0.45593999997E+02  0.45594000000E+02  0.51100000000E-03 0. -1.
    9900012    2    1    2    0    0  0.23336919000E+02  0.12356778337E+02 -0.30917052798E+02  0.50528856957E+02  0.29999991206E+02 0.  0.
        -12    1    1    2    0    0 -0.23336919000E+02 -0.12356778337E+02  0.30917052798E+02  0.40659143043E+02  0.00000000000E+00 0.  1.
         11    1    3    3    0    0  0.13132793464E+02  0.68740975219E+01 -0.17182804436E+02  0.22693000010E+02  0.51100000000E-03 0. -1.
        -11    1    3    3    0    0  0.10110465827E+02  0.91657658120E+01 -0.31808443164E-01  0.13646750316E+02  0.51100000000E-03 0.  1.
        -12    1    3    3    0    0  0.93659708498E-01 -0.36830849969E+01 -0.13702439919E+02  0.14189106631E+02  0.00000000000E+00 0.  1.
</event>
<event>
 7    1  0.2985411E-011  0.5052886E+02  0.7816164E-02  0.1300439E+00
        -11   -1    0    0    0    0  0.00000000000E+00  0.00000000000E+00  0.45593999997E+02  0.45594000000E+02  0.51100000000E-03 0.  1.
         11   -1    0    0    0    0 -0.00000000000E+00 -0.00000000000E+00 -0.45593999997E+02  0.45594000000E+02  0.51100000000E-03 0. -1.
    9900012    2    1    2    0    0 -0.56260164780E+01 -0.39436195459E+02 -0.81424885385E+01  0.50528859659E+02  0.29999999419E+02 0.  0.
        -12    1    1    2    0    0  0.56260164780E+01  0.39436195459E+02  0.81424885385E+01  0.40659140341E+02  0.00000000000E+00 0.  1.
         11    1    3    3    0    0 -0.54326898093E+01 -0.16598459762E+02 -0.83444421368E+01  0.19355947403E+02  0.51100000000E-03 0. -1.
        -11    1    3    3    0    0  0.20067519822E+01 -0.21950749719E+02 -0.73671055855E+01  0.23240841459E+02  0.51100000000E-03 0.  1.
        -12    1    3    3    0    0 -0.22000786509E+01 -0.88698597739E+00  0.75690591837E+01  0.79320707965E+01  0.00000000000E+00 0.  1.
</event>
<event>
 7    1  0.2985411E-011  0.5052888E+02  0.7816164E-02  0.1300439E+00
        -11   -1    0    0    0    0  0.00000000000E+00  0.00000000000E+00  0.45593999997E+02  0.45594000000E+02  0.51100000000E-03 0. -1.
         11   -1    0    0    0    0 -0.00000000000E+00 -0.00000000000E+00 -0.45593999997E+02  0.45594000000E+02  0.51100000000E-03 0.  1.
    9900012    2    1    2    0    0 -0.11790632009E+02  0.14041103382E+02  0.36290394631E+02  0.50528876426E+02  0.30000050385E+02 0.  0.
        -12    1    1    2    0    0  0.11790632009E+02 -0.14041103382E+02 -0.36290394631E+02  0.40659123574E+02  0.00000000000E+00 0.  1.
         11    1    3    3    0    0  0.19439511674E+00  0.66965696098E+00  0.84593668924E+01  0.84880573978E+01  0.51100000000E-03 0. -1.
        -11    1    3    3    0    0  0.38212232027E+00 -0.73557532120E+01  0.61167488228E+01  0.95743270889E+01  0.51100000000E-03 0.  1.
         12    1    3    3    0    0 -0.12367149446E+02  0.20727199633E+02  0.21714278915E+02  0.32466491939E+02  0.00000000000E+00 0. -1.
</event>
<event>
 7    1  0.2985411E-011  0.5052886E+02  0.7816164E-02  0.1300439E+00
        -11   -1    0    0    0    0  0.00000000000E+00  0.00000000000E+00  0.45593999997E+02  0.45594000000E+02  0.51100000000E-03 0.  1.
         11   -1    0    0    0    0 -0.00000000000E+00 -0.00000000000E+00 -0.45593999997E+02  0.45594000000E+02  0.51100000000E-03 0. -1.
    9900012    2    1    2    0    0 -0.25805705809E+02 -0.68143570302E+01 -0.30672391478E+02  0.50528861876E+02  0.30000006159E+02 0.  0.
        -12    1    1    2    0    0  0.25805705809E+02  0.68143570302E+01  0.30672391478E+02  0.40659138124E+02  0.00000000000E+00 0.  1.
         11    1    3    3    0    0 -0.10594293423E+02 -0.91123368901E+01 -0.14117785938E+02  0.19864179237E+02  0.51100000000E-03 0. -1.
        -11    1    3    3    0    0 -0.14764661751E+01 -0.20985025854E+01  0.44790240160E+01  0.51619106796E+01  0.51100000000E-03 0.  1.
        -12    1    3    3    0    0 -0.13734946211E+02  0.43964824452E+01 -0.21033629556E+02  0.25502771959E+02  0.00000000000E+00 0.  1.
</event>
<event>
 7    1  0.2985411E-011  0.5052887E+02  0.7816164E-02  0.1300439E+00
        -11   -1    0    0    0    0  0.00000000000E+00  0.00000000000E+00  0.45593999997E+02  0.45594000000E+02  0.51100000000E-03 0.  1.
         11   -1    0    0    0    0 -0.00000000000E+00 -0.00000000000E+00 -0.45593999997E+02  0.45594000000E+02  0.51100000000E-03 0. -1.
    9900012    2    1    2    0    0  0.22337129418E+02  0.28080701456E+01 -0.33857528915E+02  0.50528869749E+02  0.30000030088E+02 0.  0.
        -12    1    1    2    0    0 -0.22337129418E+02 -0.28080701456E+01  0.33857528915E+02  0.40659130251E+02  0.00000000000E+00 0.  1.
         11    1    3    3    0    0 -0.21222173333E+00  0.27977863495E+01 -0.83007986227E+01  0.87621860605E+01  0.51100000000E-03 0.  1.
        -11    1    3    3    0    0  0.82597892387E+01 -0.21190613206E+01 -0.25948820167E+02  0.27314022177E+02  0.51100000000E-03 0. -1.
        -12    1    3    3    0    0  0.14289561913E+02  0.21293451167E+01  0.39208987527E+00  0.14452661511E+02  0.00000000000E+00 0.  1.
</event>
<event>
 7    1  0.2985411E-011  0.5052887E+02  0.7816164E-02  0.1300439E+00
        -11   -1    0    0    0    0  0.00000000000E+00  0.00000000000E+00  0.45593999997E+02  0.45594000000E+02  0.51100000000E-03 0. -1.
         11   -1    0    0    0    0 -0.00000000000E+00 -0.00000000000E+00 -0.45593999997E+02  0.45594000000E+02  0.51100000000E-03 0.  1.
    9900012    2    1    2    0    0  0.38171379122E+02  0.85514090093E+01  0.11089813622E+02  0.50528871304E+02  0.30000034816E+02 0.  0.
        -12    1    1    2    0    0 -0.38171379122E+02 -0.85514090093E+01 -0.11089813622E+02  0.40659128696E+02  0.00000000000E+00 0.  1.
         11    1    3    3    0    0  0.20322399465E+02 -0.10500905911E+01  0.90159954358E+01  0.22257375951E+02  0.51100000000E-03 0. -1.
        -11    1    3    3    0    0  0.90373634103E+01 -0.28080488370E+01  0.75398630155E+01  0.12099942572E+02  0.51100000000E-03 0.  1.
         12    1    3    3    0    0  0.88116162473E+01  0.12409548437E+02 -0.54660448290E+01  0.16171552782E+02  0.00000000000E+00 0. -1.
</event>
<event>
 7    1  0.2985411E-011  0.5052887E+02  0.7816164E-02  0.1300439E+00
        -11   -1    0    0    0    0  0.00000000000E+00  0.00000000000E+00  0.45593999997E+02  0.45594000000E+02  0.51100000000E-03 0. -1.
         11   -1    0    0    0    0 -0.00000000000E+00 -0.00000000000E+00 -0.45593999997E+02  0.45594000000E+02  0.51100000000E-03 0.  1.
    9900012    2    1    2    0    0 -0.83328548678E+01  0.14486460162E+02  0.37065768924E+02  0.50528865427E+02  0.30000016953E+02 0.  0.
        -12    1    1    2    0    0  0.83328548678E+01 -0.14486460162E+02 -0.37065768924E+02  0.40659134573E+02  0.00000000000E+00 0.  1.
         11    1    3    3    0    0  0.71749069138E+01  0.41925492437E+01  0.19789456610E+02  0.21463442212E+02  0.51100000000E-03 0.  1.
        -11    1    3    3    0    0  0.10964037718E+01  0.13930125863E+01  0.77581071725E+01  0.79580658742E+01  0.51100000000E-03 0. -1.
        -12    1    3    3    0    0 -0.16604165553E+02  0.89008983320E+01  0.95182051411E+01  0.21107357342E+02  0.00000000000E+00 0.  1.
</event>
<event>
 7    1  0.2985411E-011  0.5052885E+02  0.7816164E-02  0.1300439E+00
        -11   -1    0    0    0    0  0.00000000000E+00  0.00000000000E+00  0.45593999997E+02  0.45594000000E+02  0.51100000000E-03 0. -1.
         11   -1    0    0    0    0 -0.00000000000E+00 -0.00000000000E+00 -0.45593999997E+02  0.45594000000E+02  0.51100000000E-03 0.  1.
    9900012    2    1    2    0    0  0.21923493929E+02  0.68492224815E+01  0.33550180949E+02  0.50528854948E+02  0.29999985101E+02 0.  0.
        -12    1    1    2    0    0 -0.21923493929E+02 -0.68492224815E+01 -0.33550180949E+02  0.40659145052E+02  0.00000000000E+00 0.  1.
         11    1    3    3    0    0  0.20258932888E+00  0.10664385607E+01  0.12204738772E+02  0.12252917301E+02  0.51100000000E-03 0. -1.
        -11    1    3    3    0    0 -0.43781425370E+01  0.31181433185E+01  0.51552663481E+01  0.74476654873E+01  0.51100000000E-03 0.  1.
         12    1    3    3    0    0  0.26099047137E+02  0.26646406022E+01  0.16190175829E+02  0.30828272160E+02  0.00000000000E+00 0. -1.
</event>
<event>
 7    1  0.2985411E-011  0.5052886E+02  0.7816164E-02  0.1300439E+00
        -11   -1    0    0    0    0  0.00000000000E+00  0.00000000000E+00  0.45593999997E+02  0.45594000000E+02  0.51100000000E-03 0. -1.
         11   -1    0    0    0    0 -0.00000000000E+00 -0.00000000000E+00 -0.45593999997E+02  0.45594000000E+02  0.51100000000E-03 0.  1.
    9900012    2    1    2    0    0  0.20591768665E+02 -0.19199492552E+02  0.29334689762E+02  0.50528862350E+02  0.30000007600E+02 0.  0.
        -12    1    1    2    0    0 -0.20591768665E+02  0.19199492552E+02 -0.29334689762E+02  0.40659137650E+02  0.00000000000E+00 0.  1.
         11    1    3    3    0    0  0.16803454262E+01 -0.61827918243E+01  0.15985495625E+02  0.17221688248E+02  0.51100000000E-03 0.  1.
        -11    1    3    3    0    0 -0.32718569782E+01 -0.59059357947E+01  0.55536924309E+01  0.87423466858E+01  0.51100000000E-03 0. -1.
         12    1    3    3    0    0  0.22183280217E+02 -0.71107649326E+01  0.77955017063E+01  0.24564827416E+02  0.00000000000E+00 0. -1.
</event>
<event>
 7    1  0.2985411E-011  0.5052884E+02  0.7816164E-02  0.1300439E+00
        -11   -1    0    0    0    0  0.00000000000E+00  0.00000000000E+00  0.45593999997E+02  0.45594000000E+02  0.51100000000E-03 0. -1.
         11   -1    0    0    0    0 -0.00000000000E+00 -0.00000000000E+00 -0.45593999997E+02  0.45594000000E+02  0.51100000000E-03 0.  1.
    9900012    2    1    2    0    0 -0.22299355883E+02 -0.51857942151E+01  0.33600791478E+02  0.50528844544E+02  0.29999953477E+02 0.  0.
        -12    1    1    2    0    0  0.22299355883E+02  0.51857942151E+01 -0.33600791478E+02  0.40659155456E+02  0.00000000000E+00 0.  1.
         11    1    3    3    0    0 -0.39978902650E+01 -0.91726145529E+01  0.71697521429E+01  0.12309562558E+02  0.51100000000E-03 0. -1.
        -11    1    3    3    0    0 -0.87183470369E+01 -0.77035686229E+01  0.69163595600E+01  0.13534791258E+02  0.51100000000E-03 0.  1.
         12    1    3    3    0    0 -0.95831185807E+01  0.11690388961E+02  0.19514679775E+02  0.24684490728E+02  0.00000000000E+00 0. -1.
</event>
<event>
 7    1  0.2985411E-011  0.5052886E+02  0.7816164E-02  0.1300439E+00
        -11   -1    0    0    0    0  0.00000000000E+00  0.00000000000E+00  0.45593999997E+02  0.45594000000E+02  0.51100000000E-03 0.  1.
         11   -1    0    0    0    0 -0.00000000000E+00 -0.00000000000E+00 -0.45593999997E+02  0.45594000000E+02  0.51100000000E-03 0. -1.
    9900012    2    1    2    0    0 -0.32398967948E+02 -0.36325987577E+01 -0.24295614091E+02  0.50528858816E+02  0.29999996856E+02 0.  0.
        -12    1    1    2    0    0  0.32398967948E+02  0.36325987577E+01  0.24295614091E+02  0.40659141184E+02  0.00000000000E+00 0.  1.
         11    1    3    3    0    0 -0.24924592552E+02  0.60115292493E+01 -0.19165754236E+02  0.32010934593E+02  0.51100000000E-03 0. -1.
        -11    1    3    3    0    0 -0.20520442575E+01 -0.26485091572E+01 -0.84302253749E+01  0.90716143284E+01  0.51100000000E-03 0.  1.
        -12    1    3    3    0    0 -0.54223311376E+01 -0.69956188497E+01  0.33003655196E+01  0.94463098943E+01  0.00000000000E+00 0.  1.
</event>
<event>
 7    1  0.2985411E-011  0.5052886E+02  0.7816164E-02  0.1300439E+00
        -11   -1    0    0    0    0  0.00000000000E+00  0.00000000000E+00  0.45593999997E+02  0.45594000000E+02  0.51100000000E-03 0.  1.
         11   -1    0    0    0    0 -0.00000000000E+00 -0.00000000000E+00 -0.45593999997E+02  0.45594000000E+02  0.51100000000E-03 0. -1.
    9900012    2    1    2    0    0  0.26020355924E+02  0.12491250909E+02 -0.28636959237E+02  0.50528859502E+02  0.29999998943E+02 0.  0.
        -12    1    1    2    0    0 -0.26020355924E+02 -0.12491250909E+02  0.28636959237E+02  0.40659140498E+02  0.00000000000E+00 0.  1.
         11    1    3    3    0    0  0.73695014449E+01  0.35025591177E+01 -0.77145328687E+01  0.11229046690E+02  0.51100000000E-03 0. -1.
        -11    1    3    3    0    0  0.21193827965E+02  0.19365771943E+01 -0.52400105029E+01  0.21917718525E+02  0.51100000000E-03 0.  1.
         12    1    3    3    0    0 -0.25429734857E+01  0.70521145971E+01 -0.15682415865E+02  0.17382094287E+02  0.00000000000E+00 0. -1.
</event>
<event>
 7    1  0.2985411E-011  0.5052886E+02  0.7816164E-02  0.1300439E+00
        -11   -1    0    0    0    0  0.00000000000E+00  0.00000000000E+00  0.45593999997E+02  0.45594000000E+02  0.51100000000E-03 0. -1.
         11   -1    0    0    0    0 -0.00000000000E+00 -0.00000000000E+00 -0.45593999997E+02  0.45594000000E+02  0.51100000000E-03 0.  1.
    9900012    2    1    2    0    0 -0.15211648031E+02 -0.21415512743E+02  0.31034615997E+02  0.50528858199E+02  0.29999994983E+02 0.  0.
        -12    1    1    2    0    0  0.15211648031E+02  0.21415512743E+02 -0.31034615997E+02  0.40659141801E+02  0.00000000000E+00 0.  1.
         11    1    3    3    0    0  0.20232606689E+00 -0.10207417275E+01  0.94810794355E+01  0.95380143130E+01  0.51100000000E-03 0. -1.
        -11    1    3    3    0    0 -0.14879196442E+02 -0.12853501920E+01  0.51398769525E+01  0.15794332757E+02  0.51100000000E-03 0.  1.
        -12    1    3    3    0    0 -0.53477765578E+00 -0.19109420823E+02  0.16413659609E+02  0.25196511130E+02  0.00000000000E+00 0.  1.
</event>
<event>
 7    1  0.2985411E-011  0.5052886E+02  0.7816164E-02  0.1300439E+00
        -11   -1    0    0    0    0  0.00000000000E+00  0.00000000000E+00  0.45593999997E+02  0.45594000000E+02  0.51100000000E-03 0. -1.
         11   -1    0    0    0    0 -0.00000000000E+00 -0.00000000000E+00 -0.45593999997E+02  0.45594000000E+02  0.51100000000E-03 0.  1.
    9900012    2    1    2    0    0  0.18039148306E+02 -0.15878290827E+00  0.36438024312E+02  0.50528859584E+02  0.29999999190E+02 0.  0.
        -12    1    1    2    0    0 -0.18039148306E+02  0.15878290827E+00 -0.36438024312E+02  0.40659140416E+02  0.00000000000E+00 0.  1.
         11    1    3    3    0    0  0.15247291256E+02 -0.10747457420E+02  0.14959641130E+02  0.23911892327E+02  0.51100000000E-03 0. -1.
        -11    1    3    3    0    0  0.36485185935E+01  0.48228950969E+01  0.21332487484E+01  0.64127026695E+01  0.51100000000E-03 0.  1.
        -12    1    3    3    0    0 -0.85666154354E+00  0.57657794149E+01  0.19345134434E+02  0.20204264588E+02  0.00000000000E+00 0.  1.
</event>
<event>
 7    1  0.2985411E-011  0.5052884E+02  0.7816164E-02  0.1300439E+00
        -11   -1    0    0    0    0  0.00000000000E+00  0.00000000000E+00  0.45593999997E+02  0.45594000000E+02  0.51100000000E-03 0.  1.
         11   -1    0    0    0    0 -0.00000000000E+00 -0.00000000000E+00 -0.45593999997E+02  0.45594000000E+02  0.51100000000E-03 0. -1.
    9900012    2    1    2    0    0  0.16371950298E+02  0.69924077006E+01 -0.36554517714E+02  0.50528840057E+02  0.29999939837E+02 0.  0.
        -12    1    1    2    0    0 -0.16371950298E+02 -0.69924077006E+01  0.36554517714E+02  0.40659159943E+02  0.00000000000E+00 0.  1.
         11    1    3    3    0    0 -0.29499987834E+01  0.60940108150E+01 -0.63189584073E+01  0.92611390363E+01  0.51100000000E-03 0. -1.
        -11    1    3    3    0    0  0.56068939515E+01 -0.79375764984E+01 -0.42991019456E+01  0.10626601444E+02  0.51100000000E-03 0.  1.
        -12    1    3    3    0    0  0.13715055130E+02  0.88359733840E+01 -0.25936457361E+02  0.30641099577E+02  0.00000000000E+00 0.  1.
</event>
<event>
 7    1  0.2985411E-011  0.5052886E+02  0.7816164E-02  0.1300439E+00
        -11   -1    0    0    0    0  0.00000000000E+00  0.00000000000E+00  0.45593999997E+02  0.45594000000E+02  0.51100000000E-03 0. -1.
         11   -1    0    0    0    0 -0.00000000000E+00 -0.00000000000E+00 -0.45593999997E+02  0.45594000000E+02  0.51100000000E-03 0.  1.
    9900012    2    1    2    0    0  0.31950395092E+01 -0.37281922376E+02 -0.15906461474E+02  0.50528861665E+02  0.30000005516E+02 0.  0.
        -12    1    1    2    0    0 -0.31950395092E+01  0.37281922376E+02  0.15906461474E+02  0.40659138335E+02  0.00000000000E+00 0.  1.
         11    1    3    3    0    0 -0.32386196231E+01 -0.18898991119E+02  0.16262231579E+01  0.19243313759E+02  0.51100000000E-03 0. -1.
        -11    1    3    3    0    0 -0.19353443706E+00 -0.14029936477E+02 -0.24469710187E+01  0.14243041830E+02  0.51100000000E-03 0.  1.
        -12    1    3    3    0    0  0.66271935694E+01 -0.43529947798E+01 -0.15085713613E+02  0.17042506076E+02  0.00000000000E+00 0.  1.
</event>
<event>
 7    1  0.2985411E-011  0.5052887E+02  0.7816164E-02  0.1300439E+00
        -11   -1    0    0    0    0  0.00000000000E+00  0.00000000000E+00  0.45593999997E+02  0.45594000000E+02  0.51100000000E-03 0.  1.
         11   -1    0    0    0    0 -0.00000000000E+00 -0.00000000000E+00 -0.45593999997E+02  0.45594000000E+02  0.51100000000E-03 0. -1.
    9900012    2    1    2    0    0 -0.14064383045E+02  0.36361686611E+02  0.11540595343E+02  0.50528874769E+02  0.30000045348E+02 0.  0.
        -12    1    1    2    0    0  0.14064383045E+02 -0.36361686611E+02 -0.11540595343E+02  0.40659125231E+02  0.00000000000E+00 0.  1.
         11    1    3    3    0    0 -0.13253104922E+01 -0.16641845200E+01  0.36694149614E+01  0.42415285496E+01  0.51100000000E-03 0. -1.
        -11    1    3    3    0    0 -0.32262577994E+01  0.10221965967E+01  0.73334296190E+01  0.80766834474E+01  0.51100000000E-03 0.  1.
         12    1    3    3    0    0 -0.95128147539E+01  0.37003674535E+02  0.53775076263E+00  0.38210662772E+02  0.00000000000E+00 0. -1.
</event>
<event>
 7    1  0.2985411E-011  0.5052885E+02  0.7816164E-02  0.1300439E+00
        -11   -1    0    0    0    0  0.00000000000E+00  0.00000000000E+00  0.45593999997E+02  0.45594000000E+02  0.51100000000E-03 0.  1.
         11   -1    0    0    0    0 -0.00000000000E+00 -0.00000000000E+00 -0.45593999997E+02  0.45594000000E+02  0.51100000000E-03 0. -1.
    9900012    2    1    2    0    0 -0.20022988446E+02 -0.12854389545E+02 -0.32969845786E+02  0.50528854313E+02  0.29999983169E+02 0.  0.
        -12    1    1    2    0    0  0.20022988446E+02  0.12854389545E+02  0.32969845786E+02  0.40659145687E+02  0.00000000000E+00 0.  1.
         11    1    3    3    0    0 -0.49692299799E+01 -0.22622459207E+01 -0.14168851626E+02  0.15184444668E+02  0.51100000000E-03 0. -1.
        -11    1    3    3    0    0 -0.11473431779E+02 -0.78934739314E+01 -0.24446599478E+02  0.28135081194E+02  0.51100000000E-03 0.  1.
        -12    1    3    3    0    0 -0.35803266870E+01 -0.26986696928E+01  0.56456053187E+01  0.72093284507E+01  0.00000000000E+00 0.  1.
</event>
<event>
 7    1  0.2985411E-011  0.5052886E+02  0.7816164E-02  0.1300439E+00
        -11   -1    0    0    0    0  0.00000000000E+00  0.00000000000E+00  0.45593999997E+02  0.45594000000E+02  0.51100000000E-03 0. -1.
         11   -1    0    0    0    0 -0.00000000000E+00 -0.00000000000E+00 -0.45593999997E+02  0.45594000000E+02  0.51100000000E-03 0.  1.
    9900012    2    1    2    0    0 -0.16732197186E+02  0.22503864894E+02  0.29441047164E+02  0.50528860609E+02  0.30000002308E+02 0.  0.
        -12    1    1    2    0    0  0.16732197186E+02 -0.22503864894E+02 -0.29441047164E+02  0.40659139391E+02  0.00000000000E+00 0.  1.
         11    1    3    3    0    0 -0.12582818099E+01  0.36390833241E+01  0.23486441708E+01  0.45102472499E+01  0.51100000000E-03 0. -1.
        -11    1    3    3    0    0 -0.12683764952E+02  0.14576808362E+02  0.91307943118E+00  0.19344119253E+02  0.51100000000E-03 0.  1.
         12    1    3    3    0    0 -0.27901504237E+01  0.42879732084E+01  0.26179323562E+02  0.26674494106E+02  0.00000000000E+00 0. -1.
</event>
<event>
 7    1  0.2985411E-011  0.5052885E+02  0.7816164E-02  0.1300439E+00
        -11   -1    0    0    0    0  0.00000000000E+00  0.00000000000E+00  0.45593999997E+02  0.45594000000E+02  0.51100000000E-03 0.  1.
         11   -1    0    0    0    0 -0.00000000000E+00 -0.00000000000E+00 -0.45593999997E+02  0.45594000000E+02  0.51100000000E-03 0. -1.
    9900012    2    1    2    0    0  0.88630490999E+01 -0.20139639709E+02 -0.34190753690E+02  0.50528851400E+02  0.29999974315E+02 0.  0.
        -12    1    1    2    0    0 -0.88630490999E+01  0.20139639709E+02  0.34190753690E+02  0.40659148600E+02  0.00000000000E+00 0.  1.
         11    1    3    3    0    0  0.34354395991E+01 -0.95530171971E+01 -0.11361737613E+02  0.15236517471E+02  0.51100000000E-03 0. -1.
        -11    1    3    3    0    0 -0.22381819729E+01 -0.16685758162E+02 -0.16832192964E+02  0.23806442494E+02  0.51100000000E-03 0.  1.
        -12    1    3    3    0    0  0.76657914737E+01  0.60991356498E+01 -0.59968231136E+01  0.11485891435E+02  0.00000000000E+00 0.  1.
</event>
<event>
 7    1  0.2985411E-011  0.5052893E+02  0.7816164E-02  0.1300439E+00
        -11   -1    0    0    0    0  0.00000000000E+00  0.00000000000E+00  0.45593999997E+02  0.45594000000E+02  0.51100000000E-03 0.  1.
         11   -1    0    0    0    0 -0.00000000000E+00 -0.00000000000E+00 -0.45593999997E+02  0.45594000000E+02  0.51100000000E-03 0. -1.
    9900012    2    1    2    0    0 -0.25276034757E+02  0.15020460231E+01 -0.31812351639E+02  0.50528932228E+02  0.30000219998E+02 0.  0.
        -12    1    1    2    0    0  0.25276034757E+02 -0.15020460231E+01  0.31812351639E+02  0.40659067772E+02  0.00000000000E+00 0.  1.
         11    1    3    3    0    0 -0.86787120736E+01  0.76191468136E+01 -0.10659794290E+02  0.15716318144E+02  0.51100000000E-03 0. -1.
        -11    1    3    3    0    0 -0.63135994920E+01  0.72645111513E+01 -0.31276782411E+01  0.10120130051E+02  0.51100000000E-03 0.  1.
        -12    1    3    3    0    0 -0.10283723192E+02 -0.13381611942E+02 -0.18024879108E+02  0.24692484033E+02  0.00000000000E+00 0.  1.
</event>
<event>
 7    1  0.2985411E-011  0.5052885E+02  0.7816164E-02  0.1300439E+00
        -11   -1    0    0    0    0  0.00000000000E+00  0.00000000000E+00  0.45593999997E+02  0.45594000000E+02  0.51100000000E-03 0.  1.
         11   -1    0    0    0    0 -0.00000000000E+00 -0.00000000000E+00 -0.45593999997E+02  0.45594000000E+02  0.51100000000E-03 0. -1.
    9900012    2    1    2    0    0  0.18289254980E+02 -0.10153713423E+01 -0.36299288904E+02  0.50528853407E+02  0.29999980417E+02 0.  0.
        -12    1    1    2    0    0 -0.18289254980E+02  0.10153713423E+01  0.36299288904E+02  0.40659146593E+02  0.00000000000E+00 0.  1.
         11    1    3    3    0    0  0.60967609111E+01 -0.82082237321E+01 -0.90270973192E+01  0.13639425087E+02  0.51100000000E-03 0. -1.
        -11    1    3    3    0    0 -0.22155557681E+01 -0.52564340057E+01 -0.49837138146E+01  0.75747072198E+01  0.51100000000E-03 0.  1.
         12    1    3    3    0    0  0.14408049837E+02  0.12449286396E+02 -0.22288477770E+02  0.29314721100E+02  0.00000000000E+00 0. -1.
</event>
<event>
 7    1  0.2985411E-011  0.5052885E+02  0.7816164E-02  0.1300439E+00
        -11   -1    0    0    0    0  0.00000000000E+00  0.00000000000E+00  0.45593999997E+02  0.45594000000E+02  0.51100000000E-03 0. -1.
         11   -1    0    0    0    0 -0.00000000000E+00 -0.00000000000E+00 -0.45593999997E+02  0.45594000000E+02  0.51100000000E-03 0.  1.
    9900012    2    1    2    0    0  0.17360011187E+02 -0.30531599611E+02  0.20484569899E+02  0.50528853831E+02  0.29999981705E+02 0.  0.
        -12    1    1    2    0    0 -0.17360011187E+02  0.30531599611E+02 -0.20484569899E+02  0.40659146169E+02  0.00000000000E+00 0.  1.
         11    1    3    3    0    0 -0.43466698615E+01  0.73770694228E+00  0.10891612047E+01  0.45413679446E+01  0.51100000000E-03 0. -1.
        -11    1    3    3    0    0 -0.21135052582E+00 -0.28891357713E+01  0.77685574290E+01  0.82910951833E+01  0.51100000000E-03 0.  1.
        -12    1    3    3    0    0  0.21918031575E+02 -0.28380170782E+02  0.11626851265E+02  0.37696390703E+02  0.00000000000E+00 0.  1.
</event>
<event>
 7    1  0.2985411E-011  0.5052885E+02  0.7816164E-02  0.1300439E+00
        -11   -1    0    0    0    0  0.00000000000E+00  0.00000000000E+00  0.45593999997E+02  0.45594000000E+02  0.51100000000E-03 0. -1.
         11   -1    0    0    0    0 -0.00000000000E+00 -0.00000000000E+00 -0.45593999997E+02  0.45594000000E+02  0.51100000000E-03 0.  1.
    9900012    2    1    2    0    0  0.28640124624E+02 -0.25502603071E+02 -0.13510241854E+02  0.50528854204E+02  0.29999982840E+02 0.  0.
        -12    1    1    2    0    0 -0.28640124624E+02  0.25502603071E+02  0.13510241854E+02  0.40659145796E+02  0.00000000000E+00 0.  1.
         11    1    3    3    0    0 -0.22732422584E+01 -0.11165889565E+01 -0.49772905955E+01  0.55846059123E+01  0.51100000000E-03 0. -1.
        -11    1    3    3    0    0  0.31206989156E+01  0.27218663434E+01  0.21663327163E+01  0.46733623669E+01  0.51100000000E-03 0.  1.
         12    1    3    3    0    0  0.27792667967E+02 -0.27107880458E+02 -0.10699283975E+02  0.40270885925E+02  0.00000000000E+00 0. -1.
</event>
<event>
 7    1  0.2985411E-011  0.5052886E+02  0.7816164E-02  0.1300439E+00
        -11   -1    0    0    0    0  0.00000000000E+00  0.00000000000E+00  0.45593999997E+02  0.45594000000E+02  0.51100000000E-03 0. -1.
         11   -1    0    0    0    0 -0.00000000000E+00 -0.00000000000E+00 -0.45593999997E+02  0.45594000000E+02  0.51100000000E-03 0.  1.
    9900012    2    1    2    0    0 -0.25744538326E+02 -0.12949379807E+02  0.28682713629E+02  0.50528858935E+02  0.29999997219E+02 0.  0.
        -12    1    1    2    0    0  0.25744538326E+02  0.12949379807E+02 -0.28682713629E+02  0.40659141065E+02  0.00000000000E+00 0.  1.
         11    1    3    3    0    0 -0.48872016392E+01 -0.44655527097E+00 -0.31892690458E+01  0.58528274175E+01  0.51100000000E-03 0. -1.
        -11    1    3    3    0    0 -0.14997281618E+02 -0.49506096448E+00  0.72563234213E+01  0.16667866424E+02  0.51100000000E-03 0.  1.
         12    1    3    3    0    0 -0.58600550692E+01 -0.12007763572E+02  0.24615659254E+02  0.28008165093E+02  0.00000000000E+00 0. -1.
</event>
<event>
 7    1  0.2985411E-011  0.5052886E+02  0.7816164E-02  0.1300439E+00
        -11   -1    0    0    0    0  0.00000000000E+00  0.00000000000E+00  0.45593999997E+02  0.45594000000E+02  0.51100000000E-03 0. -1.
         11   -1    0    0    0    0 -0.00000000000E+00 -0.00000000000E+00 -0.45593999997E+02  0.45594000000E+02  0.51100000000E-03 0.  1.
    9900012    2    1    2    0    0  0.25110311206E+02 -0.29058273088E+02 -0.13351205122E+02  0.50528860290E+02  0.30000001338E+02 0.  0.
        -12    1    1    2    0    0 -0.25110311206E+02  0.29058273088E+02  0.13351205122E+02  0.40659139710E+02  0.00000000000E+00 0.  1.
         11    1    3    3    0    0  0.22163070817E+02 -0.21979214831E+02  0.12866820081E+01  0.31240088724E+02  0.51100000000E-03 0. -1.
        -11    1    3    3    0    0  0.87605385620E+00  0.58574931099E+00  0.11848614842E+01  0.15857079215E+01  0.51100000000E-03 0.  1.
         12    1    3    3    0    0  0.20711865331E+01 -0.76648075685E+01 -0.15822748614E+02  0.17703063645E+02  0.00000000000E+00 0. -1.
</event>
<event>
 7    1  0.2985411E-011  0.5052886E+02  0.7816164E-02  0.1300439E+00
        -11   -1    0    0    0    0  0.00000000000E+00  0.00000000000E+00  0.45593999997E+02  0.45594000000E+02  0.51100000000E-03 0.  1.
         11   -1    0    0    0    0 -0.00000000000E+00 -0.00000000000E+00 -0.45593999997E+02  0.45594000000E+02  0.51100000000E-03 0. -1.
    9900012    2    1    2    0    0  0.53781621296E+01 -0.40272148349E+02  0.15475472436E+01  0.50528862491E+02  0.30000008028E+02 0.  0.
        -12    1    1    2    0    0 -0.53781621296E+01  0.40272148349E+02 -0.15475472436E+01  0.40659137509E+02  0.00000000000E+00 0.  1.
         11    1    3    3    0    0 -0.31695916749E+01 -0.73860285439E+01 -0.99480452274E+01  0.12789188135E+02  0.51100000000E-03 0. -1.
        -11    1    3    3    0    0  0.18522525968E+01  0.35445147735E+00 -0.13899971705E+00  0.18909777139E+01  0.51100000000E-03 0.  1.
         12    1    3    3    0    0  0.66955012076E+01 -0.33240571282E+02  0.11634592188E+02  0.35848696642E+02  0.00000000000E+00 0. -1.
</event>
<event>
 7    1  0.2985411E-011  0.5052886E+02  0.7816164E-02  0.1300439E+00
        -11   -1    0    0    0    0  0.00000000000E+00  0.00000000000E+00  0.45593999997E+02  0.45594000000E+02  0.51100000000E-03 0.  1.
         11   -1    0    0    0    0 -0.00000000000E+00 -0.00000000000E+00 -0.45593999997E+02  0.45594000000E+02  0.51100000000E-03 0. -1.
    9900012    2    1    2    0    0  0.32358019261E+02  0.22796007447E+02 -0.92987180037E+01  0.50528861758E+02  0.30000005801E+02 0.  0.
        -12    1    1    2    0    0 -0.32358019261E+02 -0.22796007447E+02  0.92987180037E+01  0.40659138242E+02  0.00000000000E+00 0.  1.
         11    1    3    3    0    0 -0.55817599107E-01 -0.13155073755E+01 -0.59876009352E+01  0.61306639510E+01  0.51100000000E-03 0. -1.
        -11    1    3    3    0    0 -0.59064158760E+00  0.59916278380E+01 -0.30427414308E+01  0.67458681658E+01  0.51100000000E-03 0.  1.
         12    1    3    3    0    0  0.33004478448E+02  0.18119886984E+02 -0.26837563772E+00  0.37652329642E+02  0.00000000000E+00 0. -1.
</event>
<event>
 7    1  0.2985411E-011  0.5052885E+02  0.7816164E-02  0.1300439E+00
        -11   -1    0    0    0    0  0.00000000000E+00  0.00000000000E+00  0.45593999997E+02  0.45594000000E+02  0.51100000000E-03 0.  1.
         11   -1    0    0    0    0 -0.00000000000E+00 -0.00000000000E+00 -0.45593999997E+02  0.45594000000E+02  0.51100000000E-03 0. -1.
    9900012    2    1    2    0    0  0.31143522814E+02  0.18326111861E+02  0.18638702419E+02  0.50528848299E+02  0.29999964889E+02 0.  0.
        -12    1    1    2    0    0 -0.31143522814E+02 -0.18326111861E+02 -0.18638702419E+02  0.40659151701E+02  0.00000000000E+00 0.  1.
         11    1    3    3    0    0  0.46417459770E+01  0.40248868542E+01 -0.33617168101E+00  0.61529286981E+01  0.51100000000E-03 0. -1.
        -11    1    3    3    0    0  0.17802032646E+02  0.16771362153E+02  0.12650660895E+01  0.24490637952E+02  0.51100000000E-03 0.  1.
        -12    1    3    3    0    0  0.86997441908E+01 -0.24701371465E+01  0.17709808010E+02  0.19885281649E+02  0.00000000000E+00 0.  1.
</event>
<event>
 7    1  0.2985411E-011  0.5052886E+02  0.7816164E-02  0.1300439E+00
        -11   -1    0    0    0    0  0.00000000000E+00  0.00000000000E+00  0.45593999997E+02  0.45594000000E+02  0.51100000000E-03 0.  1.
         11   -1    0    0    0    0 -0.00000000000E+00 -0.00000000000E+00 -0.45593999997E+02  0.45594000000E+02  0.51100000000E-03 0. -1.
    9900012    2    1    2    0    0  0.25120390119E+01  0.71084500286E-01 -0.40581403701E+02  0.50528859338E+02  0.29999998444E+02 0.  0.
        -12    1    1    2    0    0 -0.25120390119E+01 -0.71084500286E-01  0.40581403701E+02  0.40659140662E+02  0.00000000000E+00 0.  1.
         11    1    3    3    0    0  0.52404411876E+01 -0.44299265167E+00 -0.35999405308E+01  0.63732282571E+01  0.51100000000E-03 0. -1.
        -11    1    3    3    0    0  0.91680164565E+01 -0.31286513734E+01 -0.25293573481E+02  0.27085159125E+02  0.51100000000E-03 0.  1.
         12    1    3    3    0    0 -0.11896418632E+02  0.36427285254E+01 -0.11687889690E+02  0.17070471955E+02  0.00000000000E+00 0. -1.
</event>
<event>
 7    1  0.2985411E-011  0.5052886E+02  0.7816164E-02  0.1300439E+00
        -11   -1    0    0    0    0  0.00000000000E+00  0.00000000000E+00  0.45593999997E+02  0.45594000000E+02  0.51100000000E-03 0.  1.
         11   -1    0    0    0    0 -0.00000000000E+00 -0.00000000000E+00 -0.45593999997E+02  0.45594000000E+02  0.51100000000E-03 0. -1.
    9900012    2    1    2    0    0 -0.31845410945E+02  0.18231747500E+02 -0.17511106798E+02  0.50528859866E+02  0.30000000048E+02 0.  0.
        -12    1    1    2    0    0  0.31845410945E+02 -0.18231747500E+02  0.17511106798E+02  0.40659140134E+02  0.00000000000E+00 0.  1.
         11    1    3    3    0    0 -0.14726591197E+02  0.11586285482E+02  0.16260617768E+01  0.18808470877E+02  0.51100000000E-03 0. -1.
        -11    1    3    3    0    0  0.11096758313E+00  0.55036201130E+01  0.55157089910E+00  0.55323032157E+01  0.51100000000E-03 0.  1.
         12    1    3    3    0    0 -0.17229787331E+02  0.11418419048E+01 -0.19688739474E+02  0.26188085773E+02  0.00000000000E+00 0. -1.
</event>
<event>
 7    1  0.2985411E-011  0.5052888E+02  0.7816164E-02  0.1300439E+00
        -11   -1    0    0    0    0  0.00000000000E+00  0.00000000000E+00  0.45593999997E+02  0.45594000000E+02  0.51100000000E-03 0.  1.
         11   -1    0    0    0    0 -0.00000000000E+00 -0.00000000000E+00 -0.45593999997E+02  0.45594000000E+02  0.51100000000E-03 0. -1.
    9900012    2    1    2    0    0  0.19854965448E+02 -0.17119688849E+02 -0.31078295623E+02  0.50528882227E+02  0.30000068017E+02 0.  0.
        -12    1    1    2    0    0 -0.19854965448E+02  0.17119688849E+02  0.31078295623E+02  0.40659117773E+02  0.00000000000E+00 0.  1.
         11    1    3    3    0    0  0.33679917306E+01 -0.74134205063E+01  0.20001730401E+01  0.83846803369E+01  0.51100000000E-03 0.  1.
        -11    1    3    3    0    0  0.15758200712E+02  0.56093185199E+00 -0.18688657129E+02  0.24452023225E+02  0.51100000000E-03 0. -1.
         12    1    3    3    0    0  0.72877300533E+00 -0.10267200194E+02 -0.14389811535E+02  0.17692178665E+02  0.00000000000E+00 0. -1.
</event>
<event>
 7    1  0.2985411E-011  0.5052884E+02  0.7816164E-02  0.1300439E+00
        -11   -1    0    0    0    0  0.00000000000E+00  0.00000000000E+00  0.45593999997E+02  0.45594000000E+02  0.51100000000E-03 0. -1.
         11   -1    0    0    0    0 -0.00000000000E+00 -0.00000000000E+00 -0.45593999997E+02  0.45594000000E+02  0.51100000000E-03 0.  1.
    9900012    2    1    2    0    0 -0.36986459794E+02 -0.84452498040E+01  0.14623494566E+02  0.50528843028E+02  0.29999948869E+02 0.  0.
        -12    1    1    2    0    0  0.36986459794E+02  0.84452498040E+01 -0.14623494566E+02  0.40659156972E+02  0.00000000000E+00 0.  1.
         11    1    3    3    0    0 -0.34808392914E+02 -0.64557364871E+01  0.11304941066E+02  0.37163186672E+02  0.51100000000E-03 0. -1.
        -11    1    3    3    0    0 -0.79789987114E+00 -0.20617782153E+01  0.80959455000E+01  0.83923719778E+01  0.51100000000E-03 0.  1.
        -12    1    3    3    0    0 -0.13801670083E+01  0.72264898400E-01 -0.47773920001E+01  0.49732843785E+01  0.00000000000E+00 0.  1.
</event>
<event>
 7    1  0.2985411E-011  0.5052884E+02  0.7816164E-02  0.1300439E+00
        -11   -1    0    0    0    0  0.00000000000E+00  0.00000000000E+00  0.45593999997E+02  0.45594000000E+02  0.51100000000E-03 0.  1.
         11   -1    0    0    0    0 -0.00000000000E+00 -0.00000000000E+00 -0.45593999997E+02  0.45594000000E+02  0.51100000000E-03 0. -1.
    9900012    2    1    2    0    0  0.73180079459E+01 -0.42651302227E-01 -0.39995156870E+02  0.50528835812E+02  0.29999926934E+02 0.  0.
        -12    1    1    2    0    0 -0.73180079459E+01  0.42651302227E-01  0.39995156870E+02  0.40659164188E+02  0.00000000000E+00 0.  1.
         11    1    3    3    0    0  0.62502569140E+01  0.17389235845E+01 -0.32375682031E+01  0.72506147915E+01  0.51100000000E-03 0. -1.
        -11    1    3    3    0    0  0.89811348645E+01  0.61684794748E+01 -0.23562155838E+02  0.25959316448E+02  0.51100000000E-03 0.  1.
         12    1    3    3    0    0 -0.79133838326E+01 -0.79500543615E+01 -0.13195432829E+02  0.17318904572E+02  0.00000000000E+00 0. -1.
</event>
<event>
 7    1  0.2985411E-011  0.5052894E+02  0.7816164E-02  0.1300438E+00
        -11   -1    0    0    0    0  0.00000000000E+00  0.00000000000E+00  0.45593999997E+02  0.45594000000E+02  0.51100000000E-03 0.  1.
         11   -1    0    0    0    0 -0.00000000000E+00 -0.00000000000E+00 -0.45593999997E+02  0.45594000000E+02  0.51100000000E-03 0. -1.
    9900012    2    1    2    0    0  0.23724891450E+02  0.32278102020E+02 -0.69579075177E+01  0.50528944165E+02  0.30000256284E+02 0.  0.
        -12    1    1    2    0    0 -0.23724891450E+02 -0.32278102020E+02  0.69579075177E+01  0.40659055835E+02  0.00000000000E+00 0.  1.
         11    1    3    3    0    0  0.62213434605E+01  0.82906198592E+01 -0.43721456039E+01  0.11249673308E+02  0.51100000000E-03 0. -1.
        -11    1    3    3    0    0  0.98219907621E+01  0.13126767709E+02 -0.14147125929E+02  0.21654669366E+02  0.51100000000E-03 0.  1.
        -12    1    3    3    0    0  0.76815572271E+01  0.10860714452E+02  0.11561364015E+02  0.17624601491E+02  0.00000000000E+00 0.  1.
</event>
<event>
 7    1  0.2985411E-011  0.5052882E+02  0.7816164E-02  0.1300439E+00
        -11   -1    0    0    0    0  0.00000000000E+00  0.00000000000E+00  0.45593999997E+02  0.45594000000E+02  0.51100000000E-03 0.  1.
         11   -1    0    0    0    0 -0.00000000000E+00 -0.00000000000E+00 -0.45593999997E+02  0.45594000000E+02  0.51100000000E-03 0. -1.
    9900012    2    1    2    0    0  0.18083790048E+02 -0.23813206075E+02 -0.27551350433E+02  0.50528817067E+02  0.29999869957E+02 0.  0.
        -12    1    1    2    0    0 -0.18083790048E+02  0.23813206075E+02  0.27551350433E+02  0.40659182933E+02  0.00000000000E+00 0.  1.
         11    1    3    3    0    0  0.47665355780E-01  0.10660981268E+01 -0.50868196155E+01  0.51975543541E+01  0.51100000000E-03 0. -1.
        -11    1    3    3    0    0  0.29170038758E+01 -0.39747567383E+01  0.54306566135E+01  0.73348233963E+01  0.51100000000E-03 0.  1.
        -12    1    3    3    0    0  0.15119120816E+02 -0.20904547464E+02 -0.27895187431E+02  0.37996439317E+02  0.00000000000E+00 0.  1.
</event>
<event>
 7    1  0.2985411E-011  0.5052886E+02  0.7816164E-02  0.1300439E+00
        -11   -1    0    0    0    0  0.00000000000E+00  0.00000000000E+00  0.45593999997E+02  0.45594000000E+02  0.51100000000E-03 0.  1.
         11   -1    0    0    0    0 -0.00000000000E+00 -0.00000000000E+00 -0.45593999997E+02  0.45594000000E+02  0.51100000000E-03 0. -1.
    9900012    2    1    2    0    0  0.12518414784E+02 -0.92124685320E+01 -0.37571072231E+02  0.50528858915E+02  0.29999997158E+02 0.  0.
        -12    1    1    2    0    0 -0.12518414784E+02  0.92124685320E+01  0.37571072231E+02  0.40659141085E+02  0.00000000000E+00 0.  1.
         11    1    3    3    0    0  0.34559946998E+01 -0.20543473322E+01 -0.27897195446E+02  0.28185417441E+02  0.51100000000E-03 0. -1.
        -11    1    3    3    0    0  0.45527906869E+01 -0.10328215484E+02 -0.11897286117E+02  0.16399553510E+02  0.51100000000E-03 0.  1.
        -12    1    3    3    0    0  0.45096293972E+01  0.31700942842E+01  0.22234093314E+01  0.59438879637E+01  0.00000000000E+00 0.  1.
</event>
<event>
 7    1  0.2985411E-011  0.5052886E+02  0.7816164E-02  0.1300439E+00
        -11   -1    0    0    0    0  0.00000000000E+00  0.00000000000E+00  0.45593999997E+02  0.45594000000E+02  0.51100000000E-03 0.  1.
         11   -1    0    0    0    0 -0.00000000000E+00 -0.00000000000E+00 -0.45593999997E+02  0.45594000000E+02  0.51100000000E-03 0. -1.
    9900012    2    1    2    0    0 -0.32185032333E+02 -0.21812901802E+02 -0.11894832654E+02  0.50528855455E+02  0.29999986640E+02 0.  0.
        -12    1    1    2    0    0  0.32185032333E+02  0.21812901802E+02  0.11894832654E+02  0.40659144545E+02  0.00000000000E+00 0.  1.
         11    1    3    3    0    0 -0.14416547872E+01 -0.10841426398E+02 -0.20243667876E+01  0.11122632603E+02  0.51100000000E-03 0. -1.
        -11    1    3    3    0    0 -0.27918430856E+00 -0.69303134999E+01  0.54699471451E+00  0.69574702704E+01  0.51100000000E-03 0.  1.
         12    1    3    3    0    0 -0.30464193237E+02 -0.40411619044E+01 -0.10417460581E+02  0.32448752581E+02  0.00000000000E+00 0. -1.
</event>
<event>
 7    1  0.2985411E-011  0.5052885E+02  0.7816164E-02  0.1300439E+00
        -11   -1    0    0    0    0  0.00000000000E+00  0.00000000000E+00  0.45593999997E+02  0.45594000000E+02  0.51100000000E-03 0.  1.
         11   -1    0    0    0    0 -0.00000000000E+00 -0.00000000000E+00 -0.45593999997E+02  0.45594000000E+02  0.51100000000E-03 0. -1.
    9900012    2    1    2    0    0  0.12908202138E+02  0.55973344481E+01 -0.38147270847E+02  0.50528854553E+02  0.29999983900E+02 0.  0.
        -12    1    1    2    0    0 -0.12908202138E+02 -0.55973344481E+01  0.38147270847E+02  0.40659145447E+02  0.00000000000E+00 0.  1.
         11    1    3    3    0    0  0.61510822629E+01  0.60648723344E+00 -0.10885458068E+02  0.12517860735E+02  0.51100000000E-03 0. -1.
        -11    1    3    3    0    0  0.11473367510E+02 -0.58275103791E+01 -0.72280147903E+01  0.14759479575E+02  0.51100000000E-03 0.  1.
         12    1    3    3    0    0 -0.47162476346E+01  0.10818357594E+02 -0.20033797989E+02  0.23251514244E+02  0.00000000000E+00 0. -1.
</event>
<event>
 7    1  0.2985411E-011  0.5052889E+02  0.7816164E-02  0.1300439E+00
        -11   -1    0    0    0    0  0.00000000000E+00  0.00000000000E+00  0.45593999997E+02  0.45594000000E+02  0.51100000000E-03 0.  1.
         11   -1    0    0    0    0 -0.00000000000E+00 -0.00000000000E+00 -0.45593999997E+02  0.45594000000E+02  0.51100000000E-03 0. -1.
    9900012    2    1    2    0    0  0.27114579516E+02  0.30080636958E+01 -0.30148210343E+02  0.50528887167E+02  0.30000083032E+02 0.  0.
        -12    1    1    2    0    0 -0.27114579516E+02 -0.30080636958E+01  0.30148210343E+02  0.40659112833E+02  0.00000000000E+00 0.  1.
         11    1    3    3    0    0  0.59764405949E+01  0.21003232538E+01 -0.14867907406E+02  0.16161184080E+02  0.51100000000E-03 0. -1.
        -11    1    3    3    0    0  0.44963234346E+01  0.10461705350E+02 -0.37893158430E+01  0.12000963215E+02  0.51100000000E-03 0.  1.
         12    1    3    3    0    0  0.16641815486E+02 -0.95539649082E+01 -0.11490987093E+02  0.22366739873E+02  0.00000000000E+00 0. -1.
</event>
<event>
 7    1  0.2985411E-011  0.5052886E+02  0.7816164E-02  0.1300439E+00
        -11   -1    0    0    0    0  0.00000000000E+00  0.00000000000E+00  0.45593999997E+02  0.45594000000E+02  0.51100000000E-03 0. -1.
         11   -1    0    0    0    0 -0.00000000000E+00 -0.00000000000E+00 -0.45593999997E+02  0.45594000000E+02  0.51100000000E-03 0.  1.
    9900012    2    1    2    0    0 -0.22052493505E+02 -0.25349492808E+02  0.22896641883E+02  0.50528862467E+02  0.30000007953E+02 0.  0.
        -12    1    1    2    0    0  0.22052493505E+02  0.25349492808E+02 -0.22896641883E+02  0.40659137533E+02  0.00000000000E+00 0.  1.
         11    1    3    3    0    0 -0.20851726549E+01 -0.88952642923E+01  0.11603268016E+02  0.14768530758E+02  0.51100000000E-03 0. -1.
        -11    1    3    3    0    0 -0.11512647272E+02 -0.78061699077E+01 -0.55910726826E+01  0.14991245106E+02  0.51100000000E-03 0.  1.
         12    1    3    3    0    0 -0.84546735785E+01 -0.86480586083E+01  0.16884446549E+02  0.20769086602E+02  0.00000000000E+00 0. -1.
</event>
<event>
 7    1  0.2985411E-011  0.5052886E+02  0.7816164E-02  0.1300439E+00
        -11   -1    0    0    0    0  0.00000000000E+00  0.00000000000E+00  0.45593999997E+02  0.45594000000E+02  0.51100000000E-03 0.  1.
         11   -1    0    0    0    0 -0.00000000000E+00 -0.00000000000E+00 -0.45593999997E+02  0.45594000000E+02  0.51100000000E-03 0. -1.
    9900012    2    1    2    0    0 -0.13910578501E+01  0.32292666238E+02 -0.24666059543E+02  0.50528858001E+02  0.29999994381E+02 0.  0.
        -12    1    1    2    0    0  0.13910578501E+01 -0.32292666238E+02  0.24666059543E+02  0.40659141999E+02  0.00000000000E+00 0.  1.
         11    1    3    3    0    0 -0.41311546948E+01  0.56727368603E+01 -0.80761273653E+01  0.10699075478E+02  0.51100000000E-03 0. -1.
        -11    1    3    3    0    0 -0.97212627108E+01  0.13972799632E+02 -0.13680747570E+02  0.21838153141E+02  0.51100000000E-03 0.  1.
         12    1    3    3    0    0  0.12461359556E+02  0.12647129745E+02 -0.29091846070E+01  0.17991629383E+02  0.00000000000E+00 0. -1.
</event>
<event>
 7    1  0.2985411E-011  0.5052879E+02  0.7816164E-02  0.1300439E+00
        -11   -1    0    0    0    0  0.00000000000E+00  0.00000000000E+00  0.45593999997E+02  0.45594000000E+02  0.51100000000E-03 0.  1.
         11   -1    0    0    0    0 -0.00000000000E+00 -0.00000000000E+00 -0.45593999997E+02  0.45594000000E+02  0.51100000000E-03 0. -1.
    9900012    2    1    2    0    0  0.14532653100E+02  0.16096653456E+02 -0.34392898043E+02  0.50528785861E+02  0.29999775102E+02 0.  0.
        -12    1    1    2    0    0 -0.14532653100E+02 -0.16096653456E+02  0.34392898043E+02  0.40659214139E+02  0.00000000000E+00 0.  1.
         11    1    3    3    0    0  0.27850779846E+01  0.17787971402E+01  0.21513547466E+00  0.33116555044E+01  0.51100000000E-03 0. -1.
        -11    1    3    3    0    0 -0.59668243453E+01  0.46788708261E+01 -0.50749432305E+00  0.75994983864E+01  0.51100000000E-03 0.  1.
         12    1    3    3    0    0  0.17714399461E+02  0.96389854897E+01 -0.34100539195E+02  0.39617631970E+02  0.00000000000E+00 0. -1.
</event>
<event>
 7    1  0.2985411E-011  0.5052888E+02  0.7816164E-02  0.1300439E+00
        -11   -1    0    0    0    0  0.00000000000E+00  0.00000000000E+00  0.45593999997E+02  0.45594000000E+02  0.51100000000E-03 0.  1.
         11   -1    0    0    0    0 -0.00000000000E+00 -0.00000000000E+00 -0.45593999997E+02  0.45594000000E+02  0.51100000000E-03 0. -1.
    9900012    2    1    2    0    0 -0.18642494670E+02 -0.65570236711E+01 -0.35533464573E+02  0.50528877143E+02  0.30000052564E+02 0.  0.
        -12    1    1    2    0    0  0.18642494670E+02  0.65570236711E+01  0.35533464573E+02  0.40659122857E+02  0.00000000000E+00 0.  1.
         11    1    3    3    0    0 -0.59852063198E+01 -0.57011447619E+01  0.31960723560E+01  0.88623148811E+01  0.51100000000E-03 0. -1.
        -11    1    3    3    0    0 -0.76643526208E+01  0.37820083011E+01 -0.22076743286E+02  0.23673370742E+02  0.51100000000E-03 0.  1.
        -12    1    3    3    0    0 -0.49929357298E+01 -0.46378872103E+01 -0.16652793642E+02  0.17993191520E+02  0.00000000000E+00 0.  1.
</event>
<event>
 7    1  0.2985411E-011  0.5052886E+02  0.7816164E-02  0.1300439E+00
        -11   -1    0    0    0    0  0.00000000000E+00  0.00000000000E+00  0.45593999997E+02  0.45594000000E+02  0.51100000000E-03 0.  1.
         11   -1    0    0    0    0 -0.00000000000E+00 -0.00000000000E+00 -0.45593999997E+02  0.45594000000E+02  0.51100000000E-03 0. -1.
    9900012    2    1    2    0    0  0.15792120218E+02  0.10026222963E+02 -0.36100546312E+02  0.50528860168E+02  0.30000000965E+02 0.  0.
        -12    1    1    2    0    0 -0.15792120218E+02 -0.10026222963E+02  0.36100546312E+02  0.40659139832E+02  0.00000000000E+00 0.  1.
         11    1    3    3    0    0  0.18610293768E+02  0.72057053104E+01 -0.14296108881E+02  0.24548807559E+02  0.51100000000E-03 0. -1.
        -11    1    3    3    0    0  0.38337088577E+01  0.54543610440E+01 -0.78540774402E+01  0.10302131367E+02  0.51100000000E-03 0.  1.
         12    1    3    3    0    0 -0.66518824084E+01 -0.26338433910E+01 -0.13950359991E+02  0.15677921242E+02  0.00000000000E+00 0. -1.
</event>
<event>
 7    1  0.2985411E-011  0.5052886E+02  0.7816164E-02  0.1300439E+00
        -11   -1    0    0    0    0  0.00000000000E+00  0.00000000000E+00  0.45593999997E+02  0.45594000000E+02  0.51100000000E-03 0.  1.
         11   -1    0    0    0    0 -0.00000000000E+00 -0.00000000000E+00 -0.45593999997E+02  0.45594000000E+02  0.51100000000E-03 0. -1.
    9900012    2    1    2    0    0  0.19165535581E+01  0.24970468668E+01 -0.40537110969E+02  0.50528858515E+02  0.29999995941E+02 0.  0.
        -12    1    1    2    0    0 -0.19165535581E+01 -0.24970468668E+01  0.40537110969E+02  0.40659141485E+02  0.00000000000E+00 0.  1.
         11    1    3    3    0    0 -0.30577000870E+00  0.47058456988E+01 -0.27359229520E+02  0.27762671327E+02  0.51100000000E-03 0. -1.
        -11    1    3    3    0    0 -0.49463943368E+01  0.52114402568E+01 -0.92811499468E+01  0.11737362186E+02  0.51100000000E-03 0.  1.
        -12    1    3    3    0    0  0.71687179036E+01 -0.74202390888E+01 -0.38967315030E+01  0.11028825002E+02  0.00000000000E+00 0.  1.
</event>
<event>
 7    1  0.2985411E-011  0.5052886E+02  0.7816164E-02  0.1300439E+00
        -11   -1    0    0    0    0  0.00000000000E+00  0.00000000000E+00  0.45593999997E+02  0.45594000000E+02  0.51100000000E-03 0.  1.
         11   -1    0    0    0    0 -0.00000000000E+00 -0.00000000000E+00 -0.45593999997E+02  0.45594000000E+02  0.51100000000E-03 0. -1.
    9900012    2    1    2    0    0 -0.37630384140E+02 -0.26629344214E+01 -0.15166703562E+02  0.50528856782E+02  0.29999990675E+02 0.  0.
        -12    1    1    2    0    0  0.37630384140E+02  0.26629344214E+01  0.15166703562E+02  0.40659143218E+02  0.00000000000E+00 0.  1.
         11    1    3    3    0    0 -0.61079399338E+01 -0.44118190475E+00 -0.41745076545E+01  0.74113484689E+01  0.51100000000E-03 0. -1.
        -11    1    3    3    0    0 -0.93254173560E+01  0.10870628083E+00 -0.17533653215E+02  0.19859612817E+02  0.51100000000E-03 0.  1.
         12    1    3    3    0    0 -0.22197026850E+02 -0.23304587975E+01  0.65414573075E+01  0.23257895496E+02  0.00000000000E+00 0. -1.
</event>
<event>
 7    1  0.2985411E-011  0.5052882E+02  0.7816164E-02  0.1300439E+00
        -11   -1    0    0    0    0  0.00000000000E+00  0.00000000000E+00  0.45593999997E+02  0.45594000000E+02  0.51100000000E-03 0.  1.
         11   -1    0    0    0    0 -0.00000000000E+00 -0.00000000000E+00 -0.45593999997E+02  0.45594000000E+02  0.51100000000E-03 0. -1.
    9900012    2    1    2    0    0  0.17260638886E+02  0.11731825762E+02 -0.34894173429E+02  0.50528822318E+02  0.29999885918E+02 0.  0.
        -12    1    1    2    0    0 -0.17260638886E+02 -0.11731825762E+02  0.34894173429E+02  0.40659177682E+02  0.00000000000E+00 0.  1.
         11    1    3    3    0    0 -0.85877782294E+00 -0.61026057567E+00 -0.41544751489E+01  0.42859749583E+01  0.51100000000E-03 0. -1.
        -11    1    3    3    0    0  0.15496885658E+01 -0.66551799550E+01 -0.46747073504E+00  0.68491958677E+01  0.51100000000E-03 0.  1.
        -12    1    3    3    0    0  0.16569728143E+02  0.18997266292E+02 -0.30272227545E+02  0.39393651492E+02  0.00000000000E+00 0.  1.
</event>
<event>
 7    1  0.2985411E-011  0.5052887E+02  0.7816164E-02  0.1300439E+00
        -11   -1    0    0    0    0  0.00000000000E+00  0.00000000000E+00  0.45593999997E+02  0.45594000000E+02  0.51100000000E-03 0. -1.
         11   -1    0    0    0    0 -0.00000000000E+00 -0.00000000000E+00 -0.45593999997E+02  0.45594000000E+02  0.51100000000E-03 0.  1.
    9900012    2    1    2    0    0 -0.37196088072E+02  0.34725807761E+01 -0.16048589757E+02  0.50528867960E+02  0.30000024650E+02 0.  0.
        -12    1    1    2    0    0  0.37196088072E+02 -0.34725807761E+01  0.16048589757E+02  0.40659132040E+02  0.00000000000E+00 0.  1.
         11    1    3    3    0    0 -0.13025794997E+02  0.60277588452E+01 -0.39357385333E+01  0.14882716488E+02  0.51100000000E-03 0. -1.
        -11    1    3    3    0    0 -0.28775237201E+02 -0.16248914717E+01 -0.10647136417E+02  0.30724844384E+02  0.51100000000E-03 0.  1.
        -12    1    3    3    0    0  0.46049441262E+01 -0.93028659736E+00 -0.14657148069E+01  0.49213070880E+01  0.00000000000E+00 0.  1.
</event>
<event>
 7    1  0.2985411E-011  0.5052885E+02  0.7816164E-02  0.1300439E+00
        -11   -1    0    0    0    0  0.00000000000E+00  0.00000000000E+00  0.45593999997E+02  0.45594000000E+02  0.51100000000E-03 0. -1.
         11   -1    0    0    0    0 -0.00000000000E+00 -0.00000000000E+00 -0.45593999997E+02  0.45594000000E+02  0.51100000000E-03 0.  1.
    9900012    2    1    2    0    0 -0.10984043698E+02  0.65508971834E+01  0.38595374097E+02  0.50528851318E+02  0.29999974066E+02 0.  0.
        -12    1    1    2    0    0  0.10984043698E+02 -0.65508971834E+01 -0.38595374097E+02  0.40659148682E+02  0.00000000000E+00 0.  1.
         11    1    3    3    0    0  0.34920794060E+01 -0.53667883426E+01  0.55447426426E+01  0.84700181185E+01  0.51100000000E-03 0. -1.
        -11    1    3    3    0    0 -0.34186139802E+01 -0.13164717920E+01 -0.10795194069E+01  0.38190812947E+01  0.51100000000E-03 0.  1.
         12    1    3    3    0    0 -0.11057509124E+02  0.13234157318E+02  0.34130150861E+02  0.38239751905E+02  0.00000000000E+00 0. -1.
</event>
<event>
 7    1  0.2985411E-011  0.5052887E+02  0.7816164E-02  0.1300439E+00
        -11   -1    0    0    0    0  0.00000000000E+00  0.00000000000E+00  0.45593999997E+02  0.45594000000E+02  0.51100000000E-03 0. -1.
         11   -1    0    0    0    0 -0.00000000000E+00 -0.00000000000E+00 -0.45593999997E+02  0.45594000000E+02  0.51100000000E-03 0.  1.
    9900012    2    1    2    0    0  0.36547246666E+02  0.32788092547E+01  0.17513233393E+02  0.50528866058E+02  0.30000018871E+02 0.  0.
        -12    1    1    2    0    0 -0.36547246666E+02 -0.32788092547E+01 -0.17513233393E+02  0.40659133942E+02  0.00000000000E+00 0.  1.
         11    1    3    3    0    0  0.17579496864E+02  0.48130218635E+01  0.11524431877E+02  0.21564239375E+02  0.51100000000E-03 0. -1.
        -11    1    3    3    0    0 -0.80033181476E+00  0.64511905988E+01  0.38067025833E+01  0.75332181685E+01  0.51100000000E-03 0.  1.
        -12    1    3    3    0    0  0.19768081617E+02 -0.79854032076E+01  0.21820989325E+01  0.21431408515E+02  0.00000000000E+00 0.  1.
</event>
<event>
 7    1  0.2985411E-011  0.5052886E+02  0.7816164E-02  0.1300439E+00
        -11   -1    0    0    0    0  0.00000000000E+00  0.00000000000E+00  0.45593999997E+02  0.45594000000E+02  0.51100000000E-03 0.  1.
         11   -1    0    0    0    0 -0.00000000000E+00 -0.00000000000E+00 -0.45593999997E+02  0.45594000000E+02  0.51100000000E-03 0. -1.
    9900012    2    1    2    0    0  0.40361986985E+02 -0.28364879946E+01 -0.40037642227E+01  0.50528858525E+02  0.29999995972E+02 0.  0.
        -12    1    1    2    0    0 -0.40361986985E+02  0.28364879946E+01  0.40037642227E+01  0.40659141475E+02  0.00000000000E+00 0.  1.
         11    1    3    3    0    0  0.20424086392E+02  0.97941147355E+01 -0.50116981923E+01  0.23198816940E+02  0.51100000000E-03 0. -1.
        -11    1    3    3    0    0  0.13500175206E+02 -0.13949139885E+01 -0.27470733222E+01  0.13847271490E+02  0.51100000000E-03 0.  1.
        -12    1    3    3    0    0  0.64377253880E+01 -0.11235688742E+02  0.37550072918E+01  0.13482770095E+02  0.00000000000E+00 0.  1.
</event>
<event>
 7    1  0.2985411E-011  0.5052886E+02  0.7816164E-02  0.1300439E+00
        -11   -1    0    0    0    0  0.00000000000E+00  0.00000000000E+00  0.45593999997E+02  0.45594000000E+02  0.51100000000E-03 0. -1.
         11   -1    0    0    0    0 -0.00000000000E+00 -0.00000000000E+00 -0.45593999997E+02  0.45594000000E+02  0.51100000000E-03 0.  1.
    9900012    2    1    2    0    0  0.38525564746E+02 -0.60258092083E+01  0.11516774291E+02  0.50528860736E+02  0.30000002693E+02 0.  0.
        -12    1    1    2    0    0 -0.38525564746E+02  0.60258092083E+01 -0.11516774291E+02  0.40659139264E+02  0.00000000000E+00 0.  1.
         11    1    3    3    0    0  0.15761104351E+02 -0.68598215518E+01  0.15900078804E+02  0.23415423727E+02  0.51100000000E-03 0. -1.
        -11    1    3    3    0    0  0.10034121543E+02  0.71330201498E+01 -0.22277258221E+00  0.12313131181E+02  0.51100000000E-03 0.  1.
        -12    1    3    3    0    0  0.12730338852E+02 -0.62990078062E+01 -0.41605319314E+01  0.14800305828E+02  0.00000000000E+00 0.  1.
</event>
<event>
 7    1  0.2985411E-011  0.5052885E+02  0.7816164E-02  0.1300439E+00
        -11   -1    0    0    0    0  0.00000000000E+00  0.00000000000E+00  0.45593999997E+02  0.45594000000E+02  0.51100000000E-03 0. -1.
         11   -1    0    0    0    0 -0.00000000000E+00 -0.00000000000E+00 -0.45593999997E+02  0.45594000000E+02  0.51100000000E-03 0.  1.
    9900012    2    1    2    0    0  0.28760174314E+02  0.26387255934E+02  0.11389992436E+02  0.50528845680E+02  0.29999956930E+02 0.  0.
        -12    1    1    2    0    0 -0.28760174314E+02 -0.26387255934E+02 -0.11389992436E+02  0.40659154320E+02  0.00000000000E+00 0.  1.
         11    1    3    3    0    0  0.43848869946E+01  0.88236008533E+01 -0.37725889900E+01  0.10550620547E+02  0.51100000000E-03 0. -1.
        -11    1    3    3    0    0  0.21693384409E+00  0.93355681586E+01 -0.15584449216E+01  0.94672405680E+01  0.51100000000E-03 0.  1.
         12    1    3    3    0    0  0.24158353475E+02  0.82280869225E+01  0.16721026348E+02  0.30510984565E+02  0.00000000000E+00 0. -1.
</event>
<event>
 7    1  0.2985411E-011  0.5052886E+02  0.7816164E-02  0.1300439E+00
        -11   -1    0    0    0    0  0.00000000000E+00  0.00000000000E+00  0.45593999997E+02  0.45594000000E+02  0.51100000000E-03 0. -1.
         11   -1    0    0    0    0 -0.00000000000E+00 -0.00000000000E+00 -0.45593999997E+02  0.45594000000E+02  0.51100000000E-03 0.  1.
    9900012    2    1    2    0    0 -0.35202285125E+02 -0.19705938435E+02  0.50636557651E+01  0.50528862069E+02  0.30000006745E+02 0.  0.
        -12    1    1    2    0    0  0.35202285125E+02  0.19705938435E+02 -0.50636557651E+01  0.40659137931E+02  0.00000000000E+00 0.  1.
         11    1    3    3    0    0 -0.31284604512E+01  0.22778579592E+01  0.41835133455E+01  0.56989197090E+01  0.51100000000E-03 0. -1.
        -11    1    3    3    0    0 -0.14384131070E+02 -0.93752807795E+01  0.11484516803E+02  0.20656554475E+02  0.51100000000E-03 0.  1.
        -12    1    3    3    0    0 -0.17689693603E+02 -0.12608515614E+02 -0.10604374383E+02  0.24173387885E+02  0.00000000000E+00 0.  1.
</event>
<event>
 7    1  0.2985411E-011  0.5052887E+02  0.7816164E-02  0.1300439E+00
        -11   -1    0    0    0    0  0.00000000000E+00  0.00000000000E+00  0.45593999997E+02  0.45594000000E+02  0.51100000000E-03 0.  1.
         11   -1    0    0    0    0 -0.00000000000E+00 -0.00000000000E+00 -0.45593999997E+02  0.45594000000E+02  0.51100000000E-03 0. -1.
    9900012    2    1    2    0    0 -0.74562936858E+01 -0.30855851195E+02 -0.25406396160E+02  0.50528870222E+02  0.30000031525E+02 0.  0.
        -12    1    1    2    0    0  0.74562936858E+01  0.30855851195E+02  0.25406396160E+02  0.40659129778E+02  0.00000000000E+00 0.  1.
         11    1    3    3    0    0 -0.17285697918E+01  0.11769995236E+01 -0.44322143280E+01  0.49007964164E+01  0.51100000000E-03 0. -1.
        -11    1    3    3    0    0 -0.61250826662E+01  0.20007158238E+01 -0.41159818815E+01  0.76459668182E+01  0.51100000000E-03 0.  1.
         12    1    3    3    0    0  0.39735877229E+00 -0.34033566543E+02 -0.16858199950E+02  0.37982106987E+02  0.00000000000E+00 0. -1.
</event>
<event>
 7    1  0.2985411E-011  0.5052886E+02  0.7816164E-02  0.1300439E+00
        -11   -1    0    0    0    0  0.00000000000E+00  0.00000000000E+00  0.45593999997E+02  0.45594000000E+02  0.51100000000E-03 0. -1.
         11   -1    0    0    0    0 -0.00000000000E+00 -0.00000000000E+00 -0.45593999997E+02  0.45594000000E+02  0.51100000000E-03 0.  1.
    9900012    2    1    2    0    0 -0.62155458471E+01 -0.29794783945E+02  0.26959296805E+02  0.50528857797E+02  0.29999993758E+02 0.  0.
        -12    1    1    2    0    0  0.62155458471E+01  0.29794783945E+02 -0.26959296805E+02  0.40659142203E+02  0.00000000000E+00 0.  1.
         11    1    3    3    0    0  0.73402581597E+00 -0.24320916975E+02  0.29299670131E+02  0.38085646462E+02  0.51100000000E-03 0.  1.
        -11    1    3    3    0    0  0.78913249853E+00 -0.42762676034E+01 -0.13309619092E+01  0.45475987708E+01  0.51100000000E-03 0. -1.
        -12    1    3    3    0    0 -0.77387041616E+01 -0.11975993664E+01 -0.10094114168E+01  0.78956125634E+01  0.00000000000E+00 0.  1.
</event>
<event>
 7    1  0.2985411E-011  0.5052887E+02  0.7816164E-02  0.1300439E+00
        -11   -1    0    0    0    0  0.00000000000E+00  0.00000000000E+00  0.45593999997E+02  0.45594000000E+02  0.51100000000E-03 0. -1.
         11   -1    0    0    0    0 -0.00000000000E+00 -0.00000000000E+00 -0.45593999997E+02  0.45594000000E+02  0.51100000000E-03 0.  1.
    9900012    2    1    2    0    0  0.16570605079E+02 -0.14184650737E+02  0.34312906287E+02  0.50528870557E+02  0.30000032545E+02 0.  0.
        -12    1    1    2    0    0 -0.16570605079E+02  0.14184650737E+02 -0.34312906287E+02  0.40659129443E+02  0.00000000000E+00 0.  1.
         11    1    3    3    0    0  0.14795599630E+02 -0.99290249826E+01  0.22147039827E+02  0.28425106488E+02  0.51100000000E-03 0. -1.
        -11    1    3    3    0    0 -0.26975257352E+01 -0.10446729627E+02  0.65262335174E+01  0.12609620501E+02  0.51100000000E-03 0.  1.
        -12    1    3    3    0    0  0.44725311843E+01  0.61911038729E+01  0.56396329423E+01  0.94941435677E+01  0.00000000000E+00 0.  1.
</event>
<event>
 7    1  0.2985411E-011  0.5052886E+02  0.7816164E-02  0.1300439E+00
        -11   -1    0    0    0    0  0.00000000000E+00  0.00000000000E+00  0.45593999997E+02  0.45594000000E+02  0.51100000000E-03 0.  1.
         11   -1    0    0    0    0 -0.00000000000E+00 -0.00000000000E+00 -0.45593999997E+02  0.45594000000E+02  0.51100000000E-03 0. -1.
    9900012    2    1    2    0    0 -0.10545972008E+01  0.22183932398E+01 -0.40584874450E+02  0.50528862307E+02  0.30000007468E+02 0.  0.
        -12    1    1    2    0    0  0.10545972008E+01 -0.22183932398E+01  0.40584874450E+02  0.40659137693E+02  0.00000000000E+00 0.  1.
         11    1    3    3    0    0  0.17634117653E+01  0.97587001269E+01 -0.13907909112E+02  0.17081328559E+02  0.51100000000E-03 0.  1.
        -11    1    3    3    0    0 -0.10264712435E+01  0.48946936212E+01 -0.16615432806E+02  0.17351780209E+02  0.51100000000E-03 0. -1.
        -12    1    3    3    0    0 -0.17915377226E+01 -0.12435000508E+02 -0.10061532533E+02  0.16095753538E+02  0.00000000000E+00 0.  1.
</event>
<event>
 7    1  0.2985411E-011  0.5052886E+02  0.7816164E-02  0.1300439E+00
        -11   -1    0    0    0    0  0.00000000000E+00  0.00000000000E+00  0.45593999997E+02  0.45594000000E+02  0.51100000000E-03 0. -1.
         11   -1    0    0    0    0 -0.00000000000E+00 -0.00000000000E+00 -0.45593999997E+02  0.45594000000E+02  0.51100000000E-03 0.  1.
    9900012    2    1    2    0    0  0.15146234574E+02  0.36597088051E+02 -0.91875014046E+01  0.50528862556E+02  0.30000008226E+02 0.  0.
        -12    1    1    2    0    0 -0.15146234574E+02 -0.36597088051E+02  0.91875014046E+01  0.40659137444E+02  0.00000000000E+00 0.  1.
         11    1    3    3    0    0  0.56510825795E+01  0.20173317135E+02 -0.36650836403E+01  0.21268058137E+02  0.51100000000E-03 0. -1.
        -11    1    3    3    0    0  0.16461037051E+02  0.10237427718E+02 -0.30631586236E+01  0.19625330777E+02  0.51100000000E-03 0.  1.
        -12    1    3    3    0    0 -0.69658850572E+01  0.61863431986E+01 -0.24592591408E+01  0.96354736429E+01  0.00000000000E+00 0.  1.
</event>
<event>
 7    1  0.2985411E-011  0.5052885E+02  0.7816164E-02  0.1300439E+00
        -11   -1    0    0    0    0  0.00000000000E+00  0.00000000000E+00  0.45593999997E+02  0.45594000000E+02  0.51100000000E-03 0.  1.
         11   -1    0    0    0    0 -0.00000000000E+00 -0.00000000000E+00 -0.45593999997E+02  0.45594000000E+02  0.51100000000E-03 0. -1.
    9900012    2    1    2    0    0  0.14660488234E+02 -0.34392468250E+02  0.15981061001E+02  0.50528854678E+02  0.29999984279E+02 0.  0.
        -12    1    1    2    0    0 -0.14660488234E+02  0.34392468250E+02 -0.15981061001E+02  0.40659145322E+02  0.00000000000E+00 0.  1.
         11    1    3    3    0    0 -0.20444496871E+01 -0.12630752751E+02 -0.62583743419E+00  0.12810439584E+02  0.51100000000E-03 0. -1.
        -11    1    3    3    0    0  0.46858180552E+01 -0.95855391223E+01  0.17598977603E+02  0.20580657522E+02  0.51100000000E-03 0.  1.
         12    1    3    3    0    0  0.12019119866E+02 -0.12176176377E+02 -0.99207916800E+00  0.17137757572E+02  0.00000000000E+00 0. -1.
</event>
<event>
 7    1  0.2985411E-011  0.5052886E+02  0.7816164E-02  0.1300439E+00
        -11   -1    0    0    0    0  0.00000000000E+00  0.00000000000E+00  0.45593999997E+02  0.45594000000E+02  0.51100000000E-03 0.  1.
         11   -1    0    0    0    0 -0.00000000000E+00 -0.00000000000E+00 -0.45593999997E+02  0.45594000000E+02  0.51100000000E-03 0. -1.
    9900012    2    1    2    0    0 -0.33444732959E+02 -0.12135583139E+02 -0.19681031902E+02  0.50528861328E+02  0.30000004492E+02 0.  0.
        -12    1    1    2    0    0  0.33444732959E+02  0.12135583139E+02  0.19681031902E+02  0.40659138672E+02  0.00000000000E+00 0.  1.
         11    1    3    3    0    0 -0.20583739082E+02 -0.51502193047E+01 -0.23458355992E+01  0.21347552984E+02  0.51100000000E-03 0.  1.
        -11    1    3    3    0    0 -0.12616508902E+02 -0.44078690960E+01 -0.18625082169E+01  0.13493500064E+02  0.51100000000E-03 0. -1.
         12    1    3    3    0    0 -0.24448497471E+00 -0.25774947381E+01 -0.15472688086E+02  0.15687808280E+02  0.00000000000E+00 0. -1.
</event>
<event>
 7    1  0.2985411E-011  0.5052886E+02  0.7816164E-02  0.1300439E+00
        -11   -1    0    0    0    0  0.00000000000E+00  0.00000000000E+00  0.45593999997E+02  0.45594000000E+02  0.51100000000E-03 0. -1.
         11   -1    0    0    0    0 -0.00000000000E+00 -0.00000000000E+00 -0.45593999997E+02  0.45594000000E+02  0.51100000000E-03 0.  1.
    9900012    2    1    2    0    0  0.35514970426E+02 -0.16658894591E+02 -0.10692701187E+02  0.50528858936E+02  0.29999997223E+02 0.  0.
        -12    1    1    2    0    0 -0.35514970426E+02  0.16658894591E+02  0.10692701187E+02  0.40659141064E+02  0.00000000000E+00 0.  1.
         11    1    3    3    0    0  0.14888783480E+02 -0.13773545183E+02 -0.18288506363E+01  0.20364948203E+02  0.51100000000E-03 0. -1.
        -11    1    3    3    0    0  0.20073786781E+02 -0.93795680039E+01 -0.81452637206E+01  0.23606747616E+02  0.51100000000E-03 0.  1.
        -12    1    3    3    0    0  0.55240016488E+00  0.64942185954E+01 -0.71858682969E+00  0.65571631167E+01  0.00000000000E+00 0.  1.
</event>
<event>
 7    1  0.2985411E-011  0.5052884E+02  0.7816164E-02  0.1300439E+00
        -11   -1    0    0    0    0  0.00000000000E+00  0.00000000000E+00  0.45593999997E+02  0.45594000000E+02  0.51100000000E-03 0. -1.
         11   -1    0    0    0    0 -0.00000000000E+00 -0.00000000000E+00 -0.45593999997E+02  0.45594000000E+02  0.51100000000E-03 0.  1.
    9900012    2    1    2    0    0 -0.22959280843E+02  0.29507575515E+01  0.33426517240E+02  0.50528836190E+02  0.29999928082E+02 0.  0.
        -12    1    1    2    0    0  0.22959280843E+02 -0.29507575515E+01 -0.33426517240E+02  0.40659163810E+02  0.00000000000E+00 0.  1.
         11    1    3    3    0    0 -0.13608843306E+02 -0.53097571675E+01  0.88568300978E+01  0.17083254285E+02  0.51100000000E-03 0. -1.
        -11    1    3    3    0    0  0.34188830579E+01 -0.35605409340E+01  0.81047872657E+01  0.94896675384E+01  0.51100000000E-03 0.  1.
        -12    1    3    3    0    0 -0.12769320594E+02  0.11821055653E+02  0.16464899877E+02  0.23955914367E+02  0.00000000000E+00 0.  1.
</event>
<event>
 7    1  0.2985411E-011  0.5052875E+02  0.7816164E-02  0.1300439E+00
        -11   -1    0    0    0    0  0.00000000000E+00  0.00000000000E+00  0.45593999997E+02  0.45594000000E+02  0.51100000000E-03 0.  1.
         11   -1    0    0    0    0 -0.00000000000E+00 -0.00000000000E+00 -0.45593999997E+02  0.45594000000E+02  0.51100000000E-03 0. -1.
    9900012    2    1    2    0    0 -0.87185438329E+01  0.17879460618E+02 -0.35461050906E+02  0.50528754435E+02  0.29999679579E+02 0.  0.
        -12    1    1    2    0    0  0.87185438329E+01 -0.17879460618E+02  0.35461050906E+02  0.40659245565E+02  0.00000000000E+00 0.  1.
         11    1    3    3    0    0  0.15232713021E+01  0.73507994377E+01 -0.27753445807E+01  0.80035708054E+01  0.51100000000E-03 0. -1.
        -11    1    3    3    0    0  0.61527037668E+01  0.44865246658E+01 -0.32179193526E+01  0.82667812624E+01  0.51100000000E-03 0.  1.
         12    1    3    3    0    0 -0.16394518902E+02  0.60421365144E+01 -0.29467786973E+02  0.34258402367E+02  0.00000000000E+00 0. -1.
</event>
<event>
 7    1  0.2985411E-011  0.5052886E+02  0.7816164E-02  0.1300439E+00
        -11   -1    0    0    0    0  0.00000000000E+00  0.00000000000E+00  0.45593999997E+02  0.45594000000E+02  0.51100000000E-03 0.  1.
         11   -1    0    0    0    0 -0.00000000000E+00 -0.00000000000E+00 -0.45593999997E+02  0.45594000000E+02  0.51100000000E-03 0. -1.
    9900012    2    1    2    0    0  0.59471072974E+01  0.14689138689E+02 -0.37443651273E+02  0.50528857101E+02  0.29999991644E+02 0.  0.
        -12    1    1    2    0    0 -0.59471072974E+01 -0.14689138689E+02  0.37443651273E+02  0.40659142899E+02  0.00000000000E+00 0.  1.
         11    1    3    3    0    0 -0.19203503869E+01  0.62375046537E+01 -0.50530982470E+01  0.82539694734E+01  0.51100000000E-03 0. -1.
        -11    1    3    3    0    0  0.10217637924E+02  0.16153652262E+02 -0.22783847837E+02  0.29739608751E+02  0.51100000000E-03 0.  1.
        -12    1    3    3    0    0 -0.23501802392E+01 -0.77020182269E+01 -0.96067051888E+01  0.12535278876E+02  0.00000000000E+00 0.  1.
</event>
<event>
 7    1  0.2985411E-011  0.5052885E+02  0.7816164E-02  0.1300439E+00
        -11   -1    0    0    0    0  0.00000000000E+00  0.00000000000E+00  0.45593999997E+02  0.45594000000E+02  0.51100000000E-03 0.  1.
         11   -1    0    0    0    0 -0.00000000000E+00 -0.00000000000E+00 -0.45593999997E+02  0.45594000000E+02  0.51100000000E-03 0. -1.
    9900012    2    1    2    0    0 -0.26900045139E+02 -0.11133339502E+01 -0.30468256083E+02  0.50528848881E+02  0.29999966658E+02 0.  0.
        -12    1    1    2    0    0  0.26900045139E+02  0.11133339502E+01  0.30468256083E+02  0.40659151119E+02  0.00000000000E+00 0.  1.
         11    1    3    3    0    0 -0.10037196011E+02 -0.24775886268E+01 -0.59180416190E+01  0.11912471030E+02  0.51100000000E-03 0. -1.
        -11    1    3    3    0    0 -0.11013242381E+02 -0.17070611954E+01  0.19420500871E+01  0.11312697488E+02  0.51100000000E-03 0.  1.
         12    1    3    3    0    0 -0.58496067468E+01  0.30713158720E+01 -0.26492264551E+02  0.27303680362E+02  0.00000000000E+00 0. -1.
</event>
<event>
 7    1  0.2985411E-011  0.5052884E+02  0.7816164E-02  0.1300439E+00
        -11   -1    0    0    0    0  0.00000000000E+00  0.00000000000E+00  0.45593999997E+02  0.45594000000E+02  0.51100000000E-03 0. -1.
         11   -1    0    0    0    0 -0.00000000000E+00 -0.00000000000E+00 -0.45593999997E+02  0.45594000000E+02  0.51100000000E-03 0.  1.
    9900012    2    1    2    0    0 -0.25771110358E+02  0.29997040794E+02  0.94443107788E+01  0.50528836315E+02  0.29999928463E+02 0.  0.
        -12    1    1    2    0    0  0.25771110358E+02 -0.29997040794E+02 -0.94443107788E+01  0.40659163685E+02  0.00000000000E+00 0.  1.
         11    1    3    3    0    0 -0.10432627449E+02  0.22456357830E+02  0.12606696817E+02  0.27785905193E+02  0.51100000000E-03 0. -1.
        -11    1    3    3    0    0  0.29166577772E+00  0.29788523659E+01  0.39659589229E+01  0.49686477821E+01  0.51100000000E-03 0.  1.
        -12    1    3    3    0    0 -0.15630148687E+02  0.45618305978E+01 -0.71283449611E+01  0.17774283340E+02  0.00000000000E+00 0.  1.
</event>
<event>
 7    1  0.2985411E-011  0.5052886E+02  0.7816164E-02  0.1300439E+00
        -11   -1    0    0    0    0  0.00000000000E+00  0.00000000000E+00  0.45593999997E+02  0.45594000000E+02  0.51100000000E-03 0.  1.
         11   -1    0    0    0    0 -0.00000000000E+00 -0.00000000000E+00 -0.45593999997E+02  0.45594000000E+02  0.51100000000E-03 0. -1.
    9900012    2    1    2    0    0  0.20650023241E+02 -0.28882966244E+02 -0.19812023078E+02  0.50528862560E+02  0.30000008238E+02 0.  0.
        -12    1    1    2    0    0 -0.20650023241E+02  0.28882966244E+02  0.19812023078E+02  0.40659137440E+02  0.00000000000E+00 0.  1.
         11    1    3    3    0    0  0.88342015400E+01 -0.11701104948E+02 -0.53255123761E+01  0.15598719697E+02  0.51100000000E-03 0. -1.
        -11    1    3    3    0    0  0.18631610512E+02 -0.95128047714E+01 -0.12820707053E+02  0.24535706521E+02  0.51100000000E-03 0.  1.
        -12    1    3    3    0    0 -0.68157888101E+01 -0.76690565250E+01 -0.16658036485E+01  0.10394436343E+02  0.00000000000E+00 0.  1.
</event>
<event>
 7    1  0.2985411E-011  0.5052886E+02  0.7816164E-02  0.1300439E+00
        -11   -1    0    0    0    0  0.00000000000E+00  0.00000000000E+00  0.45593999997E+02  0.45594000000E+02  0.51100000000E-03 0.  1.
         11   -1    0    0    0    0 -0.00000000000E+00 -0.00000000000E+00 -0.45593999997E+02  0.45594000000E+02  0.51100000000E-03 0. -1.
    9900012    2    1    2    0    0  0.13113928320E+02  0.43162569218E+01 -0.38243433659E+02  0.50528863169E+02  0.30000010089E+02 0.  0.
        -12    1    1    2    0    0 -0.13113928320E+02 -0.43162569218E+01  0.38243433659E+02  0.40659136831E+02  0.00000000000E+00 0.  1.
         11    1    3    3    0    0 -0.60059283496E+01 -0.23240161274E+00 -0.12956811962E+02  0.14283002567E+02  0.51100000000E-03 0. -1.
        -11    1    3    3    0    0 -0.83668036887E+00 -0.36914620035E+01 -0.13703674287E+01  0.40255226882E+01  0.51100000000E-03 0.  1.
         12    1    3    3    0    0  0.19956537039E+02  0.82401205380E+01 -0.23916254269E+02  0.32220337914E+02  0.00000000000E+00 0. -1.
</event>
<event>
 7    1  0.2985411E-011  0.5052886E+02  0.7816164E-02  0.1300439E+00
        -11   -1    0    0    0    0  0.00000000000E+00  0.00000000000E+00  0.45593999997E+02  0.45594000000E+02  0.51100000000E-03 0.  1.
         11   -1    0    0    0    0 -0.00000000000E+00 -0.00000000000E+00 -0.45593999997E+02  0.45594000000E+02  0.51100000000E-03 0. -1.
    9900012    2    1    2    0    0  0.38302473171E+02 -0.99104718289E+01 -0.93738386357E+01  0.50528858917E+02  0.29999997164E+02 0.  0.
        -12    1    1    2    0    0 -0.38302473171E+02  0.99104718289E+01  0.93738386357E+01  0.40659141083E+02  0.00000000000E+00 0.  1.
         11    1    3    3    0    0  0.24093050950E+02 -0.92328464779E+01 -0.14893264401E+02  0.29791439759E+02  0.51100000000E-03 0. -1.
        -11    1    3    3    0    0  0.11790926327E+02 -0.66168954271E+01  0.44625813933E+01  0.14238113698E+02  0.51100000000E-03 0.  1.
        -12    1    3    3    0    0  0.24184958942E+01  0.59392700762E+01  0.10568443717E+01  0.64993054593E+01  0.00000000000E+00 0.  1.
</event>
<event>
 7    1  0.2985411E-011  0.5052887E+02  0.7816164E-02  0.1300439E+00
        -11   -1    0    0    0    0  0.00000000000E+00  0.00000000000E+00  0.45593999997E+02  0.45594000000E+02  0.51100000000E-03 0.  1.
         11   -1    0    0    0    0 -0.00000000000E+00 -0.00000000000E+00 -0.45593999997E+02  0.45594000000E+02  0.51100000000E-03 0. -1.
    9900012    2    1    2    0    0  0.32642003236E+02 -0.23336437010E+02  0.65631860070E+01  0.50528867224E+02  0.30000022414E+02 0.  0.
        -12    1    1    2    0    0 -0.32642003236E+02  0.23336437010E+02 -0.65631860070E+01  0.40659132776E+02  0.00000000000E+00 0.  1.
         11    1    3    3    0    0  0.17922804137E+02 -0.69880451113E+01  0.55335290845E+01  0.20016983464E+02  0.51100000000E-03 0. -1.
        -11    1    3    3    0    0  0.15626215168E+02 -0.15542193465E+02  0.79926054917E+01  0.23443978352E+02  0.51100000000E-03 0.  1.
         12    1    3    3    0    0 -0.90701607003E+00 -0.80619843400E+00 -0.69629485693E+01  0.70679054071E+01  0.00000000000E+00 0. -1.
</event>
<event>
 7    1  0.2985411E-011  0.5052884E+02  0.7816164E-02  0.1300439E+00
        -11   -1    0    0    0    0  0.00000000000E+00  0.00000000000E+00  0.45593999997E+02  0.45594000000E+02  0.51100000000E-03 0.  1.
         11   -1    0    0    0    0 -0.00000000000E+00 -0.00000000000E+00 -0.45593999997E+02  0.45594000000E+02  0.51100000000E-03 0. -1.
    9900012    2    1    2    0    0 -0.36422884170E+02  0.15135868202E+02 -0.98714902444E+01  0.50528839689E+02  0.29999938719E+02 0.  0.
        -12    1    1    2    0    0  0.36422884170E+02 -0.15135868202E+02  0.98714902444E+01  0.40659160311E+02  0.00000000000E+00 0.  1.
         11    1    3    3    0    0 -0.21479540297E+02  0.13197231959E+02 -0.71454474690E+01  0.26202957897E+02  0.51100000000E-03 0. -1.
        -11    1    3    3    0    0 -0.94171304699E+01  0.93031746416E+01  0.28785727376E+01  0.13546866278E+02  0.51100000000E-03 0.  1.
        -12    1    3    3    0    0 -0.55262134039E+01 -0.73645383985E+01 -0.56046155130E+01  0.10779015514E+02  0.00000000000E+00 0.  1.
</event>
<event>
 7    1  0.2985411E-011  0.5052885E+02  0.7816164E-02  0.1300439E+00
        -11   -1    0    0    0    0  0.00000000000E+00  0.00000000000E+00  0.45593999997E+02  0.45594000000E+02  0.51100000000E-03 0. -1.
         11   -1    0    0    0    0 -0.00000000000E+00 -0.00000000000E+00 -0.45593999997E+02  0.45594000000E+02  0.51100000000E-03 0.  1.
    9900012    2    1    2    0    0 -0.36766773796E+02  0.16780546483E+02  0.44479537711E+01  0.50528847422E+02  0.29999962224E+02 0.  0.
        -12    1    1    2    0    0  0.36766773796E+02 -0.16780546483E+02 -0.44479537711E+01  0.40659152578E+02  0.00000000000E+00 0.  1.
         11    1    3    3    0    0 -0.27636954249E+02  0.10746326744E+02  0.97515090259E+01  0.31215007723E+02  0.51100000000E-03 0. -1.
        -11    1    3    3    0    0 -0.32675845469E+01  0.50949585168E+01  0.47121408576E+01  0.76707224420E+01  0.51100000000E-03 0.  1.
        -12    1    3    3    0    0 -0.58622350001E+01  0.93926122280E+00 -0.10015696112E+02  0.11643117257E+02  0.00000000000E+00 0.  1.
</event>
<event>
 7    1  0.2985411E-011  0.5052886E+02  0.7816164E-02  0.1300439E+00
        -11   -1    0    0    0    0  0.00000000000E+00  0.00000000000E+00  0.45593999997E+02  0.45594000000E+02  0.51100000000E-03 0.  1.
         11   -1    0    0    0    0 -0.00000000000E+00 -0.00000000000E+00 -0.45593999997E+02  0.45594000000E+02  0.51100000000E-03 0. -1.
    9900012    2    1    2    0    0 -0.11948172435E+02  0.37485613587E+02  0.10258447883E+02  0.50528858304E+02  0.29999995300E+02 0.  0.
        -12    1    1    2    0    0  0.11948172435E+02 -0.37485613587E+02 -0.10258447883E+02  0.40659141696E+02  0.00000000000E+00 0.  1.
         11    1    3    3    0    0 -0.86071341413E+01  0.20134838383E+02 -0.35492943366E+01  0.22183145976E+02  0.51100000000E-03 0. -1.
        -11    1    3    3    0    0 -0.84332012702E+01  0.13568098162E+02  0.36773269523E+01  0.16393135917E+02  0.51100000000E-03 0.  1.
        -12    1    3    3    0    0  0.50921629764E+01  0.37826770415E+01  0.10130415268E+02  0.11952576412E+02  0.00000000000E+00 0.  1.
</event>
<event>
 7    1  0.2985411E-011  0.5052886E+02  0.7816164E-02  0.1300439E+00
        -11   -1    0    0    0    0  0.00000000000E+00  0.00000000000E+00  0.45593999997E+02  0.45594000000E+02  0.51100000000E-03 0. -1.
         11   -1    0    0    0    0 -0.00000000000E+00 -0.00000000000E+00 -0.45593999997E+02  0.45594000000E+02  0.51100000000E-03 0.  1.
    9900012    2    1    2    0    0  0.17902601870E+02  0.29081990119E+02  0.22065818934E+02  0.50528859967E+02  0.30000000355E+02 0.  0.
        -12    1    1    2    0    0 -0.17902601870E+02 -0.29081990119E+02 -0.22065818934E+02  0.40659140033E+02  0.00000000000E+00 0.  1.
         11    1    3    3    0    0  0.12077311029E+02  0.10087898054E+02 -0.99361091459E+00  0.15767510639E+02  0.51100000000E-03 0.  1.
        -11    1    3    3    0    0  0.49967263282E+01  0.30177403940E+01  0.16444604158E+02  0.17449900781E+02  0.51100000000E-03 0. -1.
        -12    1    3    3    0    0  0.82856451309E+00  0.15976351671E+02  0.66148256909E+01  0.17311448547E+02  0.00000000000E+00 0.  1.
</event>
<event>
 7    1  0.2985411E-011  0.5052888E+02  0.7816164E-02  0.1300439E+00
        -11   -1    0    0    0    0  0.00000000000E+00  0.00000000000E+00  0.45593999997E+02  0.45594000000E+02  0.51100000000E-03 0. -1.
         11   -1    0    0    0    0 -0.00000000000E+00 -0.00000000000E+00 -0.45593999997E+02  0.45594000000E+02  0.51100000000E-03 0.  1.
    9900012    2    1    2    0    0  0.27839843728E+02  0.62089421696E+01  0.28975101180E+02  0.50528876177E+02  0.30000049627E+02 0.  0.
        -12    1    1    2    0    0 -0.27839843728E+02 -0.62089421696E+01 -0.28975101180E+02  0.40659123823E+02  0.00000000000E+00 0.  1.
         11    1    3    3    0    0  0.17453039060E+02 -0.77172929134E+01  0.16427310706E+02  0.25179787919E+02  0.51100000000E-03 0. -1.
        -11    1    3    3    0    0 -0.27393367971E+01  0.13458845674E+01  0.45676505480E+01  0.54935237458E+01  0.51100000000E-03 0.  1.
         12    1    3    3    0    0  0.13126141465E+02  0.12580350516E+02  0.79801399265E+01  0.19855564512E+02  0.00000000000E+00 0. -1.
</event>
<event>
 7    1  0.2985411E-011  0.5052886E+02  0.7816164E-02  0.1300439E+00
        -11   -1    0    0    0    0  0.00000000000E+00  0.00000000000E+00  0.45593999997E+02  0.45594000000E+02  0.51100000000E-03 0.  1.
         11   -1    0    0    0    0 -0.00000000000E+00 -0.00000000000E+00 -0.45593999997E+02  0.45594000000E+02  0.51100000000E-03 0. -1.
    9900012    2    1    2    0    0  0.72446608553E+01  0.30240767786E+02 -0.26194965150E+02  0.50528863925E+02  0.30000012386E+02 0.  0.
        -12    1    1    2    0    0 -0.72446608553E+01 -0.30240767786E+02  0.26194965150E+02  0.40659136075E+02  0.00000000000E+00 0.  1.
         11    1    3    3    0    0  0.32347911231E-01  0.20071460001E+02 -0.65312266780E+01  0.21107379637E+02  0.51100000000E-03 0. -1.
        -11    1    3    3    0    0 -0.16089791519E+00  0.11994781076E+02 -0.51793318459E+01  0.13066221330E+02  0.51100000000E-03 0.  1.
         12    1    3    3    0    0  0.73732108592E+01 -0.18254732916E+01 -0.14484406626E+02  0.16355262958E+02  0.00000000000E+00 0. -1.
</event>
<event>
 7    1  0.2985411E-011  0.5052891E+02  0.7816164E-02  0.1300439E+00
        -11   -1    0    0    0    0  0.00000000000E+00  0.00000000000E+00  0.45593999997E+02  0.45594000000E+02  0.51100000000E-03 0.  1.
         11   -1    0    0    0    0 -0.00000000000E+00 -0.00000000000E+00 -0.45593999997E+02  0.45594000000E+02  0.51100000000E-03 0. -1.
    9900012    2    1    2    0    0 -0.33677247573E+02 -0.19751258817E+02 -0.11353062711E+02  0.50528914153E+02  0.30000165060E+02 0.  0.
        -12    1    1    2    0    0  0.33677247573E+02  0.19751258817E+02  0.11353062711E+02  0.40659085847E+02  0.00000000000E+00 0.  1.
         11    1    3    3    0    0 -0.23617264350E+02 -0.18196082943E+02 -0.35875385645E+01  0.30029036665E+02  0.51100000000E-03 0. -1.
        -11    1    3    3    0    0 -0.72467108399E+01 -0.32632332163E+01  0.35580888511E+01  0.87076693526E+01  0.51100000000E-03 0.  1.
         12    1    3    3    0    0 -0.28132723838E+01  0.17080573429E+01 -0.11323612997E+02  0.11792208135E+02  0.00000000000E+00 0. -1.
</event>
<event>
 7    1  0.2985411E-011  0.5052886E+02  0.7816164E-02  0.1300439E+00
        -11   -1    0    0    0    0  0.00000000000E+00  0.00000000000E+00  0.45593999997E+02  0.45594000000E+02  0.51100000000E-03 0.  1.
         11   -1    0    0    0    0 -0.00000000000E+00 -0.00000000000E+00 -0.45593999997E+02  0.45594000000E+02  0.51100000000E-03 0. -1.
    9900012    2    1    2    0    0  0.27805631396E+00 -0.16490936242E+02 -0.37163661648E+02  0.50528855388E+02  0.29999986438E+02 0.  0.
        -12    1    1    2    0    0 -0.27805631396E+00  0.16490936242E+02  0.37163661648E+02  0.40659144612E+02  0.00000000000E+00 0.  1.
         11    1    3    3    0    0  0.28366541592E+01 -0.58366590679E+01 -0.12015258709E+02  0.13655754758E+02  0.51100000000E-03 0. -1.
        -11    1    3    3    0    0 -0.29272950645E+01 -0.22548030316E+00 -0.26219130790E+02  0.26383000538E+02  0.51100000000E-03 0.  1.
        -12    1    3    3    0    0  0.36869721928E+00 -0.10428796871E+02  0.10707278507E+01  0.10490100093E+02  0.00000000000E+00 0.  1.
</event>
<event>
 7    1  0.2985411E-011  0.5052885E+02  0.7816164E-02  0.1300439E+00
        -11   -1    0    0    0    0  0.00000000000E+00  0.00000000000E+00  0.45593999997E+02  0.45594000000E+02  0.51100000000E-03 0.  1.
         11   -1    0    0    0    0 -0.00000000000E+00 -0.00000000000E+00 -0.45593999997E+02  0.45594000000E+02  0.51100000000E-03 0. -1.
    9900012    2    1    2    0    0 -0.12342236264E+02  0.12467185430E+02 -0.36679761736E+02  0.50528850605E+02  0.29999971898E+02 0.  0.
        -12    1    1    2    0    0  0.12342236264E+02 -0.12467185430E+02  0.36679761736E+02  0.40659149395E+02  0.00000000000E+00 0.  1.
         11    1    3    3    0    0 -0.54935237172E+01  0.83748178225E+01 -0.90000278718E+01  0.13465395588E+02  0.51100000000E-03 0. -1.
        -11    1    3    3    0    0 -0.96384841987E+01 -0.43080334577E+01 -0.31987395644E+01  0.11031385452E+02  0.51100000000E-03 0.  1.
         12    1    3    3    0    0  0.27897716516E+01  0.84004010650E+01 -0.24480994300E+02  0.26032069565E+02  0.00000000000E+00 0. -1.
</event>
<event>
 7    1  0.2985411E-011  0.5052886E+02  0.7816164E-02  0.1300439E+00
        -11   -1    0    0    0    0  0.00000000000E+00  0.00000000000E+00  0.45593999997E+02  0.45594000000E+02  0.51100000000E-03 0.  1.
         11   -1    0    0    0    0 -0.00000000000E+00 -0.00000000000E+00 -0.45593999997E+02  0.45594000000E+02  0.51100000000E-03 0. -1.
    9900012    2    1    2    0    0 -0.10322469453E+02  0.34458521031E+02 -0.18953171533E+02  0.50528858858E+02  0.29999996984E+02 0.  0.
        -12    1    1    2    0    0  0.10322469453E+02 -0.34458521031E+02  0.18953171533E+02  0.40659141142E+02  0.00000000000E+00 0.  1.
         11    1    3    3    0    0 -0.13064017500E+00  0.20662831323E+02 -0.16545349609E+02  0.26471083451E+02  0.51100000000E-03 0. -1.
        -11    1    3    3    0    0  0.12463409214E+01  0.54451988821E+00  0.49024784649E+01  0.50876480775E+01  0.51100000000E-03 0.  1.
         12    1    3    3    0    0 -0.11438170200E+02  0.13251169820E+02 -0.73103003893E+01  0.18970127329E+02  0.00000000000E+00 0. -1.
</event>
<event>
 7    1  0.2985411E-011  0.5052887E+02  0.7816164E-02  0.1300439E+00
        -11   -1    0    0    0    0  0.00000000000E+00  0.00000000000E+00  0.45593999997E+02  0.45594000000E+02  0.51100000000E-03 0.  1.
         11   -1    0    0    0    0 -0.00000000000E+00 -0.00000000000E+00 -0.45593999997E+02  0.45594000000E+02  0.51100000000E-03 0. -1.
    9900012    2    1    2    0    0 -0.29969372799E+02 -0.96891286230E+01 -0.25712304941E+02  0.50528866404E+02  0.30000019921E+02 0.  0.
        -12    1    1    2    0    0  0.29969372799E+02  0.96891286230E+01  0.25712304941E+02  0.40659133596E+02  0.00000000000E+00 0.  1.
         11    1    3    3    0    0 -0.11761150464E+02  0.89723155298E+00 -0.50443433660E+01  0.12828682121E+02  0.51100000000E-03 0. -1.
        -11    1    3    3    0    0 -0.84106342066E+01  0.62044540086E+01 -0.17928424497E+01  0.10604164352E+02  0.51100000000E-03 0.  1.
         12    1    3    3    0    0 -0.97975881280E+01 -0.16790814185E+02 -0.18875119125E+02  0.27096019931E+02  0.00000000000E+00 0. -1.
</event>
<event>
 7    1  0.2985411E-011  0.5052885E+02  0.7816164E-02  0.1300439E+00
        -11   -1    0    0    0    0  0.00000000000E+00  0.00000000000E+00  0.45593999997E+02  0.45594000000E+02  0.51100000000E-03 0. -1.
         11   -1    0    0    0    0 -0.00000000000E+00 -0.00000000000E+00 -0.45593999997E+02  0.45594000000E+02  0.51100000000E-03 0.  1.
    9900012    2    1    2    0    0 -0.13526495994E+02 -0.34390094426E+01  0.38188660528E+02  0.50528847614E+02  0.29999962806E+02 0.  0.
        -12    1    1    2    0    0  0.13526495994E+02  0.34390094426E+01 -0.38188660528E+02  0.40659152386E+02  0.00000000000E+00 0.  1.
         11    1    3    3    0    0 -0.10133634122E+02 -0.10124002549E+02  0.10637238654E+02  0.17841995813E+02  0.51100000000E-03 0. -1.
        -11    1    3    3    0    0 -0.23694284931E+01  0.34759225049E+01  0.28791739883E+02  0.29097431405E+02  0.51100000000E-03 0.  1.
        -12    1    3    3    0    0 -0.10234333793E+01  0.32090706020E+01 -0.12403180089E+01  0.35894203952E+01  0.00000000000E+00 0.  1.
</event>
<event>
 7    1  0.2985411E-011  0.5052885E+02  0.7816164E-02  0.1300439E+00
        -11   -1    0    0    0    0  0.00000000000E+00  0.00000000000E+00  0.45593999997E+02  0.45594000000E+02  0.51100000000E-03 0.  1.
         11   -1    0    0    0    0 -0.00000000000E+00 -0.00000000000E+00 -0.45593999997E+02  0.45594000000E+02  0.51100000000E-03 0. -1.
    9900012    2    1    2    0    0  0.23824119713E+02 -0.24418473058E+02 -0.22120487631E+02  0.50528849989E+02  0.29999970028E+02 0.  0.
        -12    1    1    2    0    0 -0.23824119713E+02  0.24418473058E+02  0.22120487631E+02  0.40659150011E+02  0.00000000000E+00 0.  1.
         11    1    3    3    0    0  0.71149060182E+01 -0.15814358550E+02 -0.18761120887E+02  0.25547905612E+02  0.51100000000E-03 0. -1.
        -11    1    3    3    0    0 -0.21503603757E+01 -0.72652230943E+00 -0.39254381150E+01  0.45344182722E+01  0.51100000000E-03 0.  1.
        -12    1    3    3    0    0  0.18859574070E+02 -0.78775921983E+01  0.56607137107E+00  0.20446526105E+02  0.00000000000E+00 0.  1.
</event>
<event>
 7    1  0.2985411E-011  0.5052886E+02  0.7816164E-02  0.1300439E+00
        -11   -1    0    0    0    0  0.00000000000E+00  0.00000000000E+00  0.45593999997E+02  0.45594000000E+02  0.51100000000E-03 0.  1.
         11   -1    0    0    0    0 -0.00000000000E+00 -0.00000000000E+00 -0.45593999997E+02  0.45594000000E+02  0.51100000000E-03 0. -1.
    9900012    2    1    2    0    0 -0.61204831607E+01 -0.33812841034E+02 -0.21734698486E+02  0.50528860177E+02  0.30000000994E+02 0.  0.
        -12    1    1    2    0    0  0.61204831607E+01  0.33812841034E+02  0.21734698486E+02  0.40659139823E+02  0.00000000000E+00 0.  1.
         11    1    3    3    0    0 -0.11222579235E+02 -0.11839132240E+02 -0.11948816618E+02  0.20220918765E+02  0.51100000000E-03 0.  1.
        -11    1    3    3    0    0 -0.14045446897E+01 -0.55733744734E+01  0.47430239876E+01  0.74519477732E+01  0.51100000000E-03 0. -1.
         12    1    3    3    0    0  0.65066407643E+01 -0.16400334320E+02 -0.14528905855E+02  0.22855993638E+02  0.00000000000E+00 0. -1.
</event>
<event>
 7    1  0.2985411E-011  0.5052886E+02  0.7816164E-02  0.1300439E+00
        -11   -1    0    0    0    0  0.00000000000E+00  0.00000000000E+00  0.45593999997E+02  0.45594000000E+02  0.51100000000E-03 0.  1.
         11   -1    0    0    0    0 -0.00000000000E+00 -0.00000000000E+00 -0.45593999997E+02  0.45594000000E+02  0.51100000000E-03 0. -1.
    9900012    2    1    2    0    0 -0.23446912487E+02 -0.28696077168E+02 -0.16731489924E+02  0.50528864433E+02  0.30000013931E+02 0.  0.
        -12    1    1    2    0    0  0.23446912487E+02  0.28696077168E+02  0.16731489924E+02  0.40659135567E+02  0.00000000000E+00 0.  1.
         11    1    3    3    0    0 -0.26026790515E+02 -0.21204720733E+02 -0.10383488028E+02  0.35140444360E+02  0.51100000000E-03 0. -1.
        -11    1    3    3    0    0 -0.25533985870E+01 -0.35001619593E+01 -0.76174305644E+01  0.87633456368E+01  0.51100000000E-03 0.  1.
        -12    1    3    3    0    0  0.51332766153E+01 -0.39911944749E+01  0.12694286689E+01  0.66250744367E+01  0.00000000000E+00 0.  1.
</event>
<event>
 7    1  0.2985411E-011  0.5052886E+02  0.7816164E-02  0.1300439E+00
        -11   -1    0    0    0    0  0.00000000000E+00  0.00000000000E+00  0.45593999997E+02  0.45594000000E+02  0.51100000000E-03 0.  1.
         11   -1    0    0    0    0 -0.00000000000E+00 -0.00000000000E+00 -0.45593999997E+02  0.45594000000E+02  0.51100000000E-03 0. -1.
    9900012    2    1    2    0    0 -0.23113345107E+02  0.27494865642E+02 -0.19051797813E+02  0.50528863775E+02  0.30000011929E+02 0.  0.
        -12    1    1    2    0    0  0.23113345107E+02 -0.27494865642E+02  0.19051797813E+02  0.40659136225E+02  0.00000000000E+00 0.  1.
         11    1    3    3    0    0 -0.22287622749E+01  0.66011414573E+00 -0.78916666082E+01  0.82268787568E+01  0.51100000000E-03 0. -1.
        -11    1    3    3    0    0  0.48107959746E+01  0.35569586257E+01 -0.29549090364E+01  0.66728704655E+01  0.51100000000E-03 0.  1.
        -12    1    3    3    0    0 -0.25695378807E+02  0.23277792870E+02 -0.82052221682E+01  0.35629114552E+02  0.00000000000E+00 0.  1.
</event>
<event>
 7    1  0.2985411E-011  0.5052886E+02  0.7816164E-02  0.1300439E+00
        -11   -1    0    0    0    0  0.00000000000E+00  0.00000000000E+00  0.45593999997E+02  0.45594000000E+02  0.51100000000E-03 0. -1.
         11   -1    0    0    0    0 -0.00000000000E+00 -0.00000000000E+00 -0.45593999997E+02  0.45594000000E+02  0.51100000000E-03 0.  1.
    9900012    2    1    2    0    0  0.24567073909E+02 -0.23649975622E+02  0.22142789798E+02  0.50528860714E+02  0.30000002627E+02 0.  0.
        -12    1    1    2    0    0 -0.24567073909E+02  0.23649975622E+02 -0.22142789798E+02  0.40659139286E+02  0.00000000000E+00 0.  1.
         11    1    3    3    0    0  0.98538283275E+01 -0.24886674522E+01  0.98522679279E+00  0.10210880006E+02  0.51100000000E-03 0. -1.
        -11    1    3    3    0    0 -0.51944684431E+01 -0.54811589039E+01  0.40299572005E+00  0.75622755271E+01  0.51100000000E-03 0.  1.
         12    1    3    3    0    0  0.19907714025E+02 -0.15680149266E+02  0.20754567286E+02  0.32755705181E+02  0.00000000000E+00 0. -1.
</event>
<event>
 7    1  0.2985411E-011  0.5052887E+02  0.7816164E-02  0.1300439E+00
        -11   -1    0    0    0    0  0.00000000000E+00  0.00000000000E+00  0.45593999997E+02  0.45594000000E+02  0.51100000000E-03 0.  1.
         11   -1    0    0    0    0 -0.00000000000E+00 -0.00000000000E+00 -0.45593999997E+02  0.45594000000E+02  0.51100000000E-03 0. -1.
    9900012    2    1    2    0    0  0.21252726399E+02  0.16487651106E+02 -0.30490066013E+02  0.50528866415E+02  0.30000019955E+02 0.  0.
        -12    1    1    2    0    0 -0.21252726399E+02 -0.16487651106E+02  0.30490066013E+02  0.40659133585E+02  0.00000000000E+00 0.  1.
         11    1    3    3    0    0  0.72557184825E+01  0.56407732987E+01  0.76979629723E+00  0.92226005392E+01  0.51100000000E-03 0. -1.
        -11    1    3    3    0    0  0.29473768569E+00 -0.15824624643E+01  0.24045466774E+01  0.28935968515E+01  0.51100000000E-03 0.  1.
         12    1    3    3    0    0  0.13702270231E+02  0.12429340272E+02 -0.33664408988E+02  0.38412669024E+02  0.00000000000E+00 0. -1.
</event>
<event>
 7    1  0.2985411E-011  0.5052886E+02  0.7816164E-02  0.1300439E+00
        -11   -1    0    0    0    0  0.00000000000E+00  0.00000000000E+00  0.45593999997E+02  0.45594000000E+02  0.51100000000E-03 0.  1.
         11   -1    0    0    0    0 -0.00000000000E+00 -0.00000000000E+00 -0.45593999997E+02  0.45594000000E+02  0.51100000000E-03 0. -1.
    9900012    2    1    2    0    0  0.64661394467E+01  0.16047218602E+02 -0.36794584409E+02  0.50528860486E+02  0.30000001933E+02 0.  0.
        -12    1    1    2    0    0 -0.64661394467E+01 -0.16047218602E+02  0.36794584409E+02  0.40659139514E+02  0.00000000000E+00 0.  1.
         11    1    3    3    0    0 -0.79117168952E+01  0.11701108874E+02 -0.21534720260E+02  0.25753745166E+02  0.51100000000E-03 0. -1.
        -11    1    3    3    0    0 -0.14880146121E+01  0.18412136188E+01  0.33105091253E+00  0.23903660899E+01  0.51100000000E-03 0.  1.
         12    1    3    3    0    0  0.15865870954E+02  0.25048961088E+01 -0.15590915061E+02  0.22384749230E+02  0.00000000000E+00 0. -1.
</event>
<event>
 7    1  0.2985411E-011  0.5052887E+02  0.7816164E-02  0.1300439E+00
        -11   -1    0    0    0    0  0.00000000000E+00  0.00000000000E+00  0.45593999997E+02  0.45594000000E+02  0.51100000000E-03 0.  1.
         11   -1    0    0    0    0 -0.00000000000E+00 -0.00000000000E+00 -0.45593999997E+02  0.45594000000E+02  0.51100000000E-03 0. -1.
    9900012    2    1    2    0    0 -0.15196276985E+01  0.36127039932E+02 -0.18592809189E+02  0.50528870199E+02  0.30000031458E+02 0.  0.
        -12    1    1    2    0    0  0.15196276985E+01 -0.36127039932E+02  0.18592809189E+02  0.40659129801E+02  0.00000000000E+00 0.  1.
         11    1    3    3    0    0  0.77726028754E+01  0.18578070872E+01 -0.10012262453E+02  0.12810550430E+02  0.51100000000E-03 0. -1.
        -11    1    3    3    0    0 -0.22748418586E+01  0.80373624652E+00 -0.13648096044E+01  0.27719312677E+01  0.51100000000E-03 0.  1.
        -12    1    3    3    0    0 -0.70173887153E+01  0.33465496599E+02 -0.72157371315E+01  0.34946388502E+02  0.00000000000E+00 0.  1.
</event>
<event>
 7    1  0.2985411E-011  0.5052881E+02  0.7816164E-02  0.1300439E+00
        -11   -1    0    0    0    0  0.00000000000E+00  0.00000000000E+00  0.45593999997E+02  0.45594000000E+02  0.51100000000E-03 0. -1.
         11   -1    0    0    0    0 -0.00000000000E+00 -0.00000000000E+00 -0.45593999997E+02  0.45594000000E+02  0.51100000000E-03 0.  1.
    9900012    2    1    2    0    0  0.39683961201E+02  0.37000833302E+00 -0.88439860692E+01  0.50528809497E+02  0.29999846946E+02 0.  0.
        -12    1    1    2    0    0 -0.39683961201E+02 -0.37000833302E+00  0.88439860692E+01  0.40659190503E+02  0.00000000000E+00 0.  1.
         11    1    3    3    0    0 -0.24579486634E+01 -0.60860272128E+00 -0.39689696310E+00  0.25630911737E+01  0.51100000000E-03 0. -1.
        -11    1    3    3    0    0  0.18033261855E+02  0.11809096394E+01 -0.14428649813E+02  0.23125289542E+02  0.51100000000E-03 0.  1.
         12    1    3    3    0    0  0.24108648009E+02 -0.20229858515E+00  0.59815607068E+01  0.24840428781E+02  0.00000000000E+00 0. -1.
</event>
<event>
 7    1  0.2985411E-011  0.5052885E+02  0.7816164E-02  0.1300439E+00
        -11   -1    0    0    0    0  0.00000000000E+00  0.00000000000E+00  0.45593999997E+02  0.45594000000E+02  0.51100000000E-03 0. -1.
         11   -1    0    0    0    0 -0.00000000000E+00 -0.00000000000E+00 -0.45593999997E+02  0.45594000000E+02  0.51100000000E-03 0.  1.
    9900012    2    1    2    0    0 -0.35757835176E+02  0.18521097184E+02  0.56136114186E+01  0.50528850346E+02  0.29999971112E+02 0.  0.
        -12    1    1    2    0    0  0.35757835176E+02 -0.18521097184E+02 -0.56136114186E+01  0.40659149654E+02  0.00000000000E+00 0.  1.
         11    1    3    3    0    0 -0.92662652781E+01  0.51193914437E+01 -0.34286995657E+01  0.11127795017E+02  0.51100000000E-03 0. -1.
        -11    1    3    3    0    0 -0.26432686436E+02  0.13125015763E+02 -0.83108095514E+00  0.29523611683E+02  0.51100000000E-03 0.  1.
        -12    1    3    3    0    0 -0.58883462599E-01  0.27668997736E+00  0.98733919394E+01  0.98774436468E+01  0.00000000000E+00 0.  1.
</event>
<event>
 7    1  0.2985411E-011  0.5052886E+02  0.7816164E-02  0.1300439E+00
        -11   -1    0    0    0    0  0.00000000000E+00  0.00000000000E+00  0.45593999997E+02  0.45594000000E+02  0.51100000000E-03 0.  1.
         11   -1    0    0    0    0 -0.00000000000E+00 -0.00000000000E+00 -0.45593999997E+02  0.45594000000E+02  0.51100000000E-03 0. -1.
    9900012    2    1    2    0    0 -0.20767255070E+01  0.39783061531E+02 -0.81339198966E+01  0.50528862940E+02  0.30000009392E+02 0.  0.
        -12    1    1    2    0    0  0.20767255070E+01 -0.39783061531E+02  0.81339198966E+01  0.40659137060E+02  0.00000000000E+00 0.  1.
         11    1    3    3    0    0 -0.18750355420E+01  0.12321259597E+02 -0.13141857343E+01  0.12532209731E+02  0.51100000000E-03 0. -1.
        -11    1    3    3    0    0 -0.10524123855E+02  0.14817029714E+02 -0.10872311181E+02  0.21178024061E+02  0.51100000000E-03 0.  1.
        -12    1    3    3    0    0  0.10322433890E+02  0.12644772220E+02  0.40525770187E+01  0.16818629147E+02  0.00000000000E+00 0.  1.
</event>
<event>
 7    1  0.2985411E-011  0.5052896E+02  0.7816164E-02  0.1300438E+00
        -11   -1    0    0    0    0  0.00000000000E+00  0.00000000000E+00  0.45593999997E+02  0.45594000000E+02  0.51100000000E-03 0. -1.
         11   -1    0    0    0    0 -0.00000000000E+00 -0.00000000000E+00 -0.45593999997E+02  0.45594000000E+02  0.51100000000E-03 0.  1.
    9900012    2    1    2    0    0 -0.27719440003E+02 -0.26731759953E+01 -0.29625062723E+02  0.50528959612E+02  0.30000303235E+02 0.  0.
        -12    1    1    2    0    0  0.27719440003E+02  0.26731759953E+01  0.29625062723E+02  0.40659040388E+02  0.00000000000E+00 0.  1.
         11    1    3    3    0    0 -0.26540975907E+01  0.41943308713E+01  0.13208192736E+01  0.51362641378E+01  0.51100000000E-03 0. -1.
        -11    1    3    3    0    0  0.15050854916E+01 -0.43332136694E+01 -0.81294174885E-01  0.45878788177E+01  0.51100000000E-03 0.  1.
         12    1    3    3    0    0 -0.26570427904E+02 -0.25342931972E+01 -0.30864587821E+02  0.40804816656E+02  0.00000000000E+00 0. -1.
</event>
<event>
 7    1  0.2985411E-011  0.5052887E+02  0.7816164E-02  0.1300439E+00
        -11   -1    0    0    0    0  0.00000000000E+00  0.00000000000E+00  0.45593999997E+02  0.45594000000E+02  0.51100000000E-03 0.  1.
         11   -1    0    0    0    0 -0.00000000000E+00 -0.00000000000E+00 -0.45593999997E+02  0.45594000000E+02  0.51100000000E-03 0. -1.
    9900012    2    1    2    0    0  0.23455071243E+02  0.21817039850E+02 -0.25040797986E+02  0.50528866234E+02  0.30000019405E+02 0.  0.
        -12    1    1    2    0    0 -0.23455071243E+02 -0.21817039850E+02  0.25040797986E+02  0.40659133766E+02  0.00000000000E+00 0.  1.
         11    1    3    3    0    0  0.18012803093E+02  0.89667553185E+01 -0.17028392988E+02  0.26359627164E+02  0.51100000000E-03 0. -1.
        -11    1    3    3    0    0  0.75943188275E+01  0.85781459768E+01 -0.12952723617E+02  0.17292521974E+02  0.51100000000E-03 0.  1.
        -12    1    3    3    0    0 -0.21520506783E+01  0.42721385549E+01  0.49403186195E+01  0.68767170959E+01  0.00000000000E+00 0.  1.
</event>
<event>
 7    1  0.2985411E-011  0.5052887E+02  0.7816164E-02  0.1300439E+00
        -11   -1    0    0    0    0  0.00000000000E+00  0.00000000000E+00  0.45593999997E+02  0.45594000000E+02  0.51100000000E-03 0.  1.
         11   -1    0    0    0    0 -0.00000000000E+00 -0.00000000000E+00 -0.45593999997E+02  0.45594000000E+02  0.51100000000E-03 0. -1.
    9900012    2    1    2    0    0 -0.13195836081E+01  0.10214726809E+02 -0.39332978491E+02  0.50528866442E+02  0.30000020039E+02 0.  0.
        -12    1    1    2    0    0  0.13195836081E+01 -0.10214726809E+02  0.39332978491E+02  0.40659133558E+02  0.00000000000E+00 0.  1.
         11    1    3    3    0    0  0.43547204424E+01  0.73668495420E+01 -0.25852966025E+02  0.27232515764E+02  0.51100000000E-03 0. -1.
        -11    1    3    3    0    0 -0.51711769997E+01  0.99405771458E+01 -0.51145428918E+01  0.12317251918E+02  0.51100000000E-03 0.  1.
        -12    1    3    3    0    0 -0.50312705074E+00 -0.70926998784E+01 -0.83654695743E+01  0.10979098760E+02  0.00000000000E+00 0.  1.
</event>
<event>
 7    1  0.2985411E-011  0.5052888E+02  0.7816164E-02  0.1300439E+00
        -11   -1    0    0    0    0  0.00000000000E+00  0.00000000000E+00  0.45593999997E+02  0.45594000000E+02  0.51100000000E-03 0.  1.
         11   -1    0    0    0    0 -0.00000000000E+00 -0.00000000000E+00 -0.45593999997E+02  0.45594000000E+02  0.51100000000E-03 0. -1.
    9900012    2    1    2    0    0  0.26310974384E+02  0.29388618156E+02  0.98592850945E+01  0.50528883523E+02  0.30000071956E+02 0.  0.
        -12    1    1    2    0    0 -0.26310974384E+02 -0.29388618156E+02 -0.98592850945E+01  0.40659116477E+02  0.00000000000E+00 0.  1.
         11    1    3    3    0    0  0.16858026750E+01  0.10832983115E+02 -0.12443321029E+01  0.11033758040E+02  0.51100000000E-03 0. -1.
        -11    1    3    3    0    0  0.61294969795E+01  0.17223527305E+02  0.10188273215E+02  0.20928964079E+02  0.51100000000E-03 0.  1.
         12    1    3    3    0    0  0.18495674729E+02  0.13321077356E+01  0.91534398284E+00  0.18566161405E+02  0.00000000000E+00 0. -1.
</event>
<event>
 7    1  0.2985411E-011  0.5052883E+02  0.7816164E-02  0.1300439E+00
        -11   -1    0    0    0    0  0.00000000000E+00  0.00000000000E+00  0.45593999997E+02  0.45594000000E+02  0.51100000000E-03 0. -1.
         11   -1    0    0    0    0 -0.00000000000E+00 -0.00000000000E+00 -0.45593999997E+02  0.45594000000E+02  0.51100000000E-03 0.  1.
    9900012    2    1    2    0    0 -0.35189194476E+02  0.20307818718E+02 -0.15751017933E+01  0.50528833081E+02  0.29999918632E+02 0.  0.
        -12    1    1    2    0    0  0.35189194476E+02 -0.20307818718E+02  0.15751017933E+01  0.40659166919E+02  0.00000000000E+00 0.  1.
         11    1    3    3    0    0 -0.19795660176E+02  0.12544540137E+02 -0.21551764313E+01  0.23534622045E+02  0.51100000000E-03 0. -1.
        -11    1    3    3    0    0 -0.94569160920E+00  0.11349807627E+02 -0.28014594152E+01  0.11728624851E+02  0.51100000000E-03 0.  1.
         12    1    3    3    0    0 -0.14447842690E+02 -0.35865290467E+01  0.33815340533E+01  0.15265586185E+02  0.00000000000E+00 0. -1.
</event>
<event>
 7    1  0.2985411E-011  0.5052887E+02  0.7816164E-02  0.1300439E+00
        -11   -1    0    0    0    0  0.00000000000E+00  0.00000000000E+00  0.45593999997E+02  0.45594000000E+02  0.51100000000E-03 0.  1.
         11   -1    0    0    0    0 -0.00000000000E+00 -0.00000000000E+00 -0.45593999997E+02  0.45594000000E+02  0.51100000000E-03 0. -1.
    9900012    2    1    2    0    0 -0.30943649570E+02  0.17386291107E+02 -0.19833614206E+02  0.50528870403E+02  0.30000032076E+02 0.  0.
        -12    1    1    2    0    0  0.30943649570E+02 -0.17386291107E+02  0.19833614206E+02  0.40659129597E+02  0.00000000000E+00 0.  1.
         11    1    3    3    0    0 -0.76690394770E+01 -0.37508992004E+01 -0.16293605431E+01  0.86912730570E+01  0.51100000000E-03 0. -1.
        -11    1    3    3    0    0 -0.14751280494E+02  0.16143352743E+01 -0.17941051161E+01  0.14947413423E+02  0.51100000000E-03 0.  1.
        -12    1    3    3    0    0 -0.85233295987E+01  0.19522855033E+02 -0.16410148547E+02  0.26890183923E+02  0.00000000000E+00 0.  1.
</event>
<event>
 7    1  0.2985411E-011  0.5052886E+02  0.7816164E-02  0.1300439E+00
        -11   -1    0    0    0    0  0.00000000000E+00  0.00000000000E+00  0.45593999997E+02  0.45594000000E+02  0.51100000000E-03 0.  1.
         11   -1    0    0    0    0 -0.00000000000E+00 -0.00000000000E+00 -0.45593999997E+02  0.45594000000E+02  0.51100000000E-03 0. -1.
    9900012    2    1    2    0    0  0.15841224846E+02 -0.20911435858E+02 -0.31063372117E+02  0.50528860295E+02  0.30000001354E+02 0.  0.
        -12    1    1    2    0    0 -0.15841224846E+02  0.20911435858E+02  0.31063372117E+02  0.40659139705E+02  0.00000000000E+00 0.  1.
         11    1    3    3    0    0  0.63911406019E+01 -0.81732012652E+01 -0.13388373377E+02  0.16938017566E+02  0.51100000000E-03 0. -1.
        -11    1    3    3    0    0  0.13881010370E+02  0.74711156639E+00 -0.11778745190E+02  0.18220303595E+02  0.51100000000E-03 0.  1.
         12    1    3    3    0    0 -0.44309261261E+01 -0.13485346159E+02 -0.58962535497E+01  0.15370539134E+02  0.00000000000E+00 0. -1.
</event>
<event>
 7    1  0.2985411E-011  0.5052887E+02  0.7816164E-02  0.1300439E+00
        -11   -1    0    0    0    0  0.00000000000E+00  0.00000000000E+00  0.45593999997E+02  0.45594000000E+02  0.51100000000E-03 0.  1.
         11   -1    0    0    0    0 -0.00000000000E+00 -0.00000000000E+00 -0.45593999997E+02  0.45594000000E+02  0.51100000000E-03 0. -1.
    9900012    2    1    2    0    0 -0.17096895815E+02 -0.54068512321E+01 -0.36491468864E+02  0.50528865890E+02  0.30000018359E+02 0.  0.
        -12    1    1    2    0    0  0.17096895815E+02  0.54068512321E+01  0.36491468864E+02  0.40659134110E+02  0.00000000000E+00 0.  1.
         11    1    3    3    0    0 -0.16656868646E+01  0.80638067628E+01 -0.92147244932E+01  0.12357614656E+02  0.51100000000E-03 0. -1.
        -11    1    3    3    0    0 -0.55086002234E+01  0.37742677341E+01 -0.52911668348E+01  0.85197546963E+01  0.51100000000E-03 0.  1.
         12    1    3    3    0    0 -0.99226087273E+01 -0.17244925729E+02 -0.21985577536E+02  0.29651496538E+02  0.00000000000E+00 0. -1.
</event>
<event>
 7    1  0.2985411E-011  0.5052886E+02  0.7816164E-02  0.1300439E+00
        -11   -1    0    0    0    0  0.00000000000E+00  0.00000000000E+00  0.45593999997E+02  0.45594000000E+02  0.51100000000E-03 0.  1.
         11   -1    0    0    0    0 -0.00000000000E+00 -0.00000000000E+00 -0.45593999997E+02  0.45594000000E+02  0.51100000000E-03 0. -1.
    9900012    2    1    2    0    0 -0.67123610041E+01 -0.25693992993E+02 -0.30788451779E+02  0.50528857988E+02  0.29999994341E+02 0.  0.
        -12    1    1    2    0    0  0.67123610041E+01  0.25693992993E+02  0.30788451779E+02  0.40659142012E+02  0.00000000000E+00 0.  1.
         11    1    3    3    0    0 -0.49857507621E+01 -0.16038346788E+01 -0.42891491833E+01  0.67695492698E+01  0.51100000000E-03 0. -1.
        -11    1    3    3    0    0  0.19133034472E-01  0.40474791827E+01  0.12153758684E+01  0.42260611176E+01  0.51100000000E-03 0.  1.
        -12    1    3    3    0    0 -0.17457432765E+01 -0.28137637497E+02 -0.27714678464E+02  0.39533247601E+02  0.00000000000E+00 0.  1.
</event>
<event>
 7    1  0.2985411E-011  0.5052886E+02  0.7816164E-02  0.1300439E+00
        -11   -1    0    0    0    0  0.00000000000E+00  0.00000000000E+00  0.45593999997E+02  0.45594000000E+02  0.51100000000E-03 0.  1.
         11   -1    0    0    0    0 -0.00000000000E+00 -0.00000000000E+00 -0.45593999997E+02  0.45594000000E+02  0.51100000000E-03 0. -1.
    9900012    2    1    2    0    0 -0.19556208484E+02  0.35586871037E+02 -0.20723412508E+01  0.50528864756E+02  0.30000014913E+02 0.  0.
        -12    1    1    2    0    0  0.19556208484E+02 -0.35586871037E+02  0.20723412508E+01  0.40659135244E+02  0.00000000000E+00 0.  1.
         11    1    3    3    0    0 -0.16251936403E+01  0.18913312543E+02  0.21157986221E+01  0.19100556270E+02  0.51100000000E-03 0. -1.
        -11    1    3    3    0    0 -0.12299163967E+02  0.18102767224E+02 -0.92137894196E+01  0.23746021376E+02  0.51100000000E-03 0.  1.
        -12    1    3    3    0    0 -0.56318508766E+01 -0.14292087299E+01  0.50256495467E+01  0.76822871110E+01  0.00000000000E+00 0.  1.
</event>
<event>
 7    1  0.2985411E-011  0.5052887E+02  0.7816164E-02  0.1300439E+00
        -11   -1    0    0    0    0  0.00000000000E+00  0.00000000000E+00  0.45593999997E+02  0.45594000000E+02  0.51100000000E-03 0.  1.
         11   -1    0    0    0    0 -0.00000000000E+00 -0.00000000000E+00 -0.45593999997E+02  0.45594000000E+02  0.51100000000E-03 0. -1.
    9900012    2    1    2    0    0  0.37962632727E+02 -0.63848422111E+01 -0.13085752787E+02  0.50528872862E+02  0.30000039551E+02 0.  0.
        -12    1    1    2    0    0 -0.37962632727E+02  0.63848422111E+01  0.13085752787E+02  0.40659127138E+02  0.00000000000E+00 0.  1.
         11    1    3    3    0    0  0.18076049717E+02 -0.69160954097E+01 -0.63394321371E+01  0.20365764144E+02  0.51100000000E-03 0. -1.
        -11    1    3    3    0    0  0.19917910286E+02 -0.71867065919E+01 -0.24130859481E+01  0.21311848485E+02  0.51100000000E-03 0.  1.
        -12    1    3    3    0    0 -0.31327275752E-01  0.77179597906E+01 -0.43332347013E+01  0.88512602325E+01  0.00000000000E+00 0.  1.
</event>
<event>
 7    1  0.2985411E-011  0.5052886E+02  0.7816164E-02  0.1300439E+00
        -11   -1    0    0    0    0  0.00000000000E+00  0.00000000000E+00  0.45593999997E+02  0.45594000000E+02  0.51100000000E-03 0.  1.
         11   -1    0    0    0    0 -0.00000000000E+00 -0.00000000000E+00 -0.45593999997E+02  0.45594000000E+02  0.51100000000E-03 0. -1.
    9900012    2    1    2    0    0 -0.43394281678E+01 -0.39840388916E+02  0.68613893388E+01  0.50528857246E+02  0.29999992086E+02 0.  0.
        -12    1    1    2    0    0  0.43394281678E+01  0.39840388916E+02 -0.68613893388E+01  0.40659142754E+02  0.00000000000E+00 0.  1.
         11    1    3    3    0    0  0.11259626217E+00 -0.93909506675E+01 -0.29777005434E+01  0.98523770302E+01  0.51100000000E-03 0. -1.
        -11    1    3    3    0    0 -0.26815638602E+01 -0.32837658845E+01 -0.73468254458E+01  0.84823197011E+01  0.51100000000E-03 0.  1.
         12    1    3    3    0    0 -0.17704605697E+01 -0.27165672364E+02  0.17185915328E+02  0.32194160515E+02  0.00000000000E+00 0. -1.
</event>
<event>
 7    1  0.2985411E-011  0.5052886E+02  0.7816164E-02  0.1300439E+00
        -11   -1    0    0    0    0  0.00000000000E+00  0.00000000000E+00  0.45593999997E+02  0.45594000000E+02  0.51100000000E-03 0.  1.
         11   -1    0    0    0    0 -0.00000000000E+00 -0.00000000000E+00 -0.45593999997E+02  0.45594000000E+02  0.51100000000E-03 0. -1.
    9900012    2    1    2    0    0  0.25793229831E+02  0.31105433651E+02  0.45085014214E+01  0.50528864584E+02  0.30000014389E+02 0.  0.
        -12    1    1    2    0    0 -0.25793229831E+02 -0.31105433651E+02 -0.45085014214E+01  0.40659135416E+02  0.00000000000E+00 0.  1.
         11    1    3    3    0    0  0.25242725780E+02  0.20993195676E+02 -0.22328932011E+01  0.32907374277E+02  0.51100000000E-03 0. -1.
        -11    1    3    3    0    0 -0.32708968000E+01  0.10704253697E+02  0.17838022002E+01  0.11334097389E+02  0.51100000000E-03 0.  1.
        -12    1    3    3    0    0  0.38214008507E+01 -0.59201572183E+00  0.49575924223E+01  0.62873929177E+01  0.00000000000E+00 0.  1.
</event>
<event>
 7    1  0.2985411E-011  0.5052886E+02  0.7816164E-02  0.1300439E+00
        -11   -1    0    0    0    0  0.00000000000E+00  0.00000000000E+00  0.45593999997E+02  0.45594000000E+02  0.51100000000E-03 0.  1.
         11   -1    0    0    0    0 -0.00000000000E+00 -0.00000000000E+00 -0.45593999997E+02  0.45594000000E+02  0.51100000000E-03 0. -1.
    9900012    2    1    2    0    0  0.58928494906E+01  0.32948047074E+02 -0.23083899911E+02  0.50528856917E+02  0.29999991085E+02 0.  0.
        -12    1    1    2    0    0 -0.58928494906E+01 -0.32948047074E+02  0.23083899911E+02  0.40659143083E+02  0.00000000000E+00 0.  1.
         11    1    3    3    0    0  0.60586849751E+01  0.11174341177E+02 -0.24362648894E+01  0.12942524917E+02  0.51100000000E-03 0. -1.
        -11    1    3    3    0    0  0.10818286298E+02  0.13377857521E+02 -0.14307651183E+02  0.22376578669E+02  0.51100000000E-03 0.  1.
        -12    1    3    3    0    0 -0.10984121783E+02  0.83958483767E+01 -0.63399838387E+01  0.15209753331E+02  0.00000000000E+00 0.  1.
</event>
<event>
 7    1  0.2985411E-011  0.5052886E+02  0.7816164E-02  0.1300439E+00
        -11   -1    0    0    0    0  0.00000000000E+00  0.00000000000E+00  0.45593999997E+02  0.45594000000E+02  0.51100000000E-03 0.  1.
         11   -1    0    0    0    0 -0.00000000000E+00 -0.00000000000E+00 -0.45593999997E+02  0.45594000000E+02  0.51100000000E-03 0. -1.
    9900012    2    1    2    0    0 -0.13918855430E+02 -0.29332264216E+01 -0.38089730154E+02  0.50528857154E+02  0.29999991806E+02 0.  0.
        -12    1    1    2    0    0  0.13918855430E+02  0.29332264216E+01  0.38089730154E+02  0.40659142846E+02  0.00000000000E+00 0.  1.
         11    1    3    3    0    0 -0.33463256060E+00  0.64707608095E+01 -0.39647219534E+01  0.75961664564E+01  0.51100000000E-03 0. -1.
        -11    1    3    3    0    0 -0.10427390839E+02  0.17104385003E+01 -0.51825826829E+01  0.11769249895E+02  0.51100000000E-03 0.  1.
         12    1    3    3    0    0 -0.31568320307E+01 -0.11114425731E+02 -0.28942425518E+02  0.31163440803E+02  0.00000000000E+00 0. -1.
</event>
<event>
 7    1  0.2985411E-011  0.5052889E+02  0.7816164E-02  0.1300439E+00
        -11   -1    0    0    0    0  0.00000000000E+00  0.00000000000E+00  0.45593999997E+02  0.45594000000E+02  0.51100000000E-03 0.  1.
         11   -1    0    0    0    0 -0.00000000000E+00 -0.00000000000E+00 -0.45593999997E+02  0.45594000000E+02  0.51100000000E-03 0. -1.
    9900012    2    1    2    0    0  0.15672531018E+02 -0.19943975985E+02 -0.31776926602E+02  0.50528886988E+02  0.30000082489E+02 0.  0.
        -12    1    1    2    0    0 -0.15672531018E+02  0.19943975985E+02  0.31776926602E+02  0.40659113012E+02  0.00000000000E+00 0.  1.
         11    1    3    3    0    0  0.74153107316E+00 -0.14288850760E+02 -0.24398415901E+02  0.28284338832E+02  0.51100000000E-03 0. -1.
        -11    1    3    3    0    0  0.29248130207E+00 -0.61736608691E+01 -0.34539213842E+01  0.70801982337E+01  0.51100000000E-03 0.  1.
         12    1    3    3    0    0  0.14638518643E+02  0.51853564448E+00 -0.39245893170E+01  0.15164349923E+02  0.00000000000E+00 0. -1.
</event>
<event>
 7    1  0.2985411E-011  0.5052887E+02  0.7816164E-02  0.1300439E+00
        -11   -1    0    0    0    0  0.00000000000E+00  0.00000000000E+00  0.45593999997E+02  0.45594000000E+02  0.51100000000E-03 0. -1.
         11   -1    0    0    0    0 -0.00000000000E+00 -0.00000000000E+00 -0.45593999997E+02  0.45594000000E+02  0.51100000000E-03 0.  1.
    9900012    2    1    2    0    0  0.31324536646E+02 -0.24373784457E+02 -0.88236392159E+01  0.50528873425E+02  0.30000041262E+02 0.  0.
        -12    1    1    2    0    0 -0.31324536646E+02  0.24373784457E+02  0.88236392159E+01  0.40659126575E+02  0.00000000000E+00 0.  1.
         11    1    3    3    0    0  0.86253992480E+00 -0.65736466953E+01 -0.50911199479E+01  0.83592050209E+01  0.51100000000E-03 0. -1.
        -11    1    3    3    0    0  0.13107780713E+02 -0.96332022284E+01 -0.13042238044E+02  0.20849759563E+02  0.51100000000E-03 0.  1.
         12    1    3    3    0    0  0.17354216009E+02 -0.81669355332E+01  0.93097187762E+01  0.21319908840E+02  0.00000000000E+00 0. -1.
</event>
<event>
 7    1  0.2985411E-011  0.5052887E+02  0.7816164E-02  0.1300439E+00
        -11   -1    0    0    0    0  0.00000000000E+00  0.00000000000E+00  0.45593999997E+02  0.45594000000E+02  0.51100000000E-03 0.  1.
         11   -1    0    0    0    0 -0.00000000000E+00 -0.00000000000E+00 -0.45593999997E+02  0.45594000000E+02  0.51100000000E-03 0. -1.
    9900012    2    1    2    0    0 -0.21486498833E+02 -0.20500161635E+02 -0.27771178203E+02  0.50528873128E+02  0.30000040360E+02 0.  0.
        -12    1    1    2    0    0  0.21486498833E+02  0.20500161635E+02  0.27771178203E+02  0.40659126872E+02  0.00000000000E+00 0.  1.
         11    1    3    3    0    0  0.31040485675E+01 -0.18267759766E+01 -0.80813419622E+00  0.36912476370E+01  0.51100000000E-03 0. -1.
        -11    1    3    3    0    0 -0.89189421569E+00  0.11978722548E+01  0.32657139111E+01  0.35909971931E+01  0.51100000000E-03 0.  1.
         12    1    3    3    0    0 -0.23698653185E+02 -0.19871257913E+02 -0.30228757918E+02  0.43246628298E+02  0.00000000000E+00 0. -1.
</event>
<event>
 7    1  0.2985411E-011  0.5052886E+02  0.7816164E-02  0.1300439E+00
        -11   -1    0    0    0    0  0.00000000000E+00  0.00000000000E+00  0.45593999997E+02  0.45594000000E+02  0.51100000000E-03 0. -1.
         11   -1    0    0    0    0 -0.00000000000E+00 -0.00000000000E+00 -0.45593999997E+02  0.45594000000E+02  0.51100000000E-03 0.  1.
    9900012    2    1    2    0    0  0.42408061785E+01 -0.37788713008E+02  0.14394249874E+02  0.50528859610E+02  0.29999999270E+02 0.  0.
        -12    1    1    2    0    0 -0.42408061785E+01  0.37788713008E+02 -0.14394249874E+02  0.40659140390E+02  0.00000000000E+00 0.  1.
         11    1    3    3    0    0  0.19083961341E+00 -0.77603408973E+01  0.72908162854E+01  0.10649662575E+02  0.51100000000E-03 0. -1.
        -11    1    3    3    0    0  0.10346387134E+02 -0.66138325795E+01  0.94847990256E+01  0.15516182550E+02  0.51100000000E-03 0.  1.
         12    1    3    3    0    0 -0.62964205685E+01 -0.23414539531E+02 -0.23813654374E+01  0.24363014484E+02  0.00000000000E+00 0. -1.
</event>
<event>
 7    1  0.2985411E-011  0.5052886E+02  0.7816164E-02  0.1300439E+00
        -11   -1    0    0    0    0  0.00000000000E+00  0.00000000000E+00  0.45593999997E+02  0.45594000000E+02  0.51100000000E-03 0. -1.
         11   -1    0    0    0    0 -0.00000000000E+00 -0.00000000000E+00 -0.45593999997E+02  0.45594000000E+02  0.51100000000E-03 0.  1.
    9900012    2    1    2    0    0  0.30675002709E+02  0.18770827268E+02  0.18970139014E+02  0.50528856849E+02  0.29999990879E+02 0.  0.
        -12    1    1    2    0    0 -0.30675002709E+02 -0.18770827268E+02 -0.18970139014E+02  0.40659143151E+02  0.00000000000E+00 0.  1.
         11    1    3    3    0    0  0.42044065020E+00  0.20986974805E+01  0.43722621550E+01  0.48680569089E+01  0.51100000000E-03 0.  1.
        -11    1    3    3    0    0  0.25943218994E+02  0.17504660272E+02  0.21150412919E+02  0.37773055343E+02  0.51100000000E-03 0. -1.
        -12    1    3    3    0    0  0.43113430647E+01 -0.83253048410E+00 -0.65525360595E+01  0.78877445977E+01  0.00000000000E+00 0.  1.
</event>
<event>
 7    1  0.2985411E-011  0.5052886E+02  0.7816164E-02  0.1300439E+00
        -11   -1    0    0    0    0  0.00000000000E+00  0.00000000000E+00  0.45593999997E+02  0.45594000000E+02  0.51100000000E-03 0.  1.
         11   -1    0    0    0    0 -0.00000000000E+00 -0.00000000000E+00 -0.45593999997E+02  0.45594000000E+02  0.51100000000E-03 0. -1.
    9900012    2    1    2    0    0 -0.44226995383E+00 -0.23933633208E+02 -0.32865649137E+02  0.50528864563E+02  0.30000014327E+02 0.  0.
        -12    1    1    2    0    0  0.44226995383E+00  0.23933633208E+02  0.32865649137E+02  0.40659135437E+02  0.00000000000E+00 0.  1.
         11    1    3    3    0    0 -0.10619529050E+02 -0.11216336012E+02 -0.21003775295E+02  0.26071807910E+02  0.51100000000E-03 0.  1.
        -11    1    3    3    0    0 -0.10980859560E+01 -0.89489214067E+01 -0.25904366365E+01  0.93807968392E+01  0.51100000000E-03 0. -1.
        -12    1    3    3    0    0  0.11275345052E+02 -0.37683757888E+01 -0.92714372054E+01  0.15076259814E+02  0.00000000000E+00 0.  1.
</event>
<event>
 7    1  0.2985411E-011  0.5052886E+02  0.7816164E-02  0.1300439E+00
        -11   -1    0    0    0    0  0.00000000000E+00  0.00000000000E+00  0.45593999997E+02  0.45594000000E+02  0.51100000000E-03 0. -1.
         11   -1    0    0    0    0 -0.00000000000E+00 -0.00000000000E+00 -0.45593999997E+02  0.45594000000E+02  0.51100000000E-03 0.  1.
    9900012    2    1    2    0    0  0.39130217307E+02  0.24250061259E+01  0.10775490574E+02  0.50528858860E+02  0.29999996990E+02 0.  0.
        -12    1    1    2    0    0 -0.39130217307E+02 -0.24250061259E+01 -0.10775490574E+02  0.40659141140E+02  0.00000000000E+00 0.  1.
         11    1    3    3    0    0  0.15203949892E+02  0.17034390908E+01  0.10741205997E+02  0.18693188695E+02  0.51100000000E-03 0. -1.
        -11    1    3    3    0    0  0.12882753398E+02 -0.57299846614E+01  0.85320370017E+01  0.16480100576E+02  0.51100000000E-03 0.  1.
        -12    1    3    3    0    0  0.11043514016E+02  0.64515516965E+01 -0.84977524247E+01  0.15355569589E+02  0.00000000000E+00 0.  1.
</event>
<event>
 7    1  0.2985411E-011  0.5052886E+02  0.7816164E-02  0.1300439E+00
        -11   -1    0    0    0    0  0.00000000000E+00  0.00000000000E+00  0.45593999997E+02  0.45594000000E+02  0.51100000000E-03 0.  1.
         11   -1    0    0    0    0 -0.00000000000E+00 -0.00000000000E+00 -0.45593999997E+02  0.45594000000E+02  0.51100000000E-03 0. -1.
    9900012    2    1    2    0    0  0.36251279436E+02 -0.10716601387E+02 -0.14972131214E+02  0.50528861801E+02  0.30000005929E+02 0.  0.
        -12    1    1    2    0    0 -0.36251279436E+02  0.10716601387E+02  0.14972131214E+02  0.40659138199E+02  0.00000000000E+00 0.  1.
         11    1    3    3    0    0  0.10819655571E+01  0.40335302846E+01 -0.56144073017E+00  0.42136957624E+01  0.51100000000E-03 0. -1.
        -11    1    3    3    0    0  0.53994363713E+01  0.26241539029E+01 -0.98645040649E+01  0.11547663727E+02  0.51100000000E-03 0.  1.
         12    1    3    3    0    0  0.29769877508E+02 -0.17374285574E+02 -0.45461864190E+01  0.34767502312E+02  0.00000000000E+00 0. -1.
</event>
<event>
 7    1  0.2985411E-011  0.5052885E+02  0.7816164E-02  0.1300439E+00
        -11   -1    0    0    0    0  0.00000000000E+00  0.00000000000E+00  0.45593999997E+02  0.45594000000E+02  0.51100000000E-03 0.  1.
         11   -1    0    0    0    0 -0.00000000000E+00 -0.00000000000E+00 -0.45593999997E+02  0.45594000000E+02  0.51100000000E-03 0. -1.
    9900012    2    1    2    0    0 -0.22382584868E+02 -0.58526546268E+01 -0.33435496452E+02  0.50528854724E+02  0.29999984420E+02 0.  0.
        -12    1    1    2    0    0  0.22382584868E+02  0.58526546268E+01  0.33435496452E+02  0.40659145276E+02  0.00000000000E+00 0.  1.
         11    1    3    3    0    0  0.11303417196E+01 -0.37537500340E+01 -0.87455790910E+01  0.95840213699E+01  0.51100000000E-03 0. -1.
        -11    1    3    3    0    0 -0.72282831953E+01 -0.11659279259E+02 -0.11636455827E+02  0.17988718000E+02  0.51100000000E-03 0.  1.
         12    1    3    3    0    0 -0.16284643392E+02  0.95603746663E+01 -0.13053461534E+02  0.22956115355E+02  0.00000000000E+00 0. -1.
</event>
<event>
 7    1  0.2985411E-011  0.5052887E+02  0.7816164E-02  0.1300439E+00
        -11   -1    0    0    0    0  0.00000000000E+00  0.00000000000E+00  0.45593999997E+02  0.45594000000E+02  0.51100000000E-03 0. -1.
         11   -1    0    0    0    0 -0.00000000000E+00 -0.00000000000E+00 -0.45593999997E+02  0.45594000000E+02  0.51100000000E-03 0.  1.
    9900012    2    1    2    0    0  0.37699672593E+02  0.36182405822E+01  0.14792169556E+02  0.50528865003E+02  0.30000015663E+02 0.  0.
        -12    1    1    2    0    0 -0.37699672593E+02 -0.36182405822E+01 -0.14792169556E+02  0.40659134997E+02  0.00000000000E+00 0.  1.
         11    1    3    3    0    0  0.24641571091E+02  0.61808231210E+01 -0.89088866647E+00  0.25420528775E+02  0.51100000000E-03 0. -1.
        -11    1    3    3    0    0  0.52327440732E+00 -0.41845055471E+01 -0.84546716546E+00  0.43010135745E+01  0.51100000000E-03 0.  1.
        -12    1    3    3    0    0  0.12534827095E+02  0.16219230082E+01  0.16528525387E+02  0.20807322654E+02  0.00000000000E+00 0.  1.
</event>
<event>
 7    1  0.2985411E-011  0.5052886E+02  0.7816164E-02  0.1300439E+00
        -11   -1    0    0    0    0  0.00000000000E+00  0.00000000000E+00  0.45593999997E+02  0.45594000000E+02  0.51100000000E-03 0.  1.
         11   -1    0    0    0    0 -0.00000000000E+00 -0.00000000000E+00 -0.45593999997E+02  0.45594000000E+02  0.51100000000E-03 0. -1.
    9900012    2    1    2    0    0 -0.17930363693E+02  0.36491052144E+02  0.26569089447E+00  0.50528863015E+02  0.30000009619E+02 0.  0.
        -12    1    1    2    0    0  0.17930363693E+02 -0.36491052144E+02 -0.26569089447E+00  0.40659136985E+02  0.00000000000E+00 0.  1.
         11    1    3    3    0    0  0.18284757735E+01  0.84472482526E+01  0.61181422742E+01  0.10589192219E+02  0.51100000000E-03 0. -1.
        -11    1    3    3    0    0  0.18455298286E+01 -0.18506395745E+01 -0.62322847879E+00  0.26868682850E+01  0.51100000000E-03 0.  1.
         12    1    3    3    0    0 -0.21604369295E+02  0.29894443466E+02 -0.52292229009E+01  0.37252802511E+02  0.00000000000E+00 0. -1.
</event>
<event>
 7    1  0.2985411E-011  0.5052886E+02  0.7816164E-02  0.1300439E+00
        -11   -1    0    0    0    0  0.00000000000E+00  0.00000000000E+00  0.45593999997E+02  0.45594000000E+02  0.51100000000E-03 0.  1.
         11   -1    0    0    0    0 -0.00000000000E+00 -0.00000000000E+00 -0.45593999997E+02  0.45594000000E+02  0.51100000000E-03 0. -1.
    9900012    2    1    2    0    0 -0.53570425745E+01 -0.12508082920E+02 -0.38314694368E+02  0.50528857757E+02  0.29999993637E+02 0.  0.
        -12    1    1    2    0    0  0.53570425745E+01  0.12508082920E+02  0.38314694368E+02  0.40659142243E+02  0.00000000000E+00 0.  1.
         11    1    3    3    0    0 -0.10139123611E+02 -0.46182469805E+01 -0.91691766413E+01  0.14429270020E+02  0.51100000000E-03 0. -1.
        -11    1    3    3    0    0  0.34856166763E+01 -0.10486225846E+02 -0.30825495796E+02  0.32746322656E+02  0.51100000000E-03 0.  1.
         12    1    3    3    0    0  0.12964643599E+01  0.25963899074E+01  0.16799780699E+01  0.33532650809E+01  0.00000000000E+00 0. -1.
</event>
<event>
 7    1  0.2985411E-011  0.5052886E+02  0.7816164E-02  0.1300439E+00
        -11   -1    0    0    0    0  0.00000000000E+00  0.00000000000E+00  0.45593999997E+02  0.45594000000E+02  0.51100000000E-03 0. -1.
         11   -1    0    0    0    0 -0.00000000000E+00 -0.00000000000E+00 -0.45593999997E+02  0.45594000000E+02  0.51100000000E-03 0.  1.
    9900012    2    1    2    0    0  0.36193230947E+02  0.17691505866E+02  0.54978184794E+01  0.50528863828E+02  0.30000012092E+02 0.  0.
        -12    1    1    2    0    0 -0.36193230947E+02 -0.17691505866E+02 -0.54978184794E+01  0.40659136172E+02  0.00000000000E+00 0.  1.
         11    1    3    3    0    0  0.11039125821E+01 -0.38578734036E+01  0.43940941365E+01  0.59506196088E+01  0.51100000000E-03 0. -1.
        -11    1    3    3    0    0  0.92181890374E+01 -0.20739135232E+01 -0.87135820760E+00  0.94886981098E+01  0.51100000000E-03 0.  1.
         12    1    3    3    0    0  0.25871129328E+02  0.23623292793E+02  0.19750825505E+01  0.35089546109E+02  0.00000000000E+00 0. -1.
</event>
<event>
 7    1  0.2985411E-011  0.5052886E+02  0.7816164E-02  0.1300439E+00
        -11   -1    0    0    0    0  0.00000000000E+00  0.00000000000E+00  0.45593999997E+02  0.45594000000E+02  0.51100000000E-03 0.  1.
         11   -1    0    0    0    0 -0.00000000000E+00 -0.00000000000E+00 -0.45593999997E+02  0.45594000000E+02  0.51100000000E-03 0. -1.
    9900012    2    1    2    0    0 -0.19464758995E+02  0.13637365061E+02 -0.32989560512E+02  0.50528859929E+02  0.30000000241E+02 0.  0.
        -12    1    1    2    0    0  0.19464758995E+02 -0.13637365061E+02  0.32989560512E+02  0.40659140071E+02  0.00000000000E+00 0.  1.
         11    1    3    3    0    0 -0.47752280313E+01  0.13436987740E+02 -0.30574207100E+02  0.33736294733E+02  0.51100000000E-03 0. -1.
        -11    1    3    3    0    0 -0.42989207883E+01  0.36725239316E+01 -0.56778917740E+00  0.56824762898E+01  0.51100000000E-03 0.  1.
        -12    1    3    3    0    0 -0.10390610175E+02 -0.34721466114E+01 -0.18475642348E+01  0.11110088906E+02  0.00000000000E+00 0.  1.
</event>
<event>
 7    1  0.2985411E-011  0.5052886E+02  0.7816164E-02  0.1300439E+00
        -11   -1    0    0    0    0  0.00000000000E+00  0.00000000000E+00  0.45593999997E+02  0.45594000000E+02  0.51100000000E-03 0.  1.
         11   -1    0    0    0    0 -0.00000000000E+00 -0.00000000000E+00 -0.45593999997E+02  0.45594000000E+02  0.51100000000E-03 0. -1.
    9900012    2    1    2    0    0 -0.94871488123E+01  0.23231659095E+02 -0.31991405305E+02  0.50528856007E+02  0.29999988319E+02 0.  0.
        -12    1    1    2    0    0  0.94871488123E+01 -0.23231659095E+02  0.31991405305E+02  0.40659143993E+02  0.00000000000E+00 0.  1.
         11    1    3    3    0    0 -0.12869011007E+00  0.12507108732E+02 -0.12484643802E+02  0.17672313405E+02  0.51100000000E-03 0. -1.
        -11    1    3    3    0    0  0.27253580628E+01  0.13559646402E+02 -0.82762266442E+01  0.16117925265E+02  0.51100000000E-03 0.  1.
         12    1    3    3    0    0 -0.12083816765E+02 -0.28350960386E+01 -0.11230534858E+02  0.16738617337E+02  0.00000000000E+00 0. -1.
</event>
<event>
 7    1  0.2985411E-011  0.5052888E+02  0.7816164E-02  0.1300439E+00
        -11   -1    0    0    0    0  0.00000000000E+00  0.00000000000E+00  0.45593999997E+02  0.45594000000E+02  0.51100000000E-03 0.  1.
         11   -1    0    0    0    0 -0.00000000000E+00 -0.00000000000E+00 -0.45593999997E+02  0.45594000000E+02  0.51100000000E-03 0. -1.
    9900012    2    1    2    0    0  0.46735050164E+01  0.17571941721E+02 -0.36366867049E+02  0.50528882893E+02  0.30000070040E+02 0.  0.
        -12    1    1    2    0    0 -0.46735050164E+01 -0.17571941721E+02  0.36366867049E+02  0.40659117107E+02  0.00000000000E+00 0.  1.
         11    1    3    3    0    0  0.98856213407E+01  0.17688803518E+01 -0.72689238665E+01  0.12397245719E+02  0.51100000000E-03 0. -1.
        -11    1    3    3    0    0 -0.87463539146E+01  0.68655774139E+01 -0.50072215113E+01  0.12194553192E+02  0.51100000000E-03 0.  1.
         12    1    3    3    0    0  0.35342375903E+01  0.89374839556E+01 -0.24090721671E+02  0.25937083981E+02  0.00000000000E+00 0. -1.
</event>
<event>
 7    1  0.2985411E-011  0.5052887E+02  0.7816164E-02  0.1300439E+00
        -11   -1    0    0    0    0  0.00000000000E+00  0.00000000000E+00  0.45593999997E+02  0.45594000000E+02  0.51100000000E-03 0.  1.
         11   -1    0    0    0    0 -0.00000000000E+00 -0.00000000000E+00 -0.45593999997E+02  0.45594000000E+02  0.51100000000E-03 0. -1.
    9900012    2    1    2    0    0 -0.11609820512E+02  0.12501025667E+02 -0.36906653788E+02  0.50528872256E+02  0.30000037709E+02 0.  0.
        -12    1    1    2    0    0  0.11609820512E+02 -0.12501025667E+02  0.36906653788E+02  0.40659127744E+02  0.00000000000E+00 0.  1.
         11    1    3    3    0    0 -0.28320793927E+01 -0.20384578688E+01 -0.14419251468E+02  0.14835457436E+02  0.51100000000E-03 0. -1.
        -11    1    3    3    0    0 -0.42559492273E+01 -0.43763473496E+01 -0.12315017430E+02  0.13745005439E+02  0.51100000000E-03 0.  1.
         12    1    3    3    0    0 -0.45217918922E+01  0.18915830886E+02 -0.10172384890E+02  0.21948409381E+02  0.00000000000E+00 0. -1.
</event>
<event>
 7    1  0.2985411E-011  0.5052886E+02  0.7816164E-02  0.1300439E+00
        -11   -1    0    0    0    0  0.00000000000E+00  0.00000000000E+00  0.45593999997E+02  0.45594000000E+02  0.51100000000E-03 0. -1.
         11   -1    0    0    0    0 -0.00000000000E+00 -0.00000000000E+00 -0.45593999997E+02  0.45594000000E+02  0.51100000000E-03 0.  1.
    9900012    2    1    2    0    0 -0.36471772717E+02 -0.19010782890E+01  0.17870689734E+02  0.50528857666E+02  0.29999993360E+02 0.  0.
        -12    1    1    2    0    0  0.36471772717E+02  0.19010782890E+01 -0.17870689734E+02  0.40659142334E+02  0.00000000000E+00 0.  1.
         11    1    3    3    0    0 -0.36739562178E+01  0.31908225535E+00  0.42728616312E+01  0.56442107116E+01  0.51100000000E-03 0.  1.
        -11    1    3    3    0    0  0.48515150582E+00  0.57460670872E+01 -0.33775083508E+01  0.66828303791E+01  0.51100000000E-03 0. -1.
         12    1    3    3    0    0 -0.33282968005E+02 -0.79662276316E+01  0.16975336453E+02  0.38201816575E+02  0.00000000000E+00 0. -1.
</event>
<event>
 7    1  0.2985411E-011  0.5052885E+02  0.7816164E-02  0.1300439E+00
        -11   -1    0    0    0    0  0.00000000000E+00  0.00000000000E+00  0.45593999997E+02  0.45594000000E+02  0.51100000000E-03 0.  1.
         11   -1    0    0    0    0 -0.00000000000E+00 -0.00000000000E+00 -0.45593999997E+02  0.45594000000E+02  0.51100000000E-03 0. -1.
    9900012    2    1    2    0    0  0.10155173216E+02  0.12553118690E+02 -0.37315655110E+02  0.50528850375E+02  0.29999971201E+02 0.  0.
        -12    1    1    2    0    0 -0.10155173216E+02 -0.12553118690E+02  0.37315655110E+02  0.40659149625E+02  0.00000000000E+00 0.  1.
         11    1    3    3    0    0  0.66409637662E+01 -0.43128577599E+01 -0.41000688472E+01  0.89170458457E+01  0.51100000000E-03 0. -1.
        -11    1    3    3    0    0  0.19095783788E+01  0.42345506180E+01  0.12990152100E+01  0.48234167660E+01  0.51100000000E-03 0.  1.
         12    1    3    3    0    0  0.16046310709E+01  0.12631425832E+02 -0.34514601473E+02  0.36788387764E+02  0.00000000000E+00 0. -1.
</event>
<event>
 7    1  0.2985411E-011  0.5052888E+02  0.7816164E-02  0.1300439E+00
        -11   -1    0    0    0    0  0.00000000000E+00  0.00000000000E+00  0.45593999997E+02  0.45594000000E+02  0.51100000000E-03 0.  1.
         11   -1    0    0    0    0 -0.00000000000E+00 -0.00000000000E+00 -0.45593999997E+02  0.45594000000E+02  0.51100000000E-03 0. -1.
    9900012    2    1    2    0    0  0.25657909494E+02 -0.19421775964E+02 -0.24852170917E+02  0.50528879246E+02  0.30000058956E+02 0.  0.
        -12    1    1    2    0    0 -0.25657909494E+02  0.19421775964E+02  0.24852170917E+02  0.40659120754E+02  0.00000000000E+00 0.  1.
         11    1    3    3    0    0  0.17877544663E+02 -0.13818848310E+02 -0.75000475234E+01  0.23807937435E+02  0.51100000000E-03 0. -1.
        -11    1    3    3    0    0  0.93239841090E+01 -0.41610592227E+01 -0.10293887300E+01  0.10262101877E+02  0.51100000000E-03 0.  1.
         12    1    3    3    0    0 -0.15436192780E+01 -0.14418684313E+01 -0.16322734664E+02  0.16458839934E+02  0.00000000000E+00 0. -1.
</event>
<event>
 7    1  0.2985411E-011  0.5052886E+02  0.7816164E-02  0.1300439E+00
        -11   -1    0    0    0    0  0.00000000000E+00  0.00000000000E+00  0.45593999997E+02  0.45594000000E+02  0.51100000000E-03 0.  1.
         11   -1    0    0    0    0 -0.00000000000E+00 -0.00000000000E+00 -0.45593999997E+02  0.45594000000E+02  0.51100000000E-03 0. -1.
    9900012    2    1    2    0    0 -0.11892641357E+02 -0.38153948600E+02 -0.74837666124E+01  0.50528862344E+02  0.30000007580E+02 0.  0.
        -12    1    1    2    0    0  0.11892641357E+02  0.38153948600E+02  0.74837666124E+01  0.40659137656E+02  0.00000000000E+00 0.  1.
         11    1    3    3    0    0 -0.69816185362E+01 -0.13843284109E+02  0.19289794866E+01  0.15623715129E+02  0.51100000000E-03 0. -1.
        -11    1    3    3    0    0 -0.98359084589E+01 -0.26411807398E+02 -0.87445088875E+01  0.29509237557E+02  0.51100000000E-03 0.  1.
        -12    1    3    3    0    0  0.49248856382E+01  0.21011429071E+01 -0.66823721147E+00  0.53959096579E+01  0.00000000000E+00 0.  1.
</event>
<event>
 7    1  0.2985411E-011  0.5052886E+02  0.7816164E-02  0.1300439E+00
        -11   -1    0    0    0    0  0.00000000000E+00  0.00000000000E+00  0.45593999997E+02  0.45594000000E+02  0.51100000000E-03 0.  1.
         11   -1    0    0    0    0 -0.00000000000E+00 -0.00000000000E+00 -0.45593999997E+02  0.45594000000E+02  0.51100000000E-03 0. -1.
    9900012    2    1    2    0    0 -0.25714418469E+02  0.15573267983E+02 -0.27375311645E+02  0.50528859815E+02  0.29999999894E+02 0.  0.
        -12    1    1    2    0    0  0.25714418469E+02 -0.15573267983E+02  0.27375311645E+02  0.40659140185E+02  0.00000000000E+00 0.  1.
         11    1    3    3    0    0  0.14717103847E+01  0.77203270470E+00 -0.49172694716E+01  0.51905207129E+01  0.51100000000E-03 0. -1.
        -11    1    3    3    0    0 -0.16680970562E+01  0.11912673125E+02 -0.13638181354E+02  0.18185002603E+02  0.51100000000E-03 0.  1.
        -12    1    3    3    0    0 -0.25518031798E+02  0.28885621536E+01 -0.88198608194E+01  0.27153336499E+02  0.00000000000E+00 0.  1.
</event>
<event>
 7    1  0.2985411E-011  0.5052885E+02  0.7816164E-02  0.1300439E+00
        -11   -1    0    0    0    0  0.00000000000E+00  0.00000000000E+00  0.45593999997E+02  0.45594000000E+02  0.51100000000E-03 0. -1.
         11   -1    0    0    0    0 -0.00000000000E+00 -0.00000000000E+00 -0.45593999997E+02  0.45594000000E+02  0.51100000000E-03 0.  1.
    9900012    2    1    2    0    0  0.15388972529E+02 -0.35257191431E+02  0.13163439784E+02  0.50528853796E+02  0.29999981599E+02 0.  0.
        -12    1    1    2    0    0 -0.15388972529E+02  0.35257191431E+02 -0.13163439784E+02  0.40659146204E+02  0.00000000000E+00 0.  1.
         11    1    3    3    0    0  0.91045982203E+01 -0.25888052543E+01  0.13043654442E+02  0.16116219868E+02  0.51100000000E-03 0. -1.
        -11    1    3    3    0    0 -0.12687342819E+01 -0.81774401455E+01 -0.25133277719E+01  0.86485276644E+01  0.51100000000E-03 0.  1.
        -12    1    3    3    0    0  0.75531085906E+01 -0.24490946031E+02  0.26331131149E+01  0.25764106263E+02  0.00000000000E+00 0.  1.
</event>
<event>
 7    1  0.2985411E-011  0.5052886E+02  0.7816164E-02  0.1300439E+00
        -11   -1    0    0    0    0  0.00000000000E+00  0.00000000000E+00  0.45593999997E+02  0.45594000000E+02  0.51100000000E-03 0. -1.
         11   -1    0    0    0    0 -0.00000000000E+00 -0.00000000000E+00 -0.45593999997E+02  0.45594000000E+02  0.51100000000E-03 0.  1.
    9900012    2    1    2    0    0  0.22604876900E+02  0.31699737376E+02  0.11718005638E+02  0.50528862459E+02  0.30000007932E+02 0.  0.
        -12    1    1    2    0    0 -0.22604876900E+02 -0.31699737376E+02 -0.11718005638E+02  0.40659137541E+02  0.00000000000E+00 0.  1.
         11    1    3    3    0    0 -0.10577575771E+01 -0.40153910874E+00 -0.18378377762E+01  0.21581780975E+01  0.51100000000E-03 0. -1.
        -11    1    3    3    0    0  0.17955212046E+01 -0.34887767687E+01 -0.11463973774E+01  0.40877483957E+01  0.51100000000E-03 0.  1.
         12    1    3    3    0    0  0.21867113273E+02  0.35590053254E+02  0.14702240792E+02  0.44282935966E+02  0.00000000000E+00 0. -1.
</event>
<event>
 7    1  0.2985411E-011  0.5052886E+02  0.7816164E-02  0.1300439E+00
        -11   -1    0    0    0    0  0.00000000000E+00  0.00000000000E+00  0.45593999997E+02  0.45594000000E+02  0.51100000000E-03 0.  1.
         11   -1    0    0    0    0 -0.00000000000E+00 -0.00000000000E+00 -0.45593999997E+02  0.45594000000E+02  0.51100000000E-03 0. -1.
    9900012    2    1    2    0    0  0.38114632017E+02  0.34773727792E+01 -0.13724008796E+02  0.50528859421E+02  0.29999998695E+02 0.  0.
        -12    1    1    2    0    0 -0.38114632017E+02 -0.34773727792E+01  0.13724008796E+02  0.40659140579E+02  0.00000000000E+00 0.  1.
         11    1    3    3    0    0  0.16824517845E+01 -0.47662028291E-01  0.29934310540E+01  0.34341731773E+01  0.51100000000E-03 0. -1.
        -11    1    3    3    0    0  0.59997090933E+01 -0.27711662061E+01  0.57393044289E+01  0.87530273012E+01  0.51100000000E-03 0.  1.
         12    1    3    3    0    0  0.30432471139E+02  0.62962010136E+01 -0.22456744279E+02  0.38341658942E+02  0.00000000000E+00 0. -1.
</event>
<event>
 7    1  0.2985411E-011  0.5052886E+02  0.7816164E-02  0.1300439E+00
        -11   -1    0    0    0    0  0.00000000000E+00  0.00000000000E+00  0.45593999997E+02  0.45594000000E+02  0.51100000000E-03 0.  1.
         11   -1    0    0    0    0 -0.00000000000E+00 -0.00000000000E+00 -0.45593999997E+02  0.45594000000E+02  0.51100000000E-03 0. -1.
    9900012    2    1    2    0    0  0.60031115782E+01 -0.29147083011E+02 -0.27705161875E+02  0.50528858455E+02  0.29999995760E+02 0.  0.
        -12    1    1    2    0    0 -0.60031115782E+01  0.29147083011E+02  0.27705161875E+02  0.40659141545E+02  0.00000000000E+00 0.  1.
         11    1    3    3    0    0 -0.19573609985E+01 -0.10597318087E+02 -0.88974979164E+01  0.13974973422E+02  0.51100000000E-03 0. -1.
        -11    1    3    3    0    0 -0.41338580816E+01 -0.11666395640E+02  0.92071690948E+00  0.12411337146E+02  0.51100000000E-03 0.  1.
         12    1    3    3    0    0  0.12094330658E+02 -0.68833692829E+01 -0.19728380868E+02  0.24142547886E+02  0.00000000000E+00 0. -1.
</event>
<event>
 7    1  0.2985411E-011  0.5052885E+02  0.7816164E-02  0.1300439E+00
        -11   -1    0    0    0    0  0.00000000000E+00  0.00000000000E+00  0.45593999997E+02  0.45594000000E+02  0.51100000000E-03 0.  1.
         11   -1    0    0    0    0 -0.00000000000E+00 -0.00000000000E+00 -0.45593999997E+02  0.45594000000E+02  0.51100000000E-03 0. -1.
    9900012    2    1    2    0    0 -0.11058862041E+02 -0.39122782869E+02  0.52525672741E+00  0.50528850185E+02  0.29999970621E+02 0.  0.
        -12    1    1    2    0    0  0.11058862041E+02  0.39122782869E+02 -0.52525672741E+00  0.40659149815E+02  0.00000000000E+00 0.  1.
         11    1    3    3    0    0 -0.53104105670E+01 -0.12742419798E+02  0.54640376897E+00  0.13815508678E+02  0.51100000000E-03 0. -1.
        -11    1    3    3    0    0 -0.63177623907E+01 -0.10023148319E+01  0.78596213032E+01  0.10133726064E+02  0.51100000000E-03 0.  1.
         12    1    3    3    0    0  0.56931091672E+00 -0.25378048240E+02 -0.78807683448E+01  0.26579615443E+02  0.00000000000E+00 0. -1.
</event>
<event>
 7    1  0.2985411E-011  0.5052885E+02  0.7816164E-02  0.1300439E+00
        -11   -1    0    0    0    0  0.00000000000E+00  0.00000000000E+00  0.45593999997E+02  0.45594000000E+02  0.51100000000E-03 0.  1.
         11   -1    0    0    0    0 -0.00000000000E+00 -0.00000000000E+00 -0.45593999997E+02  0.45594000000E+02  0.51100000000E-03 0. -1.
    9900012    2    1    2    0    0  0.39119221386E+02 -0.44169073535E+01 -0.10165803211E+02  0.50528854567E+02  0.29999983943E+02 0.  0.
        -12    1    1    2    0    0 -0.39119221386E+02  0.44169073535E+01  0.10165803211E+02  0.40659145433E+02  0.00000000000E+00 0.  1.
         11    1    3    3    0    0  0.30830065535E+02 -0.32296818413E+01 -0.90039538038E-01  0.30998901482E+02  0.51100000000E-03 0. -1.
        -11    1    3    3    0    0  0.12430218912E+00 -0.15396794676E+01  0.34199686292E+01  0.37526323538E+01  0.51100000000E-03 0.  1.
        -12    1    3    3    0    0  0.81648536612E+01  0.35245395541E+00 -0.13495732302E+02  0.15777320732E+02  0.00000000000E+00 0.  1.
</event>
<event>
 7    1  0.2985411E-011  0.5052886E+02  0.7816164E-02  0.1300439E+00
        -11   -1    0    0    0    0  0.00000000000E+00  0.00000000000E+00  0.45593999997E+02  0.45594000000E+02  0.51100000000E-03 0.  1.
         11   -1    0    0    0    0 -0.00000000000E+00 -0.00000000000E+00 -0.45593999997E+02  0.45594000000E+02  0.51100000000E-03 0. -1.
    9900012    2    1    2    0    0  0.12043217923E+02 -0.31427422772E+02 -0.22813243271E+02  0.50528855044E+02  0.29999985392E+02 0.  0.
        -12    1    1    2    0    0 -0.12043217923E+02  0.31427422772E+02  0.22813243271E+02  0.40659144956E+02  0.00000000000E+00 0.  1.
         11    1    3    3    0    0 -0.76482836030E+00 -0.43353454537E+01 -0.47530879293E+01  0.64785822329E+01  0.51100000000E-03 0. -1.
        -11    1    3    3    0    0  0.13005764959E+02 -0.74643558490E+01 -0.19231280488E+02  0.24386649624E+02  0.51100000000E-03 0.  1.
        -12    1    3    3    0    0 -0.19771867633E+00 -0.19627721469E+02  0.11711251460E+01  0.19663623187E+02  0.00000000000E+00 0.  1.
</event>
<event>
 7    1  0.2985411E-011  0.5052886E+02  0.7816164E-02  0.1300439E+00
        -11   -1    0    0    0    0  0.00000000000E+00  0.00000000000E+00  0.45593999997E+02  0.45594000000E+02  0.51100000000E-03 0.  1.
         11   -1    0    0    0    0 -0.00000000000E+00 -0.00000000000E+00 -0.45593999997E+02  0.45594000000E+02  0.51100000000E-03 0. -1.
    9900012    2    1    2    0    0  0.52529305207E+01 -0.33292097800E+02 -0.22742212719E+02  0.50528864564E+02  0.30000014330E+02 0.  0.
        -12    1    1    2    0    0 -0.52529305207E+01  0.33292097800E+02  0.22742212719E+02  0.40659135436E+02  0.00000000000E+00 0.  1.
         11    1    3    3    0    0 -0.49672184734E+01 -0.65728886430E+01 -0.19696106744E+02  0.21349771558E+02  0.51100000000E-03 0. -1.
        -11    1    3    3    0    0  0.38217020585E+01 -0.45788234958E+01 -0.33130034649E+00  0.59733400548E+01  0.51100000000E-03 0.  1.
        -12    1    3    3    0    0  0.63984469356E+01 -0.22140385661E+02 -0.27148056292E+01  0.23205752951E+02  0.00000000000E+00 0.  1.
</event>
<event>
 7    1  0.2985411E-011  0.5052894E+02  0.7816164E-02  0.1300439E+00
        -11   -1    0    0    0    0  0.00000000000E+00  0.00000000000E+00  0.45593999997E+02  0.45594000000E+02  0.51100000000E-03 0.  1.
         11   -1    0    0    0    0 -0.00000000000E+00 -0.00000000000E+00 -0.45593999997E+02  0.45594000000E+02  0.51100000000E-03 0. -1.
    9900012    2    1    2    0    0  0.46221429175E+01 -0.25111358706E+02 -0.31641980251E+02  0.50528936368E+02  0.30000232584E+02 0.  0.
        -12    1    1    2    0    0 -0.46221429175E+01  0.25111358706E+02  0.31641980251E+02  0.40659063632E+02  0.00000000000E+00 0.  1.
         11    1    3    3    0    0  0.11808294585E+01 -0.53790141441E+01 -0.25879568927E+02  0.26459029450E+02  0.51100000000E-03 0. -1.
        -11    1    3    3    0    0 -0.24656357456E+01  0.69205056528E-01 -0.17391174914E+01  0.30180587933E+01  0.51100000000E-03 0.  1.
        -12    1    3    3    0    0  0.59069492045E+01 -0.19801549618E+02 -0.40232938332E+01  0.21051848125E+02  0.00000000000E+00 0.  1.
</event>
<event>
 7    1  0.2985411E-011  0.5052885E+02  0.7816164E-02  0.1300439E+00
        -11   -1    0    0    0    0  0.00000000000E+00  0.00000000000E+00  0.45593999997E+02  0.45594000000E+02  0.51100000000E-03 0.  1.
         11   -1    0    0    0    0 -0.00000000000E+00 -0.00000000000E+00 -0.45593999997E+02  0.45594000000E+02  0.51100000000E-03 0. -1.
    9900012    2    1    2    0    0  0.19548133167E+02  0.32340598916E+02 -0.15004078182E+02  0.50528853296E+02  0.29999980080E+02 0.  0.
        -12    1    1    2    0    0 -0.19548133167E+02 -0.32340598916E+02  0.15004078182E+02  0.40659146704E+02  0.00000000000E+00 0.  1.
         11    1    3    3    0    0  0.12925878075E+02  0.47567947664E+01 -0.33168703412E+01  0.14167111547E+02  0.51100000000E-03 0. -1.
        -11    1    3    3    0    0  0.12238246370E+02  0.15845881181E+02 -0.19634925850E+01  0.20117701857E+02  0.51100000000E-03 0.  1.
         12    1    3    3    0    0 -0.56159912780E+01  0.11737922969E+02 -0.97237152558E+01  0.16244039892E+02  0.00000000000E+00 0. -1.
</event>
<event>
 7    1  0.2985411E-011  0.5052886E+02  0.7816164E-02  0.1300439E+00
        -11   -1    0    0    0    0  0.00000000000E+00  0.00000000000E+00  0.45593999997E+02  0.45594000000E+02  0.51100000000E-03 0.  1.
         11   -1    0    0    0    0 -0.00000000000E+00 -0.00000000000E+00 -0.45593999997E+02  0.45594000000E+02  0.51100000000E-03 0. -1.
    9900012    2    1    2    0    0  0.24243228568E+02 -0.32638713920E+02 -0.38203480756E+00  0.50528859227E+02  0.29999998107E+02 0.  0.
        -12    1    1    2    0    0 -0.24243228568E+02  0.32638713920E+02  0.38203480756E+00  0.40659140773E+02  0.00000000000E+00 0.  1.
         11    1    3    3    0    0  0.29756482741E+01 -0.21990233223E+01  0.21784908038E+01  0.42937173482E+01  0.51100000000E-03 0. -1.
        -11    1    3    3    0    0 -0.38850612975E+01 -0.30404594438E+01 -0.72265042857E+01  0.87498833916E+01  0.51100000000E-03 0.  1.
         12    1    3    3    0    0  0.25152641592E+02 -0.27399231154E+02  0.46659786743E+01  0.37485258487E+02  0.00000000000E+00 0. -1.
</event>
<event>
 7    1  0.2985411E-011  0.5052886E+02  0.7816164E-02  0.1300439E+00
        -11   -1    0    0    0    0  0.00000000000E+00  0.00000000000E+00  0.45593999997E+02  0.45594000000E+02  0.51100000000E-03 0.  1.
         11   -1    0    0    0    0 -0.00000000000E+00 -0.00000000000E+00 -0.45593999997E+02  0.45594000000E+02  0.51100000000E-03 0. -1.
    9900012    2    1    2    0    0  0.19277911535E+02 -0.35661373406E+02 -0.31295677377E+01  0.50528860553E+02  0.30000002137E+02 0.  0.
        -12    1    1    2    0    0 -0.19277911535E+02  0.35661373406E+02  0.31295677377E+01  0.40659139447E+02  0.00000000000E+00 0.  1.
         11    1    3    3    0    0  0.18842071173E+01 -0.37352937587E+01  0.59200446688E+01  0.72491092602E+01  0.51100000000E-03 0. -1.
        -11    1    3    3    0    0  0.16719018433E+02 -0.82713871015E+01 -0.36408628040E+01  0.19005191506E+02  0.51100000000E-03 0.  1.
         12    1    3    3    0    0  0.67468598468E+00 -0.23654692546E+02 -0.54087496026E+01  0.24274559787E+02  0.00000000000E+00 0. -1.
</event>
<event>
 7    1  0.2985411E-011  0.5052886E+02  0.7816164E-02  0.1300439E+00
        -11   -1    0    0    0    0  0.00000000000E+00  0.00000000000E+00  0.45593999997E+02  0.45594000000E+02  0.51100000000E-03 0. -1.
         11   -1    0    0    0    0 -0.00000000000E+00 -0.00000000000E+00 -0.45593999997E+02  0.45594000000E+02  0.51100000000E-03 0.  1.
    9900012    2    1    2    0    0  0.30868755230E+02  0.24865671909E+02 -0.90544976232E+01  0.50528860608E+02  0.30000002304E+02 0.  0.
        -12    1    1    2    0    0 -0.30868755230E+02 -0.24865671909E+02  0.90544976232E+01  0.40659139392E+02  0.00000000000E+00 0.  1.
         11    1    3    3    0    0  0.21820807300E+00  0.16406594749E+01  0.37299057117E+01  0.40806341609E+01  0.51100000000E-03 0. -1.
        -11    1    3    3    0    0  0.10083975536E+02 -0.34386486539E+01 -0.72038962970E+00  0.10678475015E+02  0.51100000000E-03 0.  1.
         12    1    3    3    0    0  0.20566571621E+02  0.26663661087E+02 -0.12064013705E+02  0.35769751432E+02  0.00000000000E+00 0. -1.
</event>
<event>
 7    1  0.2985411E-011  0.5052886E+02  0.7816164E-02  0.1300439E+00
        -11   -1    0    0    0    0  0.00000000000E+00  0.00000000000E+00  0.45593999997E+02  0.45594000000E+02  0.51100000000E-03 0. -1.
         11   -1    0    0    0    0 -0.00000000000E+00 -0.00000000000E+00 -0.45593999997E+02  0.45594000000E+02  0.51100000000E-03 0.  1.
    9900012    2    1    2    0    0 -0.34530546580E+02 -0.67184697534E+01  0.20387963193E+02  0.50528861715E+02  0.30000005668E+02 0.  0.
        -12    1    1    2    0    0  0.34530546580E+02  0.67184697534E+01 -0.20387963193E+02  0.40659138285E+02  0.00000000000E+00 0.  1.
         11    1    3    3    0    0 -0.11624454197E+01  0.36695714857E+01 -0.24768040351E+01  0.45772909817E+01  0.51100000000E-03 0. -1.
        -11    1    3    3    0    0 -0.36862201489E+01 -0.61090545162E+01 -0.15258301291E+01  0.72963637459E+01  0.51100000000E-03 0.  1.
         12    1    3    3    0    0 -0.29681881012E+02 -0.42789867229E+01  0.24390597357E+02  0.38655206987E+02  0.00000000000E+00 0. -1.
</event>
<event>
 7    1  0.2985411E-011  0.5052885E+02  0.7816164E-02  0.1300439E+00
        -11   -1    0    0    0    0  0.00000000000E+00  0.00000000000E+00  0.45593999997E+02  0.45594000000E+02  0.51100000000E-03 0.  1.
         11   -1    0    0    0    0 -0.00000000000E+00 -0.00000000000E+00 -0.45593999997E+02  0.45594000000E+02  0.51100000000E-03 0. -1.
    9900012    2    1    2    0    0 -0.34787850425E+02 -0.11005089797E+02 -0.17940463670E+02  0.50528846352E+02  0.29999958972E+02 0.  0.
        -12    1    1    2    0    0  0.34787850425E+02  0.11005089797E+02  0.17940463670E+02  0.40659153648E+02  0.00000000000E+00 0.  1.
         11    1    3    3    0    0 -0.30041456727E+01 -0.24157438931E+01  0.49818941030E+01  0.62992046240E+01  0.51100000000E-03 0. -1.
        -11    1    3    3    0    0  0.28440703904E+00  0.17846422367E+01  0.17065451901E+01  0.24855848454E+01  0.51100000000E-03 0.  1.
         12    1    3    3    0    0 -0.32068111792E+02 -0.10373988140E+02 -0.24628902964E+02  0.41744056883E+02  0.00000000000E+00 0. -1.
</event>
<event>
 7    1  0.2985411E-011  0.5052886E+02  0.7816164E-02  0.1300439E+00
        -11   -1    0    0    0    0  0.00000000000E+00  0.00000000000E+00  0.45593999997E+02  0.45594000000E+02  0.51100000000E-03 0. -1.
         11   -1    0    0    0    0 -0.00000000000E+00 -0.00000000000E+00 -0.45593999997E+02  0.45594000000E+02  0.51100000000E-03 0.  1.
    9900012    2    1    2    0    0  0.12334503487E+02  0.38740770234E+02 -0.42222661169E+00  0.50528861668E+02  0.30000005526E+02 0.  0.
        -12    1    1    2    0    0 -0.12334503487E+02 -0.38740770234E+02  0.42222661169E+00  0.40659138332E+02  0.00000000000E+00 0.  1.
         11    1    3    3    0    0 -0.72021721843E+01  0.20793415034E+02 -0.31583732649E+01  0.22230895504E+02  0.51100000000E-03 0.  1.
        -11    1    3    3    0    0  0.11086642753E+01  0.60525158195E+01 -0.27150423533E+00  0.61592044155E+01  0.51100000000E-03 0. -1.
        -12    1    3    3    0    0  0.18428011396E+02  0.11894839380E+02  0.30076508885E+01  0.22138761749E+02  0.00000000000E+00 0.  1.
</event>
<event>
 7    1  0.2985411E-011  0.5052886E+02  0.7816164E-02  0.1300439E+00
        -11   -1    0    0    0    0  0.00000000000E+00  0.00000000000E+00  0.45593999997E+02  0.45594000000E+02  0.51100000000E-03 0.  1.
         11   -1    0    0    0    0 -0.00000000000E+00 -0.00000000000E+00 -0.45593999997E+02  0.45594000000E+02  0.51100000000E-03 0. -1.
    9900012    2    1    2    0    0  0.30085660671E+02  0.22805977137E+02 -0.15096551275E+02  0.50528862878E+02  0.30000009203E+02 0.  0.
        -12    1    1    2    0    0 -0.30085660671E+02 -0.22805977137E+02  0.15096551275E+02  0.40659137122E+02  0.00000000000E+00 0.  1.
         11    1    3    3    0    0  0.14173222371E+01  0.48935994398E+01 -0.53567921120E+01  0.73926544484E+01  0.51100000000E-03 0. -1.
        -11    1    3    3    0    0 -0.26699204708E+00  0.82280017336E+01 -0.95688620297E+01  0.12622773787E+02  0.51100000000E-03 0.  1.
         12    1    3    3    0    0  0.28935330480E+02  0.96843759632E+01 -0.17089713311E+00  0.30513434642E+02  0.00000000000E+00 0. -1.
</event>
<event>
 7    1  0.2985411E-011  0.5052886E+02  0.7816164E-02  0.1300439E+00
        -11   -1    0    0    0    0  0.00000000000E+00  0.00000000000E+00  0.45593999997E+02  0.45594000000E+02  0.51100000000E-03 0.  1.
         11   -1    0    0    0    0 -0.00000000000E+00 -0.00000000000E+00 -0.45593999997E+02  0.45594000000E+02  0.51100000000E-03 0. -1.
    9900012    2    1    2    0    0  0.30573639968E+02  0.16007149154E+02 -0.21498589202E+02  0.50528860528E+02  0.30000002061E+02 0.  0.
        -12    1    1    2    0    0 -0.30573639968E+02 -0.16007149154E+02  0.21498589202E+02  0.40659139472E+02  0.00000000000E+00 0.  1.
         11    1    3    3    0    0  0.47241115293E+01  0.36782138495E+01 -0.62436066497E+01  0.86503821373E+01  0.51100000000E-03 0. -1.
        -11    1    3    3    0    0  0.53350255770E+01 -0.29733042729E+01 -0.15096246076E+02  0.16284952627E+02  0.51100000000E-03 0.  1.
        -12    1    3    3    0    0  0.20514502862E+02  0.15302239578E+02 -0.15873647615E+00  0.25593525764E+02  0.00000000000E+00 0.  1.
</event>
<event>
 7    1  0.2985411E-011  0.5052886E+02  0.7816164E-02  0.1300439E+00
        -11   -1    0    0    0    0  0.00000000000E+00  0.00000000000E+00  0.45593999997E+02  0.45594000000E+02  0.51100000000E-03 0.  1.
         11   -1    0    0    0    0 -0.00000000000E+00 -0.00000000000E+00 -0.45593999997E+02  0.45594000000E+02  0.51100000000E-03 0. -1.
    9900012    2    1    2    0    0  0.24932398201E+02 -0.25512623063E+02 -0.19510177844E+02  0.50528862588E+02  0.30000008322E+02 0.  0.
        -12    1    1    2    0    0 -0.24932398201E+02  0.25512623063E+02  0.19510177844E+02  0.40659137412E+02  0.00000000000E+00 0.  1.
         11    1    3    3    0    0  0.22201931123E+01 -0.40433934564E+01 -0.46519100357E+01  0.65512254839E+01  0.51100000000E-03 0. -1.
        -11    1    3    3    0    0  0.12934604621E+01 -0.19044357715E+02 -0.28408366491E+01  0.19298470247E+02  0.51100000000E-03 0.  1.
        -12    1    3    3    0    0  0.21418744627E+02 -0.24248718909E+01 -0.12017431159E+02  0.24679166857E+02  0.00000000000E+00 0.  1.
</event>
<event>
 7    1  0.2985411E-011  0.5052885E+02  0.7816164E-02  0.1300439E+00
        -11   -1    0    0    0    0  0.00000000000E+00  0.00000000000E+00  0.45593999997E+02  0.45594000000E+02  0.51100000000E-03 0.  1.
         11   -1    0    0    0    0 -0.00000000000E+00 -0.00000000000E+00 -0.45593999997E+02  0.45594000000E+02  0.51100000000E-03 0. -1.
    9900012    2    1    2    0    0 -0.30508454260E+02 -0.14718256694E+02 -0.22489403338E+02  0.50528854363E+02  0.29999983321E+02 0.  0.
        -12    1    1    2    0    0  0.30508454260E+02  0.14718256694E+02  0.22489403338E+02  0.40659145637E+02  0.00000000000E+00 0.  1.
         11    1    3    3    0    0 -0.81377375987E+01 -0.50136350668E+01 -0.80264450104E-01  0.95585434273E+01  0.51100000000E-03 0.  1.
        -11    1    3    3    0    0 -0.59231034242E+01  0.73725753735E+00  0.46927275026E+01  0.75926539843E+01  0.51100000000E-03 0. -1.
         12    1    3    3    0    0 -0.16447613237E+02 -0.10441879164E+02 -0.27101866391E+02  0.33377656951E+02  0.00000000000E+00 0. -1.
</event>
<event>
 7    1  0.2985411E-011  0.5052885E+02  0.7816164E-02  0.1300439E+00
        -11   -1    0    0    0    0  0.00000000000E+00  0.00000000000E+00  0.45593999997E+02  0.45594000000E+02  0.51100000000E-03 0.  1.
         11   -1    0    0    0    0 -0.00000000000E+00 -0.00000000000E+00 -0.45593999997E+02  0.45594000000E+02  0.51100000000E-03 0. -1.
    9900012    2    1    2    0    0  0.17455751781E+02 -0.35077679144E+02 -0.10863680128E+02  0.50528851088E+02  0.29999973366E+02 0.  0.
        -12    1    1    2    0    0 -0.17455751781E+02  0.35077679144E+02  0.10863680128E+02  0.40659148912E+02  0.00000000000E+00 0.  1.
         11    1    3    3    0    0  0.43029503086E+00  0.63426733671E+00  0.31744427370E+00  0.82959025791E+00  0.51100000000E-03 0.  1.
        -11    1    3    3    0    0 -0.47098039594E+01 -0.63817056151E+01 -0.10535868759E+02  0.13187605949E+02  0.51100000000E-03 0. -1.
         12    1    3    3    0    0  0.21735260709E+02 -0.29330240865E+02 -0.64525564306E+00  0.36511654881E+02  0.00000000000E+00 0. -1.
</event>
<event>
 7    1  0.2985411E-011  0.5052886E+02  0.7816164E-02  0.1300439E+00
        -11   -1    0    0    0    0  0.00000000000E+00  0.00000000000E+00  0.45593999997E+02  0.45594000000E+02  0.51100000000E-03 0.  1.
         11   -1    0    0    0    0 -0.00000000000E+00 -0.00000000000E+00 -0.45593999997E+02  0.45594000000E+02  0.51100000000E-03 0. -1.
    9900012    2    1    2    0    0 -0.10050317471E+02 -0.46535985269E+01 -0.39121615113E+02  0.50528860442E+02  0.30000001800E+02 0.  0.
        -12    1    1    2    0    0  0.10050317471E+02  0.46535985269E+01  0.39121615113E+02  0.40659139558E+02  0.00000000000E+00 0.  1.
         11    1    3    3    0    0 -0.18524032533E+01 -0.22127997376E+01 -0.90805733727E+01  0.95281002057E+01  0.51100000000E-03 0. -1.
        -11    1    3    3    0    0 -0.11508432036E+00 -0.13375821607E+02 -0.20150788829E+02  0.24186362661E+02  0.51100000000E-03 0.  1.
        -12    1    3    3    0    0 -0.80828298972E+01  0.10935022818E+02 -0.98902529119E+01  0.16814397576E+02  0.00000000000E+00 0.  1.
</event>
<event>
 7    1  0.2985411E-011  0.5052886E+02  0.7816164E-02  0.1300439E+00
        -11   -1    0    0    0    0  0.00000000000E+00  0.00000000000E+00  0.45593999997E+02  0.45594000000E+02  0.51100000000E-03 0.  1.
         11   -1    0    0    0    0 -0.00000000000E+00 -0.00000000000E+00 -0.45593999997E+02  0.45594000000E+02  0.51100000000E-03 0. -1.
    9900012    2    1    2    0    0  0.17100610196E+02 -0.22163298298E+01 -0.36821500974E+02  0.50528856859E+02  0.29999990910E+02 0.  0.
        -12    1    1    2    0    0 -0.17100610196E+02  0.22163298298E+01  0.36821500974E+02  0.40659143141E+02  0.00000000000E+00 0.  1.
         11    1    3    3    0    0  0.72032888931E+01  0.87302452234E+01 -0.51682155529E+01  0.12442467794E+02  0.51100000000E-03 0. -1.
        -11    1    3    3    0    0  0.30397558068E+01 -0.24718589582E+00  0.86745179514E+00  0.31707552901E+01  0.51100000000E-03 0.  1.
         12    1    3    3    0    0  0.68575654957E+01 -0.10699389157E+02 -0.32520737216E+02  0.34915633775E+02  0.00000000000E+00 0. -1.
</event>
<event>
 7    1  0.2985411E-011  0.5052886E+02  0.7816164E-02  0.1300439E+00
        -11   -1    0    0    0    0  0.00000000000E+00  0.00000000000E+00  0.45593999997E+02  0.45594000000E+02  0.51100000000E-03 0.  1.
         11   -1    0    0    0    0 -0.00000000000E+00 -0.00000000000E+00 -0.45593999997E+02  0.45594000000E+02  0.51100000000E-03 0. -1.
    9900012    2    1    2    0    0  0.39998487946E+02  0.72997459144E+01  0.10304910945E-01  0.50528862841E+02  0.30000009090E+02 0.  0.
        -12    1    1    2    0    0 -0.39998487946E+02 -0.72997459144E+01 -0.10304910945E-01  0.40659137159E+02  0.00000000000E+00 0.  1.
         11    1    3    3    0    0  0.18120852964E+02  0.70129591460E+01 -0.50552335053E+01  0.20077407557E+02  0.51100000000E-03 0. -1.
        -11    1    3    3    0    0  0.90867620865E+01  0.47499043726E+01 -0.69145590456E+01  0.12366970681E+02  0.51100000000E-03 0.  1.
        -12    1    3    3    0    0  0.12790872895E+02 -0.44631176042E+01  0.11980097462E+02  0.18084484603E+02  0.00000000000E+00 0.  1.
</event>
<event>
 7    1  0.2985411E-011  0.5052886E+02  0.7816164E-02  0.1300439E+00
        -11   -1    0    0    0    0  0.00000000000E+00  0.00000000000E+00  0.45593999997E+02  0.45594000000E+02  0.51100000000E-03 0.  1.
         11   -1    0    0    0    0 -0.00000000000E+00 -0.00000000000E+00 -0.45593999997E+02  0.45594000000E+02  0.51100000000E-03 0. -1.
    9900012    2    1    2    0    0  0.28011435794E+01 -0.40136863046E+02  0.58610371802E+01  0.50528856657E+02  0.29999990295E+02 0.  0.
        -12    1    1    2    0    0 -0.28011435794E+01  0.40136863046E+02 -0.58610371802E+01  0.40659143343E+02  0.00000000000E+00 0.  1.
         11    1    3    3    0    0 -0.58656045773E+01  0.52819295448E+00 -0.27829357379E+01  0.65137574745E+01  0.51100000000E-03 0. -1.
        -11    1    3    3    0    0  0.88852223180E+00 -0.31774607377E+01  0.43926745831E+01  0.54937527020E+01  0.51100000000E-03 0.  1.
         12    1    3    3    0    0  0.77782259249E+01 -0.37487595263E+02  0.42512983350E+01  0.38521346481E+02  0.00000000000E+00 0. -1.
</event>
<event>
 7    1  0.2985411E-011  0.5052886E+02  0.7816164E-02  0.1300439E+00
        -11   -1    0    0    0    0  0.00000000000E+00  0.00000000000E+00  0.45593999997E+02  0.45594000000E+02  0.51100000000E-03 0.  1.
         11   -1    0    0    0    0 -0.00000000000E+00 -0.00000000000E+00 -0.45593999997E+02  0.45594000000E+02  0.51100000000E-03 0. -1.
    9900012    2    1    2    0    0 -0.37500596655E+02 -0.58055232793E+01 -0.14600242367E+02  0.50528856782E+02  0.29999990675E+02 0.  0.
        -12    1    1    2    0    0  0.37500596655E+02  0.58055232793E+01  0.14600242367E+02  0.40659143218E+02  0.00000000000E+00 0.  1.
         11    1    3    3    0    0 -0.14797050639E+02 -0.96867588549E+01  0.65795603348E+00  0.17697991726E+02  0.51100000000E-03 0. -1.
        -11    1    3    3    0    0 -0.89132973380E+01 -0.71317750802E+01 -0.56588110712E+01  0.12740927291E+02  0.51100000000E-03 0.  1.
        -12    1    3    3    0    0 -0.13790248678E+02  0.11013010656E+02 -0.95993873297E+01  0.20089937765E+02  0.00000000000E+00 0.  1.
</event>
<event>
 7    1  0.2985411E-011  0.5052886E+02  0.7816164E-02  0.1300439E+00
        -11   -1    0    0    0    0  0.00000000000E+00  0.00000000000E+00  0.45593999997E+02  0.45594000000E+02  0.51100000000E-03 0. -1.
         11   -1    0    0    0    0 -0.00000000000E+00 -0.00000000000E+00 -0.45593999997E+02  0.45594000000E+02  0.51100000000E-03 0.  1.
    9900012    2    1    2    0    0  0.36641847604E+01  0.37147465024E+02 -0.16118463243E+02  0.50528864926E+02  0.30000015429E+02 0.  0.
        -12    1    1    2    0    0 -0.36641847604E+01 -0.37147465024E+02  0.16118463243E+02  0.40659135074E+02  0.00000000000E+00 0.  1.
         11    1    3    3    0    0  0.34366168222E+01  0.33317629457E+02 -0.90233463553E+01  0.34688550669E+02  0.51100000000E-03 0. -1.
        -11    1    3    3    0    0 -0.34775865666E+01  0.79140283175E+01 -0.45064979282E+01  0.97485371403E+01  0.51100000000E-03 0.  1.
         12    1    3    3    0    0  0.37051545047E+01 -0.40841927503E+01 -0.25886189596E+01  0.60917771170E+01  0.00000000000E+00 0. -1.
</event>
<event>
 7    1  0.2985411E-011  0.5052886E+02  0.7816164E-02  0.1300439E+00
        -11   -1    0    0    0    0  0.00000000000E+00  0.00000000000E+00  0.45593999997E+02  0.45594000000E+02  0.51100000000E-03 0.  1.
         11   -1    0    0    0    0 -0.00000000000E+00 -0.00000000000E+00 -0.45593999997E+02  0.45594000000E+02  0.51100000000E-03 0. -1.
    9900012    2    1    2    0    0 -0.23205636796E+02 -0.21762786062E+02 -0.25318875172E+02  0.50528857409E+02  0.29999992580E+02 0.  0.
        -12    1    1    2    0    0  0.23205636796E+02  0.21762786062E+02  0.25318875172E+02  0.40659142591E+02  0.00000000000E+00 0.  1.
         11    1    3    3    0    0 -0.82379007552E+00 -0.94443005749E+01 -0.14556723288E+02  0.17371575535E+02  0.51100000000E-03 0. -1.
        -11    1    3    3    0    0 -0.74949487142E+00  0.37122066313E+01  0.77371151781E+00  0.38653396241E+01  0.51100000000E-03 0.  1.
         12    1    3    3    0    0 -0.21632351849E+02 -0.16030692119E+02 -0.11535863402E+02  0.29291942249E+02  0.00000000000E+00 0. -1.
</event>
<event>
 7    1  0.2985411E-011  0.5052886E+02  0.7816164E-02  0.1300439E+00
        -11   -1    0    0    0    0  0.00000000000E+00  0.00000000000E+00  0.45593999997E+02  0.45594000000E+02  0.51100000000E-03 0.  1.
         11   -1    0    0    0    0 -0.00000000000E+00 -0.00000000000E+00 -0.45593999997E+02  0.45594000000E+02  0.51100000000E-03 0. -1.
    9900012    2    1    2    0    0 -0.23074638011E+02 -0.23894878779E+02 -0.23446997454E+02  0.50528857845E+02  0.29999993904E+02 0.  0.
        -12    1    1    2    0    0  0.23074638011E+02  0.23894878779E+02  0.23446997454E+02  0.40659142155E+02  0.00000000000E+00 0.  1.
         11    1    3    3    0    0 -0.12369190973E+02 -0.81956011894E+01  0.14542885230E+00  0.14838662811E+02  0.51100000000E-03 0. -1.
        -11    1    3    3    0    0 -0.33481856453E+00 -0.22401330059E+01  0.32263541992E+01  0.39420376755E+01  0.51100000000E-03 0.  1.
        -12    1    3    3    0    0 -0.10370628473E+02 -0.13459144584E+02 -0.26818780506E+02  0.31748157358E+02  0.00000000000E+00 0.  1.
</event>
<event>
 7    1  0.2985411E-011  0.5052883E+02  0.7816164E-02  0.1300439E+00
        -11   -1    0    0    0    0  0.00000000000E+00  0.00000000000E+00  0.45593999997E+02  0.45594000000E+02  0.51100000000E-03 0.  1.
         11   -1    0    0    0    0 -0.00000000000E+00 -0.00000000000E+00 -0.45593999997E+02  0.45594000000E+02  0.51100000000E-03 0. -1.
    9900012    2    1    2    0    0 -0.21051293630E+02  0.24171702274E+02 -0.25014794086E+02  0.50528830339E+02  0.29999910299E+02 0.  0.
        -12    1    1    2    0    0  0.21051293630E+02 -0.24171702274E+02  0.25014794086E+02  0.40659169661E+02  0.00000000000E+00 0.  1.
         11    1    3    3    0    0  0.38301753642E+01  0.21876285999E+01 -0.81814126984E+00  0.44861250105E+01  0.51100000000E-03 0. -1.
        -11    1    3    3    0    0 -0.39301975391E+00  0.12116876971E+02 -0.11642139694E+02  0.16808110809E+02  0.51100000000E-03 0.  1.
        -12    1    3    3    0    0 -0.24488449241E+02  0.98671967030E+01 -0.12554513122E+02  0.29234594520E+02  0.00000000000E+00 0.  1.
</event>
<event>
 7    1  0.2985411E-011  0.5052885E+02  0.7816164E-02  0.1300439E+00
        -11   -1    0    0    0    0  0.00000000000E+00  0.00000000000E+00  0.45593999997E+02  0.45594000000E+02  0.51100000000E-03 0.  1.
         11   -1    0    0    0    0 -0.00000000000E+00 -0.00000000000E+00 -0.45593999997E+02  0.45594000000E+02  0.51100000000E-03 0. -1.
    9900012    2    1    2    0    0 -0.39344842120E+02  0.86853423318E+01  0.54510943461E+01  0.50528853397E+02  0.29999980386E+02 0.  0.
        -12    1    1    2    0    0  0.39344842120E+02 -0.86853423318E+01 -0.54510943461E+01  0.40659146603E+02  0.00000000000E+00 0.  1.
         11    1    3    3    0    0 -0.17357080875E+01 -0.47408482467E+01  0.26204898540E+01  0.56881712350E+01  0.51100000000E-03 0. -1.
        -11    1    3    3    0    0  0.43072456370E+00  0.87785577875E+00  0.46417747401E+01  0.47436512748E+01  0.51100000000E-03 0.  1.
         12    1    3    3    0    0 -0.38039858597E+02  0.12548334800E+02 -0.18111702480E+01  0.40097030887E+02  0.00000000000E+00 0. -1.
</event>
<event>
 7    1  0.2985411E-011  0.5052885E+02  0.7816164E-02  0.1300439E+00
        -11   -1    0    0    0    0  0.00000000000E+00  0.00000000000E+00  0.45593999997E+02  0.45594000000E+02  0.51100000000E-03 0. -1.
         11   -1    0    0    0    0 -0.00000000000E+00 -0.00000000000E+00 -0.45593999997E+02  0.45594000000E+02  0.51100000000E-03 0.  1.
    9900012    2    1    2    0    0 -0.12331861652E+01 -0.37844441967E+02  0.14813633060E+02  0.50528852686E+02  0.29999978223E+02 0.  0.
        -12    1    1    2    0    0  0.12331861652E+01  0.37844441967E+02 -0.14813633060E+02  0.40659147314E+02  0.00000000000E+00 0.  1.
         11    1    3    3    0    0  0.10688985161E+02 -0.11953785384E+02  0.93756314958E+01  0.18575517624E+02  0.51100000000E-03 0. -1.
        -11    1    3    3    0    0 -0.53624302188E+00  0.11700936660E+01  0.20217640107E+01  0.23967072708E+01  0.51100000000E-03 0.  1.
         12    1    3    3    0    0 -0.11385928304E+02 -0.27060750249E+02  0.34162375536E+01  0.29556627791E+02  0.00000000000E+00 0. -1.
</event>
<event>
 7    1  0.2985411E-011  0.5052886E+02  0.7816164E-02  0.1300439E+00
        -11   -1    0    0    0    0  0.00000000000E+00  0.00000000000E+00  0.45593999997E+02  0.45594000000E+02  0.51100000000E-03 0.  1.
         11   -1    0    0    0    0 -0.00000000000E+00 -0.00000000000E+00 -0.45593999997E+02  0.45594000000E+02  0.51100000000E-03 0. -1.
    9900012    2    1    2    0    0  0.16985483694E+02 -0.28141501222E+02 -0.23931458958E+02  0.50528862340E+02  0.30000007570E+02 0.  0.
        -12    1    1    2    0    0 -0.16985483694E+02  0.28141501222E+02  0.23931458958E+02  0.40659137660E+02  0.00000000000E+00 0.  1.
         11    1    3    3    0    0 -0.25596575521E+00  0.14164760733E+01 -0.56230974971E+01  0.58044076922E+01  0.51100000000E-03 0. -1.
        -11    1    3    3    0    0  0.99619947928E+01 -0.25116764337E+00 -0.81205090004E+01  0.12854847028E+02  0.51100000000E-03 0.  1.
        -12    1    3    3    0    0  0.72794546565E+01 -0.29306809652E+02 -0.10187852461E+02  0.31869607620E+02  0.00000000000E+00 0.  1.
</event>
<event>
 7    1  0.2985411E-011  0.5052885E+02  0.7816164E-02  0.1300439E+00
        -11   -1    0    0    0    0  0.00000000000E+00  0.00000000000E+00  0.45593999997E+02  0.45594000000E+02  0.51100000000E-03 0. -1.
         11   -1    0    0    0    0 -0.00000000000E+00 -0.00000000000E+00 -0.45593999997E+02  0.45594000000E+02  0.51100000000E-03 0.  1.
    9900012    2    1    2    0    0  0.11958513694E+02 -0.11758774796E+02  0.37039057947E+02  0.50528847918E+02  0.29999963731E+02 0.  0.
        -12    1    1    2    0    0 -0.11958513694E+02  0.11758774796E+02 -0.37039057947E+02  0.40659152082E+02  0.00000000000E+00 0.  1.
         11    1    3    3    0    0  0.10871819990E+02  0.50061482839E+01  0.20913193617E+02  0.24096050674E+02  0.51100000000E-03 0. -1.
        -11    1    3    3    0    0  0.33119744701E+01 -0.29526804305E+01  0.10416807983E+02  0.11322428424E+02  0.51100000000E-03 0.  1.
        -12    1    3    3    0    0 -0.22252807665E+01 -0.13812242650E+02  0.57090563467E+01  0.15110368820E+02  0.00000000000E+00 0.  1.
</event>
<event>
 7    1  0.2985411E-011  0.5052886E+02  0.7816164E-02  0.1300439E+00
        -11   -1    0    0    0    0  0.00000000000E+00  0.00000000000E+00  0.45593999997E+02  0.45594000000E+02  0.51100000000E-03 0. -1.
         11   -1    0    0    0    0 -0.00000000000E+00 -0.00000000000E+00 -0.45593999997E+02  0.45594000000E+02  0.51100000000E-03 0.  1.
    9900012    2    1    2    0    0  0.49432635456E+01  0.37144054322E+02 -0.15781284996E+02  0.50528861027E+02  0.30000003577E+02 0.  0.
        -12    1    1    2    0    0 -0.49432635456E+01 -0.37144054322E+02  0.15781284996E+02  0.40659138973E+02  0.00000000000E+00 0.  1.
         11    1    3    3    0    0  0.76160935930E+01  0.21010986192E+02  0.28784038555E+01  0.22533344878E+02  0.51100000000E-03 0. -1.
        -11    1    3    3    0    0  0.46545617594E+01  0.38218690846E+01 -0.85612282117E+01  0.10467390182E+02  0.51100000000E-03 0.  1.
        -12    1    3    3    0    0 -0.73273918067E+01  0.12311199045E+02 -0.10098460639E+02  0.17528125966E+02  0.00000000000E+00 0.  1.
</event>
<event>
 7    1  0.2985411E-011  0.5052886E+02  0.7816164E-02  0.1300439E+00
        -11   -1    0    0    0    0  0.00000000000E+00  0.00000000000E+00  0.45593999997E+02  0.45594000000E+02  0.51100000000E-03 0. -1.
         11   -1    0    0    0    0 -0.00000000000E+00 -0.00000000000E+00 -0.45593999997E+02  0.45594000000E+02  0.51100000000E-03 0.  1.
    9900012    2    1    2    0    0 -0.30883938161E+02  0.20519274695E+02  0.16682553668E+02  0.50528857520E+02  0.29999992917E+02 0.  0.
        -12    1    1    2    0    0  0.30883938161E+02 -0.20519274695E+02 -0.16682553668E+02  0.40659142480E+02  0.00000000000E+00 0.  1.
         11    1    3    3    0    0 -0.15007988400E+02  0.10198954452E+02 -0.59083761144E+01  0.19083167879E+02  0.51100000000E-03 0.  1.
        -11    1    3    3    0    0  0.27635690397E+00 -0.13737128682E+01  0.12577101391E+00  0.14068684344E+01  0.51100000000E-03 0. -1.
         12    1    3    3    0    0 -0.16152306665E+02  0.11694033111E+02  0.22465158768E+02  0.30038821207E+02  0.00000000000E+00 0. -1.
</event>
<event>
 7    1  0.2985411E-011  0.5052886E+02  0.7816164E-02  0.1300439E+00
        -11   -1    0    0    0    0  0.00000000000E+00  0.00000000000E+00  0.45593999997E+02  0.45594000000E+02  0.51100000000E-03 0.  1.
         11   -1    0    0    0    0 -0.00000000000E+00 -0.00000000000E+00 -0.45593999997E+02  0.45594000000E+02  0.51100000000E-03 0. -1.
    9900012    2    1    2    0    0  0.12121063880E+01 -0.87480971045E+01 -0.39688377939E+02  0.50528858983E+02  0.29999997365E+02 0.  0.
        -12    1    1    2    0    0 -0.12121063880E+01  0.87480971045E+01  0.39688377939E+02  0.40659141017E+02  0.00000000000E+00 0.  1.
         11    1    3    3    0    0  0.94322805144E+00 -0.63984921670E+01 -0.16313180363E+02  0.17548510905E+02  0.51100000000E-03 0. -1.
        -11    1    3    3    0    0 -0.15392417909E+01  0.10040991097E+02 -0.68720605921E+01  0.12264419454E+02  0.51100000000E-03 0.  1.
         12    1    3    3    0    0  0.18081201275E+01 -0.12390596034E+02 -0.16503136984E+02  0.20715928624E+02  0.00000000000E+00 0. -1.
</event>
<event>
 7    1  0.2985411E-011  0.5052886E+02  0.7816164E-02  0.1300439E+00
        -11   -1    0    0    0    0  0.00000000000E+00  0.00000000000E+00  0.45593999997E+02  0.45594000000E+02  0.51100000000E-03 0. -1.
         11   -1    0    0    0    0 -0.00000000000E+00 -0.00000000000E+00 -0.45593999997E+02  0.45594000000E+02  0.51100000000E-03 0.  1.
    9900012    2    1    2    0    0  0.16742235785E+02 -0.34264918472E+02  0.14098889867E+02  0.50528858439E+02  0.29999995711E+02 0.  0.
        -12    1    1    2    0    0 -0.16742235785E+02  0.34264918472E+02 -0.14098889867E+02  0.40659141561E+02  0.00000000000E+00 0.  1.
         11    1    3    3    0    0  0.15098054606E+02 -0.25111236885E+02  0.11621572939E+02  0.31521206015E+02  0.51100000000E-03 0. -1.
        -11    1    3    3    0    0  0.52775282850E+01  0.22983357252E+01  0.38347472899E+01  0.69166421725E+01  0.51100000000E-03 0.  1.
         12    1    3    3    0    0 -0.36333471057E+01 -0.11452017312E+02 -0.13574303620E+01  0.12091010251E+02  0.00000000000E+00 0. -1.
</event>
<event>
 7    1  0.2985411E-011  0.5052885E+02  0.7816164E-02  0.1300439E+00
        -11   -1    0    0    0    0  0.00000000000E+00  0.00000000000E+00  0.45593999997E+02  0.45594000000E+02  0.51100000000E-03 0.  1.
         11   -1    0    0    0    0 -0.00000000000E+00 -0.00000000000E+00 -0.45593999997E+02  0.45594000000E+02  0.51100000000E-03 0. -1.
    9900012    2    1    2    0    0  0.12420044348E+01 -0.28355233338E+02 -0.29113646455E+02  0.50528852904E+02  0.29999978887E+02 0.  0.
        -12    1    1    2    0    0 -0.12420044348E+01  0.28355233338E+02  0.29113646455E+02  0.40659147096E+02  0.00000000000E+00 0.  1.
         11    1    3    3    0    0 -0.49953077354E+00 -0.13231255187E+02 -0.16218848456E+02  0.20937208274E+02  0.51100000000E-03 0. -1.
        -11    1    3    3    0    0 -0.53724651852E+01 -0.35878017162E+00 -0.12029056894E+02  0.13179162166E+02  0.51100000000E-03 0.  1.
        -12    1    3    3    0    0  0.71140003935E+01 -0.14765197980E+02 -0.86574110527E+00  0.16412482464E+02  0.00000000000E+00 0.  1.
</event>
<event>
 7    1  0.2985411E-011  0.5052886E+02  0.7816164E-02  0.1300439E+00
        -11   -1    0    0    0    0  0.00000000000E+00  0.00000000000E+00  0.45593999997E+02  0.45594000000E+02  0.51100000000E-03 0.  1.
         11   -1    0    0    0    0 -0.00000000000E+00 -0.00000000000E+00 -0.45593999997E+02  0.45594000000E+02  0.51100000000E-03 0. -1.
    9900012    2    1    2    0    0  0.26342518392E+02 -0.28962624798E+02 -0.10972868475E+02  0.50528858925E+02  0.29999997187E+02 0.  0.
        -12    1    1    2    0    0 -0.26342518392E+02  0.28962624798E+02  0.10972868475E+02  0.40659141075E+02  0.00000000000E+00 0.  1.
         11    1    3    3    0    0  0.30811703732E+01 -0.13812681579E+02 -0.93455108792E+01  0.16959432689E+02  0.51100000000E-03 0. -1.
        -11    1    3    3    0    0  0.38339454883E+01 -0.10553623359E+01  0.70112840047E+01  0.80604609870E+01  0.51100000000E-03 0.  1.
         12    1    3    3    0    0  0.19427402530E+02 -0.14094580883E+02 -0.86386416010E+01  0.25508965249E+02  0.00000000000E+00 0. -1.
</event>
<event>
 7    1  0.2985411E-011  0.5052883E+02  0.7816164E-02  0.1300439E+00
        -11   -1    0    0    0    0  0.00000000000E+00  0.00000000000E+00  0.45593999997E+02  0.45594000000E+02  0.51100000000E-03 0.  1.
         11   -1    0    0    0    0 -0.00000000000E+00 -0.00000000000E+00 -0.45593999997E+02  0.45594000000E+02  0.51100000000E-03 0. -1.
    9900012    2    1    2    0    0 -0.37091674261E+02  0.12117179590E+02 -0.11425823174E+02  0.50528834048E+02  0.29999921573E+02 0.  0.
        -12    1    1    2    0    0  0.37091674261E+02 -0.12117179590E+02  0.11425823174E+02  0.40659165952E+02  0.00000000000E+00 0.  1.
         11    1    3    3    0    0 -0.12944696431E+02 -0.60014771487E+01 -0.82511722619E+01  0.16482255235E+02  0.51100000000E-03 0. -1.
        -11    1    3    3    0    0 -0.99672966275E+01  0.33512715306E+01  0.54348737297E+01  0.11837055193E+02  0.51100000000E-03 0.  1.
        -12    1    3    3    0    0 -0.14179681202E+02  0.14767385208E+02 -0.86095246415E+01  0.22209523620E+02  0.00000000000E+00 0.  1.
</event>
<event>
 7    1  0.2985411E-011  0.5052886E+02  0.7816164E-02  0.1300439E+00
        -11   -1    0    0    0    0  0.00000000000E+00  0.00000000000E+00  0.45593999997E+02  0.45594000000E+02  0.51100000000E-03 0. -1.
         11   -1    0    0    0    0 -0.00000000000E+00 -0.00000000000E+00 -0.45593999997E+02  0.45594000000E+02  0.51100000000E-03 0.  1.
    9900012    2    1    2    0    0 -0.21317863875E+02 -0.18002365246E+02  0.29574131409E+02  0.50528859290E+02  0.29999998299E+02 0.  0.
        -12    1    1    2    0    0  0.21317863875E+02  0.18002365246E+02 -0.29574131409E+02  0.40659140710E+02  0.00000000000E+00 0.  1.
         11    1    3    3    0    0 -0.75100890347E+01 -0.25261695379E+01  0.82602074432E+01  0.11446134592E+02  0.51100000000E-03 0. -1.
        -11    1    3    3    0    0 -0.12425304267E+02 -0.19425192050E+02  0.24633215709E+02  0.33741985548E+02  0.51100000000E-03 0.  1.
        -12    1    3    3    0    0 -0.13824705739E+01  0.39489963416E+01 -0.33192917433E+01  0.53407391502E+01  0.00000000000E+00 0.  1.
</event>
<event>
 7    1  0.2985411E-011  0.5052885E+02  0.7816164E-02  0.1300439E+00
        -11   -1    0    0    0    0  0.00000000000E+00  0.00000000000E+00  0.45593999997E+02  0.45594000000E+02  0.51100000000E-03 0.  1.
         11   -1    0    0    0    0 -0.00000000000E+00 -0.00000000000E+00 -0.45593999997E+02  0.45594000000E+02  0.51100000000E-03 0. -1.
    9900012    2    1    2    0    0 -0.18733724826E+02  0.78142544325E+01 -0.35229974184E+02  0.50528854667E+02  0.29999984246E+02 0.  0.
        -12    1    1    2    0    0  0.18733724826E+02 -0.78142544325E+01  0.35229974184E+02  0.40659145333E+02  0.00000000000E+00 0.  1.
         11    1    3    3    0    0 -0.65013637817E+01 -0.40533426267E+01 -0.14528367955E+02  0.16424700702E+02  0.51100000000E-03 0. -1.
        -11    1    3    3    0    0 -0.49335577283E+01 -0.52404536418E+01 -0.14632369129E+01  0.73446176724E+01  0.51100000000E-03 0.  1.
         12    1    3    3    0    0 -0.72988033164E+01  0.17108050701E+02 -0.19238369316E+02  0.26759536293E+02  0.00000000000E+00 0. -1.
</event>
<event>
 7    1  0.2985411E-011  0.5052884E+02  0.7816164E-02  0.1300439E+00
        -11   -1    0    0    0    0  0.00000000000E+00  0.00000000000E+00  0.45593999997E+02  0.45594000000E+02  0.51100000000E-03 0.  1.
         11   -1    0    0    0    0 -0.00000000000E+00 -0.00000000000E+00 -0.45593999997E+02  0.45594000000E+02  0.51100000000E-03 0. -1.
    9900012    2    1    2    0    0 -0.21426575446E+02 -0.26654471511E+02 -0.21991097165E+02  0.50528839392E+02  0.29999937815E+02 0.  0.
        -12    1    1    2    0    0  0.21426575446E+02  0.26654471511E+02  0.21991097165E+02  0.40659160608E+02  0.00000000000E+00 0.  1.
         11    1    3    3    0    0  0.35228249847E+01 -0.52443267617E+01 -0.23950141829E+01  0.67564304373E+01  0.51100000000E-03 0.  1.
        -11    1    3    3    0    0 -0.70856458534E+01  0.31409972851E+01 -0.21894080015E+00  0.77537201677E+01  0.51100000000E-03 0. -1.
        -12    1    3    3    0    0 -0.17863754578E+02 -0.24551142034E+02 -0.19377142181E+02  0.36018688787E+02  0.00000000000E+00 0.  1.
</event>
<event>
 7    1  0.2985411E-011  0.5052886E+02  0.7816164E-02  0.1300439E+00
        -11   -1    0    0    0    0  0.00000000000E+00  0.00000000000E+00  0.45593999997E+02  0.45594000000E+02  0.51100000000E-03 0. -1.
         11   -1    0    0    0    0 -0.00000000000E+00 -0.00000000000E+00 -0.45593999997E+02  0.45594000000E+02  0.51100000000E-03 0.  1.
    9900012    2    1    2    0    0 -0.33431644030E+02 -0.22541312025E+02 -0.52325701256E+01  0.50528863752E+02  0.30000011859E+02 0.  0.
        -12    1    1    2    0    0  0.33431644030E+02  0.22541312025E+02  0.52325701256E+01  0.40659136248E+02  0.00000000000E+00 0.  1.
         11    1    3    3    0    0 -0.31992463293E+02 -0.14426535506E+02 -0.56921291141E+01  0.35553381954E+02  0.51100000000E-03 0. -1.
        -11    1    3    3    0    0 -0.65381308532E+01 -0.16692800880E+01  0.33105627818E+00  0.67559788030E+01  0.51100000000E-03 0.  1.
        -12    1    3    3    0    0  0.50989501164E+01 -0.64454964307E+01  0.12850271039E+00  0.82195029944E+01  0.00000000000E+00 0.  1.
</event>
<event>
 7    1  0.2985411E-011  0.5052885E+02  0.7816164E-02  0.1300439E+00
        -11   -1    0    0    0    0  0.00000000000E+00  0.00000000000E+00  0.45593999997E+02  0.45594000000E+02  0.51100000000E-03 0. -1.
         11   -1    0    0    0    0 -0.00000000000E+00 -0.00000000000E+00 -0.45593999997E+02  0.45594000000E+02  0.51100000000E-03 0.  1.
    9900012    2    1    2    0    0 -0.26819226915E+02 -0.17099867920E+02  0.25327648377E+02  0.50528853581E+02  0.29999980945E+02 0.  0.
        -12    1    1    2    0    0  0.26819226915E+02  0.17099867920E+02 -0.25327648377E+02  0.40659146419E+02  0.00000000000E+00 0.  1.
         11    1    3    3    0    0 -0.19180289730E+02 -0.17912361023E+01  0.15660538050E+02  0.24826286335E+02  0.51100000000E-03 0. -1.
        -11    1    3    3    0    0 -0.32444465849E+01  0.17696057136E+01  0.69341289887E+01  0.78574858012E+01  0.51100000000E-03 0.  1.
        -12    1    3    3    0    0 -0.43944906001E+01 -0.17078237531E+02  0.27329813390E+01  0.17845081445E+02  0.00000000000E+00 0.  1.
</event>
<event>
 7    1  0.2985411E-011  0.5052887E+02  0.7816164E-02  0.1300439E+00
        -11   -1    0    0    0    0  0.00000000000E+00  0.00000000000E+00  0.45593999997E+02  0.45594000000E+02  0.51100000000E-03 0.  1.
         11   -1    0    0    0    0 -0.00000000000E+00 -0.00000000000E+00 -0.45593999997E+02  0.45594000000E+02  0.51100000000E-03 0. -1.
    9900012    2    1    2    0    0 -0.90463648219E+01 -0.84137942177E+01 -0.38736758064E+02  0.50528867263E+02  0.30000022533E+02 0.  0.
        -12    1    1    2    0    0  0.90463648219E+01  0.84137942177E+01  0.38736758064E+02  0.40659132737E+02  0.00000000000E+00 0.  1.
         11    1    3    3    0    0 -0.39592128428E+01  0.12841330155E+01 -0.10823959378E+02  0.11596657312E+02  0.51100000000E-03 0. -1.
        -11    1    3    3    0    0 -0.65191131734E+01  0.71733299646E+01 -0.13942959079E+02  0.16981213369E+02  0.51100000000E-03 0.  1.
         12    1    3    3    0    0  0.14319611942E+01 -0.16871257198E+02 -0.13969839606E+02  0.21950996582E+02  0.00000000000E+00 0. -1.
</event>
<event>
 7    1  0.2985411E-011  0.5052886E+02  0.7816164E-02  0.1300439E+00
        -11   -1    0    0    0    0  0.00000000000E+00  0.00000000000E+00  0.45593999997E+02  0.45594000000E+02  0.51100000000E-03 0.  1.
         11   -1    0    0    0    0 -0.00000000000E+00 -0.00000000000E+00 -0.45593999997E+02  0.45594000000E+02  0.51100000000E-03 0. -1.
    9900012    2    1    2    0    0  0.97052181160E+01  0.36916341565E+02 -0.14005644580E+02  0.50528860642E+02  0.30000002407E+02 0.  0.
        -12    1    1    2    0    0 -0.97052181160E+01 -0.36916341565E+02  0.14005644580E+02  0.40659139358E+02  0.00000000000E+00 0.  1.
         11    1    3    3    0    0  0.70768547861E+01  0.20873503121E+01  0.35902682164E+01  0.82054208372E+01  0.51100000000E-03 0.  1.
        -11    1    3    3    0    0 -0.58413480054E+01  0.19708901487E+02 -0.57987138393E+01  0.21358539903E+02  0.51100000000E-03 0. -1.
        -12    1    3    3    0    0  0.84697113353E+01  0.15120089766E+02 -0.11797198957E+02  0.20964899901E+02  0.00000000000E+00 0.  1.
</event>
<event>
 7    1  0.2985411E-011  0.5052886E+02  0.7816164E-02  0.1300439E+00
        -11   -1    0    0    0    0  0.00000000000E+00  0.00000000000E+00  0.45593999997E+02  0.45594000000E+02  0.51100000000E-03 0. -1.
         11   -1    0    0    0    0 -0.00000000000E+00 -0.00000000000E+00 -0.45593999997E+02  0.45594000000E+02  0.51100000000E-03 0.  1.
    9900012    2    1    2    0    0 -0.33689724806E+02  0.21818886997E+02  0.64887941223E+01  0.50528857898E+02  0.29999994066E+02 0.  0.
        -12    1    1    2    0    0  0.33689724806E+02 -0.21818886997E+02 -0.64887941223E+01  0.40659142102E+02  0.00000000000E+00 0.  1.
         11    1    3    3    0    0 -0.18472721289E+01  0.60559356345E+01  0.15949137422E+01  0.65292052222E+01  0.51100000000E-03 0. -1.
        -11    1    3    3    0    0  0.25211199202E+01  0.38422819125E+01 -0.45018849418E+01  0.64332063730E+01  0.51100000000E-03 0.  1.
         12    1    3    3    0    0 -0.34363572598E+02  0.11920669450E+02  0.93957653219E+01  0.37566446303E+02  0.00000000000E+00 0. -1.
</event>
<event>
 7    1  0.2985411E-011  0.5052888E+02  0.7816164E-02  0.1300439E+00
        -11   -1    0    0    0    0  0.00000000000E+00  0.00000000000E+00  0.45593999997E+02  0.45594000000E+02  0.51100000000E-03 0. -1.
         11   -1    0    0    0    0 -0.00000000000E+00 -0.00000000000E+00 -0.45593999997E+02  0.45594000000E+02  0.51100000000E-03 0.  1.
    9900012    2    1    2    0    0  0.38667859189E+01 -0.12315329877E+02  0.38555731437E+02  0.50528882818E+02  0.30000069815E+02 0.  0.
        -12    1    1    2    0    0 -0.38667859189E+01  0.12315329877E+02 -0.38555731437E+02  0.40659117182E+02  0.00000000000E+00 0.  1.
         11    1    3    3    0    0 -0.12344272581E+01 -0.15312179886E+01  0.86604452510E+01  0.88809769390E+01  0.51100000000E-03 0. -1.
        -11    1    3    3    0    0 -0.53979619480E+01 -0.15100520509E+02  0.10478637559E+02  0.19156345115E+02  0.51100000000E-03 0.  1.
         12    1    3    3    0    0  0.10499175125E+02  0.43164086206E+01  0.19416648627E+02  0.22491560764E+02  0.00000000000E+00 0. -1.
</event>
<event>
 7    1  0.2985411E-011  0.5052887E+02  0.7816164E-02  0.1300439E+00
        -11   -1    0    0    0    0  0.00000000000E+00  0.00000000000E+00  0.45593999997E+02  0.45594000000E+02  0.51100000000E-03 0.  1.
         11   -1    0    0    0    0 -0.00000000000E+00 -0.00000000000E+00 -0.45593999997E+02  0.45594000000E+02  0.51100000000E-03 0. -1.
    9900012    2    1    2    0    0  0.24942585457E+02 -0.32032495164E+02  0.22251670750E+01  0.50528872068E+02  0.30000037137E+02 0.  0.
        -12    1    1    2    0    0 -0.24942585457E+02  0.32032495164E+02 -0.22251670750E+01  0.40659127932E+02  0.00000000000E+00 0.  1.
         11    1    3    3    0    0  0.21006764703E+01 -0.13116499012E+02 -0.50291106772E+01  0.14203779160E+02  0.51100000000E-03 0. -1.
        -11    1    3    3    0    0  0.10207037092E+02 -0.14676546193E+02  0.12699379496E+02  0.21928494116E+02  0.51100000000E-03 0.  1.
        -12    1    3    3    0    0  0.12634871895E+02 -0.42394499595E+01 -0.54451017441E+01  0.14396598792E+02  0.00000000000E+00 0.  1.
</event>
<event>
 7    1  0.2985411E-011  0.5052886E+02  0.7816164E-02  0.1300439E+00
        -11   -1    0    0    0    0  0.00000000000E+00  0.00000000000E+00  0.45593999997E+02  0.45594000000E+02  0.51100000000E-03 0.  1.
         11   -1    0    0    0    0 -0.00000000000E+00 -0.00000000000E+00 -0.45593999997E+02  0.45594000000E+02  0.51100000000E-03 0. -1.
    9900012    2    1    2    0    0  0.27170741298E+02  0.26566864628E+02 -0.14460916474E+02  0.50528861002E+02  0.30000003501E+02 0.  0.
        -12    1    1    2    0    0 -0.27170741298E+02 -0.26566864628E+02  0.14460916474E+02  0.40659138998E+02  0.00000000000E+00 0.  1.
         11    1    3    3    0    0  0.14400710191E+02  0.23392661009E+01 -0.77365989259E+01  0.16513860333E+02  0.51100000000E-03 0. -1.
        -11    1    3    3    0    0 -0.25221450479E+00 -0.24264441348E+01 -0.33708279837E+01  0.41609764302E+01  0.51100000000E-03 0.  1.
        -12    1    3    3    0    0  0.13022245612E+02  0.26654042662E+02 -0.33534895639E+01  0.29854024239E+02  0.00000000000E+00 0.  1.
</event>
<event>
 7    1  0.2985411E-011  0.5052886E+02  0.7816164E-02  0.1300439E+00
        -11   -1    0    0    0    0  0.00000000000E+00  0.00000000000E+00  0.45593999997E+02  0.45594000000E+02  0.51100000000E-03 0. -1.
         11   -1    0    0    0    0 -0.00000000000E+00 -0.00000000000E+00 -0.45593999997E+02  0.45594000000E+02  0.51100000000E-03 0.  1.
    9900012    2    1    2    0    0 -0.14137025276E+02  0.22222684647E+02  0.30975194498E+02  0.50528857476E+02  0.29999992784E+02 0.  0.
        -12    1    1    2    0    0  0.14137025276E+02 -0.22222684647E+02 -0.30975194498E+02  0.40659142524E+02  0.00000000000E+00 0.  1.
         11    1    3    3    0    0  0.34425893443E+01  0.16029467761E+02  0.24104739936E+02  0.29151908098E+02  0.51100000000E-03 0. -1.
        -11    1    3    3    0    0 -0.72592076858E+01  0.62624459259E+01  0.13777192820E+01  0.96856820040E+01  0.51100000000E-03 0.  1.
        -12    1    3    3    0    0 -0.10320406935E+02 -0.69229040463E-01  0.54927352809E+01  0.11691267374E+02  0.00000000000E+00 0.  1.
</event>
<event>
 7    1  0.2985411E-011  0.5052886E+02  0.7816164E-02  0.1300439E+00
        -11   -1    0    0    0    0  0.00000000000E+00  0.00000000000E+00  0.45593999997E+02  0.45594000000E+02  0.51100000000E-03 0.  1.
         11   -1    0    0    0    0 -0.00000000000E+00 -0.00000000000E+00 -0.45593999997E+02  0.45594000000E+02  0.51100000000E-03 0. -1.
    9900012    2    1    2    0    0 -0.24193586885E+02 -0.41738685965E+01 -0.32410103476E+02  0.50528860404E+02  0.30000001683E+02 0.  0.
        -12    1    1    2    0    0  0.24193586885E+02  0.41738685965E+01  0.32410103476E+02  0.40659139596E+02  0.00000000000E+00 0.  1.
         11    1    3    3    0    0 -0.77662198722E+01 -0.63500778190E+01 -0.63525179718E+01  0.11874011296E+02  0.51100000000E-03 0. -1.
        -11    1    3    3    0    0 -0.18466448893E+02 -0.26728268768E+01 -0.88312900470E+01  0.20643290009E+02  0.51100000000E-03 0.  1.
         12    1    3    3    0    0  0.20390818804E+01  0.48490360993E+01 -0.17226295457E+02  0.18011559099E+02  0.00000000000E+00 0. -1.
</event>
<event>
 7    1  0.2985411E-011  0.5052886E+02  0.7816164E-02  0.1300439E+00
        -11   -1    0    0    0    0  0.00000000000E+00  0.00000000000E+00  0.45593999997E+02  0.45594000000E+02  0.51100000000E-03 0. -1.
         11   -1    0    0    0    0 -0.00000000000E+00 -0.00000000000E+00 -0.45593999997E+02  0.45594000000E+02  0.51100000000E-03 0.  1.
    9900012    2    1    2    0    0  0.36219451419E+02  0.11471674264E+02  0.14481629969E+02  0.50528861076E+02  0.30000003727E+02 0.  0.
        -12    1    1    2    0    0 -0.36219451419E+02 -0.11471674264E+02 -0.14481629969E+02  0.40659138924E+02  0.00000000000E+00 0.  1.
         11    1    3    3    0    0  0.26622853714E+01  0.26245089161E+01  0.13833054442E+01  0.39861440845E+01  0.51100000000E-03 0. -1.
        -11    1    3    3    0    0  0.77052503890E+01  0.14574853768E+02 -0.10524860665E+01  0.16519835747E+02  0.51100000000E-03 0.  1.
         12    1    3    3    0    0  0.25851915658E+02 -0.57276884205E+01  0.14150810591E+02  0.30022881245E+02  0.00000000000E+00 0. -1.
</event>
<event>
 7    1  0.2985411E-011  0.5052885E+02  0.7816164E-02  0.1300439E+00
        -11   -1    0    0    0    0  0.00000000000E+00  0.00000000000E+00  0.45593999997E+02  0.45594000000E+02  0.51100000000E-03 0.  1.
         11   -1    0    0    0    0 -0.00000000000E+00 -0.00000000000E+00 -0.45593999997E+02  0.45594000000E+02  0.51100000000E-03 0. -1.
    9900012    2    1    2    0    0 -0.11558413887E+02  0.15520132883E+02 -0.35758840770E+02  0.50528854048E+02  0.29999982364E+02 0.  0.
        -12    1    1    2    0    0  0.11558413887E+02 -0.15520132883E+02  0.35758840770E+02  0.40659145952E+02  0.00000000000E+00 0.  1.
         11    1    3    3    0    0  0.30107628255E+01  0.41106083861E+01 -0.14064235119E+02  0.14958760104E+02  0.51100000000E-03 0. -1.
        -11    1    3    3    0    0  0.38252244519E+01  0.72599652927E+01 -0.11519069255E+02  0.14143139500E+02  0.51100000000E-03 0.  1.
         12    1    3    3    0    0 -0.18394401165E+02  0.41495592044E+01 -0.10175536396E+02  0.21426954444E+02  0.00000000000E+00 0. -1.
</event>
<event>
 7    1  0.2985411E-011  0.5052886E+02  0.7816164E-02  0.1300439E+00
        -11   -1    0    0    0    0  0.00000000000E+00  0.00000000000E+00  0.45593999997E+02  0.45594000000E+02  0.51100000000E-03 0.  1.
         11   -1    0    0    0    0 -0.00000000000E+00 -0.00000000000E+00 -0.45593999997E+02  0.45594000000E+02  0.51100000000E-03 0. -1.
    9900012    2    1    2    0    0  0.13896288307E+02  0.37992789542E+02 -0.40751008642E+01  0.50528864090E+02  0.30000012889E+02 0.  0.
        -12    1    1    2    0    0 -0.13896288307E+02 -0.37992789542E+02  0.40751008642E+01  0.40659135910E+02  0.00000000000E+00 0.  1.
         11    1    3    3    0    0 -0.25360130261E+01  0.47244285328E-01  0.26961509687E+01  0.37017326211E+01  0.51100000000E-03 0.  1.
        -11    1    3    3    0    0  0.17579847360E+02  0.14324728368E+02 -0.37823241422E+01  0.22990320838E+02  0.51100000000E-03 0. -1.
         12    1    3    3    0    0 -0.11475460272E+01  0.23620816888E+02 -0.29889276906E+01  0.23836810632E+02  0.00000000000E+00 0. -1.
</event>
<event>
 7    1  0.2985411E-011  0.5052885E+02  0.7816164E-02  0.1300439E+00
        -11   -1    0    0    0    0  0.00000000000E+00  0.00000000000E+00  0.45593999997E+02  0.45594000000E+02  0.51100000000E-03 0.  1.
         11   -1    0    0    0    0 -0.00000000000E+00 -0.00000000000E+00 -0.45593999997E+02  0.45594000000E+02  0.51100000000E-03 0. -1.
    9900012    2    1    2    0    0  0.16466083376E+02 -0.28551047924E+02 -0.23809083643E+02  0.50528847239E+02  0.29999961668E+02 0.  0.
        -12    1    1    2    0    0 -0.16466083376E+02  0.28551047924E+02  0.23809083643E+02  0.40659152761E+02  0.00000000000E+00 0.  1.
         11    1    3    3    0    0  0.44438605406E+01 -0.99808037478E-02 -0.38012483902E+01  0.58478616353E+01  0.51100000000E-03 0.  1.
        -11    1    3    3    0    0  0.17426106899E+02 -0.17267233180E+02 -0.20786942478E+02  0.32154681171E+02  0.51100000000E-03 0. -1.
        -12    1    3    3    0    0 -0.54038840636E+01 -0.11273833940E+02  0.77910722477E+00  0.12526304433E+02  0.00000000000E+00 0.  1.
</event>
<event>
 7    1  0.2985411E-011  0.5052885E+02  0.7816164E-02  0.1300439E+00
        -11   -1    0    0    0    0  0.00000000000E+00  0.00000000000E+00  0.45593999997E+02  0.45594000000E+02  0.51100000000E-03 0.  1.
         11   -1    0    0    0    0 -0.00000000000E+00 -0.00000000000E+00 -0.45593999997E+02  0.45594000000E+02  0.51100000000E-03 0. -1.
    9900012    2    1    2    0    0 -0.17652634071E+02 -0.30469919095E+02 -0.20325715452E+02  0.50528853822E+02  0.29999981678E+02 0.  0.
        -12    1    1    2    0    0  0.17652634071E+02  0.30469919095E+02  0.20325715452E+02  0.40659146178E+02  0.00000000000E+00 0.  1.
         11    1    3    3    0    0  0.25964213527E+01 -0.93166485096E+01 -0.89637611340E+01  0.13186749305E+02  0.51100000000E-03 0. -1.
        -11    1    3    3    0    0 -0.35751555146E+01 -0.12808760996E+02  0.32072683542E+01  0.13679644212E+02  0.51100000000E-03 0.  1.
         12    1    3    3    0    0 -0.16673899909E+02 -0.83445095890E+01 -0.14569222672E+02  0.23662460306E+02  0.00000000000E+00 0. -1.
</event>
<event>
 7    1  0.2985411E-011  0.5052887E+02  0.7816164E-02  0.1300439E+00
        -11   -1    0    0    0    0  0.00000000000E+00  0.00000000000E+00  0.45593999997E+02  0.45594000000E+02  0.51100000000E-03 0.  1.
         11   -1    0    0    0    0 -0.00000000000E+00 -0.00000000000E+00 -0.45593999997E+02  0.45594000000E+02  0.51100000000E-03 0. -1.
    9900012    2    1    2    0    0  0.25373051532E+02 -0.31634915404E+02 -0.29334310885E+01  0.50528872678E+02  0.30000038992E+02 0.  0.
        -12    1    1    2    0    0 -0.25373051532E+02  0.31634915404E+02  0.29334310885E+01  0.40659127322E+02  0.00000000000E+00 0.  1.
         11    1    3    3    0    0  0.98311724144E-01 -0.72420739057E+01 -0.55503361997E+01  0.91248853057E+01  0.51100000000E-03 0. -1.
        -11    1    3    3    0    0 -0.34192780782E+01 -0.69181732081E+01  0.17389960792E+00  0.77189911548E+01  0.51100000000E-03 0.  1.
         12    1    3    3    0    0  0.28694017886E+02 -0.17474668290E+02  0.24430055033E+01  0.33684996217E+02  0.00000000000E+00 0. -1.
</event>
<event>
 7    1  0.2985411E-011  0.5052883E+02  0.7816164E-02  0.1300439E+00
        -11   -1    0    0    0    0  0.00000000000E+00  0.00000000000E+00  0.45593999997E+02  0.45594000000E+02  0.51100000000E-03 0.  1.
         11   -1    0    0    0    0 -0.00000000000E+00 -0.00000000000E+00 -0.45593999997E+02  0.45594000000E+02  0.51100000000E-03 0. -1.
    9900012    2    1    2    0    0  0.15547881120E+02 -0.21817627407E+02 -0.30584675338E+02  0.50528833278E+02  0.29999919233E+02 0.  0.
        -12    1    1    2    0    0 -0.15547881120E+02  0.21817627407E+02  0.30584675338E+02  0.40659166722E+02  0.00000000000E+00 0.  1.
         11    1    3    3    0    0 -0.18874117581E+01 -0.48637488016E+00 -0.95763065854E+01  0.97726420045E+01  0.51100000000E-03 0. -1.
        -11    1    3    3    0    0  0.11328585024E+02 -0.25243935529E+02 -0.16449817724E+02  0.32189899395E+02  0.51100000000E-03 0.  1.
         12    1    3    3    0    0  0.61067078541E+01  0.39126830017E+01 -0.45585510279E+01  0.85662918792E+01  0.00000000000E+00 0. -1.
</event>
<event>
 7    1  0.2985411E-011  0.5052884E+02  0.7816164E-02  0.1300439E+00
        -11   -1    0    0    0    0  0.00000000000E+00  0.00000000000E+00  0.45593999997E+02  0.45594000000E+02  0.51100000000E-03 0.  1.
         11   -1    0    0    0    0 -0.00000000000E+00 -0.00000000000E+00 -0.45593999997E+02  0.45594000000E+02  0.51100000000E-03 0. -1.
    9900012    2    1    2    0    0  0.15185980739E+02  0.37070603500E+02  0.69515054556E+01  0.50528842569E+02  0.29999947474E+02 0.  0.
        -12    1    1    2    0    0 -0.15185980739E+02 -0.37070603500E+02 -0.69515054556E+01  0.40659157431E+02  0.00000000000E+00 0.  1.
         11    1    3    3    0    0 -0.29142602302E-01 -0.14803238200E+01  0.26509144848E+01  0.30363721396E+01  0.51100000000E-03 0. -1.
        -11    1    3    3    0    0  0.47136454342E+01  0.41421520853E+01  0.92504213589E+01  0.11177932401E+02  0.51100000000E-03 0.  1.
         12    1    3    3    0    0  0.10501477907E+02  0.34408775235E+02 -0.49498303881E+01  0.36314538029E+02  0.00000000000E+00 0. -1.
</event>
<event>
 7    1  0.2985411E-011  0.5052880E+02  0.7816164E-02  0.1300439E+00
        -11   -1    0    0    0    0  0.00000000000E+00  0.00000000000E+00  0.45593999997E+02  0.45594000000E+02  0.51100000000E-03 0. -1.
         11   -1    0    0    0    0 -0.00000000000E+00 -0.00000000000E+00 -0.45593999997E+02  0.45594000000E+02  0.51100000000E-03 0.  1.
    9900012    2    1    2    0    0  0.19073125025E+02  0.79887237034E+01  0.35008090423E+02  0.50528804242E+02  0.29999830973E+02 0.  0.
        -12    1    1    2    0    0 -0.19073125025E+02 -0.79887237034E+01 -0.35008090423E+02  0.40659195758E+02  0.00000000000E+00 0.  1.
         11    1    3    3    0    0  0.14034972467E+02  0.57771740674E+01  0.91458973707E+01  0.17720147610E+02  0.51100000000E-03 0. -1.
        -11    1    3    3    0    0  0.20587220512E+01 -0.77379184977E+01  0.48279800716E+01  0.93500326734E+01  0.51100000000E-03 0.  1.
         12    1    3    3    0    0  0.29794305073E+01  0.99494681337E+01  0.21034212981E+02  0.23458623958E+02  0.00000000000E+00 0. -1.
</event>
<event>
 7    1  0.2985411E-011  0.5052885E+02  0.7816164E-02  0.1300439E+00
        -11   -1    0    0    0    0  0.00000000000E+00  0.00000000000E+00  0.45593999997E+02  0.45594000000E+02  0.51100000000E-03 0. -1.
         11   -1    0    0    0    0 -0.00000000000E+00 -0.00000000000E+00 -0.45593999997E+02  0.45594000000E+02  0.51100000000E-03 0.  1.
    9900012    2    1    2    0    0  0.63006868475E+01 -0.16032584154E+02  0.36829659437E+02  0.50528853137E+02  0.29999979595E+02 0.  0.
        -12    1    1    2    0    0 -0.63006868475E+01  0.16032584154E+02 -0.36829659437E+02  0.40659146863E+02  0.00000000000E+00 0.  1.
         11    1    3    3    0    0 -0.50260316544E+01 -0.12749993876E+02  0.29225430718E+02  0.32279236963E+02  0.51100000000E-03 0. -1.
        -11    1    3    3    0    0  0.66551169751E+01  0.37628752089E+01  0.14212344131E+01  0.77762278329E+01  0.51100000000E-03 0.  1.
        -12    1    3    3    0    0  0.46716015267E+01 -0.70454654873E+01  0.61829943058E+01  0.10473388341E+02  0.00000000000E+00 0.  1.
</event>
<event>
 7    1  0.2985411E-011  0.5052885E+02  0.7816164E-02  0.1300439E+00
        -11   -1    0    0    0    0  0.00000000000E+00  0.00000000000E+00  0.45593999997E+02  0.45594000000E+02  0.51100000000E-03 0.  1.
         11   -1    0    0    0    0 -0.00000000000E+00 -0.00000000000E+00 -0.45593999997E+02  0.45594000000E+02  0.51100000000E-03 0. -1.
    9900012    2    1    2    0    0 -0.93796327389E+00 -0.40303896602E+02 -0.52804376284E+01  0.50528845090E+02  0.29999955136E+02 0.  0.
        -12    1    1    2    0    0  0.93796327389E+00  0.40303896602E+02  0.52804376284E+01  0.40659154910E+02  0.00000000000E+00 0.  1.
         11    1    3    3    0    0  0.69845650230E+01 -0.26792731771E+01 -0.94027076600E+00  0.75396792168E+01  0.51100000000E-03 0.  1.
        -11    1    3    3    0    0  0.50615321741E+01 -0.35013529918E+01  0.42627303112E+00  0.61693022037E+01  0.51100000000E-03 0. -1.
        -12    1    3    3    0    0 -0.12984060471E+02 -0.34123270433E+02 -0.47664398935E+01  0.36819863670E+02  0.00000000000E+00 0.  1.
</event>
<event>
 7    1  0.2985411E-011  0.5052886E+02  0.7816164E-02  0.1300439E+00
        -11   -1    0    0    0    0  0.00000000000E+00  0.00000000000E+00  0.45593999997E+02  0.45594000000E+02  0.51100000000E-03 0.  1.
         11   -1    0    0    0    0 -0.00000000000E+00 -0.00000000000E+00 -0.45593999997E+02  0.45594000000E+02  0.51100000000E-03 0. -1.
    9900012    2    1    2    0    0  0.68652494987E+01  0.34506278268E+02 -0.20380153247E+02  0.50528861581E+02  0.30000005263E+02 0.  0.
        -12    1    1    2    0    0 -0.68652494987E+01 -0.34506278268E+02  0.20380153247E+02  0.40659138419E+02  0.00000000000E+00 0.  1.
         11    1    3    3    0    0 -0.82920554922E+01  0.12259681917E+02 -0.10736514384E+02  0.18284712915E+02  0.51100000000E-03 0. -1.
        -11    1    3    3    0    0  0.39132035074E+01 -0.16906679352E+01 -0.66132792629E+00  0.43138004874E+01  0.51100000000E-03 0.  1.
         12    1    3    3    0    0  0.11244101483E+02  0.23937264286E+02 -0.89823109362E+01  0.27930348179E+02  0.00000000000E+00 0. -1.
</event>
<event>
 7    1  0.2985411E-011  0.5052886E+02  0.7816164E-02  0.1300439E+00
        -11   -1    0    0    0    0  0.00000000000E+00  0.00000000000E+00  0.45593999997E+02  0.45594000000E+02  0.51100000000E-03 0.  1.
         11   -1    0    0    0    0 -0.00000000000E+00 -0.00000000000E+00 -0.45593999997E+02  0.45594000000E+02  0.51100000000E-03 0. -1.
    9900012    2    1    2    0    0  0.51012365409E+01  0.71624338601E+00 -0.40331502325E+02  0.50528859593E+02  0.29999999218E+02 0.  0.
        -12    1    1    2    0    0 -0.51012365409E+01 -0.71624338601E+00  0.40331502325E+02  0.40659140407E+02  0.00000000000E+00 0.  1.
         11    1    3    3    0    0  0.73679225877E+01 -0.11165584862E+01 -0.55149978552E+01  0.92708245435E+01  0.51100000000E-03 0. -1.
        -11    1    3    3    0    0 -0.11502223701E+01 -0.35424707356E+00  0.30671766652E+01  0.32948559068E+01  0.51100000000E-03 0.  1.
        -12    1    3    3    0    0 -0.11164636767E+01  0.21870489458E+01 -0.37883681135E+02  0.37963179142E+02  0.00000000000E+00 0.  1.
</event>
<event>
 7    1  0.2985411E-011  0.5052884E+02  0.7816164E-02  0.1300439E+00
        -11   -1    0    0    0    0  0.00000000000E+00  0.00000000000E+00  0.45593999997E+02  0.45594000000E+02  0.51100000000E-03 0. -1.
         11   -1    0    0    0    0 -0.00000000000E+00 -0.00000000000E+00 -0.45593999997E+02  0.45594000000E+02  0.51100000000E-03 0.  1.
    9900012    2    1    2    0    0 -0.27281235198E+02 -0.60792808853E+01  0.29528700595E+02  0.50528836102E+02  0.29999927816E+02 0.  0.
        -12    1    1    2    0    0  0.27281235198E+02  0.60792808853E+01 -0.29528700595E+02  0.40659163898E+02  0.00000000000E+00 0.  1.
         11    1    3    3    0    0 -0.80679139072E+01 -0.36123219696E+01  0.52740754079E+01  0.10293491949E+02  0.51100000000E-03 0. -1.
        -11    1    3    3    0    0 -0.19630717128E+02 -0.90012198307E+01  0.85616230138E+01  0.23231194595E+02  0.51100000000E-03 0.  1.
        -12    1    3    3    0    0  0.41739583739E+00  0.65342609150E+01  0.15693002174E+02  0.17004149559E+02  0.00000000000E+00 0.  1.
</event>
<event>
 7    1  0.2985411E-011  0.5052886E+02  0.7816164E-02  0.1300439E+00
        -11   -1    0    0    0    0  0.00000000000E+00  0.00000000000E+00  0.45593999997E+02  0.45594000000E+02  0.51100000000E-03 0.  1.
         11   -1    0    0    0    0 -0.00000000000E+00 -0.00000000000E+00 -0.45593999997E+02  0.45594000000E+02  0.51100000000E-03 0. -1.
    9900012    2    1    2    0    0 -0.14494446062E+02 -0.35646917395E+02  0.13129131160E+02  0.50528858698E+02  0.29999996498E+02 0.  0.
        -12    1    1    2    0    0  0.14494446062E+02  0.35646917395E+02 -0.13129131160E+02  0.40659141302E+02  0.00000000000E+00 0.  1.
         11    1    3    3    0    0 -0.17042310541E+02 -0.14479730776E+02 -0.41067285913E+00  0.22366752209E+02  0.51100000000E-03 0. -1.
        -11    1    3    3    0    0 -0.50028025084E+01 -0.65555035184E+01  0.45135932099E+01  0.94008075846E+01  0.51100000000E-03 0.  1.
        -12    1    3    3    0    0  0.75506669876E+01 -0.14611683100E+02  0.90262108093E+01  0.18761298904E+02  0.00000000000E+00 0.  1.
</event>
<event>
 7    1  0.2985411E-011  0.5052886E+02  0.7816164E-02  0.1300439E+00
        -11   -1    0    0    0    0  0.00000000000E+00  0.00000000000E+00  0.45593999997E+02  0.45594000000E+02  0.51100000000E-03 0.  1.
         11   -1    0    0    0    0 -0.00000000000E+00 -0.00000000000E+00 -0.45593999997E+02  0.45594000000E+02  0.51100000000E-03 0. -1.
    9900012    2    1    2    0    0 -0.13852188441E+02  0.21539440592E+02 -0.31580609132E+02  0.50528862051E+02  0.30000006692E+02 0.  0.
        -12    1    1    2    0    0  0.13852188441E+02 -0.21539440592E+02  0.31580609132E+02  0.40659137949E+02  0.00000000000E+00 0.  1.
         11    1    3    3    0    0  0.47647440884E+01  0.22486207517E+01 -0.47954757125E+01  0.71243013049E+01  0.51100000000E-03 0. -1.
        -11    1    3    3    0    0  0.40146920261E+01  0.12007900607E+01 -0.75274364650E+01  0.86152161221E+01  0.51100000000E-03 0.  1.
        -12    1    3    3    0    0 -0.22631624555E+02  0.18090029779E+02 -0.19257696954E+02  0.34789344624E+02  0.00000000000E+00 0.  1.
</event>
<event>
 7    1  0.2985411E-011  0.5052886E+02  0.7816164E-02  0.1300439E+00
        -11   -1    0    0    0    0  0.00000000000E+00  0.00000000000E+00  0.45593999997E+02  0.45594000000E+02  0.51100000000E-03 0. -1.
         11   -1    0    0    0    0 -0.00000000000E+00 -0.00000000000E+00 -0.45593999997E+02  0.45594000000E+02  0.51100000000E-03 0.  1.
    9900012    2    1    2    0    0 -0.25458088031E+02 -0.28757520272E+02 -0.13343793397E+02  0.50528855388E+02  0.29999986438E+02 0.  0.
        -12    1    1    2    0    0  0.25458088031E+02  0.28757520272E+02  0.13343793397E+02  0.40659144612E+02  0.00000000000E+00 0.  1.
         11    1    3    3    0    0 -0.10231859333E+02 -0.14103907386E+02 -0.13824862808E+02  0.22242706240E+02  0.51100000000E-03 0. -1.
        -11    1    3    3    0    0  0.25553665515E+01 -0.82985157281E+01  0.31051648571E+01  0.92215676841E+01  0.51100000000E-03 0.  1.
         12    1    3    3    0    0 -0.17781595249E+02 -0.63550971576E+01 -0.26240954465E+01  0.19064581464E+02  0.00000000000E+00 0. -1.
</event>
<event>
 7    1  0.2985411E-011  0.5052886E+02  0.7816164E-02  0.1300439E+00
        -11   -1    0    0    0    0  0.00000000000E+00  0.00000000000E+00  0.45593999997E+02  0.45594000000E+02  0.51100000000E-03 0. -1.
         11   -1    0    0    0    0 -0.00000000000E+00 -0.00000000000E+00 -0.45593999997E+02  0.45594000000E+02  0.51100000000E-03 0.  1.
    9900012    2    1    2    0    0  0.14944996054E+02  0.37812679747E+02 -0.11672535455E+00  0.50528864723E+02  0.30000014811E+02 0.  0.
        -12    1    1    2    0    0 -0.14944996054E+02 -0.37812679747E+02  0.11672535455E+00  0.40659135277E+02  0.00000000000E+00 0.  1.
         11    1    3    3    0    0  0.79106560446E+01  0.85254583661E+01  0.10916133348E+02  0.15950670423E+02  0.51100000000E-03 0. -1.
        -11    1    3    3    0    0 -0.11489283092E+01 -0.67533588494E+00  0.53213913559E+00  0.14350216507E+01  0.51100000000E-03 0.  1.
        -12    1    3    3    0    0  0.81832683189E+01  0.29962557266E+02 -0.11564997838E+02  0.33143172649E+02  0.00000000000E+00 0.  1.
</event>
<event>
 7    1  0.2985411E-011  0.5052887E+02  0.7816164E-02  0.1300439E+00
        -11   -1    0    0    0    0  0.00000000000E+00  0.00000000000E+00  0.45593999997E+02  0.45594000000E+02  0.51100000000E-03 0. -1.
         11   -1    0    0    0    0 -0.00000000000E+00 -0.00000000000E+00 -0.45593999997E+02  0.45594000000E+02  0.51100000000E-03 0.  1.
    9900012    2    1    2    0    0  0.17519960152E+02  0.36413052434E+02  0.45062003297E+01  0.50528865323E+02  0.30000016635E+02 0.  0.
        -12    1    1    2    0    0 -0.17519960152E+02 -0.36413052434E+02 -0.45062003297E+01  0.40659134677E+02  0.00000000000E+00 0.  1.
         11    1    3    3    0    0  0.81343659969E+01  0.10028818260E+02  0.13516142062E+02  0.18693078996E+02  0.51100000000E-03 0. -1.
        -11    1    3    3    0    0  0.38659824190E+00 -0.10671846704E+01 -0.16870105387E+01  0.20333091600E+01  0.51100000000E-03 0.  1.
         12    1    3    3    0    0  0.89989959130E+01  0.27451418844E+02 -0.73229311933E+01  0.29802477167E+02  0.00000000000E+00 0. -1.
</event>
<event>
 7    1  0.2985411E-011  0.5052886E+02  0.7816164E-02  0.1300439E+00
        -11   -1    0    0    0    0  0.00000000000E+00  0.00000000000E+00  0.45593999997E+02  0.45594000000E+02  0.51100000000E-03 0. -1.
         11   -1    0    0    0    0 -0.00000000000E+00 -0.00000000000E+00 -0.45593999997E+02  0.45594000000E+02  0.51100000000E-03 0.  1.
    9900012    2    1    2    0    0  0.29850441183E+02 -0.24544533233E+02  0.12636547026E+02  0.50528864850E+02  0.30000015197E+02 0.  0.
        -12    1    1    2    0    0 -0.29850441183E+02  0.24544533233E+02 -0.12636547026E+02  0.40659135150E+02  0.00000000000E+00 0.  1.
         11    1    3    3    0    0  0.24186450544E+00  0.47358662993E+01  0.29007530221E+01  0.55588934510E+01  0.51100000000E-03 0.  1.
        -11    1    3    3    0    0  0.14461931204E+02 -0.16581202965E+02  0.12022273660E+02  0.25072271739E+02  0.51100000000E-03 0. -1.
        -12    1    3    3    0    0  0.15146645473E+02 -0.12699196567E+02 -0.22864796555E+01  0.19897699660E+02  0.00000000000E+00 0.  1.
</event>
<event>
 7    1  0.2985411E-011  0.5052886E+02  0.7816164E-02  0.1300439E+00
        -11   -1    0    0    0    0  0.00000000000E+00  0.00000000000E+00  0.45593999997E+02  0.45594000000E+02  0.51100000000E-03 0. -1.
         11   -1    0    0    0    0 -0.00000000000E+00 -0.00000000000E+00 -0.45593999997E+02  0.45594000000E+02  0.51100000000E-03 0.  1.
    9900012    2    1    2    0    0 -0.14628806173E+02  0.13911392018E+02  0.35293579405E+02  0.50528861481E+02  0.30000004956E+02 0.  0.
        -12    1    1    2    0    0  0.14628806173E+02 -0.13911392018E+02 -0.35293579405E+02  0.40659138519E+02  0.00000000000E+00 0.  1.
         11    1    3    3    0    0  0.76332590060E+01  0.46671608786E+01  0.79576190293E+01  0.11973835417E+02  0.51100000000E-03 0.  1.
        -11    1    3    3    0    0 -0.60944479339E+01 -0.25062493492E+01  0.35441836128E+01  0.74823003923E+01  0.51100000000E-03 0. -1.
        -12    1    3    3    0    0 -0.16167617245E+02  0.11750480488E+02  0.23791776763E+02  0.31072725671E+02  0.00000000000E+00 0.  1.
</event>
<event>
 7    1  0.2985411E-011  0.5052886E+02  0.7816164E-02  0.1300439E+00
        -11   -1    0    0    0    0  0.00000000000E+00  0.00000000000E+00  0.45593999997E+02  0.45594000000E+02  0.51100000000E-03 0.  1.
         11   -1    0    0    0    0 -0.00000000000E+00 -0.00000000000E+00 -0.45593999997E+02  0.45594000000E+02  0.51100000000E-03 0. -1.
    9900012    2    1    2    0    0 -0.20734111317E+02  0.31369549676E+02 -0.15466524209E+02  0.50528863387E+02  0.30000010751E+02 0.  0.
        -12    1    1    2    0    0  0.20734111317E+02 -0.31369549676E+02  0.15466524209E+02  0.40659136613E+02  0.00000000000E+00 0.  1.
         11    1    3    3    0    0 -0.53378925675E+01  0.24925503261E+02 -0.10221517735E+02  0.27463671184E+02  0.51100000000E-03 0. -1.
        -11    1    3    3    0    0  0.30084890684E+01  0.69543082450E+00 -0.14600954929E+01  0.34156272653E+01  0.51100000000E-03 0.  1.
        -12    1    3    3    0    0 -0.18404707818E+02  0.57486155908E+01 -0.37849109816E+01  0.19649564937E+02  0.00000000000E+00 0.  1.
</event>
<event>
 7    1  0.2985411E-011  0.5052887E+02  0.7816164E-02  0.1300439E+00
        -11   -1    0    0    0    0  0.00000000000E+00  0.00000000000E+00  0.45593999997E+02  0.45594000000E+02  0.51100000000E-03 0.  1.
         11   -1    0    0    0    0 -0.00000000000E+00 -0.00000000000E+00 -0.45593999997E+02  0.45594000000E+02  0.51100000000E-03 0. -1.
    9900012    2    1    2    0    0 -0.34276109485E+00  0.13174838220E+02 -0.38463892718E+02  0.50528869533E+02  0.30000029433E+02 0.  0.
        -12    1    1    2    0    0  0.34276109485E+00 -0.13174838220E+02  0.38463892718E+02  0.40659130467E+02  0.00000000000E+00 0.  1.
         11    1    3    3    0    0  0.10183210028E+02  0.18434012960E+01 -0.98836500349E+01  0.14310221280E+02  0.51100000000E-03 0. -1.
        -11    1    3    3    0    0 -0.43311640965E+01 -0.36651306770E+01 -0.48088864066E+01  0.74375771622E+01  0.51100000000E-03 0.  1.
         12    1    3    3    0    0 -0.61948070266E+01  0.14996567601E+02 -0.23771356276E+02  0.28781071091E+02  0.00000000000E+00 0. -1.
</event>
<event>
 7    1  0.2985411E-011  0.5052884E+02  0.7816164E-02  0.1300439E+00
        -11   -1    0    0    0    0  0.00000000000E+00  0.00000000000E+00  0.45593999997E+02  0.45594000000E+02  0.51100000000E-03 0.  1.
         11   -1    0    0    0    0 -0.00000000000E+00 -0.00000000000E+00 -0.45593999997E+02  0.45594000000E+02  0.51100000000E-03 0. -1.
    9900012    2    1    2    0    0  0.39292629236E+02 -0.10027362516E+02 -0.29509804985E+01  0.50528843624E+02  0.29999950679E+02 0.  0.
        -12    1    1    2    0    0 -0.39292629236E+02  0.10027362516E+02  0.29509804985E+01  0.40659156376E+02  0.00000000000E+00 0.  1.
         11    1    3    3    0    0  0.22224139271E+02 -0.29623421477E+01  0.56858845166E+01  0.23130437098E+02  0.51100000000E-03 0. -1.
        -11    1    3    3    0    0  0.86824843860E+01  0.26293796306E+01  0.35212525494E+01  0.97313098878E+01  0.51100000000E-03 0.  1.
        -12    1    3    3    0    0  0.83860055788E+01 -0.96943999994E+01 -0.12158117565E+02  0.17667096638E+02  0.00000000000E+00 0.  1.
</event>
<event>
 7    1  0.2985411E-011  0.5052886E+02  0.7816164E-02  0.1300439E+00
        -11   -1    0    0    0    0  0.00000000000E+00  0.00000000000E+00  0.45593999997E+02  0.45594000000E+02  0.51100000000E-03 0. -1.
         11   -1    0    0    0    0 -0.00000000000E+00 -0.00000000000E+00 -0.45593999997E+02  0.45594000000E+02  0.51100000000E-03 0.  1.
    9900012    2    1    2    0    0  0.37653466581E+02  0.15241104870E+02 -0.17580325850E+01  0.50528862014E+02  0.30000006576E+02 0.  0.
        -12    1    1    2    0    0 -0.37653466581E+02 -0.15241104870E+02  0.17580325850E+01  0.40659137986E+02  0.00000000000E+00 0.  1.
         11    1    3    3    0    0  0.52796386722E+01  0.92073599350E+00  0.83682095356E+01  0.99372667455E+01  0.51100000000E-03 0. -1.
        -11    1    3    3    0    0  0.15136738225E+01  0.64082438541E+01  0.13643195665E+01  0.67244453954E+01  0.51100000000E-03 0.  1.
        -12    1    3    3    0    0  0.30860154086E+02  0.79121250223E+01 -0.11490561687E+02  0.33867149873E+02  0.00000000000E+00 0.  1.
</event>
<event>
 7    1  0.2985411E-011  0.5052886E+02  0.7816164E-02  0.1300439E+00
        -11   -1    0    0    0    0  0.00000000000E+00  0.00000000000E+00  0.45593999997E+02  0.45594000000E+02  0.51100000000E-03 0.  1.
         11   -1    0    0    0    0 -0.00000000000E+00 -0.00000000000E+00 -0.45593999997E+02  0.45594000000E+02  0.51100000000E-03 0. -1.
    9900012    2    1    2    0    0  0.26216383784E+02  0.30508637124E+01 -0.30928296265E+02  0.50528855174E+02  0.29999985788E+02 0.  0.
        -12    1    1    2    0    0 -0.26216383784E+02 -0.30508637124E+01  0.30928296265E+02  0.40659144826E+02  0.00000000000E+00 0.  1.
         11    1    3    3    0    0  0.15047244695E+02  0.12063918670E+02 -0.15433686952E+02  0.24701344088E+02  0.51100000000E-03 0. -1.
        -11    1    3    3    0    0  0.44173702706E+01  0.39454530643E+01 -0.32043606351E+01  0.67340691510E+01  0.51100000000E-03 0.  1.
         12    1    3    3    0    0  0.67517688183E+01 -0.12958508022E+02 -0.12290248679E+02  0.19093441935E+02  0.00000000000E+00 0. -1.
</event>
<event>
 7    1  0.2985411E-011  0.5052886E+02  0.7816164E-02  0.1300439E+00
        -11   -1    0    0    0    0  0.00000000000E+00  0.00000000000E+00  0.45593999997E+02  0.45594000000E+02  0.51100000000E-03 0. -1.
         11   -1    0    0    0    0 -0.00000000000E+00 -0.00000000000E+00 -0.45593999997E+02  0.45594000000E+02  0.51100000000E-03 0.  1.
    9900012    2    1    2    0    0 -0.99578774023E+00 -0.23599137649E+01  0.40578376872E+02  0.50528862579E+02  0.30000008296E+02 0.  0.
        -12    1    1    2    0    0  0.99578774023E+00  0.23599137649E+01 -0.40578376872E+02  0.40659137421E+02  0.00000000000E+00 0.  1.
         11    1    3    3    0    0 -0.51862881984E+01 -0.43577630841E+01  0.12902591133E+01  0.68958286822E+01  0.51100000000E-03 0. -1.
        -11    1    3    3    0    0  0.77571438408E+00 -0.78784621532E+01  0.11649466736E+02  0.14084813602E+02  0.51100000000E-03 0.  1.
         12    1    3    3    0    0  0.34147860741E+01  0.98763114723E+01  0.27638651023E+02  0.29548220295E+02  0.00000000000E+00 0. -1.
</event>
<event>
 7    1  0.2985411E-011  0.5052887E+02  0.7816164E-02  0.1300439E+00
        -11   -1    0    0    0    0  0.00000000000E+00  0.00000000000E+00  0.45593999997E+02  0.45594000000E+02  0.51100000000E-03 0.  1.
         11   -1    0    0    0    0 -0.00000000000E+00 -0.00000000000E+00 -0.45593999997E+02  0.45594000000E+02  0.51100000000E-03 0. -1.
    9900012    2    1    2    0    0  0.22367182774E+02 -0.22641835255E+02 -0.25302588719E+02  0.50528873535E+02  0.30000041597E+02 0.  0.
        -12    1    1    2    0    0 -0.22367182774E+02  0.22641835255E+02  0.25302588719E+02  0.40659126465E+02  0.00000000000E+00 0.  1.
         11    1    3    3    0    0  0.11994645038E+02 -0.30024297609E+01 -0.11841538159E+02  0.17120400704E+02  0.51100000000E-03 0. -1.
        -11    1    3    3    0    0  0.12135001561E+02 -0.81629264483E+01  0.12373071488E+01  0.14677280413E+02  0.51100000000E-03 0.  1.
         12    1    3    3    0    0 -0.17624638246E+01 -0.11476479046E+02 -0.14698357709E+02  0.18731192417E+02  0.00000000000E+00 0. -1.
</event>
<event>
 7    1  0.2985411E-011  0.5052882E+02  0.7816164E-02  0.1300439E+00
        -11   -1    0    0    0    0  0.00000000000E+00  0.00000000000E+00  0.45593999997E+02  0.45594000000E+02  0.51100000000E-03 0.  1.
         11   -1    0    0    0    0 -0.00000000000E+00 -0.00000000000E+00 -0.45593999997E+02  0.45594000000E+02  0.51100000000E-03 0. -1.
    9900012    2    1    2    0    0 -0.28653523250E+02  0.28843034275E+02  0.47358587659E+00  0.50528815251E+02  0.29999864438E+02 0.  0.
        -12    1    1    2    0    0  0.28653523250E+02 -0.28843034275E+02 -0.47358587659E+00  0.40659184749E+02  0.00000000000E+00 0.  1.
         11    1    3    3    0    0 -0.27605748985E-01 -0.72056452772E+00 -0.42217664002E+01  0.42829063864E+01  0.51100000000E-03 0. -1.
        -11    1    3    3    0    0 -0.17925118575E+02  0.43632058660E+01  0.38994839862E+01  0.18856124124E+02  0.51100000000E-03 0.  1.
         12    1    3    3    0    0 -0.10700798926E+02  0.25200392937E+02  0.79586829057E+00  0.27389784741E+02  0.00000000000E+00 0. -1.
</event>
<event>
 7    1  0.2985411E-011  0.5052887E+02  0.7816164E-02  0.1300439E+00
        -11   -1    0    0    0    0  0.00000000000E+00  0.00000000000E+00  0.45593999997E+02  0.45594000000E+02  0.51100000000E-03 0.  1.
         11   -1    0    0    0    0 -0.00000000000E+00 -0.00000000000E+00 -0.45593999997E+02  0.45594000000E+02  0.51100000000E-03 0. -1.
    9900012    2    1    2    0    0 -0.28520784685E+02  0.19392634102E+02 -0.21532667185E+02  0.50528866063E+02  0.30000018884E+02 0.  0.
        -12    1    1    2    0    0  0.28520784685E+02 -0.19392634102E+02  0.21532667185E+02  0.40659133937E+02  0.00000000000E+00 0.  1.
         11    1    3    3    0    0 -0.11712412597E+02  0.41670111929E+01 -0.75201714874E+01  0.14529197177E+02  0.51100000000E-03 0. -1.
        -11    1    3    3    0    0 -0.20130293674E+02  0.11738336849E+02 -0.23975366836E+01  0.23425743484E+02  0.51100000000E-03 0.  1.
         12    1    3    3    0    0  0.33219215872E+01  0.34872860602E+01 -0.11614959014E+02  0.12573925401E+02  0.00000000000E+00 0. -1.
</event>
<event>
 7    1  0.2985411E-011  0.5052886E+02  0.7816164E-02  0.1300439E+00
        -11   -1    0    0    0    0  0.00000000000E+00  0.00000000000E+00  0.45593999997E+02  0.45594000000E+02  0.51100000000E-03 0. -1.
         11   -1    0    0    0    0 -0.00000000000E+00 -0.00000000000E+00 -0.45593999997E+02  0.45594000000E+02  0.51100000000E-03 0.  1.
    9900012    2    1    2    0    0  0.61745645126E+01  0.36286221266E+02  0.17272816300E+02  0.50528864697E+02  0.30000014732E+02 0.  0.
        -12    1    1    2    0    0 -0.61745645126E+01 -0.36286221266E+02 -0.17272816300E+02  0.40659135303E+02  0.00000000000E+00 0.  1.
         11    1    3    3    0    0  0.39499064404E+01  0.18180629442E+01  0.60308212571E+01  0.74349121753E+01  0.51100000000E-03 0. -1.
        -11    1    3    3    0    0  0.79823792155E+01  0.33401382423E+02  0.13385275648E+02  0.36858327826E+02  0.51100000000E-03 0.  1.
         12    1    3    3    0    0 -0.57577211433E+01  0.10667758989E+01 -0.21432806058E+01  0.62356246951E+01  0.00000000000E+00 0. -1.
</event>
<event>
 7    1  0.2985411E-011  0.5052886E+02  0.7816164E-02  0.1300439E+00
        -11   -1    0    0    0    0  0.00000000000E+00  0.00000000000E+00  0.45593999997E+02  0.45594000000E+02  0.51100000000E-03 0.  1.
         11   -1    0    0    0    0 -0.00000000000E+00 -0.00000000000E+00 -0.45593999997E+02  0.45594000000E+02  0.51100000000E-03 0. -1.
    9900012    2    1    2    0    0 -0.25549143192E+02  0.31617447432E+02  0.86234416832E+00  0.50528864035E+02  0.30000012721E+02 0.  0.
        -12    1    1    2    0    0  0.25549143192E+02 -0.31617447432E+02 -0.86234416832E+00  0.40659135965E+02  0.00000000000E+00 0.  1.
         11    1    3    3    0    0 -0.59189410346E+01 -0.26757233708E+01 -0.95664713863E+00  0.65657088374E+01  0.51100000000E-03 0.  1.
        -11    1    3    3    0    0  0.14051954124E+01  0.31802746616E+01 -0.46986601496E+01  0.58451799402E+01  0.51100000000E-03 0. -1.
         12    1    3    3    0    0 -0.21035397570E+02  0.31112896141E+02  0.65176514565E+01  0.38117975257E+02  0.00000000000E+00 0. -1.
</event>
<event>
 7    1  0.2985411E-011  0.5052886E+02  0.7816164E-02  0.1300439E+00
        -11   -1    0    0    0    0  0.00000000000E+00  0.00000000000E+00  0.45593999997E+02  0.45594000000E+02  0.51100000000E-03 0. -1.
         11   -1    0    0    0    0 -0.00000000000E+00 -0.00000000000E+00 -0.45593999997E+02  0.45594000000E+02  0.51100000000E-03 0.  1.
    9900012    2    1    2    0    0  0.32545573085E+02 -0.24320787066E+02 -0.15654135591E+01  0.50528861659E+02  0.30000005500E+02 0.  0.
        -12    1    1    2    0    0 -0.32545573085E+02  0.24320787066E+02  0.15654135591E+01  0.40659138341E+02  0.00000000000E+00 0.  1.
         11    1    3    3    0    0  0.10672159214E+02  0.13423496605E+01  0.33561817993E+01  0.11267690155E+02  0.51100000000E-03 0. -1.
        -11    1    3    3    0    0  0.11764173265E+02 -0.20641709517E+02 -0.11285837886E+02  0.26302967161E+02  0.51100000000E-03 0.  1.
         12    1    3    3    0    0  0.10109240607E+02 -0.50214272100E+01  0.63642425280E+01  0.12958204344E+02  0.00000000000E+00 0. -1.
</event>
<event>
 7    1  0.2985411E-011  0.5052886E+02  0.7816164E-02  0.1300439E+00
        -11   -1    0    0    0    0  0.00000000000E+00  0.00000000000E+00  0.45593999997E+02  0.45594000000E+02  0.51100000000E-03 0.  1.
         11   -1    0    0    0    0 -0.00000000000E+00 -0.00000000000E+00 -0.45593999997E+02  0.45594000000E+02  0.51100000000E-03 0. -1.
    9900012    2    1    2    0    0 -0.24578521194E+02 -0.27348587767E+01 -0.32273559219E+02  0.50528858577E+02  0.29999996129E+02 0.  0.
        -12    1    1    2    0    0  0.24578521194E+02  0.27348587767E+01  0.32273559219E+02  0.40659141423E+02  0.00000000000E+00 0.  1.
         11    1    3    3    0    0 -0.14191006657E+02 -0.50492277574E+01 -0.11355623024E+02  0.18863444686E+02  0.51100000000E-03 0. -1.
        -11    1    3    3    0    0  0.34262544189E+01 -0.56081256098E+01 -0.11270506674E+02  0.13046632253E+02  0.51100000000E-03 0.  1.
         12    1    3    3    0    0 -0.13813768956E+02  0.79224945905E+01 -0.96474295210E+01  0.18618781637E+02  0.00000000000E+00 0. -1.
</event>
<event>
 7    1  0.2985411E-011  0.5052886E+02  0.7816164E-02  0.1300439E+00
        -11   -1    0    0    0    0  0.00000000000E+00  0.00000000000E+00  0.45593999997E+02  0.45594000000E+02  0.51100000000E-03 0. -1.
         11   -1    0    0    0    0 -0.00000000000E+00 -0.00000000000E+00 -0.45593999997E+02  0.45594000000E+02  0.51100000000E-03 0.  1.
    9900012    2    1    2    0    0 -0.87162620371E+01  0.26464026535E+02  0.29611616275E+02  0.50528859051E+02  0.29999997571E+02 0.  0.
        -12    1    1    2    0    0  0.87162620371E+01 -0.26464026535E+02 -0.29611616275E+02  0.40659140949E+02  0.00000000000E+00 0.  1.
         11    1    3    3    0    0  0.21173676960E+01  0.12331414766E+02  0.16901839707E+02  0.21029009055E+02  0.51100000000E-03 0.  1.
        -11    1    3    3    0    0 -0.35003610258E+01  0.16965912053E+02  0.40237466639E+01  0.17784409930E+02  0.51100000000E-03 0. -1.
        -12    1    3    3    0    0 -0.73332687073E+01 -0.28333002844E+01  0.86860299035E+01  0.11715440065E+02  0.00000000000E+00 0.  1.
</event>
<event>
 7    1  0.2985411E-011  0.5052886E+02  0.7816164E-02  0.1300439E+00
        -11   -1    0    0    0    0  0.00000000000E+00  0.00000000000E+00  0.45593999997E+02  0.45594000000E+02  0.51100000000E-03 0. -1.
         11   -1    0    0    0    0 -0.00000000000E+00 -0.00000000000E+00 -0.45593999997E+02  0.45594000000E+02  0.51100000000E-03 0.  1.
    9900012    2    1    2    0    0  0.38188741528E+01  0.19306066883E+02  0.35578888628E+02  0.50528864074E+02  0.30000012838E+02 0.  0.
        -12    1    1    2    0    0 -0.38188741528E+01 -0.19306066883E+02 -0.35578888628E+02  0.40659135926E+02  0.00000000000E+00 0.  1.
         11    1    3    3    0    0  0.11918136003E+02  0.48578948453E+01  0.16986666059E+02  0.21311685344E+02  0.51100000000E-03 0.  1.
        -11    1    3    3    0    0  0.41161936843E+01  0.73112634677E+01  0.70040969019E+01  0.10929546999E+02  0.51100000000E-03 0. -1.
        -12    1    3    3    0    0 -0.12215455534E+02  0.71369085703E+01  0.11588125666E+02  0.18287631731E+02  0.00000000000E+00 0.  1.
</event>
<event>
 7    1  0.2985411E-011  0.5052889E+02  0.7816164E-02  0.1300439E+00
        -11   -1    0    0    0    0  0.00000000000E+00  0.00000000000E+00  0.45593999997E+02  0.45594000000E+02  0.51100000000E-03 0. -1.
         11   -1    0    0    0    0 -0.00000000000E+00 -0.00000000000E+00 -0.45593999997E+02  0.45594000000E+02  0.51100000000E-03 0.  1.
    9900012    2    1    2    0    0 -0.31128770700E+02 -0.83568768650E+01  0.24785592379E+02  0.50528888527E+02  0.30000087166E+02 0.  0.
        -12    1    1    2    0    0  0.31128770700E+02  0.83568768650E+01 -0.24785592379E+02  0.40659111473E+02  0.00000000000E+00 0.  1.
         11    1    3    3    0    0 -0.42632392317E+01 -0.94752327407E+01  0.92342390972E+01  0.13900590498E+02  0.51100000000E-03 0. -1.
        -11    1    3    3    0    0  0.59357017280E+00  0.24692835890E+01 -0.26393182831E+01  0.36627432688E+01  0.51100000000E-03 0.  1.
         12    1    3    3    0    0 -0.27459101641E+02 -0.13509277133E+01  0.18190671565E+02  0.32965554759E+02  0.00000000000E+00 0. -1.
</event>
<event>
 7    1  0.2985411E-011  0.5052886E+02  0.7816164E-02  0.1300439E+00
        -11   -1    0    0    0    0  0.00000000000E+00  0.00000000000E+00  0.45593999997E+02  0.45594000000E+02  0.51100000000E-03 0. -1.
         11   -1    0    0    0    0 -0.00000000000E+00 -0.00000000000E+00 -0.45593999997E+02  0.45594000000E+02  0.51100000000E-03 0.  1.
    9900012    2    1    2    0    0 -0.15586005000E+02 -0.31885519373E+02  0.19838243165E+02  0.50528858477E+02  0.29999995826E+02 0.  0.
        -12    1    1    2    0    0  0.15586005000E+02  0.31885519373E+02 -0.19838243165E+02  0.40659141523E+02  0.00000000000E+00 0.  1.
         11    1    3    3    0    0 -0.12945887800E+02 -0.13834591952E+02  0.61956129135E+01  0.19934331317E+02  0.51100000000E-03 0. -1.
        -11    1    3    3    0    0 -0.35129314723E+01 -0.14229530738E+02  0.18974986125E+02  0.23976453684E+02  0.51100000000E-03 0.  1.
        -12    1    3    3    0    0  0.87281427298E+00 -0.38213966828E+01 -0.53323558739E+01  0.66180734755E+01  0.00000000000E+00 0.  1.
</event>
<event>
 7    1  0.2985411E-011  0.5052886E+02  0.7816164E-02  0.1300439E+00
        -11   -1    0    0    0    0  0.00000000000E+00  0.00000000000E+00  0.45593999997E+02  0.45594000000E+02  0.51100000000E-03 0.  1.
         11   -1    0    0    0    0 -0.00000000000E+00 -0.00000000000E+00 -0.45593999997E+02  0.45594000000E+02  0.51100000000E-03 0. -1.
    9900012    2    1    2    0    0  0.17338982874E+02  0.29259366994E+02 -0.22280372067E+02  0.50528857566E+02  0.29999993058E+02 0.  0.
        -12    1    1    2    0    0 -0.17338982874E+02 -0.29259366994E+02  0.22280372067E+02  0.40659142434E+02  0.00000000000E+00 0.  1.
         11    1    3    3    0    0 -0.32366264343E+01  0.30735426982E+01  0.43939407335E+00  0.44850287408E+01  0.51100000000E-03 0. -1.
        -11    1    3    3    0    0 -0.48176349979E+01  0.51433507395E+01 -0.45895237428E+01  0.84099579219E+01  0.51100000000E-03 0.  1.
         12    1    3    3    0    0  0.25393244306E+02  0.21042473556E+02 -0.18130242398E+02  0.37633870903E+02  0.00000000000E+00 0. -1.
</event>
<event>
 7    1  0.2985411E-011  0.5052885E+02  0.7816164E-02  0.1300439E+00
        -11   -1    0    0    0    0  0.00000000000E+00  0.00000000000E+00  0.45593999997E+02  0.45594000000E+02  0.51100000000E-03 0.  1.
         11   -1    0    0    0    0 -0.00000000000E+00 -0.00000000000E+00 -0.45593999997E+02  0.45594000000E+02  0.51100000000E-03 0. -1.
    9900012    2    1    2    0    0  0.24403908661E+01 -0.69632449467E+01 -0.39984052158E+02  0.50528847097E+02  0.29999961237E+02 0.  0.
        -12    1    1    2    0    0 -0.24403908661E+01  0.69632449467E+01  0.39984052158E+02  0.40659152903E+02  0.00000000000E+00 0.  1.
         11    1    3    3    0    0  0.26747700654E+01 -0.39323832009E+01 -0.32691614854E+02  0.33035733903E+02  0.51100000000E-03 0. -1.
        -11    1    3    3    0    0  0.23327380653E+01 -0.69895699702E+01 -0.97118068532E+01  0.12190773063E+02  0.51100000000E-03 0.  1.
        -12    1    3    3    0    0 -0.25671172646E+01  0.39587082243E+01  0.24193695485E+01  0.53023401313E+01  0.00000000000E+00 0.  1.
</event>
<event>
 7    1  0.2985411E-011  0.5052886E+02  0.7816164E-02  0.1300439E+00
        -11   -1    0    0    0    0  0.00000000000E+00  0.00000000000E+00  0.45593999997E+02  0.45594000000E+02  0.51100000000E-03 0. -1.
         11   -1    0    0    0    0 -0.00000000000E+00 -0.00000000000E+00 -0.45593999997E+02  0.45594000000E+02  0.51100000000E-03 0.  1.
    9900012    2    1    2    0    0  0.15332004483E+02 -0.37653986582E+02 -0.52185560095E+00  0.50528863262E+02  0.30000010373E+02 0.  0.
        -12    1    1    2    0    0 -0.15332004483E+02  0.37653986582E+02  0.52185560095E+00  0.40659136738E+02  0.00000000000E+00 0.  1.
         11    1    3    3    0    0  0.28446578661E+01 -0.26985335017E+02 -0.32258980861E+01  0.27325936454E+02  0.51100000000E-03 0. -1.
        -11    1    3    3    0    0  0.84332834818E+01 -0.81345378332E+01 -0.60810758592E+01  0.13201153734E+02  0.51100000000E-03 0.  1.
         12    1    3    3    0    0  0.40540631352E+01 -0.25341137315E+01  0.87851183444E+01  0.10001773074E+02  0.00000000000E+00 0. -1.
</event>
<event>
 7    1  0.2985411E-011  0.5052885E+02  0.7816164E-02  0.1300439E+00
        -11   -1    0    0    0    0  0.00000000000E+00  0.00000000000E+00  0.45593999997E+02  0.45594000000E+02  0.51100000000E-03 0. -1.
         11   -1    0    0    0    0 -0.00000000000E+00 -0.00000000000E+00 -0.45593999997E+02  0.45594000000E+02  0.51100000000E-03 0.  1.
    9900012    2    1    2    0    0 -0.63109500128E+01  0.38490327084E+02  0.11481844317E+02  0.50528854436E+02  0.29999983544E+02 0.  0.
        -12    1    1    2    0    0  0.63109500128E+01 -0.38490327084E+02 -0.11481844317E+02  0.40659145564E+02  0.00000000000E+00 0.  1.
         11    1    3    3    0    0 -0.25443431071E+01  0.52961383829E+01  0.93264993646E+01  0.11022992075E+02  0.51100000000E-03 0. -1.
        -11    1    3    3    0    0 -0.78762085051E+01  0.22076965697E+02  0.97955144056E+01  0.25404314152E+02  0.51100000000E-03 0.  1.
        -12    1    3    3    0    0  0.41096015995E+01  0.11117223004E+02 -0.76401694537E+01  0.14101548209E+02  0.00000000000E+00 0.  1.
</event>
<event>
 7    1  0.2985411E-011  0.5052882E+02  0.7816164E-02  0.1300439E+00
        -11   -1    0    0    0    0  0.00000000000E+00  0.00000000000E+00  0.45593999997E+02  0.45594000000E+02  0.51100000000E-03 0.  1.
         11   -1    0    0    0    0 -0.00000000000E+00 -0.00000000000E+00 -0.45593999997E+02  0.45594000000E+02  0.51100000000E-03 0. -1.
    9900012    2    1    2    0    0 -0.36645353397E+01  0.29793675180E+02 -0.27424018489E+02  0.50528822806E+02  0.29999887401E+02 0.  0.
        -12    1    1    2    0    0  0.36645353397E+01 -0.29793675180E+02  0.27424018489E+02  0.40659177194E+02  0.00000000000E+00 0.  1.
         11    1    3    3    0    0  0.20023895068E+01 -0.35387217470E+00  0.20301499197E+01  0.28733774918E+01  0.51100000000E-03 0. -1.
        -11    1    3    3    0    0  0.70204432207E+01  0.35114433024E+01 -0.77299881001E+01  0.11016785982E+02  0.51100000000E-03 0.  1.
         12    1    3    3    0    0 -0.12687368067E+02  0.26636104053E+02 -0.21724180309E+02  0.36638659332E+02  0.00000000000E+00 0. -1.
</event>
<event>
 7    1  0.2985411E-011  0.5052889E+02  0.7816164E-02  0.1300439E+00
        -11   -1    0    0    0    0  0.00000000000E+00  0.00000000000E+00  0.45593999997E+02  0.45594000000E+02  0.51100000000E-03 0. -1.
         11   -1    0    0    0    0 -0.00000000000E+00 -0.00000000000E+00 -0.45593999997E+02  0.45594000000E+02  0.51100000000E-03 0.  1.
    9900012    2    1    2    0    0  0.33902554543E+02 -0.59251211876E+01  0.21648863459E+02  0.50528885957E+02  0.30000079356E+02 0.  0.
        -12    1    1    2    0    0 -0.33902554543E+02  0.59251211876E+01 -0.21648863459E+02  0.40659114043E+02  0.00000000000E+00 0.  1.
         11    1    3    3    0    0 -0.50990073050E+00  0.18155326783E+00  0.19719310309E+01  0.20448649334E+01  0.51100000000E-03 0. -1.
        -11    1    3    3    0    0 -0.15574509459E+01 -0.72474482019E+01  0.73614493882E+01  0.10447109468E+02  0.51100000000E-03 0.  1.
         12    1    3    3    0    0  0.35969906220E+02  0.11407737465E+01  0.12315483040E+02  0.38036911556E+02  0.00000000000E+00 0. -1.
</event>
<event>
 7    1  0.2985411E-011  0.5052887E+02  0.7816164E-02  0.1300439E+00
        -11   -1    0    0    0    0  0.00000000000E+00  0.00000000000E+00  0.45593999997E+02  0.45594000000E+02  0.51100000000E-03 0. -1.
         11   -1    0    0    0    0 -0.00000000000E+00 -0.00000000000E+00 -0.45593999997E+02  0.45594000000E+02  0.51100000000E-03 0.  1.
    9900012    2    1    2    0    0  0.18180762755E+02 -0.36100962742E+02  0.43982741884E+01  0.50528874812E+02  0.30000045477E+02 0.  0.
        -12    1    1    2    0    0 -0.18180762755E+02  0.36100962742E+02 -0.43982741884E+01  0.40659125188E+02  0.00000000000E+00 0.  1.
         11    1    3    3    0    0  0.43193915941E+01 -0.97092418640E+01  0.62992226827E+01  0.12353409569E+02  0.51100000000E-03 0. -1.
        -11    1    3    3    0    0 -0.30306329693E+01  0.26104353445E+01 -0.22926052907E+01  0.46103305915E+01  0.51100000000E-03 0.  1.
         12    1    3    3    0    0  0.16892004130E+02 -0.29002156223E+02  0.39165679631E+00  0.33565134651E+02  0.00000000000E+00 0. -1.
</event>
<event>
 7    1  0.2985411E-011  0.5052889E+02  0.7816164E-02  0.1300439E+00
        -11   -1    0    0    0    0  0.00000000000E+00  0.00000000000E+00  0.45593999997E+02  0.45594000000E+02  0.51100000000E-03 0. -1.
         11   -1    0    0    0    0 -0.00000000000E+00 -0.00000000000E+00 -0.45593999997E+02  0.45594000000E+02  0.51100000000E-03 0.  1.
    9900012    2    1    2    0    0  0.29858868878E+02  0.27362823767E+02  0.35898998636E+01  0.50528885939E+02  0.30000079301E+02 0.  0.
        -12    1    1    2    0    0 -0.29858868878E+02 -0.27362823767E+02 -0.35898998636E+01  0.40659114061E+02  0.00000000000E+00 0.  1.
         11    1    3    3    0    0  0.82814776683E+01  0.41872050308E+01  0.76273792313E+01  0.12012180174E+02  0.51100000000E-03 0. -1.
        -11    1    3    3    0    0  0.13978142535E+02  0.22340027767E+00  0.14167609787E+00  0.13980645507E+02  0.51100000000E-03 0.  1.
         12    1    3    3    0    0  0.75992486748E+01  0.22952218458E+02 -0.41791554656E+01  0.24536060258E+02  0.00000000000E+00 0. -1.
</event>
<event>
 7    1  0.2985411E-011  0.5052885E+02  0.7816164E-02  0.1300439E+00
        -11   -1    0    0    0    0  0.00000000000E+00  0.00000000000E+00  0.45593999997E+02  0.45594000000E+02  0.51100000000E-03 0.  1.
         11   -1    0    0    0    0 -0.00000000000E+00 -0.00000000000E+00 -0.45593999997E+02  0.45594000000E+02  0.51100000000E-03 0. -1.
    9900012    2    1    2    0    0  0.27179726147E+02 -0.22165616627E+02  0.20569737030E+02  0.50528853976E+02  0.29999982147E+02 0.  0.
        -12    1    1    2    0    0 -0.27179726147E+02  0.22165616627E+02 -0.20569737030E+02  0.40659146024E+02  0.00000000000E+00 0.  1.
         11    1    3    3    0    0  0.33646939866E+01  0.16551886592E+01  0.12390782768E+01  0.39491936339E+01  0.51100000000E-03 0. -1.
        -11    1    3    3    0    0  0.21343764003E+02 -0.35181865963E+01  0.71908380129E+01  0.22795658586E+02  0.51100000000E-03 0.  1.
        -12    1    3    3    0    0  0.24712681570E+01 -0.20302618690E+02  0.12139820740E+02  0.23784001757E+02  0.00000000000E+00 0.  1.
</event>
<event>
 7    1  0.2985411E-011  0.5052884E+02  0.7816164E-02  0.1300439E+00
        -11   -1    0    0    0    0  0.00000000000E+00  0.00000000000E+00  0.45593999997E+02  0.45594000000E+02  0.51100000000E-03 0.  1.
         11   -1    0    0    0    0 -0.00000000000E+00 -0.00000000000E+00 -0.45593999997E+02  0.45594000000E+02  0.51100000000E-03 0. -1.
    9900012    2    1    2    0    0  0.14317983842E+01  0.21801036556E+02 -0.34290410714E+02  0.50528837337E+02  0.29999931570E+02 0.  0.
        -12    1    1    2    0    0 -0.14317983842E+01 -0.21801036556E+02  0.34290410714E+02  0.40659162663E+02  0.00000000000E+00 0.  1.
         11    1    3    3    0    0  0.13372528948E+02  0.13596882793E+02 -0.18479050934E+02  0.26555132759E+02  0.51100000000E-03 0. -1.
        -11    1    3    3    0    0  0.11776656508E+01 -0.98370045175E+00 -0.99372977477E-01  0.15376729865E+01  0.51100000000E-03 0.  1.
         12    1    3    3    0    0 -0.13118396215E+02  0.91878542145E+01 -0.15711986802E+02  0.22436031591E+02  0.00000000000E+00 0. -1.
</event>
<event>
 7    1  0.2985411E-011  0.5052886E+02  0.7816164E-02  0.1300439E+00
        -11   -1    0    0    0    0  0.00000000000E+00  0.00000000000E+00  0.45593999997E+02  0.45594000000E+02  0.51100000000E-03 0. -1.
         11   -1    0    0    0    0 -0.00000000000E+00 -0.00000000000E+00 -0.45593999997E+02  0.45594000000E+02  0.51100000000E-03 0.  1.
    9900012    2    1    2    0    0  0.70922135651E+01 -0.35502199423E+02  0.18505664717E+02  0.50528864695E+02  0.30000014728E+02 0.  0.
        -12    1    1    2    0    0 -0.70922135651E+01  0.35502199423E+02 -0.18505664717E+02  0.40659135305E+02  0.00000000000E+00 0.  1.
         11    1    3    3    0    0  0.10120666458E+00 -0.22182203700E+02  0.23220680960E+01  0.22303641055E+02  0.51100000000E-03 0. -1.
        -11    1    3    3    0    0  0.93646143294E+01 -0.13436781648E+02  0.54946028396E+01  0.17275235548E+02  0.51100000000E-03 0.  1.
        -12    1    3    3    0    0 -0.23736074289E+01  0.11678592560E+00  0.10688993781E+02  0.10949988093E+02  0.00000000000E+00 0.  1.
</event>
<event>
 7    1  0.2985411E-011  0.5052886E+02  0.7816164E-02  0.1300439E+00
        -11   -1    0    0    0    0  0.00000000000E+00  0.00000000000E+00  0.45593999997E+02  0.45594000000E+02  0.51100000000E-03 0.  1.
         11   -1    0    0    0    0 -0.00000000000E+00 -0.00000000000E+00 -0.45593999997E+02  0.45594000000E+02  0.51100000000E-03 0. -1.
    9900012    2    1    2    0    0  0.28421939896E+02  0.18200648289E+02 -0.22673676677E+02  0.50528857367E+02  0.29999992452E+02 0.  0.
        -12    1    1    2    0    0 -0.28421939896E+02 -0.18200648289E+02  0.22673676677E+02  0.40659142633E+02  0.00000000000E+00 0.  1.
         11    1    3    3    0    0  0.17824161537E+02  0.13305430421E+02 -0.25730270260E+02  0.34011498367E+02  0.51100000000E-03 0. -1.
        -11    1    3    3    0    0  0.39588737395E+01  0.72747032171E+01 -0.10626386029E+01  0.83500412719E+01  0.51100000000E-03 0.  1.
        -12    1    3    3    0    0  0.66389046193E+01 -0.23794853493E+01  0.41192321858E+01  0.81673177281E+01  0.00000000000E+00 0.  1.
</event>
<event>
 7    1  0.2985411E-011  0.5052885E+02  0.7816164E-02  0.1300439E+00
        -11   -1    0    0    0    0  0.00000000000E+00  0.00000000000E+00  0.45593999997E+02  0.45594000000E+02  0.51100000000E-03 0.  1.
         11   -1    0    0    0    0 -0.00000000000E+00 -0.00000000000E+00 -0.45593999997E+02  0.45594000000E+02  0.51100000000E-03 0. -1.
    9900012    2    1    2    0    0 -0.21636948794E+02  0.75110199364E+01 -0.33594540555E+02  0.50528854304E+02  0.29999983142E+02 0.  0.
        -12    1    1    2    0    0  0.21636948794E+02 -0.75110199364E+01  0.33594540555E+02  0.40659145696E+02  0.00000000000E+00 0.  1.
         11    1    3    3    0    0  0.16420907228E-01 -0.24634863401E+01 -0.22335086624E+02  0.22470539142E+02  0.51100000000E-03 0. -1.
        -11    1    3    3    0    0 -0.16619092161E+01  0.47537597564E+01 -0.23551176847E+01  0.55593842855E+01  0.51100000000E-03 0.  1.
        -12    1    3    3    0    0 -0.19991460486E+02  0.52207465202E+01 -0.89043362467E+01  0.22498930876E+02  0.00000000000E+00 0.  1.
</event>
<event>
 7    1  0.2985411E-011  0.5052886E+02  0.7816164E-02  0.1300439E+00
        -11   -1    0    0    0    0  0.00000000000E+00  0.00000000000E+00  0.45593999997E+02  0.45594000000E+02  0.51100000000E-03 0. -1.
         11   -1    0    0    0    0 -0.00000000000E+00 -0.00000000000E+00 -0.45593999997E+02  0.45594000000E+02  0.51100000000E-03 0.  1.
    9900012    2    1    2    0    0 -0.34063130887E+02  0.17810492685E+02  0.13253488638E+02  0.50528862078E+02  0.30000006772E+02 0.  0.
        -12    1    1    2    0    0  0.34063130887E+02 -0.17810492685E+02 -0.13253488638E+02  0.40659137922E+02  0.00000000000E+00 0.  1.
         11    1    3    3    0    0 -0.17504037310E+02  0.87513380996E+01  0.14405695363E+01  0.19622754178E+02  0.51100000000E-03 0. -1.
        -11    1    3    3    0    0 -0.16190117049E+02  0.44959208739E+01 -0.14597459840E+01  0.16866062171E+02  0.51100000000E-03 0.  1.
         12    1    3    3    0    0 -0.36897652785E+00  0.45632337111E+01  0.13272665086E+02  0.14040045728E+02  0.00000000000E+00 0. -1.
</event>
<event>
 7    1  0.2985411E-011  0.5052897E+02  0.7816164E-02  0.1300438E+00
        -11   -1    0    0    0    0  0.00000000000E+00  0.00000000000E+00  0.45593999997E+02  0.45594000000E+02  0.51100000000E-03 0.  1.
         11   -1    0    0    0    0 -0.00000000000E+00 -0.00000000000E+00 -0.45593999997E+02  0.45594000000E+02  0.51100000000E-03 0. -1.
    9900012    2    1    2    0    0  0.34123049160E+02  0.21557912917E+02 -0.49020812214E+01  0.50528972790E+02  0.30000343292E+02 0.  0.
        -12    1    1    2    0    0 -0.34123049160E+02 -0.21557912917E+02  0.49020812214E+01  0.40659027210E+02  0.00000000000E+00 0.  1.
         11    1    3    3    0    0  0.15352818835E+02 -0.28081978684E+01  0.13757566937E+01  0.15668048002E+02  0.51100000000E-03 0. -1.
        -11    1    3    3    0    0  0.78375578151E+01  0.35610391477E+01  0.36461847077E+01  0.93489558508E+01  0.51100000000E-03 0.  1.
         12    1    3    3    0    0  0.10932672510E+02  0.20805071638E+02 -0.99240226227E+01  0.25511968938E+02  0.00000000000E+00 0. -1.
</event>
<event>
 7    1  0.2985411E-011  0.5052891E+02  0.7816164E-02  0.1300439E+00
        -11   -1    0    0    0    0  0.00000000000E+00  0.00000000000E+00  0.45593999997E+02  0.45594000000E+02  0.51100000000E-03 0.  1.
         11   -1    0    0    0    0 -0.00000000000E+00 -0.00000000000E+00 -0.45593999997E+02  0.45594000000E+02  0.51100000000E-03 0. -1.
    9900012    2    1    2    0    0  0.49217693367E+01 -0.34997089134E+02  0.20103275653E+02  0.50528908111E+02  0.30000146692E+02 0.  0.
        -12    1    1    2    0    0 -0.49217693367E+01  0.34997089134E+02 -0.20103275653E+02  0.40659091889E+02  0.00000000000E+00 0.  1.
         11    1    3    3    0    0  0.62355918153E+01 -0.93177339809E+01  0.14531061038E+02  0.18353596568E+02  0.51100000000E-03 0. -1.
        -11    1    3    3    0    0  0.80942463443E+01 -0.85979891968E+01  0.45265022753E+01  0.12646401275E+02  0.51100000000E-03 0.  1.
        -12    1    3    3    0    0 -0.94080688230E+01 -0.17081365957E+02  0.10457123399E+01  0.19528910267E+02  0.00000000000E+00 0.  1.
</event>
<event>
 7    1  0.2985411E-011  0.5052887E+02  0.7816164E-02  0.1300439E+00
        -11   -1    0    0    0    0  0.00000000000E+00  0.00000000000E+00  0.45593999997E+02  0.45594000000E+02  0.51100000000E-03 0.  1.
         11   -1    0    0    0    0 -0.00000000000E+00 -0.00000000000E+00 -0.45593999997E+02  0.45594000000E+02  0.51100000000E-03 0. -1.
    9900012    2    1    2    0    0  0.22285402726E+02  0.23637826753E+02 -0.24449520089E+02  0.50528867436E+02  0.30000023058E+02 0.  0.
        -12    1    1    2    0    0 -0.22285402726E+02 -0.23637826753E+02  0.24449520089E+02  0.40659132564E+02  0.00000000000E+00 0.  1.
         11    1    3    3    0    0  0.20100651371E+01  0.10829517361E+01  0.60788740969E+00  0.23627682244E+01  0.51100000000E-03 0. -1.
        -11    1    3    3    0    0  0.86301991631E+01  0.14272725915E+02  0.27476937169E+01  0.16903871262E+02  0.51100000000E-03 0.  1.
         12    1    3    3    0    0  0.11645138426E+02  0.82821491017E+01 -0.27805101216E+02  0.31262227949E+02  0.00000000000E+00 0. -1.
</event>
<event>
 7    1  0.2985411E-011  0.5052882E+02  0.7816164E-02  0.1300439E+00
        -11   -1    0    0    0    0  0.00000000000E+00  0.00000000000E+00  0.45593999997E+02  0.45594000000E+02  0.51100000000E-03 0. -1.
         11   -1    0    0    0    0 -0.00000000000E+00 -0.00000000000E+00 -0.45593999997E+02  0.45594000000E+02  0.51100000000E-03 0.  1.
    9900012    2    1    2    0    0  0.38526841036E+02  0.12758951112E+02  0.24617928346E+01  0.50528822221E+02  0.29999885621E+02 0.  0.
        -12    1    1    2    0    0 -0.38526841036E+02 -0.12758951112E+02 -0.24617928346E+01  0.40659177779E+02  0.00000000000E+00 0.  1.
         11    1    3    3    0    0  0.89343353607E+01  0.26848414759E+01  0.35773956025E+01  0.99914204018E+01  0.51100000000E-03 0. -1.
        -11    1    3    3    0    0  0.18803439988E+02  0.64573570454E+01  0.11961775144E+02  0.23202389538E+02  0.51100000000E-03 0.  1.
        -12    1    3    3    0    0  0.10789065688E+02  0.36167525911E+01 -0.13077377912E+02  0.17335012281E+02  0.00000000000E+00 0.  1.
</event>
<event>
 7    1  0.2985411E-011  0.5052885E+02  0.7816164E-02  0.1300439E+00
        -11   -1    0    0    0    0  0.00000000000E+00  0.00000000000E+00  0.45593999997E+02  0.45594000000E+02  0.51100000000E-03 0.  1.
         11   -1    0    0    0    0 -0.00000000000E+00 -0.00000000000E+00 -0.45593999997E+02  0.45594000000E+02  0.51100000000E-03 0. -1.
    9900012    2    1    2    0    0  0.27756290712E+02 -0.23337571733E+02 -0.18387836234E+02  0.50528850355E+02  0.29999971139E+02 0.  0.
        -12    1    1    2    0    0 -0.27756290712E+02  0.23337571733E+02  0.18387836234E+02  0.40659149645E+02  0.00000000000E+00 0.  1.
         11    1    3    3    0    0  0.17273856389E+01 -0.79815640900E+01 -0.12553367084E+02  0.14975855631E+02  0.51100000000E-03 0. -1.
        -11    1    3    3    0    0  0.33875000185E+01 -0.11529812920E+02 -0.32278121587E+01  0.12443091012E+02  0.51100000000E-03 0.  1.
         12    1    3    3    0    0  0.22641405055E+02 -0.38261947236E+01 -0.26066569908E+01  0.23109903712E+02  0.00000000000E+00 0. -1.
</event>
<event>
 7    1  0.2985411E-011  0.5052887E+02  0.7816164E-02  0.1300439E+00
        -11   -1    0    0    0    0  0.00000000000E+00  0.00000000000E+00  0.45593999997E+02  0.45594000000E+02  0.51100000000E-03 0.  1.
         11   -1    0    0    0    0 -0.00000000000E+00 -0.00000000000E+00 -0.45593999997E+02  0.45594000000E+02  0.51100000000E-03 0. -1.
    9900012    2    1    2    0    0 -0.34425911040E+02  0.21442663132E+02  0.28694959527E+01  0.50528866215E+02  0.30000019348E+02 0.  0.
        -12    1    1    2    0    0  0.34425911040E+02 -0.21442663132E+02 -0.28694959527E+01  0.40659133785E+02  0.00000000000E+00 0.  1.
         11    1    3    3    0    0 -0.81540782304E+01  0.90438252302E+01 -0.22824173599E+01  0.12389075666E+02  0.51100000000E-03 0. -1.
        -11    1    3    3    0    0 -0.28629281890E+01  0.12416143123E+02 -0.34495483847E+01  0.13200619386E+02  0.51100000000E-03 0.  1.
         12    1    3    3    0    0 -0.23408904620E+02 -0.17305220994E-01  0.86014616974E+01  0.24939171163E+02  0.00000000000E+00 0. -1.
</event>
<event>
 7    1  0.2985411E-011  0.5052885E+02  0.7816164E-02  0.1300439E+00
        -11   -1    0    0    0    0  0.00000000000E+00  0.00000000000E+00  0.45593999997E+02  0.45594000000E+02  0.51100000000E-03 0. -1.
         11   -1    0    0    0    0 -0.00000000000E+00 -0.00000000000E+00 -0.45593999997E+02  0.45594000000E+02  0.51100000000E-03 0.  1.
    9900012    2    1    2    0    0  0.53427062007E+01  0.51755790851E+01  0.39972929675E+02  0.50528852994E+02  0.29999979161E+02 0.  0.
        -12    1    1    2    0    0 -0.53427062007E+01 -0.51755790851E+01 -0.39972929675E+02  0.40659147006E+02  0.00000000000E+00 0.  1.
         11    1    3    3    0    0 -0.69069796145E+01  0.36947786864E+01  0.46101377449E+01  0.90890663560E+01  0.51100000000E-03 0.  1.
        -11    1    3    3    0    0  0.59270190569E+01  0.90894359328E+01  0.12652454459E+02  0.16668293391E+02  0.51100000000E-03 0. -1.
        -12    1    3    3    0    0  0.63226667582E+01 -0.76086355341E+01  0.22710337471E+02  0.24771493247E+02  0.00000000000E+00 0.  1.
</event>
<event>
 7    1  0.2985411E-011  0.5052886E+02  0.7816164E-02  0.1300439E+00
        -11   -1    0    0    0    0  0.00000000000E+00  0.00000000000E+00  0.45593999997E+02  0.45594000000E+02  0.51100000000E-03 0.  1.
         11   -1    0    0    0    0 -0.00000000000E+00 -0.00000000000E+00 -0.45593999997E+02  0.45594000000E+02  0.51100000000E-03 0. -1.
    9900012    2    1    2    0    0 -0.16199010369E+02 -0.20312195285E+02 -0.31275754215E+02  0.50528855691E+02  0.29999987358E+02 0.  0.
        -12    1    1    2    0    0  0.16199010369E+02  0.20312195285E+02  0.31275754215E+02  0.40659144309E+02  0.00000000000E+00 0.  1.
         11    1    3    3    0    0 -0.18989805448E+02 -0.18349562165E+02 -0.24330951586E+02  0.35907023657E+02  0.51100000000E-03 0. -1.
        -11    1    3    3    0    0 -0.70658410442E+00 -0.60092559253E+01 -0.70265252925E+01  0.92726736069E+01  0.51100000000E-03 0.  1.
        -12    1    3    3    0    0  0.34973791834E+01  0.40466228057E+01  0.81722662847E-01  0.53491584270E+01  0.00000000000E+00 0.  1.
</event>
<event>
 7    1  0.2985411E-011  0.5052885E+02  0.7816164E-02  0.1300439E+00
        -11   -1    0    0    0    0  0.00000000000E+00  0.00000000000E+00  0.45593999997E+02  0.45594000000E+02  0.51100000000E-03 0.  1.
         11   -1    0    0    0    0 -0.00000000000E+00 -0.00000000000E+00 -0.45593999997E+02  0.45594000000E+02  0.51100000000E-03 0. -1.
    9900012    2    1    2    0    0  0.28821166072E+02 -0.21233317662E+01 -0.28600663558E+02  0.50528854565E+02  0.29999983937E+02 0.  0.
        -12    1    1    2    0    0 -0.28821166072E+02  0.21233317662E+01  0.28600663558E+02  0.40659145435E+02  0.00000000000E+00 0.  1.
         11    1    3    3    0    0  0.73949271664E+01 -0.38088248091E+00 -0.75055800668E+01  0.10543422199E+02  0.51100000000E-03 0. -1.
        -11    1    3    3    0    0  0.15722045833E+01 -0.11410036441E+02 -0.45147622677E+01  0.12371088773E+02  0.51100000000E-03 0.  1.
         12    1    3    3    0    0  0.19854034322E+02  0.96675871553E+01 -0.16580321223E+02  0.27614343594E+02  0.00000000000E+00 0. -1.
</event>
<event>
 7    1  0.2985411E-011  0.5052886E+02  0.7816164E-02  0.1300439E+00
        -11   -1    0    0    0    0  0.00000000000E+00  0.00000000000E+00  0.45593999997E+02  0.45594000000E+02  0.51100000000E-03 0. -1.
         11   -1    0    0    0    0 -0.00000000000E+00 -0.00000000000E+00 -0.45593999997E+02  0.45594000000E+02  0.51100000000E-03 0.  1.
    9900012    2    1    2    0    0  0.13618611205E+02  0.23696889629E+02  0.30102434019E+02  0.50528859784E+02  0.29999999798E+02 0.  0.
        -12    1    1    2    0    0 -0.13618611205E+02 -0.23696889629E+02 -0.30102434019E+02  0.40659140216E+02  0.00000000000E+00 0.  1.
         11    1    3    3    0    0 -0.71711259260E+00  0.10693799923E+02  0.22487829650E+02  0.24911324531E+02  0.51100000000E-03 0. -1.
        -11    1    3    3    0    0  0.12738202838E+01 -0.32414204867E+01  0.18215154986E+00  0.34874925570E+01  0.51100000000E-03 0.  1.
        -12    1    3    3    0    0  0.13061903514E+02  0.16244510192E+02  0.74324528199E+01  0.22130042696E+02  0.00000000000E+00 0.  1.
</event>
<event>
 7    1  0.2985411E-011  0.5052886E+02  0.7816164E-02  0.1300439E+00
        -11   -1    0    0    0    0  0.00000000000E+00  0.00000000000E+00  0.45593999997E+02  0.45594000000E+02  0.51100000000E-03 0.  1.
         11   -1    0    0    0    0 -0.00000000000E+00 -0.00000000000E+00 -0.45593999997E+02  0.45594000000E+02  0.51100000000E-03 0. -1.
    9900012    2    1    2    0    0  0.12945812218E+02  0.22212154977E+02 -0.31499072949E+02  0.50528862290E+02  0.30000007416E+02 0.  0.
        -12    1    1    2    0    0 -0.12945812218E+02 -0.22212154977E+02  0.31499072949E+02  0.40659137710E+02  0.00000000000E+00 0.  1.
         11    1    3    3    0    0  0.16063598655E+01  0.25474027249E+01 -0.16758617021E+02  0.17027063675E+02  0.51100000000E-03 0. -1.
        -11    1    3    3    0    0  0.70948425922E+01 -0.17464603872E+01 -0.75830199146E+01  0.10530389669E+02  0.51100000000E-03 0.  1.
        -12    1    3    3    0    0  0.42446097604E+01  0.21411212639E+02 -0.71574360135E+01  0.22971408946E+02  0.00000000000E+00 0.  1.
</event>
<event>
 7    1  0.2985411E-011  0.5052886E+02  0.7816164E-02  0.1300439E+00
        -11   -1    0    0    0    0  0.00000000000E+00  0.00000000000E+00  0.45593999997E+02  0.45594000000E+02  0.51100000000E-03 0. -1.
         11   -1    0    0    0    0 -0.00000000000E+00 -0.00000000000E+00 -0.45593999997E+02  0.45594000000E+02  0.51100000000E-03 0.  1.
    9900012    2    1    2    0    0  0.56381911826E+01  0.18965664320E+02  0.35520141452E+02  0.50528855006E+02  0.29999985275E+02 0.  0.
        -12    1    1    2    0    0 -0.56381911826E+01 -0.18965664320E+02 -0.35520141452E+02  0.40659144994E+02  0.00000000000E+00 0.  1.
         11    1    3    3    0    0 -0.82002607665E+00  0.15245763397E+02  0.11578378715E+02  0.19161539559E+02  0.51100000000E-03 0.  1.
        -11    1    3    3    0    0  0.13153615030E+02  0.16995173300E+01  0.16121888561E+02  0.20876332018E+02  0.51100000000E-03 0. -1.
         12    1    3    3    0    0 -0.66953977706E+01  0.20203835930E+01  0.78198741761E+01  0.10490983429E+02  0.00000000000E+00 0. -1.
</event>
<event>
 7    1  0.2985411E-011  0.5052886E+02  0.7816164E-02  0.1300439E+00
        -11   -1    0    0    0    0  0.00000000000E+00  0.00000000000E+00  0.45593999997E+02  0.45594000000E+02  0.51100000000E-03 0.  1.
         11   -1    0    0    0    0 -0.00000000000E+00 -0.00000000000E+00 -0.45593999997E+02  0.45594000000E+02  0.51100000000E-03 0. -1.
    9900012    2    1    2    0    0  0.91955136418E+01  0.10557397349E+02 -0.38172631884E+02  0.50528856688E+02  0.29999990388E+02 0.  0.
        -12    1    1    2    0    0 -0.91955136418E+01 -0.10557397349E+02  0.38172631884E+02  0.40659143312E+02  0.00000000000E+00 0.  1.
         11    1    3    3    0    0  0.41310963866E+01  0.12910233308E+02 -0.32475125160E+02  0.35190536169E+02  0.51100000000E-03 0. -1.
        -11    1    3    3    0    0 -0.13418449764E+01  0.45647980386E+01 -0.25518025793E+01  0.53990393348E+01  0.51100000000E-03 0.  1.
        -12    1    3    3    0    0  0.64062622316E+01 -0.69176339969E+01 -0.31457041446E+01  0.99392811844E+01  0.00000000000E+00 0.  1.
</event>
<event>
 7    1  0.2985411E-011  0.5052890E+02  0.7816164E-02  0.1300439E+00
        -11   -1    0    0    0    0  0.00000000000E+00  0.00000000000E+00  0.45593999997E+02  0.45594000000E+02  0.51100000000E-03 0. -1.
         11   -1    0    0    0    0 -0.00000000000E+00 -0.00000000000E+00 -0.45593999997E+02  0.45594000000E+02  0.51100000000E-03 0.  1.
    9900012    2    1    2    0    0  0.35823038889E+02  0.17733687269E+02  0.74423292622E+01  0.50528904533E+02  0.30000135817E+02 0.  0.
        -12    1    1    2    0    0 -0.35823038889E+02 -0.17733687269E+02 -0.74423292622E+01  0.40659095467E+02  0.00000000000E+00 0.  1.
         11    1    3    3    0    0  0.12677271291E+02  0.55449585041E+01  0.43595569937E+01  0.14507429464E+02  0.51100000000E-03 0. -1.
        -11    1    3    3    0    0 -0.27781082504E+01  0.70649993586E+01  0.56620538770E+01  0.94705309120E+01  0.51100000000E-03 0.  1.
         12    1    3    3    0    0  0.25923875848E+02  0.51237294059E+01 -0.25792816085E+01  0.26550944157E+02  0.00000000000E+00 0. -1.
</event>
<event>
 7    1  0.2985411E-011  0.5052886E+02  0.7816164E-02  0.1300439E+00
        -11   -1    0    0    0    0  0.00000000000E+00  0.00000000000E+00  0.45593999997E+02  0.45594000000E+02  0.51100000000E-03 0.  1.
         11   -1    0    0    0    0 -0.00000000000E+00 -0.00000000000E+00 -0.45593999997E+02  0.45594000000E+02  0.51100000000E-03 0. -1.
    9900012    2    1    2    0    0 -0.11589885436E+02 -0.56438415735E+01 -0.38561476321E+02  0.50528857754E+02  0.29999993629E+02 0.  0.
        -12    1    1    2    0    0  0.11589885436E+02  0.56438415735E+01  0.38561476321E+02  0.40659142246E+02  0.00000000000E+00 0.  1.
         11    1    3    3    0    0  0.65590386078E+00  0.41300969342E+01  0.10962417391E+01  0.43231535679E+01  0.51100000000E-03 0. -1.
        -11    1    3    3    0    0 -0.70473280603E+01 -0.58366798051E+00 -0.23795743734E+01  0.74610907755E+01  0.51100000000E-03 0.  1.
         12    1    3    3    0    0 -0.51984612364E+01 -0.91902705271E+01 -0.37278143687E+02  0.38744613410E+02  0.00000000000E+00 0. -1.
</event>
<event>
 7    1  0.2985411E-011  0.5052886E+02  0.7816164E-02  0.1300439E+00
        -11   -1    0    0    0    0  0.00000000000E+00  0.00000000000E+00  0.45593999997E+02  0.45594000000E+02  0.51100000000E-03 0.  1.
         11   -1    0    0    0    0 -0.00000000000E+00 -0.00000000000E+00 -0.45593999997E+02  0.45594000000E+02  0.51100000000E-03 0. -1.
    9900012    2    1    2    0    0  0.92285680232E+01  0.25510220585E+02 -0.30285767219E+02  0.50528861814E+02  0.30000005969E+02 0.  0.
        -12    1    1    2    0    0 -0.92285680232E+01 -0.25510220585E+02  0.30285767219E+02  0.40659138186E+02  0.00000000000E+00 0.  1.
         11    1    3    3    0    0 -0.29715594832E+01 -0.20007205066E+01 -0.60867527037E+01  0.70626912041E+01  0.51100000000E-03 0.  1.
        -11    1    3    3    0    0  0.48312251508E+01 -0.20312078770E+01 -0.13875289327E+01  0.54214185134E+01  0.51100000000E-03 0. -1.
         12    1    3    3    0    0  0.73689023556E+01  0.29542148968E+02 -0.22811485582E+02  0.38044752096E+02  0.00000000000E+00 0. -1.
</event>
<event>
 7    1  0.2985411E-011  0.5052885E+02  0.7816164E-02  0.1300439E+00
        -11   -1    0    0    0    0  0.00000000000E+00  0.00000000000E+00  0.45593999997E+02  0.45594000000E+02  0.51100000000E-03 0.  1.
         11   -1    0    0    0    0 -0.00000000000E+00 -0.00000000000E+00 -0.45593999997E+02  0.45594000000E+02  0.51100000000E-03 0. -1.
    9900012    2    1    2    0    0  0.26224106800E+01 -0.23857851881E+02 -0.32819081887E+02  0.50528852566E+02  0.29999977860E+02 0.  0.
        -12    1    1    2    0    0 -0.26224106800E+01  0.23857851881E+02  0.32819081887E+02  0.40659147434E+02  0.00000000000E+00 0.  1.
         11    1    3    3    0    0 -0.85614360314E+01 -0.11841393457E+02 -0.89548004277E+01  0.17137830577E+02  0.51100000000E-03 0. -1.
        -11    1    3    3    0    0 -0.85285320579E+00 -0.31991670991E+01  0.17521831360E+01  0.37459544474E+01  0.51100000000E-03 0.  1.
        -12    1    3    3    0    0  0.12036699917E+02 -0.88172913252E+01 -0.25616464595E+02  0.29645067542E+02  0.00000000000E+00 0.  1.
</event>
<event>
 7    1  0.2985411E-011  0.5052883E+02  0.7816164E-02  0.1300439E+00
        -11   -1    0    0    0    0  0.00000000000E+00  0.00000000000E+00  0.45593999997E+02  0.45594000000E+02  0.51100000000E-03 0.  1.
         11   -1    0    0    0    0 -0.00000000000E+00 -0.00000000000E+00 -0.45593999997E+02  0.45594000000E+02  0.51100000000E-03 0. -1.
    9900012    2    1    2    0    0 -0.15963522796E+02 -0.21426214263E+02 -0.30647214240E+02  0.50528825656E+02  0.29999896064E+02 0.  0.
        -12    1    1    2    0    0  0.15963522796E+02  0.21426214263E+02  0.30647214240E+02  0.40659174344E+02  0.00000000000E+00 0.  1.
         11    1    3    3    0    0 -0.16913790228E+01 -0.61823968473E+01  0.10067958360E+01  0.64881763149E+01  0.51100000000E-03 0. -1.
        -11    1    3    3    0    0 -0.38042691435E+01 -0.41192459997E+01  0.28621799641E+01  0.62954527820E+01  0.51100000000E-03 0.  1.
        -12    1    3    3    0    0 -0.10467874630E+02 -0.11124571415E+02 -0.34516190040E+02  0.37745196559E+02  0.00000000000E+00 0.  1.
</event>
<event>
 7    1  0.2985411E-011  0.5052886E+02  0.7816164E-02  0.1300439E+00
        -11   -1    0    0    0    0  0.00000000000E+00  0.00000000000E+00  0.45593999997E+02  0.45594000000E+02  0.51100000000E-03 0.  1.
         11   -1    0    0    0    0 -0.00000000000E+00 -0.00000000000E+00 -0.45593999997E+02  0.45594000000E+02  0.51100000000E-03 0. -1.
    9900012    2    1    2    0    0  0.90907825953E+01  0.90836357046E+01 -0.38574740647E+02  0.50528863490E+02  0.30000011063E+02 0.  0.
        -12    1    1    2    0    0 -0.90907825953E+01 -0.90836357046E+01  0.38574740647E+02  0.40659136510E+02  0.00000000000E+00 0.  1.
         11    1    3    3    0    0  0.25471703677E+01 -0.52528191267E+01 -0.97826494285E+01  0.11392120775E+02  0.51100000000E-03 0. -1.
        -11    1    3    3    0    0 -0.26856775194E+01 -0.42606422680E+01 -0.97087224007E+01  0.10937331813E+02  0.51100000000E-03 0.  1.
         12    1    3    3    0    0  0.92292897470E+01  0.18597097099E+02 -0.19083368817E+02  0.28199410901E+02  0.00000000000E+00 0. -1.
</event>
<event>
 7    1  0.2985411E-011  0.5052887E+02  0.7816164E-02  0.1300439E+00
        -11   -1    0    0    0    0  0.00000000000E+00  0.00000000000E+00  0.45593999997E+02  0.45594000000E+02  0.51100000000E-03 0.  1.
         11   -1    0    0    0    0 -0.00000000000E+00 -0.00000000000E+00 -0.45593999997E+02  0.45594000000E+02  0.51100000000E-03 0. -1.
    9900012    2    1    2    0    0 -0.28942250035E+02  0.11327546692E+01 -0.28534683510E+02  0.50528866546E+02  0.30000020353E+02 0.  0.
        -12    1    1    2    0    0  0.28942250035E+02 -0.11327546692E+01  0.28534683510E+02  0.40659133454E+02  0.00000000000E+00 0.  1.
         11    1    3    3    0    0 -0.17092981506E+02  0.88719880475E+00 -0.21943190868E+02  0.27829135168E+02  0.51100000000E-03 0. -1.
        -11    1    3    3    0    0 -0.89152555514E+01 -0.70682213809E+00 -0.12888703296E+02  0.15687576358E+02  0.51100000000E-03 0.  1.
        -12    1    3    3    0    0 -0.29340129767E+01  0.95237800253E+00  0.62972106532E+01  0.70121550195E+01  0.00000000000E+00 0.  1.
</event>
<event>
 7    1  0.2985411E-011  0.5052887E+02  0.7816164E-02  0.1300439E+00
        -11   -1    0    0    0    0  0.00000000000E+00  0.00000000000E+00  0.45593999997E+02  0.45594000000E+02  0.51100000000E-03 0.  1.
         11   -1    0    0    0    0 -0.00000000000E+00 -0.00000000000E+00 -0.45593999997E+02  0.45594000000E+02  0.51100000000E-03 0. -1.
    9900012    2    1    2    0    0  0.18442046513E+02 -0.25416639662E+02 -0.25827314351E+02  0.50528870424E+02  0.30000032141E+02 0.  0.
        -12    1    1    2    0    0 -0.18442046513E+02  0.25416639662E+02  0.25827314351E+02  0.40659129576E+02  0.00000000000E+00 0.  1.
         11    1    3    3    0    0  0.66382819235E+01  0.12136106488E+01 -0.27666348805E+01  0.72934152855E+01  0.51100000000E-03 0. -1.
        -11    1    3    3    0    0  0.21342097789E+01 -0.23256848340E+01  0.43318017543E+01  0.53598664188E+01  0.51100000000E-03 0.  1.
         12    1    3    3    0    0  0.96695548101E+01 -0.24304565477E+02 -0.27392481224E+02  0.37875588720E+02  0.00000000000E+00 0. -1.
</event>
<event>
 7    1  0.2985411E-011  0.5052887E+02  0.7816164E-02  0.1300439E+00
        -11   -1    0    0    0    0  0.00000000000E+00  0.00000000000E+00  0.45593999997E+02  0.45594000000E+02  0.51100000000E-03 0.  1.
         11   -1    0    0    0    0 -0.00000000000E+00 -0.00000000000E+00 -0.45593999997E+02  0.45594000000E+02  0.51100000000E-03 0. -1.
    9900012    2    1    2    0    0 -0.39401804629E+02  0.35595649255E+00  0.10026759017E+02  0.50528870527E+02  0.30000032455E+02 0.  0.
        -12    1    1    2    0    0  0.39401804629E+02 -0.35595649255E+00 -0.10026759017E+02  0.40659129473E+02  0.00000000000E+00 0.  1.
         11    1    3    3    0    0 -0.99321563272E+01  0.83159546706E+01  0.57865158524E+01  0.14187550788E+02  0.51100000000E-03 0. -1.
        -11    1    3    3    0    0 -0.20511737357E+00  0.33520553655E+01  0.36515167183E+01  0.49610405073E+01  0.51100000000E-03 0.  1.
         12    1    3    3    0    0 -0.29264530929E+02 -0.11312053544E+02  0.58872644681E+00  0.31380279232E+02  0.00000000000E+00 0. -1.
</event>
<event>
 7    1  0.2985411E-011  0.5052886E+02  0.7816164E-02  0.1300439E+00
        -11   -1    0    0    0    0  0.00000000000E+00  0.00000000000E+00  0.45593999997E+02  0.45594000000E+02  0.51100000000E-03 0.  1.
         11   -1    0    0    0    0 -0.00000000000E+00 -0.00000000000E+00 -0.45593999997E+02  0.45594000000E+02  0.51100000000E-03 0. -1.
    9900012    2    1    2    0    0 -0.34653049511E+02  0.10409714007E+02 -0.18546419333E+02  0.50528860115E+02  0.30000000806E+02 0.  0.
        -12    1    1    2    0    0  0.34653049511E+02 -0.10409714007E+02  0.18546419333E+02  0.40659139885E+02  0.00000000000E+00 0.  1.
         11    1    3    3    0    0 -0.30959046382E+01 -0.25070507279E+01 -0.93999032496E+01  0.10209216926E+02  0.51100000000E-03 0. -1.
        -11    1    3    3    0    0 -0.12838762637E+02  0.10163232095E+02  0.45120077744E+01  0.16984796939E+02  0.51100000000E-03 0.  1.
         12    1    3    3    0    0 -0.18718382236E+02  0.27535326399E+01 -0.13658523857E+02  0.23334846250E+02  0.00000000000E+00 0. -1.
</event>
<event>
 7    1  0.2985411E-011  0.5052883E+02  0.7816164E-02  0.1300439E+00
        -11   -1    0    0    0    0  0.00000000000E+00  0.00000000000E+00  0.45593999997E+02  0.45594000000E+02  0.51100000000E-03 0. -1.
         11   -1    0    0    0    0 -0.00000000000E+00 -0.00000000000E+00 -0.45593999997E+02  0.45594000000E+02  0.51100000000E-03 0.  1.
    9900012    2    1    2    0    0  0.53164309510E+01 -0.40239149937E+02  0.23904196594E+01  0.50528834590E+02  0.29999923218E+02 0.  0.
        -12    1    1    2    0    0 -0.53164309510E+01  0.40239149937E+02 -0.23904196594E+01  0.40659165410E+02  0.00000000000E+00 0.  1.
         11    1    3    3    0    0 -0.65145615872E+01 -0.21980091734E+02  0.64155673179E+01  0.23805954079E+02  0.51100000000E-03 0. -1.
        -11    1    3    3    0    0 -0.31367011035E+01 -0.51456528746E+01 -0.31598313269E+01  0.68044964247E+01  0.51100000000E-03 0.  1.
         12    1    3    3    0    0  0.14967693642E+02 -0.13113405328E+02 -0.86531633161E+00  0.19918384086E+02  0.00000000000E+00 0. -1.
</event>
<event>
 7    1  0.2985411E-011  0.5052888E+02  0.7816164E-02  0.1300439E+00
        -11   -1    0    0    0    0  0.00000000000E+00  0.00000000000E+00  0.45593999997E+02  0.45594000000E+02  0.51100000000E-03 0. -1.
         11   -1    0    0    0    0 -0.00000000000E+00 -0.00000000000E+00 -0.45593999997E+02  0.45594000000E+02  0.51100000000E-03 0.  1.
    9900012    2    1    2    0    0 -0.22377461924E+02 -0.33397511659E+02 -0.60843542352E+01  0.50528881052E+02  0.30000064445E+02 0.  0.
        -12    1    1    2    0    0  0.22377461924E+02  0.33397511659E+02  0.60843542352E+01  0.40659118948E+02  0.00000000000E+00 0.  1.
         11    1    3    3    0    0 -0.12440994659E+02 -0.18545322943E+02  0.62750424512E+01  0.23196627108E+02  0.51100000000E-03 0. -1.
        -11    1    3    3    0    0 -0.55891430932E+01 -0.17678734782E+02 -0.68491943590E+01  0.19765820186E+02  0.51100000000E-03 0.  1.
        -12    1    3    3    0    0 -0.43473241720E+01  0.28265460656E+01 -0.55102023274E+01  0.75664337575E+01  0.00000000000E+00 0.  1.
</event>
<event>
 7    1  0.2985411E-011  0.5052886E+02  0.7816164E-02  0.1300439E+00
        -11   -1    0    0    0    0  0.00000000000E+00  0.00000000000E+00  0.45593999997E+02  0.45594000000E+02  0.51100000000E-03 0. -1.
         11   -1    0    0    0    0 -0.00000000000E+00 -0.00000000000E+00 -0.45593999997E+02  0.45594000000E+02  0.51100000000E-03 0.  1.
    9900012    2    1    2    0    0 -0.16346662366E+02 -0.10445363882E+02  0.35732996520E+02  0.50528855427E+02  0.29999986555E+02 0.  0.
        -12    1    1    2    0    0  0.16346662366E+02  0.10445363882E+02 -0.35732996520E+02  0.40659144573E+02  0.00000000000E+00 0.  1.
         11    1    3    3    0    0 -0.91484431686E+00 -0.62624904919E+01  0.87777122112E+01  0.10821458275E+02  0.51100000000E-03 0. -1.
        -11    1    3    3    0    0  0.50513747796E+01 -0.39780101701E+01  0.14170267051E+02  0.15560765426E+02  0.51100000000E-03 0.  1.
        -12    1    3    3    0    0 -0.20483192829E+02 -0.20486321955E+00  0.12785017258E+02  0.24146631726E+02  0.00000000000E+00 0.  1.
</event>
<event>
 7    1  0.2985411E-011  0.5052886E+02  0.7816164E-02  0.1300439E+00
        -11   -1    0    0    0    0  0.00000000000E+00  0.00000000000E+00  0.45593999997E+02  0.45594000000E+02  0.51100000000E-03 0.  1.
         11   -1    0    0    0    0 -0.00000000000E+00 -0.00000000000E+00 -0.45593999997E+02  0.45594000000E+02  0.51100000000E-03 0. -1.
    9900012    2    1    2    0    0 -0.33504506580E+02 -0.70910565022E+01 -0.21916455293E+02  0.50528855197E+02  0.29999985857E+02 0.  0.
        -12    1    1    2    0    0  0.33504506580E+02  0.70910565022E+01  0.21916455293E+02  0.40659144803E+02  0.00000000000E+00 0.  1.
         11    1    3    3    0    0 -0.25592650935E+02  0.48361668859E+01 -0.13164995589E+02  0.29183718083E+02  0.51100000000E-03 0. -1.
        -11    1    3    3    0    0 -0.21911931445E+01  0.18431284900E+01 -0.53237312080E+01  0.60448791769E+01  0.51100000000E-03 0.  1.
         12    1    3    3    0    0 -0.57206625006E+01 -0.13770351878E+02 -0.34277284957E+01  0.15300257937E+02  0.00000000000E+00 0. -1.
</event>
<event>
 7    1  0.2985411E-011  0.5052886E+02  0.7816164E-02  0.1300439E+00
        -11   -1    0    0    0    0  0.00000000000E+00  0.00000000000E+00  0.45593999997E+02  0.45594000000E+02  0.51100000000E-03 0.  1.
         11   -1    0    0    0    0 -0.00000000000E+00 -0.00000000000E+00 -0.45593999997E+02  0.45594000000E+02  0.51100000000E-03 0. -1.
    9900012    2    1    2    0    0  0.17748630007E+02  0.25209326639E+02 -0.26507391782E+02  0.50528857906E+02  0.29999994091E+02 0.  0.
        -12    1    1    2    0    0 -0.17748630007E+02 -0.25209326639E+02  0.26507391782E+02  0.40659142094E+02  0.00000000000E+00 0.  1.
         11    1    3    3    0    0 -0.55990981503E+01  0.59898477914E+01 -0.33792520764E+01  0.88683437866E+01  0.51100000000E-03 0. -1.
        -11    1    3    3    0    0  0.10025102270E+02  0.17313733318E+02 -0.83689147693E+01  0.21686557394E+02  0.51100000000E-03 0.  1.
         12    1    3    3    0    0  0.13322625887E+02  0.19057455302E+01 -0.14759224936E+02  0.19973956725E+02  0.00000000000E+00 0. -1.
</event>
<event>
 7    1  0.2985411E-011  0.5052881E+02  0.7816164E-02  0.1300439E+00
        -11   -1    0    0    0    0  0.00000000000E+00  0.00000000000E+00  0.45593999997E+02  0.45594000000E+02  0.51100000000E-03 0.  1.
         11   -1    0    0    0    0 -0.00000000000E+00 -0.00000000000E+00 -0.45593999997E+02  0.45594000000E+02  0.51100000000E-03 0. -1.
    9900012    2    1    2    0    0 -0.15197295796E+02 -0.13857798228E+00 -0.37711966085E+02  0.50528814207E+02  0.29999861265E+02 0.  0.
        -12    1    1    2    0    0  0.15197295796E+02  0.13857798228E+00  0.37711966085E+02  0.40659185793E+02  0.00000000000E+00 0.  1.
         11    1    3    3    0    0 -0.71192706373E+01 -0.63840291648E+01 -0.10788736487E+02  0.14416541820E+02  0.51100000000E-03 0. -1.
        -11    1    3    3    0    0  0.68406469963E+00 -0.51256375523E+01 -0.19050530566E+02  0.19739878924E+02  0.51100000000E-03 0.  1.
         12    1    3    3    0    0 -0.87620898579E+01  0.11371088735E+02 -0.78726990312E+01  0.16372393464E+02  0.00000000000E+00 0. -1.
</event>
<event>
 7    1  0.2985411E-011  0.5052886E+02  0.7816164E-02  0.1300439E+00
        -11   -1    0    0    0    0  0.00000000000E+00  0.00000000000E+00  0.45593999997E+02  0.45594000000E+02  0.51100000000E-03 0. -1.
         11   -1    0    0    0    0 -0.00000000000E+00 -0.00000000000E+00 -0.45593999997E+02  0.45594000000E+02  0.51100000000E-03 0.  1.
    9900012    2    1    2    0    0 -0.34279551401E+02 -0.16690768484E+02  0.14124319861E+02  0.50528858244E+02  0.29999995117E+02 0.  0.
        -12    1    1    2    0    0  0.34279551401E+02  0.16690768484E+02 -0.14124319861E+02  0.40659141756E+02  0.00000000000E+00 0.  1.
         11    1    3    3    0    0 -0.67832635949E+01 -0.26078452679E+01  0.20491472080E+01  0.75506639761E+01  0.51100000000E-03 0.  1.
        -11    1    3    3    0    0 -0.31288629341E+02 -0.11763671109E+02  0.15990190895E+02  0.37054668925E+02  0.51100000000E-03 0. -1.
        -12    1    3    3    0    0  0.37923415352E+01 -0.23192521066E+01 -0.39150182415E+01  0.59235253426E+01  0.00000000000E+00 0.  1.
</event>
<event>
 7    1  0.2985411E-011  0.5052886E+02  0.7816164E-02  0.1300439E+00
        -11   -1    0    0    0    0  0.00000000000E+00  0.00000000000E+00  0.45593999997E+02  0.45594000000E+02  0.51100000000E-03 0.  1.
         11   -1    0    0    0    0 -0.00000000000E+00 -0.00000000000E+00 -0.45593999997E+02  0.45594000000E+02  0.51100000000E-03 0. -1.
    9900012    2    1    2    0    0  0.19503024530E+02  0.33970466673E+02 -0.10899764553E+02  0.50528862785E+02  0.30000008921E+02 0.  0.
        -12    1    1    2    0    0 -0.19503024530E+02 -0.33970466673E+02  0.10899764553E+02  0.40659137215E+02  0.00000000000E+00 0.  1.
         11    1    3    3    0    0  0.15212074442E+02  0.20728660123E+01 -0.27373786182E+01  0.15594781957E+02  0.51100000000E-03 0.  1.
        -11    1    3    3    0    0  0.27350756112E+01  0.13884057591E+02  0.18418731456E+01  0.14270255454E+02  0.51100000000E-03 0. -1.
        -12    1    3    3    0    0  0.15558744768E+01  0.18013543070E+02 -0.10004259081E+02  0.20663825373E+02  0.00000000000E+00 0.  1.
</event>
<event>
 7    1  0.2985411E-011  0.5052874E+02  0.7816164E-02  0.1300439E+00
        -11   -1    0    0    0    0  0.00000000000E+00  0.00000000000E+00  0.45593999997E+02  0.45594000000E+02  0.51100000000E-03 0. -1.
         11   -1    0    0    0    0 -0.00000000000E+00 -0.00000000000E+00 -0.45593999997E+02  0.45594000000E+02  0.51100000000E-03 0.  1.
    9900012    2    1    2    0    0  0.37225145459E+02 -0.15900072391E+02 -0.38277063923E+01  0.50528744071E+02  0.29999648075E+02 0.  0.
        -12    1    1    2    0    0 -0.37225145459E+02  0.15900072391E+02  0.38277063923E+01  0.40659255929E+02  0.00000000000E+00 0.  1.
         11    1    3    3    0    0  0.22573190148E+02 -0.18976904555E+02 -0.18857778534E+01  0.29550431103E+02  0.51100000000E-03 0. -1.
        -11    1    3    3    0    0  0.33920301842E+01 -0.54022826225E+01  0.13113625742E+01  0.65123112921E+01  0.51100000000E-03 0.  1.
        -12    1    3    3    0    0  0.11259925127E+02  0.84791147865E+01 -0.32532911131E+01  0.14466001676E+02  0.00000000000E+00 0.  1.
</event>
<event>
 7    1  0.2985411E-011  0.5052885E+02  0.7816164E-02  0.1300439E+00
        -11   -1    0    0    0    0  0.00000000000E+00  0.00000000000E+00  0.45593999997E+02  0.45594000000E+02  0.51100000000E-03 0.  1.
         11   -1    0    0    0    0 -0.00000000000E+00 -0.00000000000E+00 -0.45593999997E+02  0.45594000000E+02  0.51100000000E-03 0. -1.
    9900012    2    1    2    0    0 -0.21634251986E+02  0.10233454282E+02 -0.32869475636E+02  0.50528845138E+02  0.29999955281E+02 0.  0.
        -12    1    1    2    0    0  0.21634251986E+02 -0.10233454282E+02  0.32869475636E+02  0.40659154862E+02  0.00000000000E+00 0.  1.
         11    1    3    3    0    0 -0.19362398529E+02  0.41592247149E+01 -0.66177009365E+01  0.20880507488E+02  0.51100000000E-03 0. -1.
        -11    1    3    3    0    0 -0.54741340056E+01  0.81954512350E+01 -0.17362425116E+02  0.19964602932E+02  0.51100000000E-03 0.  1.
        -12    1    3    3    0    0  0.32022805481E+01 -0.21212216679E+01 -0.88893495833E+01  0.96837347180E+01  0.00000000000E+00 0.  1.
</event>
<event>
 7    1  0.2985411E-011  0.5052896E+02  0.7816164E-02  0.1300438E+00
        -11   -1    0    0    0    0  0.00000000000E+00  0.00000000000E+00  0.45593999997E+02  0.45594000000E+02  0.51100000000E-03 0.  1.
         11   -1    0    0    0    0 -0.00000000000E+00 -0.00000000000E+00 -0.45593999997E+02  0.45594000000E+02  0.51100000000E-03 0. -1.
    9900012    2    1    2    0    0  0.26441120973E+02  0.13177404287E+01 -0.30859173355E+02  0.50528955516E+02  0.30000290786E+02 0.  0.
        -12    1    1    2    0    0 -0.26441120973E+02 -0.13177404287E+01  0.30859173355E+02  0.40659044484E+02  0.00000000000E+00 0.  1.
         11    1    3    3    0    0 -0.21282991226E+01  0.33913963528E+01 -0.64749752550E+01  0.76129187038E+01  0.51100000000E-03 0. -1.
        -11    1    3    3    0    0  0.26099720348E+01  0.50240328254E+01  0.11958166255E+01  0.57864356487E+01  0.51100000000E-03 0.  1.
         12    1    3    3    0    0  0.25959448061E+02 -0.70976887496E+01 -0.25580014726E+02  0.37129601164E+02  0.00000000000E+00 0. -1.
</event>
<event>
 7    1  0.2985411E-011  0.5052886E+02  0.7816164E-02  0.1300439E+00
        -11   -1    0    0    0    0  0.00000000000E+00  0.00000000000E+00  0.45593999997E+02  0.45594000000E+02  0.51100000000E-03 0.  1.
         11   -1    0    0    0    0 -0.00000000000E+00 -0.00000000000E+00 -0.45593999997E+02  0.45594000000E+02  0.51100000000E-03 0. -1.
    9900012    2    1    2    0    0 -0.19883844609E+02  0.35195396809E+01 -0.35290383401E+02  0.50528860848E+02  0.30000003033E+02 0.  0.
        -12    1    1    2    0    0  0.19883844609E+02 -0.35195396809E+01  0.35290383401E+02  0.40659139152E+02  0.00000000000E+00 0.  1.
         11    1    3    3    0    0  0.92063531597E-01 -0.13019178696E+01 -0.10745908606E+02  0.10824879577E+02  0.51100000000E-03 0. -1.
        -11    1    3    3    0    0 -0.98591974238E+01 -0.86891126379E+01 -0.16245794143E+02  0.20895700033E+02  0.51100000000E-03 0.  1.
        -12    1    3    3    0    0 -0.10116710717E+02  0.13510570188E+02 -0.82986806526E+01  0.18808281238E+02  0.00000000000E+00 0.  1.
</event>
<event>
 7    1  0.2985411E-011  0.5052886E+02  0.7816164E-02  0.1300439E+00
        -11   -1    0    0    0    0  0.00000000000E+00  0.00000000000E+00  0.45593999997E+02  0.45594000000E+02  0.51100000000E-03 0. -1.
         11   -1    0    0    0    0 -0.00000000000E+00 -0.00000000000E+00 -0.45593999997E+02  0.45594000000E+02  0.51100000000E-03 0.  1.
    9900012    2    1    2    0    0 -0.38508844710E+02  0.51777381909E+00  0.13037108685E+02  0.50528863099E+02  0.30000009877E+02 0.  0.
        -12    1    1    2    0    0  0.38508844710E+02 -0.51777381909E+00 -0.13037108685E+02  0.40659136901E+02  0.00000000000E+00 0.  1.
         11    1    3    3    0    0  0.66782150540E+00  0.61703051165E+00  0.91107896788E+00  0.12871586391E+01  0.51100000000E-03 0. -1.
        -11    1    3    3    0    0  0.40782084904E+00 -0.32734410960E+01 -0.50036648236E+01  0.59931958405E+01  0.51100000000E-03 0.  1.
         12    1    3    3    0    0 -0.39584487064E+02  0.31741844034E+01  0.17129694541E+02  0.43248508620E+02  0.00000000000E+00 0. -1.
</event>
<event>
 7    1  0.2985411E-011  0.5052886E+02  0.7816164E-02  0.1300439E+00
        -11   -1    0    0    0    0  0.00000000000E+00  0.00000000000E+00  0.45593999997E+02  0.45594000000E+02  0.51100000000E-03 0.  1.
         11   -1    0    0    0    0 -0.00000000000E+00 -0.00000000000E+00 -0.45593999997E+02  0.45594000000E+02  0.51100000000E-03 0. -1.
    9900012    2    1    2    0    0 -0.24432980794E+02 -0.69052945429E+01 -0.31757079425E+02  0.50528859123E+02  0.29999997792E+02 0.  0.
        -12    1    1    2    0    0  0.24432980794E+02  0.69052945429E+01  0.31757079425E+02  0.40659140877E+02  0.00000000000E+00 0.  1.
         11    1    3    3    0    0 -0.11776331810E+02 -0.75400730763E+01 -0.13953257877E+02  0.19754191923E+02  0.51100000000E-03 0. -1.
        -11    1    3    3    0    0 -0.16569099000E+02 -0.34611886350E+01 -0.18491347603E+02  0.25068801425E+02  0.51100000000E-03 0.  1.
        -12    1    3    3    0    0  0.39124500159E+01  0.40959671684E+01  0.68752605480E+00  0.57058657755E+01  0.00000000000E+00 0.  1.
</event>
<event>
 7    1  0.2985411E-011  0.5052886E+02  0.7816164E-02  0.1300439E+00
        -11   -1    0    0    0    0  0.00000000000E+00  0.00000000000E+00  0.45593999997E+02  0.45594000000E+02  0.51100000000E-03 0.  1.
         11   -1    0    0    0    0 -0.00000000000E+00 -0.00000000000E+00 -0.45593999997E+02  0.45594000000E+02  0.51100000000E-03 0. -1.
    9900012    2    1    2    0    0  0.40263837164E+02 -0.29042807736E+01 -0.48533051220E+01  0.50528855880E+02  0.29999987933E+02 0.  0.
        -12    1    1    2    0    0 -0.40263837164E+02  0.29042807736E+01  0.48533051220E+01  0.40659144120E+02  0.00000000000E+00 0.  1.
         11    1    3    3    0    0  0.49018170487E+01  0.14452339889E+01 -0.35074376853E+01  0.61982764571E+01  0.51100000000E-03 0. -1.
        -11    1    3    3    0    0  0.86999775872E+01 -0.10313198634E+02 -0.86786526485E+01  0.16042776821E+02  0.51100000000E-03 0.  1.
        -12    1    3    3    0    0  0.26662042528E+02  0.59636838711E+01  0.73327852118E+01  0.28287802602E+02  0.00000000000E+00 0.  1.
</event>
<event>
 7    1  0.2985411E-011  0.5052887E+02  0.7816164E-02  0.1300439E+00
        -11   -1    0    0    0    0  0.00000000000E+00  0.00000000000E+00  0.45593999997E+02  0.45594000000E+02  0.51100000000E-03 0.  1.
         11   -1    0    0    0    0 -0.00000000000E+00 -0.00000000000E+00 -0.45593999997E+02  0.45594000000E+02  0.51100000000E-03 0. -1.
    9900012    2    1    2    0    0  0.13865361279E+02  0.85529636533E+01 -0.37252700069E+02  0.50528867040E+02  0.30000021854E+02 0.  0.
        -12    1    1    2    0    0 -0.13865361279E+02 -0.85529636533E+01  0.37252700069E+02  0.40659132960E+02  0.00000000000E+00 0.  1.
         11    1    3    3    0    0  0.72936590796E+00  0.95669389027E+01 -0.30051885489E+01  0.10054325093E+02  0.51100000000E-03 0. -1.
        -11    1    3    3    0    0 -0.33348297974E+01  0.12198273766E+01 -0.17185150788E+01  0.39449160883E+01  0.51100000000E-03 0.  1.
         12    1    3    3    0    0  0.16470825168E+02 -0.22338026260E+01 -0.32528996441E+02  0.36529625859E+02  0.00000000000E+00 0. -1.
</event>
<event>
 7    1  0.2985411E-011  0.5052886E+02  0.7816164E-02  0.1300439E+00
        -11   -1    0    0    0    0  0.00000000000E+00  0.00000000000E+00  0.45593999997E+02  0.45594000000E+02  0.51100000000E-03 0.  1.
         11   -1    0    0    0    0 -0.00000000000E+00 -0.00000000000E+00 -0.45593999997E+02  0.45594000000E+02  0.51100000000E-03 0. -1.
    9900012    2    1    2    0    0 -0.40588490789E+02 -0.23186397480E+01 -0.60311192223E+00  0.50528863034E+02  0.30000009678E+02 0.  0.
        -12    1    1    2    0    0  0.40588490789E+02  0.23186397480E+01  0.60311192223E+00  0.40659136966E+02  0.00000000000E+00 0.  1.
         11    1    3    3    0    0 -0.14092826448E+02  0.34537407242E+01  0.54277887724E+01  0.15491835704E+02  0.51100000000E-03 0. -1.
        -11    1    3    3    0    0 -0.50512926210E+01  0.42264411924E+01 -0.90408099866E+01  0.11185464129E+02  0.51100000000E-03 0.  1.
        -12    1    3    3    0    0 -0.21444371721E+02 -0.99988216646E+01  0.30099092921E+01  0.23851563201E+02  0.00000000000E+00 0.  1.
</event>
<event>
 7    1  0.2985411E-011  0.5052887E+02  0.7816164E-02  0.1300439E+00
        -11   -1    0    0    0    0  0.00000000000E+00  0.00000000000E+00  0.45593999997E+02  0.45594000000E+02  0.51100000000E-03 0.  1.
         11   -1    0    0    0    0 -0.00000000000E+00 -0.00000000000E+00 -0.45593999997E+02  0.45594000000E+02  0.51100000000E-03 0. -1.
    9900012    2    1    2    0    0  0.64158692960E+01 -0.32492973945E+02 -0.23584072490E+02  0.50528865604E+02  0.30000017489E+02 0.  0.
        -12    1    1    2    0    0 -0.64158692960E+01  0.32492973945E+02  0.23584072490E+02  0.40659134396E+02  0.00000000000E+00 0.  1.
         11    1    3    3    0    0  0.44429884070E+01 -0.88405145635E+01  0.38405758252E+00  0.99016334117E+01  0.51100000000E-03 0. -1.
        -11    1    3    3    0    0 -0.66411141241E+01 -0.11136316629E+02 -0.89019271248E+00  0.12996706821E+02  0.51100000000E-03 0.  1.
         12    1    3    3    0    0  0.86139950130E+01 -0.12516142753E+02 -0.23077937360E+02  0.27630525371E+02  0.00000000000E+00 0. -1.
</event>
<event>
 7    1  0.2985411E-011  0.5052886E+02  0.7816164E-02  0.1300439E+00
        -11   -1    0    0    0    0  0.00000000000E+00  0.00000000000E+00  0.45593999997E+02  0.45594000000E+02  0.51100000000E-03 0.  1.
         11   -1    0    0    0    0 -0.00000000000E+00 -0.00000000000E+00 -0.45593999997E+02  0.45594000000E+02  0.51100000000E-03 0. -1.
    9900012    2    1    2    0    0  0.75100726879E+01 -0.39954943334E+02  0.60602530407E+00  0.50528856437E+02  0.29999989626E+02 0.  0.
        -12    1    1    2    0    0 -0.75100726879E+01  0.39954943334E+02 -0.60602530407E+00  0.40659143563E+02  0.00000000000E+00 0.  1.
         11    1    3    3    0    0  0.69762535962E+01 -0.13893009761E+02  0.44813592761E+00  0.15552641593E+02  0.51100000000E-03 0. -1.
        -11    1    3    3    0    0  0.10422478323E+02 -0.12079365266E+02  0.57524339834E+01  0.16959646713E+02  0.51100000000E-03 0.  1.
         12    1    3    3    0    0 -0.98886592314E+01 -0.13982568307E+02 -0.55945446070E+01  0.18016568131E+02  0.00000000000E+00 0. -1.
</event>
<event>
 7    1  0.2985411E-011  0.5052887E+02  0.7816164E-02  0.1300439E+00
        -11   -1    0    0    0    0  0.00000000000E+00  0.00000000000E+00  0.45593999997E+02  0.45594000000E+02  0.51100000000E-03 0.  1.
         11   -1    0    0    0    0 -0.00000000000E+00 -0.00000000000E+00 -0.45593999997E+02  0.45594000000E+02  0.51100000000E-03 0. -1.
    9900012    2    1    2    0    0  0.17149378657E+02  0.37458397360E+01 -0.36674686939E+02  0.50528866146E+02  0.30000019138E+02 0.  0.
        -12    1    1    2    0    0 -0.17149378657E+02 -0.37458397360E+01  0.36674686939E+02  0.40659133854E+02  0.00000000000E+00 0.  1.
         11    1    3    3    0    0  0.57071694031E+01  0.33687808238E+01 -0.15046873337E+02  0.16441680703E+02  0.51100000000E-03 0. -1.
        -11    1    3    3    0    0  0.18211671792E+02  0.40267945435E+01 -0.15010488968E+02  0.23941487905E+02  0.51100000000E-03 0.  1.
        -12    1    3    3    0    0 -0.67694625386E+01 -0.36497356313E+01 -0.66173246340E+01  0.10145697539E+02  0.00000000000E+00 0.  1.
</event>
<event>
 7    1  0.2985411E-011  0.5052886E+02  0.7816164E-02  0.1300439E+00
        -11   -1    0    0    0    0  0.00000000000E+00  0.00000000000E+00  0.45593999997E+02  0.45594000000E+02  0.51100000000E-03 0.  1.
         11   -1    0    0    0    0 -0.00000000000E+00 -0.00000000000E+00 -0.45593999997E+02  0.45594000000E+02  0.51100000000E-03 0. -1.
    9900012    2    1    2    0    0 -0.11175887811E+02  0.10232461839E+02 -0.37730124591E+02  0.50528855330E+02  0.29999986260E+02 0.  0.
        -12    1    1    2    0    0  0.11175887811E+02 -0.10232461839E+02  0.37730124591E+02  0.40659144670E+02  0.00000000000E+00 0.  1.
         11    1    3    3    0    0 -0.11328571030E+02 -0.60575000531E+01 -0.88845557399E+01  0.15619384093E+02  0.51100000000E-03 0. -1.
        -11    1    3    3    0    0 -0.50326645993E+01  0.87864098841E+01 -0.11578678674E+02  0.15381629033E+02  0.51100000000E-03 0.  1.
        -12    1    3    3    0    0  0.51853478185E+01  0.75035520080E+01 -0.17266890177E+02  0.19527842204E+02  0.00000000000E+00 0.  1.
</event>
<event>
 7    1  0.2985411E-011  0.5052886E+02  0.7816164E-02  0.1300439E+00
        -11   -1    0    0    0    0  0.00000000000E+00  0.00000000000E+00  0.45593999997E+02  0.45594000000E+02  0.51100000000E-03 0.  1.
         11   -1    0    0    0    0 -0.00000000000E+00 -0.00000000000E+00 -0.45593999997E+02  0.45594000000E+02  0.51100000000E-03 0. -1.
    9900012    2    1    2    0    0  0.38919618562E+02  0.35469709393E+01 -0.11218204575E+02  0.50528858030E+02  0.29999994468E+02 0.  0.
        -12    1    1    2    0    0 -0.38919618562E+02 -0.35469709393E+01  0.11218204575E+02  0.40659141970E+02  0.00000000000E+00 0.  1.
         11    1    3    3    0    0  0.27929196911E+02  0.94116065524E+01 -0.13724523432E+02  0.32511243005E+02  0.51100000000E-03 0. -1.
        -11    1    3    3    0    0  0.69551123101E+00  0.17854097226E+01 -0.33955099799E+01  0.38988347021E+01  0.51100000000E-03 0.  1.
         12    1    3    3    0    0  0.10294910420E+02 -0.76500453357E+01  0.59018288370E+01  0.14118780323E+02  0.00000000000E+00 0. -1.
</event>
<event>
 7    1  0.2985411E-011  0.5052886E+02  0.7816164E-02  0.1300439E+00
        -11   -1    0    0    0    0  0.00000000000E+00  0.00000000000E+00  0.45593999997E+02  0.45594000000E+02  0.51100000000E-03 0. -1.
         11   -1    0    0    0    0 -0.00000000000E+00 -0.00000000000E+00 -0.45593999997E+02  0.45594000000E+02  0.51100000000E-03 0.  1.
    9900012    2    1    2    0    0 -0.15501037609E+02  0.15033854666E+02  0.34450934746E+02  0.50528857634E+02  0.29999993264E+02 0.  0.
        -12    1    1    2    0    0  0.15501037609E+02 -0.15033854666E+02 -0.34450934746E+02  0.40659142366E+02  0.00000000000E+00 0.  1.
         11    1    3    3    0    0 -0.16586734999E+01  0.94577690911E+01  0.16423882726E+02  0.19024839500E+02  0.51100000000E-03 0.  1.
        -11    1    3    3    0    0 -0.33117993972E+01 -0.74631393166E+01  0.10030678685E+02  0.12933714812E+02  0.51100000000E-03 0. -1.
        -12    1    3    3    0    0 -0.10530564712E+02  0.13039224892E+02  0.79963733348E+01  0.18570303321E+02  0.00000000000E+00 0.  1.
</event>
<event>
 7    1  0.2985411E-011  0.5052886E+02  0.7816164E-02  0.1300439E+00
        -11   -1    0    0    0    0  0.00000000000E+00  0.00000000000E+00  0.45593999997E+02  0.45594000000E+02  0.51100000000E-03 0. -1.
         11   -1    0    0    0    0 -0.00000000000E+00 -0.00000000000E+00 -0.45593999997E+02  0.45594000000E+02  0.51100000000E-03 0.  1.
    9900012    2    1    2    0    0 -0.30266130382E+02  0.25166862270E+02  0.10186078871E+02  0.50528858253E+02  0.29999995147E+02 0.  0.
        -12    1    1    2    0    0  0.30266130382E+02 -0.25166862270E+02 -0.10186078871E+02  0.40659141747E+02  0.00000000000E+00 0.  1.
         11    1    3    3    0    0 -0.45995135195E+01 -0.23411123388E+01  0.56106156679E+00  0.51914469989E+01  0.51100000000E-03 0. -1.
        -11    1    3    3    0    0 -0.56208853020E+01 -0.18194948279E+01 -0.41676268954E+01  0.72300779530E+01  0.51100000000E-03 0.  1.
         12    1    3    3    0    0 -0.20045731561E+02  0.29327469437E+02  0.13792644199E+02  0.38107333302E+02  0.00000000000E+00 0. -1.
</event>
<event>
 7    1  0.2985411E-011  0.5052886E+02  0.7816164E-02  0.1300439E+00
        -11   -1    0    0    0    0  0.00000000000E+00  0.00000000000E+00  0.45593999997E+02  0.45594000000E+02  0.51100000000E-03 0. -1.
         11   -1    0    0    0    0 -0.00000000000E+00 -0.00000000000E+00 -0.45593999997E+02  0.45594000000E+02  0.51100000000E-03 0.  1.
    9900012    2    1    2    0    0 -0.59004342815E+01 -0.25660844556E+02  0.30981791500E+02  0.50528862373E+02  0.30000007669E+02 0.  0.
        -12    1    1    2    0    0  0.59004342815E+01  0.25660844556E+02 -0.30981791500E+02  0.40659137627E+02  0.00000000000E+00 0.  1.
         11    1    3    3    0    0 -0.67465833442E+01 -0.25929411511E+02  0.30539220975E+02  0.40626281963E+02  0.51100000000E-03 0. -1.
        -11    1    3    3    0    0  0.47193792737E+01  0.16494389228E+01  0.21604201325E+01  0.54461550564E+01  0.51100000000E-03 0.  1.
        -12    1    3    3    0    0 -0.38732302110E+01 -0.13808719678E+01 -0.17178496072E+01  0.44564253536E+01  0.00000000000E+00 0.  1.
</event>
<event>
 7    1  0.2985411E-011  0.5052886E+02  0.7816164E-02  0.1300439E+00
        -11   -1    0    0    0    0  0.00000000000E+00  0.00000000000E+00  0.45593999997E+02  0.45594000000E+02  0.51100000000E-03 0.  1.
         11   -1    0    0    0    0 -0.00000000000E+00 -0.00000000000E+00 -0.45593999997E+02  0.45594000000E+02  0.51100000000E-03 0. -1.
    9900012    2    1    2    0    0  0.13186634991E+02 -0.20869413124E+02 -0.32307050827E+02  0.50528864745E+02  0.30000014879E+02 0.  0.
        -12    1    1    2    0    0 -0.13186634991E+02  0.20869413124E+02  0.32307050827E+02  0.40659135255E+02  0.00000000000E+00 0.  1.
         11    1    3    3    0    0  0.57642574348E+01 -0.95928249079E+01 -0.44845321296E+01  0.12056532759E+02  0.51100000000E-03 0. -1.
        -11    1    3    3    0    0 -0.18538102422E+01 -0.98848261672E+01 -0.10591088441E+01  0.10112769778E+02  0.51100000000E-03 0.  1.
        -12    1    3    3    0    0  0.92761877987E+01 -0.13917620493E+01 -0.26763409853E+02  0.28359562208E+02  0.00000000000E+00 0.  1.
</event>
<event>
 7    1  0.2985411E-011  0.5052886E+02  0.7816164E-02  0.1300439E+00
        -11   -1    0    0    0    0  0.00000000000E+00  0.00000000000E+00  0.45593999997E+02  0.45594000000E+02  0.51100000000E-03 0.  1.
         11   -1    0    0    0    0 -0.00000000000E+00 -0.00000000000E+00 -0.45593999997E+02  0.45594000000E+02  0.51100000000E-03 0. -1.
    9900012    2    1    2    0    0  0.96942182986E+01  0.34789370097E+02 -0.18678540639E+02  0.50528855634E+02  0.29999987186E+02 0.  0.
        -12    1    1    2    0    0 -0.96942182986E+01 -0.34789370097E+02  0.18678540639E+02  0.40659144366E+02  0.00000000000E+00 0.  1.
         11    1    3    3    0    0  0.11626689430E+02  0.13446906350E+02  0.26898049028E+01  0.17978716533E+02  0.51100000000E-03 0. -1.
        -11    1    3    3    0    0  0.71194046519E+00 -0.13839543033E+01 -0.66007026119E+00  0.16905270629E+01  0.51100000000E-03 0.  1.
         12    1    3    3    0    0 -0.26444115964E+01  0.22726418050E+02 -0.20708275281E+02  0.30859612039E+02  0.00000000000E+00 0. -1.
</event>
<event>
 7    1  0.2985411E-011  0.5052887E+02  0.7816164E-02  0.1300439E+00
        -11   -1    0    0    0    0  0.00000000000E+00  0.00000000000E+00  0.45593999997E+02  0.45594000000E+02  0.51100000000E-03 0.  1.
         11   -1    0    0    0    0 -0.00000000000E+00 -0.00000000000E+00 -0.45593999997E+02  0.45594000000E+02  0.51100000000E-03 0. -1.
    9900012    2    1    2    0    0 -0.13558124121E+02 -0.37343080906E+02 -0.86508247921E+01  0.50528865838E+02  0.30000018201E+02 0.  0.
        -12    1    1    2    0    0  0.13558124121E+02  0.37343080906E+02  0.86508247921E+01  0.40659134162E+02  0.00000000000E+00 0.  1.
         11    1    3    3    0    0 -0.71305749291E+01 -0.48698360682E+01 -0.50190846355E+00  0.86494112237E+01  0.51100000000E-03 0. -1.
        -11    1    3    3    0    0 -0.42770686284E+01 -0.42462825763E+01  0.74300070656E+01  0.95670913566E+01  0.51100000000E-03 0.  1.
         12    1    3    3    0    0 -0.21504805637E+01 -0.28226962261E+02 -0.15578923394E+02  0.32312363258E+02  0.00000000000E+00 0. -1.
</event>
<event>
 7    1  0.2985411E-011  0.5052886E+02  0.7816164E-02  0.1300439E+00
        -11   -1    0    0    0    0  0.00000000000E+00  0.00000000000E+00  0.45593999997E+02  0.45594000000E+02  0.51100000000E-03 0.  1.
         11   -1    0    0    0    0 -0.00000000000E+00 -0.00000000000E+00 -0.45593999997E+02  0.45594000000E+02  0.51100000000E-03 0. -1.
    9900012    2    1    2    0    0  0.33834755109E+02  0.18244289361E+02 -0.13248432123E+02  0.50528859561E+02  0.29999999121E+02 0.  0.
        -12    1    1    2    0    0 -0.33834755109E+02 -0.18244289361E+02  0.13248432123E+02  0.40659140439E+02  0.00000000000E+00 0.  1.
         11    1    3    3    0    0  0.61551406170E+01 -0.33207992882E+01 -0.17258832836E+01  0.72036197357E+01  0.51100000000E-03 0. -1.
        -11    1    3    3    0    0  0.40788620840E+01  0.15007726176E+02  0.14281405202E+01  0.15617571722E+02  0.51100000000E-03 0.  1.
         12    1    3    3    0    0  0.23600752408E+02  0.65573624723E+01 -0.12950689360E+02  0.27707668103E+02  0.00000000000E+00 0. -1.
</event>
<event>
 7    1  0.2985411E-011  0.5052886E+02  0.7816164E-02  0.1300439E+00
        -11   -1    0    0    0    0  0.00000000000E+00  0.00000000000E+00  0.45593999997E+02  0.45594000000E+02  0.51100000000E-03 0.  1.
         11   -1    0    0    0    0 -0.00000000000E+00 -0.00000000000E+00 -0.45593999997E+02  0.45594000000E+02  0.51100000000E-03 0. -1.
    9900012    2    1    2    0    0  0.77996330942E+01  0.39028894212E+02  0.83112674001E+01  0.50528855572E+02  0.29999986996E+02 0.  0.
        -12    1    1    2    0    0 -0.77996330942E+01 -0.39028894212E+02 -0.83112674001E+01  0.40659144428E+02  0.00000000000E+00 0.  1.
         11    1    3    3    0    0 -0.59758567349E+01  0.40104181973E+01 -0.13310446589E+01  0.73188795576E+01  0.51100000000E-03 0. -1.
        -11    1    3    3    0    0 -0.26673551550E+01  0.18618479129E+01  0.49227689749E+01  0.59004165798E+01  0.51100000000E-03 0.  1.
         12    1    3    3    0    0  0.16442844984E+02  0.33156628102E+02  0.47195430841E+01  0.37309559434E+02  0.00000000000E+00 0. -1.
</event>
<event>
 7    1  0.2985411E-011  0.5052886E+02  0.7816164E-02  0.1300439E+00
        -11   -1    0    0    0    0  0.00000000000E+00  0.00000000000E+00  0.45593999997E+02  0.45594000000E+02  0.51100000000E-03 0.  1.
         11   -1    0    0    0    0 -0.00000000000E+00 -0.00000000000E+00 -0.45593999997E+02  0.45594000000E+02  0.51100000000E-03 0. -1.
    9900012    2    1    2    0    0 -0.37855539497E+00 -0.38139384234E+02  0.14085806814E+02  0.50528857271E+02  0.29999992160E+02 0.  0.
        -12    1    1    2    0    0  0.37855539497E+00  0.38139384234E+02 -0.14085806814E+02  0.40659142729E+02  0.00000000000E+00 0.  1.
         11    1    3    3    0    0  0.39595077095E+01 -0.65463411271E+01  0.67940958023E+01  0.10231911917E+02  0.51100000000E-03 0. -1.
        -11    1    3    3    0    0  0.50137219093E+01 -0.24644612629E+02 -0.22331229142E+01  0.25248389597E+02  0.51100000000E-03 0.  1.
         12    1    3    3    0    0 -0.93517850138E+01 -0.69484304774E+01  0.95248339255E+01  0.15048555756E+02  0.00000000000E+00 0. -1.
</event>
<event>
 7    1  0.2985411E-011  0.5052886E+02  0.7816164E-02  0.1300439E+00
        -11   -1    0    0    0    0  0.00000000000E+00  0.00000000000E+00  0.45593999997E+02  0.45594000000E+02  0.51100000000E-03 0. -1.
         11   -1    0    0    0    0 -0.00000000000E+00 -0.00000000000E+00 -0.45593999997E+02  0.45594000000E+02  0.51100000000E-03 0.  1.
    9900012    2    1    2    0    0 -0.14703816010E+02  0.14923215138E+02  0.34846245041E+02  0.50528863895E+02  0.30000012296E+02 0.  0.
        -12    1    1    2    0    0  0.14703816010E+02 -0.14923215138E+02 -0.34846245041E+02  0.40659136105E+02  0.00000000000E+00 0.  1.
         11    1    3    3    0    0  0.35868949511E+00  0.84291632753E+01  0.11836459929E+02  0.14535516351E+02  0.51100000000E-03 0. -1.
        -11    1    3    3    0    0  0.21816838694E+01 -0.59970677779E+01  0.50682521838E+01  0.81493402739E+01  0.51100000000E-03 0.  1.
         12    1    3    3    0    0 -0.17244189374E+02  0.12491119641E+02  0.17941532928E+02  0.27844007270E+02  0.00000000000E+00 0. -1.
</event>
<event>
 7    1  0.2985411E-011  0.5052886E+02  0.7816164E-02  0.1300439E+00
        -11   -1    0    0    0    0  0.00000000000E+00  0.00000000000E+00  0.45593999997E+02  0.45594000000E+02  0.51100000000E-03 0. -1.
         11   -1    0    0    0    0 -0.00000000000E+00 -0.00000000000E+00 -0.45593999997E+02  0.45594000000E+02  0.51100000000E-03 0.  1.
    9900012    2    1    2    0    0  0.17504956454E+02  0.12537150163E+02  0.34490028281E+02  0.50528859755E+02  0.29999999712E+02 0.  0.
        -12    1    1    2    0    0 -0.17504956454E+02 -0.12537150163E+02 -0.34490028281E+02  0.40659140245E+02  0.00000000000E+00 0.  1.
         11    1    3    3    0    0  0.97458508042E+01 -0.91135948720E+01  0.11034974028E+02  0.17315018668E+02  0.51100000000E-03 0.  1.
        -11    1    3    3    0    0  0.60734830114E+01  0.10458381637E+02  0.10554885155E+02  0.16052119587E+02  0.51100000000E-03 0. -1.
        -12    1    3    3    0    0  0.16856226380E+01  0.11192363398E+02  0.12900169098E+02  0.17161721500E+02  0.00000000000E+00 0.  1.
</event>
<event>
 7    1  0.2985411E-011  0.5052885E+02  0.7816164E-02  0.1300439E+00
        -11   -1    0    0    0    0  0.00000000000E+00  0.00000000000E+00  0.45593999997E+02  0.45594000000E+02  0.51100000000E-03 0.  1.
         11   -1    0    0    0    0 -0.00000000000E+00 -0.00000000000E+00 -0.45593999997E+02  0.45594000000E+02  0.51100000000E-03 0. -1.
    9900012    2    1    2    0    0  0.65082435604E+01 -0.11391616993E+02 -0.38484284598E+02  0.50528851792E+02  0.29999975508E+02 0.  0.
        -12    1    1    2    0    0 -0.65082435604E+01  0.11391616993E+02  0.38484284598E+02  0.40659148208E+02  0.00000000000E+00 0.  1.
         11    1    3    3    0    0  0.92841611988E+01 -0.28365990843E+01 -0.29543572495E+02  0.31097662606E+02  0.51100000000E-03 0. -1.
        -11    1    3    3    0    0  0.32772583523E+01 -0.36521031119E+01 -0.10405954179E+02  0.11504875578E+02  0.51100000000E-03 0.  1.
        -12    1    3    3    0    0 -0.60531759906E+01 -0.49029147966E+01  0.14652420754E+01  0.79263136082E+01  0.00000000000E+00 0.  1.
</event>
<event>
 7    1  0.2985411E-011  0.5052886E+02  0.7816164E-02  0.1300439E+00
        -11   -1    0    0    0    0  0.00000000000E+00  0.00000000000E+00  0.45593999997E+02  0.45594000000E+02  0.51100000000E-03 0.  1.
         11   -1    0    0    0    0 -0.00000000000E+00 -0.00000000000E+00 -0.45593999997E+02  0.45594000000E+02  0.51100000000E-03 0. -1.
    9900012    2    1    2    0    0 -0.97425901089E+01  0.36587631807E+02 -0.14818668075E+02  0.50528858509E+02  0.29999995924E+02 0.  0.
        -12    1    1    2    0    0  0.97425901089E+01 -0.36587631807E+02  0.14818668075E+02  0.40659141491E+02  0.00000000000E+00 0.  1.
         11    1    3    3    0    0  0.15221638519E+01  0.15938732298E+02 -0.48410265853E+01  0.16727095048E+02  0.51100000000E-03 0. -1.
        -11    1    3    3    0    0 -0.10644410206E+02  0.12988418475E+02  0.45220506740E+01  0.17391130661E+02  0.51100000000E-03 0.  1.
         12    1    3    3    0    0 -0.62034375474E+00  0.76604810331E+01 -0.14499692164E+02  0.16410632800E+02  0.00000000000E+00 0. -1.
</event>
<event>
 7    1  0.2985411E-011  0.5052894E+02  0.7816164E-02  0.1300439E+00
        -11   -1    0    0    0    0  0.00000000000E+00  0.00000000000E+00  0.45593999997E+02  0.45594000000E+02  0.51100000000E-03 0.  1.
         11   -1    0    0    0    0 -0.00000000000E+00 -0.00000000000E+00 -0.45593999997E+02  0.45594000000E+02  0.51100000000E-03 0. -1.
    9900012    2    1    2    0    0 -0.14038890148E+01 -0.52605975142E+01 -0.40292855902E+02  0.50528941633E+02  0.30000248587E+02 0.  0.
        -12    1    1    2    0    0  0.14038890148E+01  0.52605975142E+01  0.40292855902E+02  0.40659058367E+02  0.00000000000E+00 0.  1.
         11    1    3    3    0    0 -0.68413232319E+01 -0.26639379561E+01 -0.38448693356E+01  0.82875382030E+01  0.51100000000E-03 0. -1.
        -11    1    3    3    0    0 -0.20770706466E+01 -0.20841682210E+01  0.16720854155E+01  0.33843536372E+01  0.51100000000E-03 0.  1.
        -12    1    3    3    0    0  0.75145048637E+01 -0.51249133710E+00 -0.38120071982E+02  0.38857049793E+02  0.00000000000E+00 0.  1.
</event>
<event>
 7    1  0.2985411E-011  0.5052885E+02  0.7816164E-02  0.1300439E+00
        -11   -1    0    0    0    0  0.00000000000E+00  0.00000000000E+00  0.45593999997E+02  0.45594000000E+02  0.51100000000E-03 0.  1.
         11   -1    0    0    0    0 -0.00000000000E+00 -0.00000000000E+00 -0.45593999997E+02  0.45594000000E+02  0.51100000000E-03 0. -1.
    9900012    2    1    2    0    0 -0.22618612521E+02  0.28006715295E+02 -0.18899433313E+02  0.50528852031E+02  0.29999976234E+02 0.  0.
        -12    1    1    2    0    0  0.22618612521E+02 -0.28006715295E+02  0.18899433313E+02  0.40659147969E+02  0.00000000000E+00 0.  1.
         11    1    3    3    0    0 -0.70423458249E+01  0.25433961614E+02 -0.13234078375E+02  0.29523242857E+02  0.51100000000E-03 0. -1.
        -11    1    3    3    0    0 -0.63640851809E+01  0.58479762042E+01 -0.70205982919E+01  0.11135044073E+02  0.51100000000E-03 0.  1.
        -12    1    3    3    0    0 -0.92121815155E+01 -0.32752225236E+01  0.13552433540E+01  0.98705651005E+01  0.00000000000E+00 0.  1.
</event>
<event>
 7    1  0.2985411E-011  0.5052886E+02  0.7816164E-02  0.1300439E+00
        -11   -1    0    0    0    0  0.00000000000E+00  0.00000000000E+00  0.45593999997E+02  0.45594000000E+02  0.51100000000E-03 0. -1.
         11   -1    0    0    0    0 -0.00000000000E+00 -0.00000000000E+00 -0.45593999997E+02  0.45594000000E+02  0.51100000000E-03 0.  1.
    9900012    2    1    2    0    0 -0.51492654815E+01 -0.34085264834E+02  0.21560276595E+02  0.50528859076E+02  0.29999997647E+02 0.  0.
        -12    1    1    2    0    0  0.51492654815E+01  0.34085264834E+02 -0.21560276595E+02  0.40659140924E+02  0.00000000000E+00 0.  1.
         11    1    3    3    0    0 -0.64386144494E+01 -0.16193404954E+02  0.57526321036E+01  0.18351427639E+02  0.51100000000E-03 0. -1.
        -11    1    3    3    0    0 -0.36832713402E+01 -0.14848213960E+02 -0.32665326036E-01  0.15298268296E+02  0.51100000000E-03 0.  1.
        -12    1    3    3    0    0  0.49726203081E+01 -0.30436459209E+01  0.15840309817E+02  0.16879163141E+02  0.00000000000E+00 0.  1.
</event>
<event>
 7    1  0.2985411E-011  0.5052885E+02  0.7816164E-02  0.1300439E+00
        -11   -1    0    0    0    0  0.00000000000E+00  0.00000000000E+00  0.45593999997E+02  0.45594000000E+02  0.51100000000E-03 0.  1.
         11   -1    0    0    0    0 -0.00000000000E+00 -0.00000000000E+00 -0.45593999997E+02  0.45594000000E+02  0.51100000000E-03 0. -1.
    9900012    2    1    2    0    0 -0.21561937967E+01  0.58880432085E+01 -0.40172725541E+02  0.50528854634E+02  0.29999984145E+02 0.  0.
        -12    1    1    2    0    0  0.21561937967E+01 -0.58880432085E+01  0.40172725541E+02  0.40659145366E+02  0.00000000000E+00 0.  1.
         11    1    3    3    0    0 -0.32649139058E+01 -0.67900575538E+00 -0.20083509996E+01  0.38928377344E+01  0.51100000000E-03 0.  1.
        -11    1    3    3    0    0 -0.93177415920E+01  0.11677851108E+02 -0.18266188940E+02  0.23597588299E+02  0.51100000000E-03 0. -1.
         12    1    3    3    0    0  0.10426461701E+02 -0.51108021441E+01 -0.19898185601E+02  0.23038428600E+02  0.00000000000E+00 0. -1.
</event>
<event>
 7    1  0.2985411E-011  0.5052886E+02  0.7816164E-02  0.1300439E+00
        -11   -1    0    0    0    0  0.00000000000E+00  0.00000000000E+00  0.45593999997E+02  0.45594000000E+02  0.51100000000E-03 0.  1.
         11   -1    0    0    0    0 -0.00000000000E+00 -0.00000000000E+00 -0.45593999997E+02  0.45594000000E+02  0.51100000000E-03 0. -1.
    9900012    2    1    2    0    0 -0.23173150248E+02 -0.10883244976E+01 -0.33391409140E+02  0.50528861457E+02  0.30000004886E+02 0.  0.
        -12    1    1    2    0    0  0.23173150248E+02  0.10883244976E+01  0.33391409140E+02  0.40659138543E+02  0.00000000000E+00 0.  1.
         11    1    3    3    0    0 -0.64485298462E+01  0.78192337160E+01 -0.54060197047E+01  0.11486905693E+02  0.51100000000E-03 0. -1.
        -11    1    3    3    0    0 -0.21098139093E+02 -0.63311120047E+01 -0.24096828876E+02  0.32647689268E+02  0.51100000000E-03 0.  1.
         12    1    3    3    0    0  0.43735186908E+01 -0.25764462090E+01 -0.38885605598E+01  0.63942664969E+01  0.00000000000E+00 0. -1.
</event>
<event>
 7    1  0.2985411E-011  0.5052886E+02  0.7816164E-02  0.1300439E+00
        -11   -1    0    0    0    0  0.00000000000E+00  0.00000000000E+00  0.45593999997E+02  0.45594000000E+02  0.51100000000E-03 0. -1.
         11   -1    0    0    0    0 -0.00000000000E+00 -0.00000000000E+00 -0.45593999997E+02  0.45594000000E+02  0.51100000000E-03 0.  1.
    9900012    2    1    2    0    0 -0.10447318125E+02 -0.56783480799E+01  0.38881560303E+02  0.50528858045E+02  0.29999994513E+02 0.  0.
        -12    1    1    2    0    0  0.10447318125E+02  0.56783480799E+01 -0.38881560303E+02  0.40659141955E+02  0.00000000000E+00 0.  1.
         11    1    3    3    0    0  0.48514981584E+01  0.75078187634E+01  0.15794889797E+02  0.18148909635E+02  0.51100000000E-03 0. -1.
        -11    1    3    3    0    0 -0.17340389209E+01 -0.79528077695E+01  0.75653482625E+01  0.11112539628E+02  0.51100000000E-03 0.  1.
        -12    1    3    3    0    0 -0.13564777363E+02 -0.52333590737E+01  0.15521322244E+02  0.21267408782E+02  0.00000000000E+00 0.  1.
</event>
<event>
 7    1  0.2985411E-011  0.5052886E+02  0.7816164E-02  0.1300439E+00
        -11   -1    0    0    0    0  0.00000000000E+00  0.00000000000E+00  0.45593999997E+02  0.45594000000E+02  0.51100000000E-03 0.  1.
         11   -1    0    0    0    0 -0.00000000000E+00 -0.00000000000E+00 -0.45593999997E+02  0.45594000000E+02  0.51100000000E-03 0. -1.
    9900012    2    1    2    0    0  0.13899404867E+02  0.32355083905E+02 -0.20325372000E+02  0.50528860104E+02  0.30000000773E+02 0.  0.
        -12    1    1    2    0    0 -0.13899404867E+02 -0.32355083905E+02  0.20325372000E+02  0.40659139896E+02  0.00000000000E+00 0.  1.
         11    1    3    3    0    0  0.98912988707E+01  0.22299992816E+01  0.15900554481E+01  0.10263477322E+02  0.51100000000E-03 0. -1.
        -11    1    3    3    0    0  0.31558058125E+01  0.60873809064E+01  0.11358758911E+01  0.69502180489E+01  0.51100000000E-03 0.  1.
         12    1    3    3    0    0  0.85230018351E+00  0.24037703717E+02 -0.23051303339E+02  0.33315164733E+02  0.00000000000E+00 0. -1.
</event>
<event>
 7    1  0.2985411E-011  0.5052886E+02  0.7816164E-02  0.1300439E+00
        -11   -1    0    0    0    0  0.00000000000E+00  0.00000000000E+00  0.45593999997E+02  0.45594000000E+02  0.51100000000E-03 0.  1.
         11   -1    0    0    0    0 -0.00000000000E+00 -0.00000000000E+00 -0.45593999997E+02  0.45594000000E+02  0.51100000000E-03 0. -1.
    9900012    2    1    2    0    0 -0.32711948961E+02  0.24081383579E+02 -0.17836515500E+01  0.50528855238E+02  0.29999985981E+02 0.  0.
        -12    1    1    2    0    0  0.32711948961E+02 -0.24081383579E+02  0.17836515500E+01  0.40659144762E+02  0.00000000000E+00 0.  1.
         11    1    3    3    0    0 -0.26859736106E+02  0.18105132268E+02  0.28327868765E+01  0.32515625781E+02  0.51100000000E-03 0. -1.
        -11    1    3    3    0    0 -0.52746160360E+01  0.57305845440E+01  0.44198044947E+01  0.89552133183E+01  0.51100000000E-03 0.  1.
        -12    1    3    3    0    0 -0.57759681892E+00  0.24566676702E+00 -0.90362429212E+01  0.90580161391E+01  0.00000000000E+00 0.  1.
</event>
<event>
 7    1  0.2985411E-011  0.5052886E+02  0.7816164E-02  0.1300439E+00
        -11   -1    0    0    0    0  0.00000000000E+00  0.00000000000E+00  0.45593999997E+02  0.45594000000E+02  0.51100000000E-03 0. -1.
         11   -1    0    0    0    0 -0.00000000000E+00 -0.00000000000E+00 -0.45593999997E+02  0.45594000000E+02  0.51100000000E-03 0.  1.
    9900012    2    1    2    0    0 -0.21603986239E+02  0.31255353040E+02 -0.14475383575E+02  0.50528855337E+02  0.29999986284E+02 0.  0.
        -12    1    1    2    0    0  0.21603986239E+02 -0.31255353040E+02  0.14475383575E+02  0.40659144663E+02  0.00000000000E+00 0.  1.
         11    1    3    3    0    0  0.24726626685E+01  0.47613211712E+00  0.48021890019E-01  0.25185449824E+01  0.51100000000E-03 0.  1.
        -11    1    3    3    0    0 -0.64409044168E+01 -0.12070482996E+01 -0.89027896297E+01  0.11054495862E+02  0.51100000000E-03 0. -1.
         12    1    3    3    0    0 -0.17635744490E+02  0.31986269223E+02 -0.56206158351E+01  0.36955814493E+02  0.00000000000E+00 0. -1.
</event>
<event>
 7    1  0.2985411E-011  0.5052887E+02  0.7816164E-02  0.1300439E+00
        -11   -1    0    0    0    0  0.00000000000E+00  0.00000000000E+00  0.45593999997E+02  0.45594000000E+02  0.51100000000E-03 0.  1.
         11   -1    0    0    0    0 -0.00000000000E+00 -0.00000000000E+00 -0.45593999997E+02  0.45594000000E+02  0.51100000000E-03 0. -1.
    9900012    2    1    2    0    0  0.29477801572E+02  0.10636292330E+02 -0.25905472466E+02  0.50528868139E+02  0.30000025194E+02 0.  0.
        -12    1    1    2    0    0 -0.29477801572E+02 -0.10636292330E+02  0.25905472466E+02  0.40659131861E+02  0.00000000000E+00 0.  1.
         11    1    3    3    0    0  0.10688162902E+02 -0.36665682708E+01 -0.37736735453E+01  0.11913066834E+02  0.51100000000E-03 0. -1.
        -11    1    3    3    0    0  0.12746443022E+01 -0.50746462429E+01 -0.57942983482E+01  0.78070894831E+01  0.51100000000E-03 0.  1.
        -12    1    3    3    0    0  0.17514994368E+02  0.19377506843E+02 -0.16337500572E+02  0.30808711822E+02  0.00000000000E+00 0.  1.
</event>
<event>
 7    1  0.2985411E-011  0.5052883E+02  0.7816164E-02  0.1300439E+00
        -11   -1    0    0    0    0  0.00000000000E+00  0.00000000000E+00  0.45593999997E+02  0.45594000000E+02  0.51100000000E-03 0. -1.
         11   -1    0    0    0    0 -0.00000000000E+00 -0.00000000000E+00 -0.45593999997E+02  0.45594000000E+02  0.51100000000E-03 0.  1.
    9900012    2    1    2    0    0  0.21303571259E+02 -0.86085730151E+01 -0.33544275393E+02  0.50528830193E+02  0.29999909856E+02 0.  0.
        -12    1    1    2    0    0 -0.21303571259E+02  0.86085730151E+01  0.33544275393E+02  0.40659169807E+02  0.00000000000E+00 0.  1.
         11    1    3    3    0    0  0.19727084641E+02 -0.10761674999E+02 -0.16231434137E+02  0.27720587505E+02  0.51100000000E-03 0.  1.
        -11    1    3    3    0    0  0.74834248836E+01  0.87309257830E+00 -0.48587116407E+01  0.89649884387E+01  0.51100000000E-03 0. -1.
        -12    1    3    3    0    0 -0.59069382655E+01  0.12800094058E+01 -0.12454129615E+02  0.13843254250E+02  0.00000000000E+00 0.  1.
</event>
<event>
 7    1  0.2985411E-011  0.5052884E+02  0.7816164E-02  0.1300439E+00
        -11   -1    0    0    0    0  0.00000000000E+00  0.00000000000E+00  0.45593999997E+02  0.45594000000E+02  0.51100000000E-03 0. -1.
         11   -1    0    0    0    0 -0.00000000000E+00 -0.00000000000E+00 -0.45593999997E+02  0.45594000000E+02  0.51100000000E-03 0.  1.
    9900012    2    1    2    0    0 -0.23908182427E+02 -0.65124568447E+01  0.32235914658E+02  0.50528837749E+02  0.29999932823E+02 0.  0.
        -12    1    1    2    0    0  0.23908182427E+02  0.65124568447E+01 -0.32235914658E+02  0.40659162251E+02  0.00000000000E+00 0.  1.
         11    1    3    3    0    0 -0.25242741578E+01 -0.60861253122E+00  0.64335151655E+01  0.69377580588E+01  0.51100000000E-03 0. -1.
        -11    1    3    3    0    0 -0.18283038706E+02 -0.15898695548E+02  0.21057824650E+02  0.32100934623E+02  0.51100000000E-03 0.  1.
         12    1    3    3    0    0 -0.31008695632E+01  0.99948512341E+01  0.47445748421E+01  0.11490145068E+02  0.00000000000E+00 0. -1.
</event>
<event>
 7    1  0.2985411E-011  0.5052886E+02  0.7816164E-02  0.1300439E+00
        -11   -1    0    0    0    0  0.00000000000E+00  0.00000000000E+00  0.45593999997E+02  0.45594000000E+02  0.51100000000E-03 0.  1.
         11   -1    0    0    0    0 -0.00000000000E+00 -0.00000000000E+00 -0.45593999997E+02  0.45594000000E+02  0.51100000000E-03 0. -1.
    9900012    2    1    2    0    0  0.29913517688E+02 -0.25933441369E+02 -0.92630460291E+01  0.50528856583E+02  0.29999990070E+02 0.  0.
        -12    1    1    2    0    0 -0.29913517688E+02  0.25933441369E+02  0.92630460291E+01  0.40659143417E+02  0.00000000000E+00 0.  1.
         11    1    3    3    0    0  0.90366835150E+01 -0.83520126002E+01 -0.15175043565E+02  0.19537136712E+02  0.51100000000E-03 0. -1.
        -11    1    3    3    0    0  0.17913835083E+02 -0.15881796156E+02 -0.25529646848E+00  0.23941639732E+02  0.51100000000E-03 0.  1.
        -12    1    3    3    0    0  0.29629990900E+01 -0.16996326122E+01  0.61672940048E+01  0.70500801389E+01  0.00000000000E+00 0.  1.
</event>
<event>
 7    1  0.2985411E-011  0.5052887E+02  0.7816164E-02  0.1300439E+00
        -11   -1    0    0    0    0  0.00000000000E+00  0.00000000000E+00  0.45593999997E+02  0.45594000000E+02  0.51100000000E-03 0. -1.
         11   -1    0    0    0    0 -0.00000000000E+00 -0.00000000000E+00 -0.45593999997E+02  0.45594000000E+02  0.51100000000E-03 0.  1.
    9900012    2    1    2    0    0 -0.33850265623E+02 -0.15259175272E+02  0.16567503596E+02  0.50528867101E+02  0.30000022040E+02 0.  0.
        -12    1    1    2    0    0  0.33850265623E+02  0.15259175272E+02 -0.16567503596E+02  0.40659132899E+02  0.00000000000E+00 0.  1.
         11    1    3    3    0    0 -0.24595379516E+02 -0.14412632174E+02 -0.18723168410E+01  0.28568553171E+02  0.51100000000E-03 0. -1.
        -11    1    3    3    0    0 -0.20122249283E+01 -0.36326352702E+01  0.69260765774E+01  0.80756191828E+01  0.51100000000E-03 0.  1.
        -12    1    3    3    0    0 -0.72426611786E+01  0.27860921718E+01  0.11513743860E+02  0.13884694747E+02  0.00000000000E+00 0.  1.
</event>
<event>
 7    1  0.2985411E-011  0.5052886E+02  0.7816164E-02  0.1300439E+00
        -11   -1    0    0    0    0  0.00000000000E+00  0.00000000000E+00  0.45593999997E+02  0.45594000000E+02  0.51100000000E-03 0.  1.
         11   -1    0    0    0    0 -0.00000000000E+00 -0.00000000000E+00 -0.45593999997E+02  0.45594000000E+02  0.51100000000E-03 0. -1.
    9900012    2    1    2    0    0  0.15666358695E+02 -0.37376784376E+02 -0.32721366851E+01  0.50528859779E+02  0.29999999783E+02 0.  0.
        -12    1    1    2    0    0 -0.15666358695E+02  0.37376784376E+02  0.32721366851E+01  0.40659140221E+02  0.00000000000E+00 0.  1.
         11    1    3    3    0    0  0.16708414936E+01 -0.27034659391E+02  0.97185958695E+01  0.28776998204E+02  0.51100000000E-03 0.  1.
        -11    1    3    3    0    0  0.63243727705E+01 -0.39079484473E+01 -0.55434396073E+01  0.92735901866E+01  0.51100000000E-03 0. -1.
        -12    1    3    3    0    0  0.76711444312E+01 -0.64341765377E+01 -0.74472929473E+01  0.12478271388E+02  0.00000000000E+00 0.  1.
</event>
<event>
 7    1  0.2985411E-011  0.5052886E+02  0.7816164E-02  0.1300439E+00
        -11   -1    0    0    0    0  0.00000000000E+00  0.00000000000E+00  0.45593999997E+02  0.45594000000E+02  0.51100000000E-03 0.  1.
         11   -1    0    0    0    0 -0.00000000000E+00 -0.00000000000E+00 -0.45593999997E+02  0.45594000000E+02  0.51100000000E-03 0. -1.
    9900012    2    1    2    0    0 -0.13774911559E+02 -0.35487935369E+02 -0.14283685819E+02  0.50528862948E+02  0.30000009418E+02 0.  0.
        -12    1    1    2    0    0  0.13774911559E+02  0.35487935369E+02  0.14283685819E+02  0.40659137052E+02  0.00000000000E+00 0.  1.
         11    1    3    3    0    0 -0.10404635510E+01 -0.13091227566E+02  0.12043930822E+01  0.13187621717E+02  0.51100000000E-03 0. -1.
        -11    1    3    3    0    0 -0.13012290705E+01 -0.45174134543E+01 -0.15418011121E+02  0.16118786822E+02  0.51100000000E-03 0.  1.
         12    1    3    3    0    0 -0.11433218937E+02 -0.17879294349E+02 -0.70067779908E-01  0.21222454410E+02  0.00000000000E+00 0. -1.
</event>
<event>
 7    1  0.2985411E-011  0.5052886E+02  0.7816164E-02  0.1300439E+00
        -11   -1    0    0    0    0  0.00000000000E+00  0.00000000000E+00  0.45593999997E+02  0.45594000000E+02  0.51100000000E-03 0.  1.
         11   -1    0    0    0    0 -0.00000000000E+00 -0.00000000000E+00 -0.45593999997E+02  0.45594000000E+02  0.51100000000E-03 0. -1.
    9900012    2    1    2    0    0 -0.27669311155E+02 -0.22762004994E+02 -0.19221506739E+02  0.50528856225E+02  0.29999988983E+02 0.  0.
        -12    1    1    2    0    0  0.27669311155E+02  0.22762004994E+02  0.19221506739E+02  0.40659143775E+02  0.00000000000E+00 0.  1.
         11    1    3    3    0    0 -0.16308435333E+01  0.71438464725E+00 -0.33827506662E+01  0.38226951730E+01  0.51100000000E-03 0. -1.
        -11    1    3    3    0    0 -0.10854570383E+02  0.47800445560E+01 -0.43700283814E+01  0.12639923752E+02  0.51100000000E-03 0.  1.
        -12    1    3    3    0    0 -0.15183897239E+02 -0.28256434198E+02 -0.11468727691E+02  0.34066237300E+02  0.00000000000E+00 0.  1.
</event>
<event>
 7    1  0.2985411E-011  0.5052886E+02  0.7816164E-02  0.1300439E+00
        -11   -1    0    0    0    0  0.00000000000E+00  0.00000000000E+00  0.45593999997E+02  0.45594000000E+02  0.51100000000E-03 0. -1.
         11   -1    0    0    0    0 -0.00000000000E+00 -0.00000000000E+00 -0.45593999997E+02  0.45594000000E+02  0.51100000000E-03 0.  1.
    9900012    2    1    2    0    0 -0.33723405500E+02 -0.83583066637E+00  0.22697994723E+02  0.50528860119E+02  0.30000000817E+02 0.  0.
        -12    1    1    2    0    0  0.33723405500E+02  0.83583066637E+00 -0.22697994723E+02  0.40659139881E+02  0.00000000000E+00 0.  1.
         11    1    3    3    0    0 -0.25069710696E+02  0.10428827647E+02  0.14420472776E+02  0.30744119370E+02  0.51100000000E-03 0. -1.
        -11    1    3    3    0    0 -0.10527898740E+02 -0.58269967604E+01  0.68986269916E+01  0.13870169348E+02  0.51100000000E-03 0.  1.
        -12    1    3    3    0    0  0.18742039358E+01 -0.54376615525E+01  0.13788949551E+01  0.59145714003E+01  0.00000000000E+00 0.  1.
</event>
<event>
 7    1  0.2985411E-011  0.5052885E+02  0.7816164E-02  0.1300439E+00
        -11   -1    0    0    0    0  0.00000000000E+00  0.00000000000E+00  0.45593999997E+02  0.45594000000E+02  0.51100000000E-03 0.  1.
         11   -1    0    0    0    0 -0.00000000000E+00 -0.00000000000E+00 -0.45593999997E+02  0.45594000000E+02  0.51100000000E-03 0. -1.
    9900012    2    1    2    0    0  0.24080340810E+02  0.17431062040E+02 -0.27739172036E+02  0.50528850936E+02  0.29999972905E+02 0.  0.
        -12    1    1    2    0    0 -0.24080340810E+02 -0.17431062040E+02  0.27739172036E+02  0.40659149064E+02  0.00000000000E+00 0.  1.
         11    1    3    3    0    0  0.59969520739E+01  0.75403290481E+01 -0.22549380236E+02  0.24521307992E+02  0.51100000000E-03 0. -1.
        -11    1    3    3    0    0  0.16447294824E+02  0.55209861131E+01 -0.93919499827E+01  0.19728241671E+02  0.51100000000E-03 0.  1.
         12    1    3    3    0    0  0.16360939120E+01  0.43697468792E+01  0.42021581832E+01  0.62793012727E+01  0.00000000000E+00 0. -1.
</event>
<event>
 7    1  0.2985411E-011  0.5052886E+02  0.7816164E-02  0.1300439E+00
        -11   -1    0    0    0    0  0.00000000000E+00  0.00000000000E+00  0.45593999997E+02  0.45594000000E+02  0.51100000000E-03 0.  1.
         11   -1    0    0    0    0 -0.00000000000E+00 -0.00000000000E+00 -0.45593999997E+02  0.45594000000E+02  0.51100000000E-03 0. -1.
    9900012    2    1    2    0    0  0.10095987234E+02 -0.24090006790E+02 -0.31159396920E+02  0.50528863244E+02  0.30000010315E+02 0.  0.
        -12    1    1    2    0    0 -0.10095987234E+02  0.24090006790E+02  0.31159396920E+02  0.40659136756E+02  0.00000000000E+00 0.  1.
         11    1    3    3    0    0 -0.21975943772E+01 -0.55932674706E+01 -0.16563115260E+01  0.62335728260E+01  0.51100000000E-03 0. -1.
        -11    1    3    3    0    0  0.27495381914E+01  0.20479522344E+01  0.30816228115E+01  0.46098229937E+01  0.51100000000E-03 0.  1.
         12    1    3    3    0    0  0.95440434198E+01 -0.20544691554E+02 -0.32584708205E+02  0.39685467424E+02  0.00000000000E+00 0. -1.
</event>
<event>
 7    1  0.2985411E-011  0.5052886E+02  0.7816164E-02  0.1300439E+00
        -11   -1    0    0    0    0  0.00000000000E+00  0.00000000000E+00  0.45593999997E+02  0.45594000000E+02  0.51100000000E-03 0. -1.
         11   -1    0    0    0    0 -0.00000000000E+00 -0.00000000000E+00 -0.45593999997E+02  0.45594000000E+02  0.51100000000E-03 0.  1.
    9900012    2    1    2    0    0 -0.39599940535E+02  0.32662793263E+01  0.86221884071E+01  0.50528855839E+02  0.29999987808E+02 0.  0.
        -12    1    1    2    0    0  0.39599940535E+02 -0.32662793263E+01 -0.86221884071E+01  0.40659144161E+02  0.00000000000E+00 0.  1.
         11    1    3    3    0    0 -0.19281356008E+01 -0.34441903334E+01  0.54334017190E+01  0.67158028894E+01  0.51100000000E-03 0. -1.
        -11    1    3    3    0    0 -0.22930593433E+02 -0.65646814834E+01  0.21427206285E+01  0.23947826835E+02  0.51100000000E-03 0.  1.
         12    1    3    3    0    0 -0.14741211501E+02  0.13275151143E+02  0.10460660596E+01  0.19865226115E+02  0.00000000000E+00 0. -1.
</event>
<event>
 7    1  0.2985411E-011  0.5052886E+02  0.7816164E-02  0.1300439E+00
        -11   -1    0    0    0    0  0.00000000000E+00  0.00000000000E+00  0.45593999997E+02  0.45594000000E+02  0.51100000000E-03 0. -1.
         11   -1    0    0    0    0 -0.00000000000E+00 -0.00000000000E+00 -0.45593999997E+02  0.45594000000E+02  0.51100000000E-03 0.  1.
    9900012    2    1    2    0    0 -0.31022403345E+02  0.16358909568E+02  0.20570902160E+02  0.50528862684E+02  0.30000008615E+02 0.  0.
        -12    1    1    2    0    0  0.31022403345E+02 -0.16358909568E+02 -0.20570902160E+02  0.40659137316E+02  0.00000000000E+00 0.  1.
         11    1    3    3    0    0 -0.16291541426E+02  0.16546004974E+02  0.21947445071E+02  0.31951133751E+02  0.51100000000E-03 0. -1.
        -11    1    3    3    0    0 -0.24992469795E+01  0.23865453992E+01 -0.45194379942E+01  0.56892138694E+01  0.51100000000E-03 0.  1.
        -12    1    3    3    0    0 -0.12231614940E+02 -0.25736408050E+01  0.31428950839E+01  0.12888515064E+02  0.00000000000E+00 0.  1.
</event>
<event>
 7    1  0.2985411E-011  0.5052886E+02  0.7816164E-02  0.1300439E+00
        -11   -1    0    0    0    0  0.00000000000E+00  0.00000000000E+00  0.45593999997E+02  0.45594000000E+02  0.51100000000E-03 0. -1.
         11   -1    0    0    0    0 -0.00000000000E+00 -0.00000000000E+00 -0.45593999997E+02  0.45594000000E+02  0.51100000000E-03 0.  1.
    9900012    2    1    2    0    0 -0.20847124156E+02 -0.31306898416E+02 -0.15441543192E+02  0.50528859205E+02  0.29999998040E+02 0.  0.
        -12    1    1    2    0    0  0.20847124156E+02  0.31306898416E+02  0.15441543192E+02  0.40659140795E+02  0.00000000000E+00 0.  1.
         11    1    3    3    0    0 -0.12237472534E+02 -0.96541310094E+01  0.15067940577E+01  0.15659770374E+02  0.51100000000E-03 0. -1.
        -11    1    3    3    0    0 -0.13635669216E+01 -0.84562197644E+01  0.36872304776E+01  0.93253759340E+01  0.51100000000E-03 0.  1.
        -12    1    3    3    0    0 -0.72460847009E+01 -0.13196547642E+02 -0.20635567727E+02  0.25543712897E+02  0.00000000000E+00 0.  1.
</event>
<event>
 7    1  0.2985411E-011  0.5052884E+02  0.7816164E-02  0.1300439E+00
        -11   -1    0    0    0    0  0.00000000000E+00  0.00000000000E+00  0.45593999997E+02  0.45594000000E+02  0.51100000000E-03 0.  1.
         11   -1    0    0    0    0 -0.00000000000E+00 -0.00000000000E+00 -0.45593999997E+02  0.45594000000E+02  0.51100000000E-03 0. -1.
    9900012    2    1    2    0    0  0.16283968666E+02  0.33212449868E+02 -0.16879958157E+02  0.50528838067E+02  0.29999933787E+02 0.  0.
        -12    1    1    2    0    0 -0.16283968666E+02 -0.33212449868E+02  0.16879958157E+02  0.40659161933E+02  0.00000000000E+00 0.  1.
         11    1    3    3    0    0 -0.22058705501E+01  0.72474383019E+01  0.36166362839E+01  0.83947176900E+01  0.51100000000E-03 0.  1.
        -11    1    3    3    0    0  0.90017771414E+01  0.22005641858E+02 -0.62826402904E+01  0.24591702555E+02  0.51100000000E-03 0. -1.
        -12    1    3    3    0    0  0.94880620751E+01  0.39593697079E+01 -0.14213954151E+02  0.17542417821E+02  0.00000000000E+00 0.  1.
</event>
<event>
 7    1  0.2985411E-011  0.5052886E+02  0.7816164E-02  0.1300439E+00
        -11   -1    0    0    0    0  0.00000000000E+00  0.00000000000E+00  0.45593999997E+02  0.45594000000E+02  0.51100000000E-03 0.  1.
         11   -1    0    0    0    0 -0.00000000000E+00 -0.00000000000E+00 -0.45593999997E+02  0.45594000000E+02  0.51100000000E-03 0. -1.
    9900012    2    1    2    0    0 -0.83079451557E+01 -0.36816261446E+02 -0.15123052412E+02  0.50528858668E+02  0.29999996409E+02 0.  0.
        -12    1    1    2    0    0  0.83079451557E+01  0.36816261446E+02  0.15123052412E+02  0.40659141332E+02  0.00000000000E+00 0.  1.
         11    1    3    3    0    0 -0.97774054295E+01 -0.10596973525E+02 -0.11999908210E+01  0.14468361450E+02  0.51100000000E-03 0. -1.
        -11    1    3    3    0    0 -0.46633885160E+01 -0.93709058647E+01  0.35224931248E+01  0.11043958858E+02  0.51100000000E-03 0.  1.
         12    1    3    3    0    0  0.61328487898E+01 -0.16848382056E+02 -0.17445554716E+02  0.25016538360E+02  0.00000000000E+00 0. -1.
</event>
<event>
 7    1  0.2985411E-011  0.5052885E+02  0.7816164E-02  0.1300439E+00
        -11   -1    0    0    0    0  0.00000000000E+00  0.00000000000E+00  0.45593999997E+02  0.45594000000E+02  0.51100000000E-03 0. -1.
         11   -1    0    0    0    0 -0.00000000000E+00 -0.00000000000E+00 -0.45593999997E+02  0.45594000000E+02  0.51100000000E-03 0.  1.
    9900012    2    1    2    0    0 -0.29435608220E+02 -0.24408023184E+02  0.13818814466E+02  0.50528852687E+02  0.29999978227E+02 0.  0.
        -12    1    1    2    0    0  0.29435608220E+02  0.24408023184E+02 -0.13818814466E+02  0.40659147313E+02  0.00000000000E+00 0.  1.
         11    1    3    3    0    0 -0.13288805592E+01  0.49988967501E+01 -0.13334542481E+01  0.53416282865E+01  0.51100000000E-03 0. -1.
        -11    1    3    3    0    0 -0.23498658120E+01 -0.35266923372E+01 -0.21840538362E+01  0.47675485940E+01  0.51100000000E-03 0.  1.
         12    1    3    3    0    0 -0.25756861849E+02 -0.25880227597E+02  0.17336322550E+02  0.40419675806E+02  0.00000000000E+00 0. -1.
</event>
<event>
 7    1  0.2985411E-011  0.5052886E+02  0.7816164E-02  0.1300439E+00
        -11   -1    0    0    0    0  0.00000000000E+00  0.00000000000E+00  0.45593999997E+02  0.45594000000E+02  0.51100000000E-03 0.  1.
         11   -1    0    0    0    0 -0.00000000000E+00 -0.00000000000E+00 -0.45593999997E+02  0.45594000000E+02  0.51100000000E-03 0. -1.
    9900012    2    1    2    0    0 -0.12081982076E+02  0.31054472578E+02 -0.23298300056E+02  0.50528863960E+02  0.30000012493E+02 0.  0.
        -12    1    1    2    0    0  0.12081982076E+02 -0.31054472578E+02  0.23298300056E+02  0.40659136040E+02  0.00000000000E+00 0.  1.
         11    1    3    3    0    0 -0.11074956089E+01  0.18135496315E+02 -0.16592118009E+01  0.18244883041E+02  0.51100000000E-03 0. -1.
        -11    1    3    3    0    0 -0.67782529010E+01  0.12150494904E+02 -0.45014333698E+01  0.14623342348E+02  0.51100000000E-03 0.  1.
        -12    1    3    3    0    0 -0.41962335660E+01  0.76848135966E+00 -0.17137654886E+02  0.17660638571E+02  0.00000000000E+00 0.  1.
</event>
<event>
 7    1  0.2985411E-011  0.5052893E+02  0.7816164E-02  0.1300439E+00
        -11   -1    0    0    0    0  0.00000000000E+00  0.00000000000E+00  0.45593999997E+02  0.45594000000E+02  0.51100000000E-03 0.  1.
         11   -1    0    0    0    0 -0.00000000000E+00 -0.00000000000E+00 -0.45593999997E+02  0.45594000000E+02  0.51100000000E-03 0. -1.
    9900012    2    1    2    0    0 -0.27966738008E+02  0.13882728782E+02 -0.26044020993E+02  0.50528934311E+02  0.30000226331E+02 0.  0.
        -12    1    1    2    0    0  0.27966738008E+02 -0.13882728782E+02  0.26044020993E+02  0.40659065689E+02  0.00000000000E+00 0.  1.
         11    1    3    3    0    0 -0.53314664851E+01  0.29885043147E+01 -0.15678743161E+02  0.16827913724E+02  0.51100000000E-03 0. -1.
        -11    1    3    3    0    0 -0.10654356590E+02 -0.17655504803E+01 -0.12059824283E+02  0.16188633199E+02  0.51100000000E-03 0.  1.
        -12    1    3    3    0    0 -0.11980914933E+02  0.12659774947E+02  0.16945464524E+01  0.17512387388E+02  0.00000000000E+00 0.  1.
</event>
<event>
 7    1  0.3251221E-011  0.5052887E+02  0.7816164E-02  0.1300439E+00
        -11   -1    0    0    0    0  0.00000000000E+00  0.00000000000E+00  0.45593999997E+02  0.45594000000E+02  0.51100000000E-03 0. -1.
         11   -1    0    0    0    0 -0.00000000000E+00 -0.00000000000E+00 -0.45593999997E+02  0.45594000000E+02  0.51100000000E-03 0.  1.
    9900012    2    1    2    0    0 -0.21880254555E+01 -0.21112271432E+02  0.34679239052E+02  0.50528867180E+02  0.30000022281E+02 0.  0.
        -12    1    1    2    0    0  0.21880254555E+01  0.21112271432E+02 -0.34679239052E+02  0.40659132820E+02  0.00000000000E+00 0.  1.
         11    1    3    3    0    0  0.26288305652E+01 -0.16775375061E+02  0.26963348477E+02  0.31864496229E+02  0.51100000000E-03 0. -1.
        -11    1    3    3    0    0  0.47880854166E+01  0.82847876824E+00  0.58420265821E+01  0.75987771301E+01  0.51100000000E-03 0.  1.
        -12    1    3    3    0    0 -0.96049414373E+01 -0.51653751396E+01  0.18738639928E+01  0.11065593821E+02  0.00000000000E+00 0.  1.
</event>
<event>
 7    1  0.2985411E-011  0.5052886E+02  0.7816164E-02  0.1300439E+00
        -11   -1    0    0    0    0  0.00000000000E+00  0.00000000000E+00  0.45593999997E+02  0.45594000000E+02  0.51100000000E-03 0.  1.
         11   -1    0    0    0    0 -0.00000000000E+00 -0.00000000000E+00 -0.45593999997E+02  0.45594000000E+02  0.51100000000E-03 0. -1.
    9900012    2    1    2    0    0 -0.10008865084E+02  0.21060692914E+02 -0.33308188500E+02  0.50528860961E+02  0.30000003376E+02 0.  0.
        -12    1    1    2    0    0  0.10008865084E+02 -0.21060692914E+02  0.33308188500E+02  0.40659139039E+02  0.00000000000E+00 0.  1.
         11    1    3    3    0    0  0.18578907818E-01  0.22845732075E+01 -0.15626188444E+02  0.15792320459E+02  0.51100000000E-03 0. -1.
        -11    1    3    3    0    0 -0.10517395182E+02  0.16871659864E+02 -0.22204803795E+02  0.29804728145E+02  0.51100000000E-03 0.  1.
        -12    1    3    3    0    0  0.48995119026E+00  0.19044598425E+01  0.45228037391E+01  0.49318123569E+01  0.00000000000E+00 0.  1.
</event>
<event>
 7    1  0.2985411E-011  0.5052887E+02  0.7816164E-02  0.1300439E+00
        -11   -1    0    0    0    0  0.00000000000E+00  0.00000000000E+00  0.45593999997E+02  0.45594000000E+02  0.51100000000E-03 0.  1.
         11   -1    0    0    0    0 -0.00000000000E+00 -0.00000000000E+00 -0.45593999997E+02  0.45594000000E+02  0.51100000000E-03 0. -1.
    9900012    2    1    2    0    0  0.31522656564E+02  0.89658152238E+01 -0.24064528320E+02  0.50528865199E+02  0.30000016259E+02 0.  0.
        -12    1    1    2    0    0 -0.31522656564E+02 -0.89658152238E+01  0.24064528320E+02  0.40659134801E+02  0.00000000000E+00 0.  1.
         11    1    3    3    0    0  0.10689284256E+02  0.10824379698E+02 -0.45496463053E+01  0.15878516162E+02  0.51100000000E-03 0. -1.
        -11    1    3    3    0    0 -0.37490784745E+01  0.10106198411E+01 -0.26910458603E+01  0.47242639590E+01  0.51100000000E-03 0.  1.
        -12    1    3    3    0    0  0.24582450783E+02 -0.28691843156E+01 -0.16823836155E+02  0.29926085078E+02  0.00000000000E+00 0.  1.
</event>
<event>
 7    1  0.2985411E-011  0.5052884E+02  0.7816164E-02  0.1300439E+00
        -11   -1    0    0    0    0  0.00000000000E+00  0.00000000000E+00  0.45593999997E+02  0.45594000000E+02  0.51100000000E-03 0. -1.
         11   -1    0    0    0    0 -0.00000000000E+00 -0.00000000000E+00 -0.45593999997E+02  0.45594000000E+02  0.51100000000E-03 0.  1.
    9900012    2    1    2    0    0  0.34963124798E+02 -0.10681396213E+02  0.17794807798E+02  0.50528837376E+02  0.29999931688E+02 0.  0.
        -12    1    1    2    0    0 -0.34963124798E+02  0.10681396213E+02 -0.17794807798E+02  0.40659162624E+02  0.00000000000E+00 0.  1.
         11    1    3    3    0    0  0.46626480387E+01  0.18313122013E+01  0.33026901414E+01  0.60001461267E+01  0.51100000000E-03 0. -1.
        -11    1    3    3    0    0 -0.35819811300E+01  0.92776604662E+00  0.60836479133E+01  0.71205414714E+01  0.51100000000E-03 0.  1.
        -12    1    3    3    0    0  0.33882457889E+02 -0.13440474461E+02  0.84084697438E+01  0.37408149778E+02  0.00000000000E+00 0.  1.
</event>
<event>
 7    1  0.2985411E-011  0.5052889E+02  0.7816164E-02  0.1300439E+00
        -11   -1    0    0    0    0  0.00000000000E+00  0.00000000000E+00  0.45593999997E+02  0.45594000000E+02  0.51100000000E-03 0.  1.
         11   -1    0    0    0    0 -0.00000000000E+00 -0.00000000000E+00 -0.45593999997E+02  0.45594000000E+02  0.51100000000E-03 0. -1.
    9900012    2    1    2    0    0  0.35377803086E+02  0.15371343912E+02 -0.12856765196E+02  0.50528885694E+02  0.30000078555E+02 0.  0.
        -12    1    1    2    0    0 -0.35377803086E+02 -0.15371343912E+02  0.12856765196E+02  0.40659114306E+02  0.00000000000E+00 0.  1.
         11    1    3    3    0    0  0.15589707289E+02 -0.69199192318E+01  0.20874881705E+00  0.17057779219E+02  0.51100000000E-03 0.  1.
        -11    1    3    3    0    0  0.98555226157E+01  0.88359132451E+01 -0.97033749279E+01  0.16412195897E+02  0.51100000000E-03 0. -1.
        -12    1    3    3    0    0  0.99325731810E+01  0.13455349899E+02 -0.33621390851E+01  0.17058910578E+02  0.00000000000E+00 0.  1.
</event>
<event>
 7    1  0.2985411E-011  0.5052885E+02  0.7816164E-02  0.1300439E+00
        -11   -1    0    0    0    0  0.00000000000E+00  0.00000000000E+00  0.45593999997E+02  0.45594000000E+02  0.51100000000E-03 0.  1.
         11   -1    0    0    0    0 -0.00000000000E+00 -0.00000000000E+00 -0.45593999997E+02  0.45594000000E+02  0.51100000000E-03 0. -1.
    9900012    2    1    2    0    0  0.39377805278E+02  0.92077827821E+01 -0.42156674284E+01  0.50528847720E+02  0.29999963129E+02 0.  0.
        -12    1    1    2    0    0 -0.39377805278E+02 -0.92077827821E+01  0.42156674284E+01  0.40659152280E+02  0.00000000000E+00 0.  1.
         11    1    3    3    0    0  0.46561263981E+01  0.63730173280E+01  0.84180686163E+01  0.11539442898E+02  0.51100000000E-03 0.  1.
        -11    1    3    3    0    0  0.24188582900E+00 -0.17857124163E+01  0.38946724010E+00  0.18436275601E+01  0.51100000000E-03 0. -1.
         12    1    3    3    0    0  0.34479793051E+02  0.46204778705E+01 -0.13023203285E+02  0.37145777262E+02  0.00000000000E+00 0. -1.
</event>
<event>
 7    1  0.2985411E-011  0.5052886E+02  0.7816164E-02  0.1300439E+00
        -11   -1    0    0    0    0  0.00000000000E+00  0.00000000000E+00  0.45593999997E+02  0.45594000000E+02  0.51100000000E-03 0.  1.
         11   -1    0    0    0    0 -0.00000000000E+00 -0.00000000000E+00 -0.45593999997E+02  0.45594000000E+02  0.51100000000E-03 0. -1.
    9900012    2    1    2    0    0  0.21165245800E+02 -0.34644102089E+02 -0.22325517963E+01  0.50528859246E+02  0.29999998164E+02 0.  0.
        -12    1    1    2    0    0 -0.21165245800E+02  0.34644102089E+02  0.22325517963E+01  0.40659140754E+02  0.00000000000E+00 0.  1.
         11    1    3    3    0    0  0.56210118307E+01 -0.35954568831E+00 -0.55308348177E+01  0.78939965255E+01  0.51100000000E-03 0. -1.
        -11    1    3    3    0    0  0.21002590875E+01 -0.15783737372E+01  0.66155335164E+01  0.71181202475E+01  0.51100000000E-03 0.  1.
         12    1    3    3    0    0  0.13443974882E+02 -0.32706182663E+02 -0.33172504950E+01  0.35516742473E+02  0.00000000000E+00 0. -1.
</event>
<event>
 7    1  0.2985411E-011  0.5052884E+02  0.7816164E-02  0.1300439E+00
        -11   -1    0    0    0    0  0.00000000000E+00  0.00000000000E+00  0.45593999997E+02  0.45594000000E+02  0.51100000000E-03 0. -1.
         11   -1    0    0    0    0 -0.00000000000E+00 -0.00000000000E+00 -0.45593999997E+02  0.45594000000E+02  0.51100000000E-03 0.  1.
    9900012    2    1    2    0    0 -0.15774237876E+02  0.24689436417E+02  0.28191708807E+02  0.50528839942E+02  0.29999939488E+02 0.  0.
        -12    1    1    2    0    0  0.15774237876E+02 -0.24689436417E+02 -0.28191708807E+02  0.40659160058E+02  0.00000000000E+00 0.  1.
         11    1    3    3    0    0  0.18847267290E+01  0.13080110833E+02  0.77492941042E+01  0.15319694958E+02  0.51100000000E-03 0. -1.
        -11    1    3    3    0    0  0.31296709493E+01  0.59622397462E+01  0.25316039082E+01  0.71938975286E+01  0.51100000000E-03 0.  1.
        -12    1    3    3    0    0 -0.20788635554E+02  0.56470858381E+01  0.17910810794E+02  0.28015247455E+02  0.00000000000E+00 0.  1.
</event>
<event>
 7    1  0.2985411E-011  0.5052883E+02  0.7816164E-02  0.1300439E+00
        -11   -1    0    0    0    0  0.00000000000E+00  0.00000000000E+00  0.45593999997E+02  0.45594000000E+02  0.51100000000E-03 0. -1.
         11   -1    0    0    0    0 -0.00000000000E+00 -0.00000000000E+00 -0.45593999997E+02  0.45594000000E+02  0.51100000000E-03 0.  1.
    9900012    2    1    2    0    0  0.15156114775E+02  0.25405759348E+02 -0.27892794580E+02  0.50528826218E+02  0.29999897773E+02 0.  0.
        -12    1    1    2    0    0 -0.15156114775E+02 -0.25405759348E+02  0.27892794580E+02  0.40659173782E+02  0.00000000000E+00 0.  1.
         11    1    3    3    0    0 -0.38984591048E+01 -0.16305257770E+01 -0.22389039765E+01  0.47821845404E+01  0.51100000000E-03 0. -1.
        -11    1    3    3    0    0  0.44273195336E+01 -0.23028988519E+01 -0.22961651744E+01  0.54933483545E+01  0.51100000000E-03 0.  1.
         12    1    3    3    0    0  0.14627254347E+02  0.29339183977E+02 -0.23357725429E+02  0.40253293323E+02  0.00000000000E+00 0. -1.
</event>
<event>
 7    1  0.2985411E-011  0.5052887E+02  0.7816164E-02  0.1300439E+00
        -11   -1    0    0    0    0  0.00000000000E+00  0.00000000000E+00  0.45593999997E+02  0.45594000000E+02  0.51100000000E-03 0.  1.
         11   -1    0    0    0    0 -0.00000000000E+00 -0.00000000000E+00 -0.45593999997E+02  0.45594000000E+02  0.51100000000E-03 0. -1.
    9900012    2    1    2    0    0 -0.20830084303E+02 -0.22575764953E+02 -0.26638448844E+02  0.50528873939E+02  0.30000042824E+02 0.  0.
        -12    1    1    2    0    0  0.20830084303E+02  0.22575764953E+02  0.26638448844E+02  0.40659126061E+02  0.00000000000E+00 0.  1.
         11    1    3    3    0    0 -0.35160873689E+01 -0.62203449595E+01 -0.10670835996E+02  0.12842207868E+02  0.51100000000E-03 0. -1.
        -11    1    3    3    0    0  0.24511186200E+01 -0.12982966144E+02 -0.10575421593E+02  0.16923502430E+02  0.51100000000E-03 0.  1.
         12    1    3    3    0    0 -0.19765115554E+02 -0.33724538493E+01 -0.53921912547E+01  0.20763163640E+02  0.00000000000E+00 0. -1.
</event>
<event>
 7    1  0.2985411E-011  0.5052886E+02  0.7816164E-02  0.1300439E+00
        -11   -1    0    0    0    0  0.00000000000E+00  0.00000000000E+00  0.45593999997E+02  0.45594000000E+02  0.51100000000E-03 0.  1.
         11   -1    0    0    0    0 -0.00000000000E+00 -0.00000000000E+00 -0.45593999997E+02  0.45594000000E+02  0.51100000000E-03 0. -1.
    9900012    2    1    2    0    0 -0.72278521265E+01 -0.27680497917E+02 -0.28891410644E+02  0.50528863016E+02  0.30000009623E+02 0.  0.
        -12    1    1    2    0    0  0.72278521265E+01  0.27680497917E+02  0.28891410644E+02  0.40659136984E+02  0.00000000000E+00 0.  1.
         11    1    3    3    0    0 -0.20749235413E+01 -0.44454899320E+01 -0.21338773467E+01  0.53498711414E+01  0.51100000000E-03 0. -1.
        -11    1    3    3    0    0 -0.67932642348E+01 -0.27261679553E+02 -0.13391652051E+02  0.31123688020E+02  0.51100000000E-03 0.  1.
        -12    1    3    3    0    0  0.16403356496E+01  0.40266715681E+01 -0.13365881246E+02  0.14055303855E+02  0.00000000000E+00 0.  1.
</event>
<event>
 7    1  0.2985411E-011  0.5052886E+02  0.7816164E-02  0.1300439E+00
        -11   -1    0    0    0    0  0.00000000000E+00  0.00000000000E+00  0.45593999997E+02  0.45594000000E+02  0.51100000000E-03 0. -1.
         11   -1    0    0    0    0 -0.00000000000E+00 -0.00000000000E+00 -0.45593999997E+02  0.45594000000E+02  0.51100000000E-03 0.  1.
    9900012    2    1    2    0    0  0.24249719572E+02  0.27937217677E+02 -0.16870952474E+02  0.50528855048E+02  0.29999985405E+02 0.  0.
        -12    1    1    2    0    0 -0.24249719572E+02 -0.27937217677E+02  0.16870952474E+02  0.40659144952E+02  0.00000000000E+00 0.  1.
         11    1    3    3    0    0  0.19535067054E+01  0.24903350323E+01 -0.41973648504E+01  0.52569790726E+01  0.51100000000E-03 0. -1.
        -11    1    3    3    0    0  0.46915143051E+01  0.12738591318E+02  0.76070099057E+01  0.15561125127E+02  0.51100000000E-03 0.  1.
         12    1    3    3    0    0  0.17604698561E+02  0.12708291327E+02 -0.20280597529E+02  0.29710750849E+02  0.00000000000E+00 0. -1.
</event>
<event>
 7    1  0.2985411E-011  0.5052887E+02  0.7816164E-02  0.1300439E+00
        -11   -1    0    0    0    0  0.00000000000E+00  0.00000000000E+00  0.45593999997E+02  0.45594000000E+02  0.51100000000E-03 0.  1.
         11   -1    0    0    0    0 -0.00000000000E+00 -0.00000000000E+00 -0.45593999997E+02  0.45594000000E+02  0.51100000000E-03 0. -1.
    9900012    2    1    2    0    0  0.34938873257E+02  0.92958959241E+01 -0.18601785156E+02  0.50528868720E+02  0.30000026960E+02 0.  0.
        -12    1    1    2    0    0 -0.34938873257E+02 -0.92958959241E+01  0.18601785156E+02  0.40659131280E+02  0.00000000000E+00 0.  1.
         11    1    3    3    0    0  0.64024103431E+01 -0.14269916983E+01 -0.12957926380E+01  0.66862726784E+01  0.51100000000E-03 0. -1.
        -11    1    3    3    0    0  0.21726011463E+02 -0.12423621918E+01 -0.42639795174E-01  0.21761545357E+02  0.51100000000E-03 0.  1.
        -12    1    3    3    0    0  0.68104514504E+01  0.11965249814E+02 -0.17263352723E+02  0.22081050684E+02  0.00000000000E+00 0.  1.
</event>
<event>
 7    1  0.2985411E-011  0.5052886E+02  0.7816164E-02  0.1300439E+00
        -11   -1    0    0    0    0  0.00000000000E+00  0.00000000000E+00  0.45593999997E+02  0.45594000000E+02  0.51100000000E-03 0. -1.
         11   -1    0    0    0    0 -0.00000000000E+00 -0.00000000000E+00 -0.45593999997E+02  0.45594000000E+02  0.51100000000E-03 0.  1.
    9900012    2    1    2    0    0 -0.30521811098E+02 -0.13023104660E+02  0.23494319909E+02  0.50528864794E+02  0.30000015028E+02 0.  0.
        -12    1    1    2    0    0  0.30521811098E+02  0.13023104660E+02 -0.23494319909E+02  0.40659135206E+02  0.00000000000E+00 0.  1.
         11    1    3    3    0    0 -0.17057484030E+02 -0.83596014348E+01  0.14795205203E+02  0.24077765570E+02  0.51100000000E-03 0. -1.
        -11    1    3    3    0    0 -0.72973856602E+00 -0.66512831582E+01 -0.44521811700E+01  0.80370394709E+01  0.51100000000E-03 0.  1.
         12    1    3    3    0    0 -0.12734588501E+02  0.19877799327E+01  0.13151295876E+02  0.18414059753E+02  0.00000000000E+00 0. -1.
</event>
<event>
 7    1  0.2985411E-011  0.5052885E+02  0.7816164E-02  0.1300439E+00
        -11   -1    0    0    0    0  0.00000000000E+00  0.00000000000E+00  0.45593999997E+02  0.45594000000E+02  0.51100000000E-03 0.  1.
         11   -1    0    0    0    0 -0.00000000000E+00 -0.00000000000E+00 -0.45593999997E+02  0.45594000000E+02  0.51100000000E-03 0. -1.
    9900012    2    1    2    0    0 -0.38210619852E+02 -0.11229877295E+02 -0.81856436373E+01  0.50528851272E+02  0.29999973926E+02 0.  0.
        -12    1    1    2    0    0  0.38210619852E+02  0.11229877295E+02  0.81856436373E+01  0.40659148728E+02  0.00000000000E+00 0.  1.
         11    1    3    3    0    0 -0.18438491487E+01 -0.13389595943E+01 -0.41572381806E+01  0.47408039434E+01  0.51100000000E-03 0. -1.
        -11    1    3    3    0    0 -0.25634397504E+02 -0.15413260575E+02 -0.10975825620E+02  0.31861570666E+02  0.51100000000E-03 0.  1.
         12    1    3    3    0    0 -0.10732373199E+02  0.55223428745E+01  0.69474201637E+01  0.13926476663E+02  0.00000000000E+00 0. -1.
</event>
<event>
 7    1  0.2985411E-011  0.5052887E+02  0.7816164E-02  0.1300439E+00
        -11   -1    0    0    0    0  0.00000000000E+00  0.00000000000E+00  0.45593999997E+02  0.45594000000E+02  0.51100000000E-03 0.  1.
         11   -1    0    0    0    0 -0.00000000000E+00 -0.00000000000E+00 -0.45593999997E+02  0.45594000000E+02  0.51100000000E-03 0. -1.
    9900012    2    1    2    0    0 -0.27126622507E+02  0.19060351900E+02 -0.23537512078E+02  0.50528866487E+02  0.30000020174E+02 0.  0.
        -12    1    1    2    0    0  0.27126622507E+02 -0.19060351900E+02  0.23537512078E+02  0.40659133513E+02  0.00000000000E+00 0.  1.
         11    1    3    3    0    0 -0.63760991854E+01 -0.12210394338E+01 -0.34542890858E+01  0.73537535634E+01  0.51100000000E-03 0. -1.
        -11    1    3    3    0    0 -0.89043218078E+01 -0.45077350399E+01 -0.93590347507E+01  0.13682037632E+02  0.51100000000E-03 0.  1.
         12    1    3    3    0    0 -0.11846201514E+02  0.24789126374E+02 -0.10724188242E+02  0.29493075291E+02  0.00000000000E+00 0. -1.
</event>
<event>
 7    1  0.2985411E-011  0.5052888E+02  0.7816164E-02  0.1300439E+00
        -11   -1    0    0    0    0  0.00000000000E+00  0.00000000000E+00  0.45593999997E+02  0.45594000000E+02  0.51100000000E-03 0.  1.
         11   -1    0    0    0    0 -0.00000000000E+00 -0.00000000000E+00 -0.45593999997E+02  0.45594000000E+02  0.51100000000E-03 0. -1.
    9900012    2    1    2    0    0  0.42891059212E+01 -0.40100582891E+02  0.51682797962E+01  0.50528876868E+02  0.30000051728E+02 0.  0.
        -12    1    1    2    0    0 -0.42891059212E+01  0.40100582891E+02 -0.51682797962E+01  0.40659123132E+02  0.00000000000E+00 0.  1.
         11    1    3    3    0    0 -0.44932515423E+01 -0.24172903877E+02  0.13830436091E+02  0.28209919426E+02  0.51100000000E-03 0. -1.
        -11    1    3    3    0    0  0.32297672334E+01 -0.42694652227E+01  0.18541683661E+01  0.56654805852E+01  0.51100000000E-03 0.  1.
        -12    1    3    3    0    0  0.55525902301E+01 -0.11658213791E+02 -0.10516324661E+02  0.16653476857E+02  0.00000000000E+00 0.  1.
</event>
<event>
 7    1  0.2985411E-011  0.5052886E+02  0.7816164E-02  0.1300439E+00
        -11   -1    0    0    0    0  0.00000000000E+00  0.00000000000E+00  0.45593999997E+02  0.45594000000E+02  0.51100000000E-03 0.  1.
         11   -1    0    0    0    0 -0.00000000000E+00 -0.00000000000E+00 -0.45593999997E+02  0.45594000000E+02  0.51100000000E-03 0. -1.
    9900012    2    1    2    0    0  0.24796648414E+02  0.50580069942E+01 -0.31823074282E+02  0.50528864937E+02  0.30000015462E+02 0.  0.
        -12    1    1    2    0    0 -0.24796648414E+02 -0.50580069942E+01  0.31823074282E+02  0.40659135063E+02  0.00000000000E+00 0.  1.
         11    1    3    3    0    0  0.14133222194E+02 -0.66543274371E+01 -0.76077430754E+01  0.17375436633E+02  0.51100000000E-03 0. -1.
        -11    1    3    3    0    0  0.21833567886E+01  0.25109772464E+00  0.22166164211E+01  0.31214556785E+01  0.51100000000E-03 0.  1.
         12    1    3    3    0    0  0.84800694319E+01  0.11461236707E+02 -0.26431947628E+02  0.30031972626E+02  0.00000000000E+00 0. -1.
</event>
<event>
 7    1  0.2985411E-011  0.5052886E+02  0.7816164E-02  0.1300439E+00
        -11   -1    0    0    0    0  0.00000000000E+00  0.00000000000E+00  0.45593999997E+02  0.45594000000E+02  0.51100000000E-03 0.  1.
         11   -1    0    0    0    0 -0.00000000000E+00 -0.00000000000E+00 -0.45593999997E+02  0.45594000000E+02  0.51100000000E-03 0. -1.
    9900012    2    1    2    0    0 -0.29630783671E+02 -0.89621715640E+01 -0.26360237396E+02  0.50528856187E+02  0.29999988865E+02 0.  0.
        -12    1    1    2    0    0  0.29630783671E+02  0.89621715640E+01  0.26360237396E+02  0.40659143813E+02  0.00000000000E+00 0.  1.
         11    1    3    3    0    0 -0.69430242361E+01  0.64025202932E+00 -0.12925220033E+02  0.14685939581E+02  0.51100000000E-03 0.  1.
        -11    1    3    3    0    0 -0.18128021469E+02 -0.10256007112E+02 -0.19293068332E+02  0.28390726130E+02  0.51100000000E-03 0. -1.
        -12    1    3    3    0    0 -0.45597379659E+01  0.65358351897E+00  0.58580509692E+01  0.74521904761E+01  0.00000000000E+00 0.  1.
</event>
<event>
 7    1  0.2985411E-011  0.5052889E+02  0.7816164E-02  0.1300439E+00
        -11   -1    0    0    0    0  0.00000000000E+00  0.00000000000E+00  0.45593999997E+02  0.45594000000E+02  0.51100000000E-03 0. -1.
         11   -1    0    0    0    0 -0.00000000000E+00 -0.00000000000E+00 -0.45593999997E+02  0.45594000000E+02  0.51100000000E-03 0.  1.
    9900012    2    1    2    0    0 -0.15525475108E+02 -0.37397221892E+02 -0.36838630514E+01  0.50528887497E+02  0.30000084034E+02 0.  0.
        -12    1    1    2    0    0  0.15525475108E+02  0.37397221892E+02  0.36838630514E+01  0.40659112503E+02  0.00000000000E+00 0.  1.
         11    1    3    3    0    0 -0.71782295909E+01 -0.10385370062E+02 -0.12068181017E+02  0.17464933001E+02  0.51100000000E-03 0. -1.
        -11    1    3    3    0    0 -0.10330861296E+02 -0.95984339450E+01  0.61924251152E+01  0.15401388197E+02  0.51100000000E-03 0.  1.
         12    1    3    3    0    0  0.19836157793E+01 -0.17413417885E+02  0.21918928507E+01  0.17662566299E+02  0.00000000000E+00 0. -1.
</event>
<event>
 7    1  0.2985411E-011  0.5052884E+02  0.7816164E-02  0.1300439E+00
        -11   -1    0    0    0    0  0.00000000000E+00  0.00000000000E+00  0.45593999997E+02  0.45594000000E+02  0.51100000000E-03 0. -1.
         11   -1    0    0    0    0 -0.00000000000E+00 -0.00000000000E+00 -0.45593999997E+02  0.45594000000E+02  0.51100000000E-03 0.  1.
    9900012    2    1    2    0    0 -0.37656986841E+02  0.13773685724E+02 -0.67382751370E+01  0.50528838324E+02  0.29999934570E+02 0.  0.
        -12    1    1    2    0    0  0.37656986841E+02 -0.13773685724E+02  0.67382751370E+01  0.40659161676E+02  0.00000000000E+00 0.  1.
         11    1    3    3    0    0 -0.13720763754E+02  0.96613203555E+01 -0.12779020078E+01  0.16829542561E+02  0.51100000000E-03 0. -1.
        -11    1    3    3    0    0 -0.11993718535E+02  0.72636152653E+01  0.74115336103E+01  0.15860019601E+02  0.51100000000E-03 0.  1.
         12    1    3    3    0    0 -0.11942504552E+02 -0.31512498970E+01 -0.12871906740E+02  0.17839276162E+02  0.00000000000E+00 0. -1.
</event>
<event>
 7    1  0.2985411E-011  0.5052886E+02  0.7816164E-02  0.1300439E+00
        -11   -1    0    0    0    0  0.00000000000E+00  0.00000000000E+00  0.45593999997E+02  0.45594000000E+02  0.51100000000E-03 0.  1.
         11   -1    0    0    0    0 -0.00000000000E+00 -0.00000000000E+00 -0.45593999997E+02  0.45594000000E+02  0.51100000000E-03 0. -1.
    9900012    2    1    2    0    0 -0.87483419201E+01  0.38514287719E+02 -0.96582392846E+01  0.50528862885E+02  0.30000009225E+02 0.  0.
        -12    1    1    2    0    0  0.87483419201E+01 -0.38514287719E+02  0.96582392846E+01  0.40659137115E+02  0.00000000000E+00 0.  1.
         11    1    3    3    0    0  0.33214798273E+00  0.24042559324E+02  0.33934064198E+01  0.24283125593E+02  0.51100000000E-03 0. -1.
        -11    1    3    3    0    0  0.37615542506E+01  0.70585267642E+00 -0.12486711286E+01  0.40257543678E+01  0.51100000000E-03 0.  1.
        -12    1    3    3    0    0 -0.12842044153E+02  0.13765875718E+02 -0.11802974576E+02  0.22219982925E+02  0.00000000000E+00 0.  1.
</event>
<event>
 7    1  0.2985411E-011  0.5052886E+02  0.7816164E-02  0.1300439E+00
        -11   -1    0    0    0    0  0.00000000000E+00  0.00000000000E+00  0.45593999997E+02  0.45594000000E+02  0.51100000000E-03 0.  1.
         11   -1    0    0    0    0 -0.00000000000E+00 -0.00000000000E+00 -0.45593999997E+02  0.45594000000E+02  0.51100000000E-03 0. -1.
    9900012    2    1    2    0    0 -0.16557516197E+02 -0.53006045075E+01 -0.36754839884E+02  0.50528855818E+02  0.29999987743E+02 0.  0.
        -12    1    1    2    0    0  0.16557516197E+02  0.53006045075E+01  0.36754839884E+02  0.40659144182E+02  0.00000000000E+00 0.  1.
         11    1    3    3    0    0 -0.26319455815E+01  0.59408104993E+01 -0.15398075896E+02  0.16712902456E+02  0.51100000000E-03 0.  1.
        -11    1    3    3    0    0 -0.95140007975E+01  0.37275159302E+01 -0.11378125528E+02  0.15292884848E+02  0.51100000000E-03 0. -1.
        -12    1    3    3    0    0 -0.44115698177E+01 -0.14968930937E+02 -0.99786384592E+01  0.18523068513E+02  0.00000000000E+00 0.  1.
</event>
<event>
 7    1  0.2985411E-011  0.5052891E+02  0.7816164E-02  0.1300439E+00
        -11   -1    0    0    0    0  0.00000000000E+00  0.00000000000E+00  0.45593999997E+02  0.45594000000E+02  0.51100000000E-03 0. -1.
         11   -1    0    0    0    0 -0.00000000000E+00 -0.00000000000E+00 -0.45593999997E+02  0.45594000000E+02  0.51100000000E-03 0.  1.
    9900012    2    1    2    0    0 -0.62825218467E+01  0.18212215443E+02  0.35805116669E+02  0.50528914278E+02  0.30000165439E+02 0.  0.
        -12    1    1    2    0    0  0.62825218467E+01 -0.18212215443E+02 -0.35805116669E+02  0.40659085722E+02  0.00000000000E+00 0.  1.
         11    1    3    3    0    0  0.53988196548E+01  0.10755426743E+01  0.87107687538E+01  0.10304442646E+02  0.51100000000E-03 0. -1.
        -11    1    3    3    0    0 -0.90969599072E+01 -0.17709878066E+01  0.35665743962E+01  0.99303338589E+01  0.51100000000E-03 0.  1.
         12    1    3    3    0    0 -0.25843815942E+01  0.18907660575E+02  0.23527773519E+02  0.30294137773E+02  0.00000000000E+00 0. -1.
</event>
<event>
 7    1  0.2985411E-011  0.5052886E+02  0.7816164E-02  0.1300439E+00
        -11   -1    0    0    0    0  0.00000000000E+00  0.00000000000E+00  0.45593999997E+02  0.45594000000E+02  0.51100000000E-03 0. -1.
         11   -1    0    0    0    0 -0.00000000000E+00 -0.00000000000E+00 -0.45593999997E+02  0.45594000000E+02  0.51100000000E-03 0.  1.
    9900012    2    1    2    0    0  0.14224251968E+02  0.26830847090E+02  0.27035933848E+02  0.50528863036E+02  0.30000009684E+02 0.  0.
        -12    1    1    2    0    0 -0.14224251968E+02 -0.26830847090E+02 -0.27035933848E+02  0.40659136964E+02  0.00000000000E+00 0.  1.
         11    1    3    3    0    0 -0.60734313330E+00  0.26207964983E+01 -0.10685007383E+01  0.28946733936E+01  0.51100000000E-03 0. -1.
        -11    1    3    3    0    0 -0.53865887022E+01 -0.14310090146E+01  0.60769465963E+01  0.82457507142E+01  0.51100000000E-03 0.  1.
         12    1    3    3    0    0  0.20218183803E+02  0.25641059606E+02  0.22027487990E+02  0.39388438928E+02  0.00000000000E+00 0. -1.
</event>
<event>
 7    1  0.2985411E-011  0.5052885E+02  0.7816164E-02  0.1300439E+00
        -11   -1    0    0    0    0  0.00000000000E+00  0.00000000000E+00  0.45593999997E+02  0.45594000000E+02  0.51100000000E-03 0.  1.
         11   -1    0    0    0    0 -0.00000000000E+00 -0.00000000000E+00 -0.45593999997E+02  0.45594000000E+02  0.51100000000E-03 0. -1.
    9900012    2    1    2    0    0 -0.34572145370E+02  0.21005621935E+02 -0.40861644133E+01  0.50528854314E+02  0.29999983172E+02 0.  0.
        -12    1    1    2    0    0  0.34572145370E+02 -0.21005621935E+02  0.40861644133E+01  0.40659145686E+02  0.00000000000E+00 0.  1.
         11    1    3    3    0    0 -0.24399702246E+02  0.59821746253E+01 -0.44776331832E+01  0.25518249981E+02  0.51100000000E-03 0. -1.
        -11    1    3    3    0    0  0.63310704961E+00  0.90876795490E+01 -0.62108358892E+01  0.11025480798E+02  0.51100000000E-03 0.  1.
         12    1    3    3    0    0 -0.10805550174E+02  0.59357677604E+01  0.66023046591E+01  0.13985123534E+02  0.00000000000E+00 0. -1.
</event>
<event>
 7    1  0.2985411E-011  0.5052888E+02  0.7816164E-02  0.1300439E+00
        -11   -1    0    0    0    0  0.00000000000E+00  0.00000000000E+00  0.45593999997E+02  0.45594000000E+02  0.51100000000E-03 0.  1.
         11   -1    0    0    0    0 -0.00000000000E+00 -0.00000000000E+00 -0.45593999997E+02  0.45594000000E+02  0.51100000000E-03 0. -1.
    9900012    2    1    2    0    0 -0.19318609896E+02  0.20364628488E+02 -0.29414921612E+02  0.50528875622E+02  0.30000047940E+02 0.  0.
        -12    1    1    2    0    0  0.19318609896E+02 -0.20364628488E+02  0.29414921612E+02  0.40659124378E+02  0.00000000000E+00 0.  1.
         11    1    3    3    0    0  0.25759270110E+01  0.86268685913E+00 -0.16818098508E+01  0.31950138057E+01  0.51100000000E-03 0. -1.
        -11    1    3    3    0    0 -0.37286442621E+01  0.83114672676E+01 -0.24003976913E+02  0.25674387706E+02  0.51100000000E-03 0.  1.
        -12    1    3    3    0    0 -0.18165892645E+02  0.11190474361E+02 -0.37291348485E+01  0.21659474110E+02  0.00000000000E+00 0.  1.
</event>
<event>
 7    1  0.2985411E-011  0.5052882E+02  0.7816164E-02  0.1300439E+00
        -11   -1    0    0    0    0  0.00000000000E+00  0.00000000000E+00  0.45593999997E+02  0.45594000000E+02  0.51100000000E-03 0. -1.
         11   -1    0    0    0    0 -0.00000000000E+00 -0.00000000000E+00 -0.45593999997E+02  0.45594000000E+02  0.51100000000E-03 0.  1.
    9900012    2    1    2    0    0 -0.96451799534E+01 -0.25027606845E+02 -0.30557457684E+02  0.50528821198E+02  0.29999882514E+02 0.  0.
        -12    1    1    2    0    0  0.96451799534E+01  0.25027606845E+02  0.30557457684E+02  0.40659178802E+02  0.00000000000E+00 0.  1.
         11    1    3    3    0    0 -0.50525367063E+01 -0.13619651678E+02 -0.45643641448E+01  0.15226833529E+02  0.51100000000E-03 0. -1.
        -11    1    3    3    0    0  0.31903457345E+01 -0.79682395379E+01 -0.69513637932E+00  0.86112927070E+01  0.51100000000E-03 0.  1.
         12    1    3    3    0    0 -0.77829889817E+01 -0.34397156286E+01 -0.25297957160E+02  0.26690694962E+02  0.00000000000E+00 0. -1.
</event>
<event>
 7    1  0.2985411E-011  0.5052886E+02  0.7816164E-02  0.1300439E+00
        -11   -1    0    0    0    0  0.00000000000E+00  0.00000000000E+00  0.45593999997E+02  0.45594000000E+02  0.51100000000E-03 0.  1.
         11   -1    0    0    0    0 -0.00000000000E+00 -0.00000000000E+00 -0.45593999997E+02  0.45594000000E+02  0.51100000000E-03 0. -1.
    9900012    2    1    2    0    0 -0.31301774909E+02  0.19515732925E+02  0.17102650033E+02  0.50528861025E+02  0.30000003573E+02 0.  0.
        -12    1    1    2    0    0  0.31301774909E+02 -0.19515732925E+02 -0.17102650033E+02  0.40659138975E+02  0.00000000000E+00 0.  1.
         11    1    3    3    0    0 -0.11046834992E+02  0.99751681633E+01  0.34006374282E+01  0.15267641547E+02  0.51100000000E-03 0. -1.
        -11    1    3    3    0    0 -0.21330118978E+02  0.14125615936E+02  0.60706842000E+01  0.26293729444E+02  0.51100000000E-03 0.  1.
        -12    1    3    3    0    0  0.10751790615E+01 -0.45850511744E+01  0.76313284048E+01  0.89674900339E+01  0.00000000000E+00 0.  1.
</event>
<event>
 7    1  0.2985411E-011  0.5052886E+02  0.7816164E-02  0.1300439E+00
        -11   -1    0    0    0    0  0.00000000000E+00  0.00000000000E+00  0.45593999997E+02  0.45594000000E+02  0.51100000000E-03 0. -1.
         11   -1    0    0    0    0 -0.00000000000E+00 -0.00000000000E+00 -0.45593999997E+02  0.45594000000E+02  0.51100000000E-03 0.  1.
    9900012    2    1    2    0    0  0.83766849579E+01 -0.39785316080E+02  0.35445157821E+00  0.50528857579E+02  0.29999993098E+02 0.  0.
        -12    1    1    2    0    0 -0.83766849579E+01  0.39785316080E+02 -0.35445157821E+00  0.40659142421E+02  0.00000000000E+00 0.  1.
         11    1    3    3    0    0  0.44247327897E+01 -0.25911192993E+02  0.84869905493E+01  0.27622403795E+02  0.51100000000E-03 0. -1.
        -11    1    3    3    0    0  0.94962011620E+01 -0.91487722013E+01 -0.19060889968E+01  0.13323327093E+02  0.51100000000E-03 0.  1.
        -12    1    3    3    0    0 -0.55442489937E+01 -0.47253508855E+01 -0.62264499743E+01  0.95831266911E+01  0.00000000000E+00 0.  1.
</event>
<event>
 7    1  0.2985411E-011  0.5052887E+02  0.7816164E-02  0.1300439E+00
        -11   -1    0    0    0    0  0.00000000000E+00  0.00000000000E+00  0.45593999997E+02  0.45594000000E+02  0.51100000000E-03 0.  1.
         11   -1    0    0    0    0 -0.00000000000E+00 -0.00000000000E+00 -0.45593999997E+02  0.45594000000E+02  0.51100000000E-03 0. -1.
    9900012    2    1    2    0    0 -0.32760565873E+02  0.57860551557E+00 -0.24074375437E+02  0.50528868020E+02  0.30000024835E+02 0.  0.
        -12    1    1    2    0    0  0.32760565873E+02 -0.57860551557E+00  0.24074375437E+02  0.40659131980E+02  0.00000000000E+00 0.  1.
         11    1    3    3    0    0 -0.17090272600E+01  0.20899221810E+01 -0.13477654736E+02  0.13745389276E+02  0.51100000000E-03 0. -1.
        -11    1    3    3    0    0 -0.14167984008E+02 -0.83113723431E+01 -0.16693817490E+01  0.16510527453E+02  0.51100000000E-03 0.  1.
         12    1    3    3    0    0 -0.16883554605E+02  0.68000556777E+01 -0.89273389518E+01  0.20272951292E+02  0.00000000000E+00 0. -1.
</event>
