<event>
 7    1  0.3027254E-013  0.7246155E+02  0.7816164E-02  0.1226708E+00
        -11   -1    0    0    0    0  0.00000000000E+00  0.00000000000E+00  0.45593999997E+02  0.45594000000E+02  0.51100000000E-03 0.  1.
         11   -1    0    0    0    0 -0.00000000000E+00 -0.00000000000E+00 -0.45593999997E+02  0.45594000000E+02  0.51100000000E-03 0. -1.
    9900012    2    1    2    0    0  0.15489126460E+02 -0.57024711882E+01  0.88458397926E+01  0.72461545509E+02  0.69999967713E+02 0.  0.
         12    1    1    2    0    0 -0.15489126460E+02  0.57024711882E+01 -0.88458397926E+01  0.18726454491E+02  0.00000000000E+00 0. -1.
         11    1    3    3    0    0  0.26605005886E+02 -0.23698287542E+02 -0.12676425603E+02  0.37817019144E+02  0.51100000000E-03 0. -1.
        -11    1    3    3    0    0  0.27713485969E+01  0.38302283967E+01 -0.78528383736E+00  0.47924621629E+01  0.51100000000E-03 0.  1.
        -12    1    3    3    0    0 -0.13887228023E+02  0.14165587958E+02  0.22307549233E+02  0.29852064202E+02  0.00000000000E+00 0.  1.
</event>
<event>
 7    1  0.3027254E-013  0.7246100E+02  0.7816164E-02  0.1226710E+00
        -11   -1    0    0    0    0  0.00000000000E+00  0.00000000000E+00  0.45593999997E+02  0.45594000000E+02  0.51100000000E-03 0. -1.
         11   -1    0    0    0    0 -0.00000000000E+00 -0.00000000000E+00 -0.45593999997E+02  0.45594000000E+02  0.51100000000E-03 0.  1.
    9900012    2    1    2    0    0 -0.66472587138E+01  0.17486324209E+02 -0.86192170972E+00  0.72461000994E+02  0.69999258377E+02 0.  0.
         12    1    1    2    0    0  0.66472587138E+01 -0.17486324209E+02  0.86192170972E+00  0.18726999006E+02  0.00000000000E+00 0. -1.
         11    1    3    3    0    0  0.15112161456E+02  0.31116312882E+02 -0.10805514757E+02  0.36240329754E+02  0.51100000000E-03 0. -1.
        -11    1    3    3    0    0  0.26744913385E-01 -0.34643890335E+00  0.10687717368E+02  0.10693364204E+02  0.51100000000E-03 0.  1.
        -12    1    3    3    0    0 -0.21786165083E+02 -0.13283549770E+02 -0.74412432013E+00  0.25527307036E+02  0.00000000000E+00 0.  1.
</event>
<event>
 7    1  0.3027254E-013  0.7246159E+02  0.7816164E-02  0.1226708E+00
        -11   -1    0    0    0    0  0.00000000000E+00  0.00000000000E+00  0.45593999997E+02  0.45594000000E+02  0.51100000000E-03 0.  1.
         11   -1    0    0    0    0 -0.00000000000E+00 -0.00000000000E+00 -0.45593999997E+02  0.45594000000E+02  0.51100000000E-03 0. -1.
    9900012    2    1    2    0    0  0.83191254066E+01 -0.15836619488E+02  0.55382385111E+01  0.72461589502E+02  0.70000025021E+02 0.  0.
         12    1    1    2    0    0 -0.83191254066E+01  0.15836619488E+02 -0.55382385111E+01  0.18726410498E+02  0.00000000000E+00 0. -1.
         11    1    3    3    0    0  0.11930516124E+02 -0.55883343008E+01  0.75682527687E+01  0.15193588959E+02  0.51100000000E-03 0. -1.
        -11    1    3    3    0    0  0.21832821785E+02 -0.45237890574E+01  0.14308293348E+02  0.26492716609E+02  0.51100000000E-03 0.  1.
         12    1    3    3    0    0 -0.25444212502E+02 -0.57244961301E+01 -0.16338307605E+02  0.30775283934E+02  0.00000000000E+00 0. -1.
</event>
<event>
 7    1  0.3027254E-013  0.7246154E+02  0.7816164E-02  0.1226708E+00
        -11   -1    0    0    0    0  0.00000000000E+00  0.00000000000E+00  0.45593999997E+02  0.45594000000E+02  0.51100000000E-03 0. -1.
         11   -1    0    0    0    0 -0.00000000000E+00 -0.00000000000E+00 -0.45593999997E+02  0.45594000000E+02  0.51100000000E-03 0.  1.
    9900012    2    1    2    0    0 -0.10783779935E+02  0.15280146077E+02 -0.95269297741E+00  0.72461537500E+02  0.69999957280E+02 0.  0.
         12    1    1    2    0    0  0.10783779935E+02 -0.15280146077E+02  0.95269297741E+00  0.18726462500E+02  0.00000000000E+00 0. -1.
         11    1    3    3    0    0 -0.63671993686E+01  0.20975408971E+02 -0.14750293327E+02  0.26421206687E+02  0.51100000000E-03 0.  1.
        -11    1    3    3    0    0 -0.10740784812E+02 -0.41553385057E+01 -0.13634013943E+02  0.17847062305E+02  0.51100000000E-03 0. -1.
         12    1    3    3    0    0  0.63242042451E+01 -0.15399243882E+01  0.27431614293E+02  0.28193268508E+02  0.00000000000E+00 0. -1.
</event>
<event>
 7    1  0.3027254E-013  0.7246154E+02  0.7816164E-02  0.1226708E+00
        -11   -1    0    0    0    0  0.00000000000E+00  0.00000000000E+00  0.45593999997E+02  0.45594000000E+02  0.51100000000E-03 0.  1.
         11   -1    0    0    0    0 -0.00000000000E+00 -0.00000000000E+00 -0.45593999997E+02  0.45594000000E+02  0.51100000000E-03 0. -1.
    9900012    2    1    2    0    0  0.17948705428E+01  0.18587704966E+02  0.13985980646E+01  0.72461537101E+02  0.69999956759E+02 0.  0.
         12    1    1    2    0    0 -0.17948705428E+01 -0.18587704966E+02 -0.13985980646E+01  0.18726462899E+02  0.00000000000E+00 0. -1.
         11    1    3    3    0    0  0.34407576916E+02  0.12889246880E+02 -0.13112490108E+01  0.36765927278E+02  0.51100000000E-03 0.  1.
        -11    1    3    3    0    0 -0.14848769936E+02 -0.12706437638E+01 -0.40634411257E+01  0.15447072804E+02  0.51100000000E-03 0. -1.
        -12    1    3    3    0    0 -0.17763936437E+02  0.69691018499E+01  0.67732882010E+01  0.20248537019E+02  0.00000000000E+00 0.  1.
</event>
<event>
 7    1  0.3027254E-013  0.7246154E+02  0.7816164E-02  0.1226708E+00
        -11   -1    0    0    0    0  0.00000000000E+00  0.00000000000E+00  0.45593999997E+02  0.45594000000E+02  0.51100000000E-03 0.  1.
         11   -1    0    0    0    0 -0.00000000000E+00 -0.00000000000E+00 -0.45593999997E+02  0.45594000000E+02  0.51100000000E-03 0. -1.
    9900012    2    1    2    0    0 -0.16868714122E+02 -0.51784636887E+01  0.62697847462E+01  0.72461542699E+02  0.69999964052E+02 0.  0.
         12    1    1    2    0    0  0.16868714122E+02  0.51784636887E+01 -0.62697847462E+01  0.18726457301E+02  0.00000000000E+00 0. -1.
         11    1    3    3    0    0  0.10521604777E+02  0.21705742572E+01  0.16437018280E+02  0.19636474477E+02  0.51100000000E-03 0. -1.
        -11    1    3    3    0    0 -0.28740555215E+01  0.11641805954E+02 -0.17256522826E+02  0.21013791217E+02  0.51100000000E-03 0.  1.
        -12    1    3    3    0    0 -0.24516263377E+02 -0.18990843900E+02  0.70892892920E+01  0.31811277005E+02  0.00000000000E+00 0.  1.
</event>
<event>
 7    1  0.3027254E-013  0.7246123E+02  0.7816164E-02  0.1226709E+00
        -11   -1    0    0    0    0  0.00000000000E+00  0.00000000000E+00  0.45593999997E+02  0.45594000000E+02  0.51100000000E-03 0.  1.
         11   -1    0    0    0    0 -0.00000000000E+00 -0.00000000000E+00 -0.45593999997E+02  0.45594000000E+02  0.51100000000E-03 0. -1.
    9900012    2    1    2    0    0 -0.81900833675E+01 -0.10633354636E+02  0.13059328779E+02  0.72461234008E+02  0.69999561923E+02 0.  0.
         12    1    1    2    0    0  0.81900833675E+01  0.10633354636E+02 -0.13059328779E+02  0.18726765992E+02  0.00000000000E+00 0. -1.
         11    1    3    3    0    0  0.11161030370E+02  0.91972571182E+01  0.17486079326E+02  0.22691873168E+02  0.51100000000E-03 0. -1.
        -11    1    3    3    0    0  0.51703282126E+01 -0.23697606551E+02 -0.56871741827E+01  0.24912904297E+02  0.51100000000E-03 0.  1.
         12    1    3    3    0    0 -0.24521441950E+02  0.38669947972E+01  0.12604236354E+01  0.24856456542E+02  0.00000000000E+00 0. -1.
</event>
<event>
 7    1  0.3027254E-013  0.7246157E+02  0.7816164E-02  0.1226708E+00
        -11   -1    0    0    0    0  0.00000000000E+00  0.00000000000E+00  0.45593999997E+02  0.45594000000E+02  0.51100000000E-03 0. -1.
         11   -1    0    0    0    0 -0.00000000000E+00 -0.00000000000E+00 -0.45593999997E+02  0.45594000000E+02  0.51100000000E-03 0.  1.
    9900012    2    1    2    0    0 -0.16195971028E+02  0.16025721596E+01  0.92629095298E+01  0.72461569266E+02  0.69999998661E+02 0.  0.
         12    1    1    2    0    0  0.16195971028E+02 -0.16025721596E+01 -0.92629095298E+01  0.18726430734E+02  0.00000000000E+00 0. -1.
         11    1    3    3    0    0 -0.88968751346E+01 -0.53732410027E+01  0.22628332638E+02  0.24901155481E+02  0.51100000000E-03 0. -1.
        -11    1    3    3    0    0 -0.11205571167E+02 -0.15569394428E+02  0.30180554668E+01  0.19418535658E+02  0.51100000000E-03 0.  1.
         12    1    3    3    0    0  0.39064752733E+01  0.22545207590E+02 -0.16383478575E+02  0.28141878128E+02  0.00000000000E+00 0. -1.
</event>
<event>
 7    1  0.3027254E-013  0.7246159E+02  0.7816164E-02  0.1226708E+00
        -11   -1    0    0    0    0  0.00000000000E+00  0.00000000000E+00  0.45593999997E+02  0.45594000000E+02  0.51100000000E-03 0. -1.
         11   -1    0    0    0    0 -0.00000000000E+00 -0.00000000000E+00 -0.45593999997E+02  0.45594000000E+02  0.51100000000E-03 0.  1.
    9900012    2    1    2    0    0  0.27276840883E+00  0.27465441053E+01 -0.18521894983E+02  0.72461588147E+02  0.70000023256E+02 0.  0.
         12    1    1    2    0    0 -0.27276840883E+00 -0.27465441053E+01  0.18521894983E+02  0.18726411853E+02  0.00000000000E+00 0. -1.
         11    1    3    3    0    0  0.25680470868E+01  0.22414583125E+02  0.26476746486E+01  0.22716042433E+02  0.51100000000E-03 0. -1.
        -11    1    3    3    0    0  0.13641189551E+02 -0.62309922024E+00 -0.20833835199E+02  0.24910218674E+02  0.51100000000E-03 0.  1.
         12    1    3    3    0    0 -0.15936468229E+02 -0.19044939799E+02 -0.33573443261E+00  0.24835327040E+02  0.00000000000E+00 0. -1.
</event>
<event>
 7    1  0.3027254E-013  0.7246154E+02  0.7816164E-02  0.1226708E+00
        -11   -1    0    0    0    0  0.00000000000E+00  0.00000000000E+00  0.45593999997E+02  0.45594000000E+02  0.51100000000E-03 0. -1.
         11   -1    0    0    0    0 -0.00000000000E+00 -0.00000000000E+00 -0.45593999997E+02  0.45594000000E+02  0.51100000000E-03 0.  1.
    9900012    2    1    2    0    0 -0.22623298600E+01 -0.16483687516E+02 -0.85936249044E+01  0.72461535317E+02  0.69999954435E+02 0.  0.
         12    1    1    2    0    0  0.22623298600E+01  0.16483687516E+02  0.85936249044E+01  0.18726464683E+02  0.00000000000E+00 0. -1.
         11    1    3    3    0    0 -0.24983244542E+01  0.19374461304E+01  0.12517615178E+02  0.12910693730E+02  0.51100000000E-03 0. -1.
        -11    1    3    3    0    0  0.52806375782E+00  0.90898926471E+01  0.12909532478E+02  0.15797500712E+02  0.51100000000E-03 0.  1.
        -12    1    3    3    0    0 -0.29206916362E+00 -0.27511026294E+02 -0.34020772561E+02  0.43753340875E+02  0.00000000000E+00 0.  1.
</event>
<event>
 7    1  0.3027254E-013  0.7246156E+02  0.7816164E-02  0.1226708E+00
        -11   -1    0    0    0    0  0.00000000000E+00  0.00000000000E+00  0.45593999997E+02  0.45594000000E+02  0.51100000000E-03 0. -1.
         11   -1    0    0    0    0 -0.00000000000E+00 -0.00000000000E+00 -0.45593999997E+02  0.45594000000E+02  0.51100000000E-03 0.  1.
    9900012    2    1    2    0    0 -0.14678436049E+02  0.77853957014E+01  0.86377446170E+01  0.72461561387E+02  0.69999988396E+02 0.  0.
         12    1    1    2    0    0  0.14678436049E+02 -0.77853957014E+01 -0.86377446170E+01  0.18726438613E+02  0.00000000000E+00 0. -1.
         11    1    3    3    0    0 -0.22548652730E+02 -0.11588385328E+02  0.11282846654E+02  0.27749505281E+02  0.51100000000E-03 0. -1.
        -11    1    3    3    0    0 -0.69912651760E+01 -0.54190887017E+01  0.98344833506E+01  0.13227296555E+02  0.51100000000E-03 0.  1.
         12    1    3    3    0    0  0.14861481858E+02  0.24792869732E+02 -0.12479585388E+02  0.31484759551E+02  0.00000000000E+00 0. -1.
</event>
<event>
 7    1  0.3027254E-013  0.7246153E+02  0.7816164E-02  0.1226708E+00
        -11   -1    0    0    0    0  0.00000000000E+00  0.00000000000E+00  0.45593999997E+02  0.45594000000E+02  0.51100000000E-03 0.  1.
         11   -1    0    0    0    0 -0.00000000000E+00 -0.00000000000E+00 -0.45593999997E+02  0.45594000000E+02  0.51100000000E-03 0. -1.
    9900012    2    1    2    0    0  0.17761159225E+02  0.14632730523E+00  0.59329875760E+01  0.72461533962E+02  0.69999952671E+02 0.  0.
         12    1    1    2    0    0 -0.17761159225E+02 -0.14632730523E+00 -0.59329875760E+01  0.18726466038E+02  0.00000000000E+00 0. -1.
         11    1    3    3    0    0  0.10174410625E+02 -0.14937411097E+02  0.44866611233E+01  0.18621895987E+02  0.51100000000E-03 0. -1.
        -11    1    3    3    0    0  0.12689232904E+02  0.27196768835E+02  0.16180130347E+02  0.34095124066E+02  0.51100000000E-03 0.  1.
         12    1    3    3    0    0 -0.51024843041E+01 -0.12113030433E+02 -0.14733803894E+02  0.19744513910E+02  0.00000000000E+00 0. -1.
</event>
<event>
 7    1  0.3280774E-013  0.7246164E+02  0.7816164E-02  0.1226708E+00
        -11   -1    0    0    0    0  0.00000000000E+00  0.00000000000E+00  0.45593999997E+02  0.45594000000E+02  0.51100000000E-03 0. -1.
         11   -1    0    0    0    0 -0.00000000000E+00 -0.00000000000E+00 -0.45593999997E+02  0.45594000000E+02  0.51100000000E-03 0.  1.
    9900012    2    1    2    0    0  0.17473697853E+02 -0.99654851027E+00 -0.66598284857E+01  0.72461640475E+02  0.70000091424E+02 0.  0.
         12    1    1    2    0    0 -0.17473697853E+02  0.99654851027E+00  0.66598284857E+01  0.18726359525E+02  0.00000000000E+00 0. -1.
         11    1    3    3    0    0  0.93740950005E+01 -0.18012635380E+02  0.18975334485E+02  0.27791941449E+02  0.51100000000E-03 0. -1.
        -11    1    3    3    0    0 -0.82961348158E+01  0.70556125914E+01  0.19556210945E+01  0.11064898375E+02  0.51100000000E-03 0.  1.
        -12    1    3    3    0    0  0.16395737668E+02  0.99604742784E+01 -0.27590784065E+02  0.33604800652E+02  0.00000000000E+00 0.  1.
</event>
<event>
 7    1  0.3027254E-013  0.7246145E+02  0.7816164E-02  0.1226708E+00
        -11   -1    0    0    0    0  0.00000000000E+00  0.00000000000E+00  0.45593999997E+02  0.45594000000E+02  0.51100000000E-03 0. -1.
         11   -1    0    0    0    0 -0.00000000000E+00 -0.00000000000E+00 -0.45593999997E+02  0.45594000000E+02  0.51100000000E-03 0.  1.
    9900012    2    1    2    0    0  0.87174038275E+01 -0.57502348609E+01 -0.15544302468E+02  0.72461450140E+02  0.69999843476E+02 0.  0.
         12    1    1    2    0    0 -0.87174038275E+01  0.57502348609E+01  0.15544302468E+02  0.18726549860E+02  0.00000000000E+00 0. -1.
         11    1    3    3    0    0 -0.12409680747E+02  0.27448324114E+01  0.16786955783E+01  0.12819996112E+02  0.51100000000E-03 0. -1.
        -11    1    3    3    0    0  0.90823176279E+01 -0.13703394189E+02 -0.34340404127E+02  0.38072757474E+02  0.51100000000E-03 0.  1.
         12    1    3    3    0    0  0.12044766947E+02  0.52083269171E+01  0.17117406081E+02  0.21568696553E+02  0.00000000000E+00 0. -1.
</event>
<event>
 7    1  0.3027254E-013  0.7246159E+02  0.7816164E-02  0.1226708E+00
        -11   -1    0    0    0    0  0.00000000000E+00  0.00000000000E+00  0.45593999997E+02  0.45594000000E+02  0.51100000000E-03 0. -1.
         11   -1    0    0    0    0 -0.00000000000E+00 -0.00000000000E+00 -0.45593999997E+02  0.45594000000E+02  0.51100000000E-03 0.  1.
    9900012    2    1    2    0    0  0.17999266749E+02 -0.24374647461E+01 -0.45566976645E+01  0.72461592670E+02  0.70000029148E+02 0.  0.
         12    1    1    2    0    0 -0.17999266749E+02  0.24374647461E+01  0.45566976645E+01  0.18726407330E+02  0.00000000000E+00 0. -1.
         11    1    3    3    0    0  0.19996541970E+02 -0.11412776244E+00 -0.50297506254E+01  0.20619726175E+02  0.51100000000E-03 0. -1.
        -11    1    3    3    0    0  0.24751756415E+02  0.15021225865E+01 -0.51454356119E+00  0.24802632385E+02  0.51100000000E-03 0.  1.
         12    1    3    3    0    0 -0.26749031636E+02 -0.38254595702E+01  0.98759652203E+00  0.27039234110E+02  0.00000000000E+00 0. -1.
</event>
<event>
 7    1  0.3027254E-013  0.7246158E+02  0.7816164E-02  0.1226708E+00
        -11   -1    0    0    0    0  0.00000000000E+00  0.00000000000E+00  0.45593999997E+02  0.45594000000E+02  0.51100000000E-03 0. -1.
         11   -1    0    0    0    0 -0.00000000000E+00 -0.00000000000E+00 -0.45593999997E+02  0.45594000000E+02  0.51100000000E-03 0.  1.
    9900012    2    1    2    0    0 -0.48873902265E+01 -0.46980226833E+01 -0.17456257286E+02  0.72461576989E+02  0.70000008721E+02 0.  0.
         12    1    1    2    0    0  0.48873902265E+01  0.46980226833E+01  0.17456257286E+02  0.18726423011E+02  0.00000000000E+00 0. -1.
         11    1    3    3    0    0 -0.71845690764E+01  0.11228106504E+02  0.36897585757E+00  0.13335087248E+02  0.51100000000E-03 0. -1.
        -11    1    3    3    0    0 -0.23279887740E+02  0.43913532905E+01 -0.67102255711E+01  0.24622434575E+02  0.51100000000E-03 0.  1.
         12    1    3    3    0    0  0.25577066590E+02 -0.20317482478E+02 -0.11115007573E+02  0.34504055166E+02  0.00000000000E+00 0. -1.
</event>
<event>
 7    1  0.3027254E-013  0.7246161E+02  0.7816164E-02  0.1226708E+00
        -11   -1    0    0    0    0  0.00000000000E+00  0.00000000000E+00  0.45593999997E+02  0.45594000000E+02  0.51100000000E-03 0.  1.
         11   -1    0    0    0    0 -0.00000000000E+00 -0.00000000000E+00 -0.45593999997E+02  0.45594000000E+02  0.51100000000E-03 0. -1.
    9900012    2    1    2    0    0  0.12440370067E+02  0.13735246251E+01  0.13929406001E+02  0.72461608761E+02  0.70000050110E+02 0.  0.
         12    1    1    2    0    0 -0.12440370067E+02 -0.13735246251E+01 -0.13929406001E+02  0.18726391239E+02  0.00000000000E+00 0. -1.
         11    1    3    3    0    0  0.15045454621E+02  0.19207115359E+01  0.13353847511E+02  0.20208416097E+02  0.51100000000E-03 0. -1.
        -11    1    3    3    0    0  0.14431930573E+02 -0.21023724473E+02 -0.14287988808E+01  0.25540537921E+02  0.51100000000E-03 0.  1.
        -12    1    3    3    0    0 -0.17037015127E+02  0.20476537562E+02  0.20043573712E+01  0.26712654743E+02  0.00000000000E+00 0.  1.
</event>
<event>
 7    1  0.3027254E-013  0.7246173E+02  0.7816164E-02  0.1226708E+00
        -11   -1    0    0    0    0  0.00000000000E+00  0.00000000000E+00  0.45593999997E+02  0.45594000000E+02  0.51100000000E-03 0. -1.
         11   -1    0    0    0    0 -0.00000000000E+00 -0.00000000000E+00 -0.45593999997E+02  0.45594000000E+02  0.51100000000E-03 0.  1.
    9900012    2    1    2    0    0  0.45485235363E+01 -0.17094209847E+02  0.61458957992E+01  0.72461732037E+02  0.70000210700E+02 0.  0.
         12    1    1    2    0    0 -0.45485235363E+01  0.17094209847E+02 -0.61458957992E+01  0.18726267963E+02  0.00000000000E+00 0. -1.
         11    1    3    3    0    0  0.80045443684E+01  0.67860954038E+01 -0.17267531704E+02  0.20206223615E+02  0.51100000000E-03 0. -1.
        -11    1    3    3    0    0  0.38463387933E+01  0.83605894622E+00 -0.95987196851E+01  0.10374427046E+02  0.51100000000E-03 0.  1.
        -12    1    3    3    0    0 -0.73023596253E+01 -0.24716364197E+02  0.33012147189E+02  0.41881081376E+02  0.00000000000E+00 0.  1.
</event>
<event>
 7    1  0.3027254E-013  0.7246174E+02  0.7816164E-02  0.1226708E+00
        -11   -1    0    0    0    0  0.00000000000E+00  0.00000000000E+00  0.45593999997E+02  0.45594000000E+02  0.51100000000E-03 0.  1.
         11   -1    0    0    0    0 -0.00000000000E+00 -0.00000000000E+00 -0.45593999997E+02  0.45594000000E+02  0.51100000000E-03 0. -1.
    9900012    2    1    2    0    0  0.10771437913E+02 -0.14112701925E+02  0.59565676346E+01  0.72461736936E+02  0.70000217082E+02 0.  0.
         12    1    1    2    0    0 -0.10771437913E+02  0.14112701925E+02 -0.59565676346E+01  0.18726263064E+02  0.00000000000E+00 0. -1.
         11    1    3    3    0    0 -0.18965083939E+01 -0.14982088400E+02 -0.21358212640E+02  0.26157847090E+02  0.51100000000E-03 0. -1.
        -11    1    3    3    0    0 -0.36799715787E+00 -0.16029072059E+02  0.12337250306E+02  0.20230529364E+02  0.51100000000E-03 0.  1.
         12    1    3    3    0    0  0.13035943465E+02  0.16898458534E+02  0.14977529969E+02  0.26073360482E+02  0.00000000000E+00 0. -1.
</event>
<event>
 7    1  0.3027254E-013  0.7246157E+02  0.7816164E-02  0.1226708E+00
        -11   -1    0    0    0    0  0.00000000000E+00  0.00000000000E+00  0.45593999997E+02  0.45594000000E+02  0.51100000000E-03 0. -1.
         11   -1    0    0    0    0 -0.00000000000E+00 -0.00000000000E+00 -0.45593999997E+02  0.45594000000E+02  0.51100000000E-03 0.  1.
    9900012    2    1    2    0    0 -0.84410799492E+00  0.96525610143E+01 -0.16024816078E+02  0.72461569940E+02  0.69999999539E+02 0.  0.
         12    1    1    2    0    0  0.84410799492E+00 -0.96525610143E+01  0.16024816078E+02  0.18726430060E+02  0.00000000000E+00 0. -1.
         11    1    3    3    0    0  0.55095424493E+01  0.16765793342E+02 -0.60392366860E+01  0.18652594040E+02  0.51100000000E-03 0. -1.
        -11    1    3    3    0    0  0.21256721833E+02 -0.33875816483E+01 -0.13975750123E+02  0.25664090171E+02  0.51100000000E-03 0.  1.
        -12    1    3    3    0    0 -0.27610372278E+02 -0.37256506796E+01  0.39901707303E+01  0.28144885730E+02  0.00000000000E+00 0.  1.
</event>
<event>
 7    1  0.3027254E-013  0.7246155E+02  0.7816164E-02  0.1226708E+00
        -11   -1    0    0    0    0  0.00000000000E+00  0.00000000000E+00  0.45593999997E+02  0.45594000000E+02  0.51100000000E-03 0. -1.
         11   -1    0    0    0    0 -0.00000000000E+00 -0.00000000000E+00 -0.45593999997E+02  0.45594000000E+02  0.51100000000E-03 0.  1.
    9900012    2    1    2    0    0  0.68933087285E+00 -0.15908101841E+02  0.98558204356E+01  0.72461546046E+02  0.69999968412E+02 0.  0.
         12    1    1    2    0    0 -0.68933087285E+00  0.15908101841E+02 -0.98558204356E+01  0.18726453954E+02  0.00000000000E+00 0. -1.
         11    1    3    3    0    0 -0.20150153042E+02 -0.15121702670E+02  0.18328142990E+02  0.31154700849E+02  0.51100000000E-03 0.  1.
        -11    1    3    3    0    0  0.67235737547E+01  0.62127401836E+00  0.13533750422E+02  0.15124643010E+02  0.51100000000E-03 0. -1.
        -12    1    3    3    0    0  0.14115910160E+02 -0.14076731894E+01 -0.22006072977E+02  0.26182202186E+02  0.00000000000E+00 0.  1.
</event>
<event>
 7    1  0.3027254E-013  0.7246156E+02  0.7816164E-02  0.1226708E+00
        -11   -1    0    0    0    0  0.00000000000E+00  0.00000000000E+00  0.45593999997E+02  0.45594000000E+02  0.51100000000E-03 0. -1.
         11   -1    0    0    0    0 -0.00000000000E+00 -0.00000000000E+00 -0.45593999997E+02  0.45594000000E+02  0.51100000000E-03 0.  1.
    9900012    2    1    2    0    0  0.26596440720E+01 -0.12800184884E+01 -0.18492355952E+02  0.72461564606E+02  0.69999992590E+02 0.  0.
         12    1    1    2    0    0 -0.26596440720E+01  0.12800184884E+01  0.18492355952E+02  0.18726435394E+02  0.00000000000E+00 0. -1.
         11    1    3    3    0    0  0.61816098633E+01 -0.16532093575E+01  0.15357558495E+02  0.16637307620E+02  0.51100000000E-03 0. -1.
        -11    1    3    3    0    0  0.95568854581E+01 -0.88655596828E+01  0.48763418613E+01  0.13918006982E+02  0.51100000000E-03 0.  1.
        -12    1    3    3    0    0 -0.13078851249E+02  0.92387505519E+01 -0.38726256307E+02  0.41906250003E+02  0.00000000000E+00 0.  1.
</event>
<event>
 7    1  0.3027254E-013  0.7246158E+02  0.7816164E-02  0.1226708E+00
        -11   -1    0    0    0    0  0.00000000000E+00  0.00000000000E+00  0.45593999997E+02  0.45594000000E+02  0.51100000000E-03 0. -1.
         11   -1    0    0    0    0 -0.00000000000E+00 -0.00000000000E+00 -0.45593999997E+02  0.45594000000E+02  0.51100000000E-03 0.  1.
    9900012    2    1    2    0    0 -0.39029639151E+01  0.17689167796E+02 -0.47475363284E+01  0.72461577869E+02  0.70000009868E+02 0.  0.
         12    1    1    2    0    0  0.39029639151E+01 -0.17689167796E+02  0.47475363284E+01  0.18726422131E+02  0.00000000000E+00 0. -1.
         11    1    3    3    0    0  0.15867625280E+02  0.15356157455E+02 -0.17586521629E+02  0.28229042617E+02  0.51100000000E-03 0. -1.
        -11    1    3    3    0    0 -0.89154844244E+01  0.55822888401E+01 -0.12582445632E+02  0.16400175291E+02  0.51100000000E-03 0.  1.
         12    1    3    3    0    0 -0.10855104771E+02 -0.32492784988E+01  0.25421430933E+02  0.27832359961E+02  0.00000000000E+00 0. -1.
</event>
<event>
 7    1  0.3027254E-013  0.7246160E+02  0.7816164E-02  0.1226708E+00
        -11   -1    0    0    0    0  0.00000000000E+00  0.00000000000E+00  0.45593999997E+02  0.45594000000E+02  0.51100000000E-03 0. -1.
         11   -1    0    0    0    0 -0.00000000000E+00 -0.00000000000E+00 -0.45593999997E+02  0.45594000000E+02  0.51100000000E-03 0.  1.
    9900012    2    1    2    0    0  0.36800540648E+01 -0.13882881476E+02 -0.12016689144E+02  0.72461601148E+02  0.70000040192E+02 0.  0.
         12    1    1    2    0    0 -0.36800540648E+01  0.13882881476E+02  0.12016689144E+02  0.18726398852E+02  0.00000000000E+00 0. -1.
         11    1    3    3    0    0  0.15558498177E+02  0.19044770491E+02 -0.66848798499E+01  0.25484461294E+02  0.51100000000E-03 0. -1.
        -11    1    3    3    0    0  0.10416159211E+02 -0.10146656171E+02 -0.39672590775E+01  0.15072828169E+02  0.51100000000E-03 0.  1.
         12    1    3    3    0    0 -0.22294603324E+02 -0.22780995795E+02 -0.13645502167E+01  0.31904311684E+02  0.00000000000E+00 0. -1.
</event>
<event>
 7    1  0.3027254E-013  0.7246164E+02  0.7816164E-02  0.1226708E+00
        -11   -1    0    0    0    0  0.00000000000E+00  0.00000000000E+00  0.45593999997E+02  0.45594000000E+02  0.51100000000E-03 0. -1.
         11   -1    0    0    0    0 -0.00000000000E+00 -0.00000000000E+00 -0.45593999997E+02  0.45594000000E+02  0.51100000000E-03 0.  1.
    9900012    2    1    2    0    0 -0.16664939107E+02 -0.84894120120E+01 -0.94141934639E+00  0.72461639378E+02  0.70000089995E+02 0.  0.
         12    1    1    2    0    0  0.16664939107E+02  0.84894120120E+01  0.94141934639E+00  0.18726360622E+02  0.00000000000E+00 0. -1.
         11    1    3    3    0    0 -0.19452154797E+02  0.14931298141E+02  0.10304648338E+02  0.26599168560E+02  0.51100000000E-03 0. -1.
        -11    1    3    3    0    0 -0.48980696061E+00 -0.23396042428E+02  0.92079526587E+01  0.25147586456E+02  0.51100000000E-03 0.  1.
        -12    1    3    3    0    0  0.32770226506E+01 -0.24667725477E-01 -0.20454020343E+02  0.20714884362E+02  0.00000000000E+00 0.  1.
</event>
<event>
 7    1  0.3027254E-013  0.7246160E+02  0.7816164E-02  0.1226708E+00
        -11   -1    0    0    0    0  0.00000000000E+00  0.00000000000E+00  0.45593999997E+02  0.45594000000E+02  0.51100000000E-03 0.  1.
         11   -1    0    0    0    0 -0.00000000000E+00 -0.00000000000E+00 -0.45593999997E+02  0.45594000000E+02  0.51100000000E-03 0. -1.
    9900012    2    1    2    0    0  0.12776184749E+02  0.10085811310E+02  0.92587072338E+01  0.72461597618E+02  0.70000035594E+02 0.  0.
         12    1    1    2    0    0 -0.12776184749E+02 -0.10085811310E+02 -0.92587072338E+01  0.18726402382E+02  0.00000000000E+00 0. -1.
         11    1    3    3    0    0  0.17020856400E+02 -0.50712040553E+01 -0.16251195673E+01  0.17834451969E+02  0.51100000000E-03 0. -1.
        -11    1    3    3    0    0 -0.94515052621E+01 -0.12835695320E+02 -0.10439926521E+02  0.19054608159E+02  0.51100000000E-03 0.  1.
         12    1    3    3    0    0  0.52068336114E+01  0.27992710685E+02  0.21323753322E+02  0.35572537490E+02  0.00000000000E+00 0. -1.
</event>
<event>
 7    1  0.3027254E-013  0.7246161E+02  0.7816164E-02  0.1226708E+00
        -11   -1    0    0    0    0  0.00000000000E+00  0.00000000000E+00  0.45593999997E+02  0.45594000000E+02  0.51100000000E-03 0. -1.
         11   -1    0    0    0    0 -0.00000000000E+00 -0.00000000000E+00 -0.45593999997E+02  0.45594000000E+02  0.51100000000E-03 0.  1.
    9900012    2    1    2    0    0 -0.12509283187E+02  0.43670292208E+01  0.13233462614E+02  0.72461611058E+02  0.70000053102E+02 0.  0.
         12    1    1    2    0    0  0.12509283187E+02 -0.43670292208E+01 -0.13233462614E+02  0.18726388942E+02  0.00000000000E+00 0. -1.
         11    1    3    3    0    0  0.62512490728E+01 -0.75951783706E+01  0.26340010888E+01  0.10183457735E+02  0.51100000000E-03 0. -1.
        -11    1    3    3    0    0 -0.47354924500E+01  0.16356414852E+02 -0.21232377654E+02  0.27217109631E+02  0.51100000000E-03 0.  1.
         12    1    3    3    0    0 -0.14025039810E+02 -0.43942072608E+01  0.31831839180E+02  0.35061043691E+02  0.00000000000E+00 0. -1.
</event>
<event>
 7    1  0.3027254E-013  0.7246156E+02  0.7816164E-02  0.1226708E+00
        -11   -1    0    0    0    0  0.00000000000E+00  0.00000000000E+00  0.45593999997E+02  0.45594000000E+02  0.51100000000E-03 0. -1.
         11   -1    0    0    0    0 -0.00000000000E+00 -0.00000000000E+00 -0.45593999997E+02  0.45594000000E+02  0.51100000000E-03 0.  1.
    9900012    2    1    2    0    0 -0.20207349129E+01 -0.41078221494E+01 -0.18158250241E+02  0.72461558154E+02  0.69999984185E+02 0.  0.
         12    1    1    2    0    0  0.20207349129E+01  0.41078221494E+01  0.18158250241E+02  0.18726441846E+02  0.00000000000E+00 0. -1.
         11    1    3    3    0    0  0.12395297829E+02 -0.46296478271E+01 -0.52446300043E+00  0.13242058336E+02  0.51100000000E-03 0. -1.
        -11    1    3    3    0    0  0.18007442328E+02 -0.10415339358E+02 -0.17235346244E+00  0.20803292506E+02  0.51100000000E-03 0.  1.
        -12    1    3    3    0    0 -0.32423475070E+02  0.10937165035E+02 -0.17461433778E+02  0.38416207312E+02  0.00000000000E+00 0.  1.
</event>
<event>
 7    1  0.3027254E-013  0.7246157E+02  0.7816164E-02  0.1226708E+00
        -11   -1    0    0    0    0  0.00000000000E+00  0.00000000000E+00  0.45593999997E+02  0.45594000000E+02  0.51100000000E-03 0. -1.
         11   -1    0    0    0    0 -0.00000000000E+00 -0.00000000000E+00 -0.45593999997E+02  0.45594000000E+02  0.51100000000E-03 0.  1.
    9900012    2    1    2    0    0 -0.91327814283E+01 -0.15819101694E+02  0.41264556011E+01  0.72461566521E+02  0.69999995084E+02 0.  0.
         12    1    1    2    0    0  0.91327814283E+01  0.15819101694E+02 -0.41264556011E+01  0.18726433479E+02  0.00000000000E+00 0. -1.
         11    1    3    3    0    0 -0.24434711951E+02 -0.10731145346E+02  0.13700268459E+01  0.26722455021E+02  0.51100000000E-03 0. -1.
        -11    1    3    3    0    0 -0.14982394914E+02 -0.35257523537E+00  0.14937827248E+01  0.15060805216E+02  0.51100000000E-03 0.  1.
         12    1    3    3    0    0  0.30284325437E+02 -0.47353811122E+01  0.12626460304E+01  0.30678306284E+02  0.00000000000E+00 0. -1.
</event>
<event>
 7    1  0.3027254E-013  0.7246190E+02  0.7816164E-02  0.1226707E+00
        -11   -1    0    0    0    0  0.00000000000E+00  0.00000000000E+00  0.45593999997E+02  0.45594000000E+02  0.51100000000E-03 0.  1.
         11   -1    0    0    0    0 -0.00000000000E+00 -0.00000000000E+00 -0.45593999997E+02  0.45594000000E+02  0.51100000000E-03 0. -1.
    9900012    2    1    2    0    0  0.34175748492E+01 -0.98750937784E+01  0.15539285015E+02  0.72461903937E+02  0.70000434630E+02 0.  0.
         12    1    1    2    0    0 -0.34175748492E+01  0.98750937784E+01 -0.15539285015E+02  0.18726096063E+02  0.00000000000E+00 0. -1.
         11    1    3    3    0    0  0.15222548546E+02 -0.18112566492E+02  0.10314382157E+01  0.23682375604E+02  0.51100000000E-03 0. -1.
        -11    1    3    3    0    0 -0.75874845960E+01  0.19002888872E+02  0.25589536067E+02  0.32764371875E+02  0.51100000000E-03 0.  1.
         12    1    3    3    0    0 -0.42174891008E+01 -0.10765416158E+02 -0.11081689268E+02  0.16015156459E+02  0.00000000000E+00 0. -1.
</event>
<event>
 7    1  0.3027254E-013  0.7246157E+02  0.7816164E-02  0.1226708E+00
        -11   -1    0    0    0    0  0.00000000000E+00  0.00000000000E+00  0.45593999997E+02  0.45594000000E+02  0.51100000000E-03 0.  1.
         11   -1    0    0    0    0 -0.00000000000E+00 -0.00000000000E+00 -0.45593999997E+02  0.45594000000E+02  0.51100000000E-03 0. -1.
    9900012    2    1    2    0    0 -0.11620412933E+02 -0.14513830005E+02 -0.22347096407E+01  0.72461569872E+02  0.69999999450E+02 0.  0.
         12    1    1    2    0    0  0.11620412933E+02  0.14513830005E+02  0.22347096407E+01  0.18726430128E+02  0.00000000000E+00 0. -1.
         11    1    3    3    0    0 -0.10489954244E+02  0.29650883486E+01  0.69030618514E+01  0.12902835043E+02  0.51100000000E-03 0. -1.
        -11    1    3    3    0    0 -0.37486029793E+00  0.20005308707E+01  0.22394676549E+02  0.22486978054E+02  0.51100000000E-03 0.  1.
         12    1    3    3    0    0 -0.75559839060E+00 -0.19479449224E+02 -0.31532448041E+02  0.37071756776E+02  0.00000000000E+00 0. -1.
</event>
<event>
 7    1  0.3027254E-013  0.7246158E+02  0.7816164E-02  0.1226708E+00
        -11   -1    0    0    0    0  0.00000000000E+00  0.00000000000E+00  0.45593999997E+02  0.45594000000E+02  0.51100000000E-03 0. -1.
         11   -1    0    0    0    0 -0.00000000000E+00 -0.00000000000E+00 -0.45593999997E+02  0.45594000000E+02  0.51100000000E-03 0.  1.
    9900012    2    1    2    0    0  0.13353919241E+00 -0.10234718865E+02 -0.15681560946E+02  0.72461583988E+02  0.70000017839E+02 0.  0.
         12    1    1    2    0    0 -0.13353919241E+00  0.10234718865E+02  0.15681560946E+02  0.18726416012E+02  0.00000000000E+00 0. -1.
         11    1    3    3    0    0  0.50119296168E+01 -0.37233970648E+01 -0.16361472420E+01  0.64544637457E+01  0.51100000000E-03 0. -1.
        -11    1    3    3    0    0  0.14273270062E+02 -0.23616134745E+02 -0.25790636266E+02  0.37770424644E+02  0.51100000000E-03 0.  1.
         12    1    3    3    0    0 -0.19151660486E+02  0.17104812945E+02  0.11745222562E+02  0.28236695598E+02  0.00000000000E+00 0. -1.
</event>
<event>
 7    1  0.3027254E-013  0.7246170E+02  0.7816164E-02  0.1226708E+00
        -11   -1    0    0    0    0  0.00000000000E+00  0.00000000000E+00  0.45593999997E+02  0.45594000000E+02  0.51100000000E-03 0.  1.
         11   -1    0    0    0    0 -0.00000000000E+00 -0.00000000000E+00 -0.45593999997E+02  0.45594000000E+02  0.51100000000E-03 0. -1.
    9900012    2    1    2    0    0  0.14506082457E+02  0.11708008926E+02  0.17805999781E+01  0.72461696640E+02  0.70000164588E+02 0.  0.
         12    1    1    2    0    0 -0.14506082457E+02 -0.11708008926E+02 -0.17805999781E+01  0.18726303360E+02  0.00000000000E+00 0. -1.
         11    1    3    3    0    0 -0.12002113410E+01 -0.23711380557E+01 -0.16774596574E+02  0.16983812688E+02  0.51100000000E-03 0. -1.
        -11    1    3    3    0    0 -0.51961676623E+01 -0.22225411605E+01 -0.13054089207E+02  0.14224946146E+02  0.51100000000E-03 0.  1.
        -12    1    3    3    0    0  0.20902461460E+02  0.16301688142E+02  0.31609285759E+02  0.41252937805E+02  0.00000000000E+00 0.  1.
</event>
<event>
 7    1  0.3027254E-013  0.7246154E+02  0.7816164E-02  0.1226708E+00
        -11   -1    0    0    0    0  0.00000000000E+00  0.00000000000E+00  0.45593999997E+02  0.45594000000E+02  0.51100000000E-03 0. -1.
         11   -1    0    0    0    0 -0.00000000000E+00 -0.00000000000E+00 -0.45593999997E+02  0.45594000000E+02  0.51100000000E-03 0.  1.
    9900012    2    1    2    0    0 -0.10273842205E+02 -0.15223608347E+02 -0.36565221809E+01  0.72461541733E+02  0.69999962794E+02 0.  0.
         12    1    1    2    0    0  0.10273842205E+02  0.15223608347E+02  0.36565221809E+01  0.18726458267E+02  0.00000000000E+00 0. -1.
         11    1    3    3    0    0 -0.16657811632E+02  0.12049338507E+02 -0.11873471476E+02  0.23741284126E+02  0.51100000000E-03 0. -1.
        -11    1    3    3    0    0 -0.44406086837E+01  0.57934468231E+01 -0.75673843434E+01  0.10514196956E+02  0.51100000000E-03 0.  1.
        -12    1    3    3    0    0  0.10824578110E+02 -0.33066393677E+02  0.15784333639E+02  0.38206060651E+02  0.00000000000E+00 0.  1.
</event>
<event>
 7    1  0.3027254E-013  0.7246160E+02  0.7816164E-02  0.1226708E+00
        -11   -1    0    0    0    0  0.00000000000E+00  0.00000000000E+00  0.45593999997E+02  0.45594000000E+02  0.51100000000E-03 0.  1.
         11   -1    0    0    0    0 -0.00000000000E+00 -0.00000000000E+00 -0.45593999997E+02  0.45594000000E+02  0.51100000000E-03 0. -1.
    9900012    2    1    2    0    0  0.38129938854E+01 -0.17345217480E+02  0.59398997826E+01  0.72461604158E+02  0.70000044114E+02 0.  0.
         12    1    1    2    0    0 -0.38129938854E+01  0.17345217480E+02 -0.59398997826E+01  0.18726395842E+02  0.00000000000E+00 0. -1.
         11    1    3    3    0    0  0.37934560242E+01  0.93116331137E+01  0.25955793023E+01  0.10384307971E+02  0.51100000000E-03 0. -1.
        -11    1    3    3    0    0  0.27428986192E+02 -0.10121068334E+02  0.63730162627E+01  0.29923245885E+02  0.51100000000E-03 0.  1.
         12    1    3    3    0    0 -0.27409448331E+02 -0.16535782260E+02 -0.30286957824E+01  0.32154050303E+02  0.00000000000E+00 0. -1.
</event>
<event>
 7    1  0.3027254E-013  0.7246142E+02  0.7816164E-02  0.1226708E+00
        -11   -1    0    0    0    0  0.00000000000E+00  0.00000000000E+00  0.45593999997E+02  0.45594000000E+02  0.51100000000E-03 0.  1.
         11   -1    0    0    0    0 -0.00000000000E+00 -0.00000000000E+00 -0.45593999997E+02  0.45594000000E+02  0.51100000000E-03 0. -1.
    9900012    2    1    2    0    0 -0.11271798825E+02  0.63150191496E+01  0.13555510866E+02  0.72461420215E+02  0.69999804493E+02 0.  0.
         12    1    1    2    0    0  0.11271798825E+02 -0.63150191496E+01 -0.13555510866E+02  0.18726579785E+02  0.00000000000E+00 0. -1.
         11    1    3    3    0    0  0.80809565327E+01  0.13820749788E+01 -0.19610845552E+02  0.21255522888E+02  0.51100000000E-03 0. -1.
        -11    1    3    3    0    0  0.62501066116E+01  0.14762809182E+01 -0.27307544473E+01  0.69785570227E+01  0.51100000000E-03 0.  1.
        -12    1    3    3    0    0 -0.25602861969E+02  0.34566632526E+01  0.35897110866E+02  0.44227340304E+02  0.00000000000E+00 0.  1.
</event>
<event>
 7    1  0.3027254E-013  0.7246162E+02  0.7816164E-02  0.1226708E+00
        -11   -1    0    0    0    0  0.00000000000E+00  0.00000000000E+00  0.45593999997E+02  0.45594000000E+02  0.51100000000E-03 0. -1.
         11   -1    0    0    0    0 -0.00000000000E+00 -0.00000000000E+00 -0.45593999997E+02  0.45594000000E+02  0.51100000000E-03 0.  1.
    9900012    2    1    2    0    0 -0.37018676267E+01 -0.16034303220E+02 -0.89372543312E+01  0.72461622383E+02  0.70000067855E+02 0.  0.
         12    1    1    2    0    0  0.37018676267E+01  0.16034303220E+02  0.89372543312E+01  0.18726377617E+02  0.00000000000E+00 0. -1.
         11    1    3    3    0    0 -0.12333540567E+02 -0.33562670335E+02 -0.29597302831E+01  0.35879368257E+02  0.51100000000E-03 0. -1.
        -11    1    3    3    0    0  0.10701931986E+02 -0.49121539580E+01  0.32728446491E+01  0.12221788621E+02  0.51100000000E-03 0.  1.
        -12    1    3    3    0    0 -0.20702590460E+01  0.22440521073E+02 -0.92503686972E+01  0.24360465504E+02  0.00000000000E+00 0.  1.
</event>
<event>
 7    1  0.3027254E-013  0.7246147E+02  0.7816164E-02  0.1226708E+00
        -11   -1    0    0    0    0  0.00000000000E+00  0.00000000000E+00  0.45593999997E+02  0.45594000000E+02  0.51100000000E-03 0.  1.
         11   -1    0    0    0    0 -0.00000000000E+00 -0.00000000000E+00 -0.45593999997E+02  0.45594000000E+02  0.51100000000E-03 0. -1.
    9900012    2    1    2    0    0  0.17295138253E+02  0.52736344616E+01  0.48733797969E+01  0.72461471804E+02  0.69999871699E+02 0.  0.
         12    1    1    2    0    0 -0.17295138253E+02 -0.52736344616E+01 -0.48733797969E+01  0.18726528196E+02  0.00000000000E+00 0. -1.
         11    1    3    3    0    0 -0.16012169371E+02  0.18248491152E+02 -0.51741791524E+01  0.24822754228E+02  0.51100000000E-03 0. -1.
        -11    1    3    3    0    0 -0.12857260011E+01 -0.90215191465E+00  0.10877346275E+02  0.10990160675E+02  0.51100000000E-03 0.  1.
        -12    1    3    3    0    0  0.34593033625E+02 -0.12072704775E+02 -0.82978732530E+00  0.36648556902E+02  0.00000000000E+00 0.  1.
</event>
<event>
 7    1  0.5108055E-013  0.7246156E+02  0.7816164E-02  0.1226708E+00
        -11   -1    0    0    0    0  0.00000000000E+00  0.00000000000E+00  0.45593999997E+02  0.45594000000E+02  0.51100000000E-03 0. -1.
         11   -1    0    0    0    0 -0.00000000000E+00 -0.00000000000E+00 -0.45593999997E+02  0.45594000000E+02  0.51100000000E-03 0.  1.
    9900012    2    1    2    0    0 -0.10568220883E+02  0.13816424462E+02 -0.69353218251E+01  0.72461559699E+02  0.69999986197E+02 0.  0.
         12    1    1    2    0    0  0.10568220883E+02 -0.13816424462E+02  0.69353218251E+01  0.18726440301E+02  0.00000000000E+00 0. -1.
         11    1    3    3    0    0  0.80871066039E+01 -0.15726721275E+02  0.10915236405E+01  0.17717857641E+02  0.51100000000E-03 0. -1.
        -11    1    3    3    0    0 -0.14233847263E+01  0.69188623073E+00  0.14306528087E+02  0.14393799943E+02  0.51100000000E-03 0.  1.
        -12    1    3    3    0    0 -0.17231942761E+02  0.28851259506E+02 -0.22333373552E+02  0.40349902114E+02  0.00000000000E+00 0.  1.
</event>
<event>
 7    1  0.3027254E-013  0.7246156E+02  0.7816164E-02  0.1226708E+00
        -11   -1    0    0    0    0  0.00000000000E+00  0.00000000000E+00  0.45593999997E+02  0.45594000000E+02  0.51100000000E-03 0.  1.
         11   -1    0    0    0    0 -0.00000000000E+00 -0.00000000000E+00 -0.45593999997E+02  0.45594000000E+02  0.51100000000E-03 0. -1.
    9900012    2    1    2    0    0  0.81790295957E+00 -0.16960078511E+02 -0.78972322660E+01  0.72461561316E+02  0.69999988304E+02 0.  0.
         12    1    1    2    0    0 -0.81790295957E+00  0.16960078511E+02  0.78972322660E+01  0.18726438684E+02  0.00000000000E+00 0. -1.
         11    1    3    3    0    0 -0.62415446387E+01 -0.23558761906E+01  0.45397273686E+01  0.80694582808E+01  0.51100000000E-03 0. -1.
        -11    1    3    3    0    0 -0.65339185063E+01  0.15571361220E+02 -0.23990242136E+02  0.29337537376E+02  0.51100000000E-03 0.  1.
         12    1    3    3    0    0  0.13593366105E+02 -0.30175563540E+02  0.11553282501E+02  0.35054565659E+02  0.00000000000E+00 0. -1.
</event>
<event>
 7    1  0.3027254E-013  0.7246162E+02  0.7816164E-02  0.1226708E+00
        -11   -1    0    0    0    0  0.00000000000E+00  0.00000000000E+00  0.45593999997E+02  0.45594000000E+02  0.51100000000E-03 0. -1.
         11   -1    0    0    0    0 -0.00000000000E+00 -0.00000000000E+00 -0.45593999997E+02  0.45594000000E+02  0.51100000000E-03 0.  1.
    9900012    2    1    2    0    0  0.16298629591E+01 -0.18144242810E+02  0.43367197593E+01  0.72461624519E+02  0.70000070637E+02 0.  0.
         12    1    1    2    0    0 -0.16298629591E+01  0.18144242810E+02 -0.43367197593E+01  0.18726375481E+02  0.00000000000E+00 0. -1.
         11    1    3    3    0    0 -0.65793694251E+00 -0.49784889664E+01  0.36560812062E+00  0.50350673251E+01  0.51100000000E-03 0. -1.
        -11    1    3    3    0    0 -0.25342868261E+01 -0.32798107479E+02 -0.18058775762E+02  0.37526761733E+02  0.51100000000E-03 0.  1.
         12    1    3    3    0    0  0.48220867277E+01  0.19632353636E+02  0.22029887401E+02  0.29899795460E+02  0.00000000000E+00 0. -1.
</event>
<event>
 7    1  0.3027254E-013  0.7246157E+02  0.7816164E-02  0.1226708E+00
        -11   -1    0    0    0    0  0.00000000000E+00  0.00000000000E+00  0.45593999997E+02  0.45594000000E+02  0.51100000000E-03 0. -1.
         11   -1    0    0    0    0 -0.00000000000E+00 -0.00000000000E+00 -0.45593999997E+02  0.45594000000E+02  0.51100000000E-03 0.  1.
    9900012    2    1    2    0    0 -0.34851308044E+01  0.12031088205E+02 -0.13920703011E+02  0.72461569682E+02  0.69999999202E+02 0.  0.
         12    1    1    2    0    0  0.34851308044E+01 -0.12031088205E+02  0.13920703011E+02  0.18726430318E+02  0.00000000000E+00 0. -1.
         11    1    3    3    0    0 -0.48661106879E+01 -0.11667401546E+02  0.34639173417E+01  0.13107479379E+02  0.51100000000E-03 0. -1.
        -11    1    3    3    0    0 -0.57916023883E+01 -0.13833753917E+02 -0.14776470759E+02  0.21053728744E+02  0.51100000000E-03 0.  1.
        -12    1    3    3    0    0  0.71725822718E+01  0.37532243668E+02 -0.26081495938E+01  0.38300361559E+02  0.00000000000E+00 0.  1.
</event>
<event>
 7    1  0.3027254E-013  0.7246159E+02  0.7816164E-02  0.1226708E+00
        -11   -1    0    0    0    0  0.00000000000E+00  0.00000000000E+00  0.45593999997E+02  0.45594000000E+02  0.51100000000E-03 0.  1.
         11   -1    0    0    0    0 -0.00000000000E+00 -0.00000000000E+00 -0.45593999997E+02  0.45594000000E+02  0.51100000000E-03 0. -1.
    9900012    2    1    2    0    0 -0.89861331498E+00 -0.12931935882E+02  0.13514284327E+02  0.72461592111E+02  0.70000028420E+02 0.  0.
         12    1    1    2    0    0  0.89861331498E+00  0.12931935882E+02 -0.13514284327E+02  0.18726407889E+02  0.00000000000E+00 0. -1.
         11    1    3    3    0    0 -0.91208580233E+01 -0.11682466637E+01 -0.15455108776E+02  0.17983749300E+02  0.51100000000E-03 0. -1.
        -11    1    3    3    0    0  0.30962177939E+01 -0.25057758840E+02  0.37685189218E+01  0.25528015548E+02  0.51100000000E-03 0.  1.
         12    1    3    3    0    0  0.51260269145E+01  0.13294069621E+02  0.25200874181E+02  0.28949827262E+02  0.00000000000E+00 0. -1.
</event>
<event>
 7    1  0.3027254E-013  0.7246140E+02  0.7816164E-02  0.1226708E+00
        -11   -1    0    0    0    0  0.00000000000E+00  0.00000000000E+00  0.45593999997E+02  0.45594000000E+02  0.51100000000E-03 0.  1.
         11   -1    0    0    0    0 -0.00000000000E+00 -0.00000000000E+00 -0.45593999997E+02  0.45594000000E+02  0.51100000000E-03 0. -1.
    9900012    2    1    2    0    0  0.11347564214E+02 -0.10803057373E+02 -0.10257302425E+02  0.72461400863E+02  0.69999779284E+02 0.  0.
         12    1    1    2    0    0 -0.11347564214E+02  0.10803057373E+02  0.10257302425E+02  0.18726599137E+02  0.00000000000E+00 0. -1.
         11    1    3    3    0    0 -0.24312917692E+01 -0.79238656948E+01 -0.12608332665E+02  0.15088700410E+02  0.51100000000E-03 0. -1.
        -11    1    3    3    0    0  0.31066621993E+02 -0.15708620726E+02  0.65916825235E+01  0.35430862902E+02  0.51100000000E-03 0.  1.
         12    1    3    3    0    0 -0.17287766010E+02  0.12829429048E+02 -0.42406522836E+01  0.21941837551E+02  0.00000000000E+00 0. -1.
</event>
<event>
 7    1  0.3027254E-013  0.7246176E+02  0.7816164E-02  0.1226708E+00
        -11   -1    0    0    0    0  0.00000000000E+00  0.00000000000E+00  0.45593999997E+02  0.45594000000E+02  0.51100000000E-03 0. -1.
         11   -1    0    0    0    0 -0.00000000000E+00 -0.00000000000E+00 -0.45593999997E+02  0.45594000000E+02  0.51100000000E-03 0.  1.
    9900012    2    1    2    0    0 -0.14654676547E+02 -0.73912354097E+01 -0.90156648944E+01  0.72461758544E+02  0.70000245230E+02 0.  0.
         12    1    1    2    0    0  0.14654676547E+02  0.73912354097E+01  0.90156648944E+01  0.18726241456E+02  0.00000000000E+00 0. -1.
         11    1    3    3    0    0 -0.23528826673E+02 -0.84571045228E+01  0.66950282392E+01  0.25883425293E+02  0.51100000000E-03 0.  1.
        -11    1    3    3    0    0 -0.15172119859E+02 -0.80621309718E+01 -0.16363534025E+01  0.17258876833E+02  0.51100000000E-03 0. -1.
         12    1    3    3    0    0  0.24046269986E+02  0.91280000849E+01 -0.14074339731E+02  0.29319456418E+02  0.00000000000E+00 0. -1.
</event>
<event>
 7    1  0.3027254E-013  0.7246169E+02  0.7816164E-02  0.1226708E+00
        -11   -1    0    0    0    0  0.00000000000E+00  0.00000000000E+00  0.45593999997E+02  0.45594000000E+02  0.51100000000E-03 0. -1.
         11   -1    0    0    0    0 -0.00000000000E+00 -0.00000000000E+00 -0.45593999997E+02  0.45594000000E+02  0.51100000000E-03 0.  1.
    9900012    2    1    2    0    0  0.17844895813E+02  0.34267018546E+01  0.45267989754E+01  0.72461694942E+02  0.70000162376E+02 0.  0.
         12    1    1    2    0    0 -0.17844895813E+02 -0.34267018546E+01 -0.45267989754E+01  0.18726305058E+02  0.00000000000E+00 0. -1.
         11    1    3    3    0    0  0.60400464510E+01  0.40857459780E+01  0.16328207648E+01  0.74727227460E+01  0.51100000000E-03 0. -1.
        -11    1    3    3    0    0  0.30704957172E+02  0.52236804162E+00 -0.18945088240E+02  0.36083010296E+02  0.51100000000E-03 0.  1.
         12    1    3    3    0    0 -0.18900107810E+02 -0.11814121650E+01  0.21839066451E+02  0.28905961900E+02  0.00000000000E+00 0. -1.
</event>
<event>
 7    1  0.3027254E-013  0.7246154E+02  0.7816164E-02  0.1226708E+00
        -11   -1    0    0    0    0  0.00000000000E+00  0.00000000000E+00  0.45593999997E+02  0.45594000000E+02  0.51100000000E-03 0.  1.
         11   -1    0    0    0    0 -0.00000000000E+00 -0.00000000000E+00 -0.45593999997E+02  0.45594000000E+02  0.51100000000E-03 0. -1.
    9900012    2    1    2    0    0 -0.60381979308E+01  0.11849774718E+02 -0.13183443263E+02  0.72461543544E+02  0.69999965153E+02 0.  0.
         12    1    1    2    0    0  0.60381979308E+01 -0.11849774718E+02  0.13183443263E+02  0.18726456456E+02  0.00000000000E+00 0. -1.
         11    1    3    3    0    0  0.72344752145E+01  0.93942342583E+01  0.19239119249E+00  0.11858595345E+02  0.51100000000E-03 0. -1.
        -11    1    3    3    0    0 -0.11068835737E+01  0.20745841764E+02  0.14335381604E+02  0.25241202581E+02  0.51100000000E-03 0.  1.
         12    1    3    3    0    0 -0.12165789572E+02 -0.18290301304E+02 -0.27711216060E+02  0.35361745619E+02  0.00000000000E+00 0. -1.
</event>
<event>
 7    1  0.3027254E-013  0.7246166E+02  0.7816164E-02  0.1226708E+00
        -11   -1    0    0    0    0  0.00000000000E+00  0.00000000000E+00  0.45593999997E+02  0.45594000000E+02  0.51100000000E-03 0. -1.
         11   -1    0    0    0    0 -0.00000000000E+00 -0.00000000000E+00 -0.45593999997E+02  0.45594000000E+02  0.51100000000E-03 0.  1.
    9900012    2    1    2    0    0  0.14128087652E+00  0.18122115554E+02  0.47164278758E+01  0.72461662282E+02  0.70000119830E+02 0.  0.
         12    1    1    2    0    0 -0.14128087652E+00 -0.18122115554E+02 -0.47164278758E+01  0.18726337718E+02  0.00000000000E+00 0. -1.
         11    1    3    3    0    0  0.70066816742E+01  0.63222239675E+01 -0.13974138511E+01  0.95402761863E+01  0.51100000000E-03 0. -1.
        -11    1    3    3    0    0  0.76781976610E+01 -0.79321499607E+01 -0.22609226681E+02  0.25160501857E+02  0.51100000000E-03 0.  1.
         12    1    3    3    0    0 -0.14543598459E+02  0.19732041547E+02  0.28723068408E+02  0.37760884239E+02  0.00000000000E+00 0. -1.
</event>
<event>
 7    1  0.3027254E-013  0.7246138E+02  0.7816164E-02  0.1226709E+00
        -11   -1    0    0    0    0  0.00000000000E+00  0.00000000000E+00  0.45593999997E+02  0.45594000000E+02  0.51100000000E-03 0.  1.
         11   -1    0    0    0    0 -0.00000000000E+00 -0.00000000000E+00 -0.45593999997E+02  0.45594000000E+02  0.51100000000E-03 0. -1.
    9900012    2    1    2    0    0  0.12521121852E+01  0.60302474786E+01  0.17684869472E+02  0.72461380502E+02  0.69999752760E+02 0.  0.
         12    1    1    2    0    0 -0.12521121852E+01 -0.60302474786E+01 -0.17684869472E+02  0.18726619498E+02  0.00000000000E+00 0. -1.
         11    1    3    3    0    0  0.74803516801E+01 -0.50247153908E+01 -0.13464850828E+01  0.91113362552E+01  0.51100000000E-03 0. -1.
        -11    1    3    3    0    0  0.15100611291E+02 -0.11447779446E+02  0.25408212154E+02  0.31696330398E+02  0.51100000000E-03 0.  1.
         12    1    3    3    0    0 -0.21328850786E+02  0.22502742315E+02 -0.63768575988E+01  0.31653713848E+02  0.00000000000E+00 0. -1.
</event>
<event>
 7    1  0.3027254E-013  0.7246157E+02  0.7816164E-02  0.1226708E+00
        -11   -1    0    0    0    0  0.00000000000E+00  0.00000000000E+00  0.45593999997E+02  0.45594000000E+02  0.51100000000E-03 0.  1.
         11   -1    0    0    0    0 -0.00000000000E+00 -0.00000000000E+00 -0.45593999997E+02  0.45594000000E+02  0.51100000000E-03 0. -1.
    9900012    2    1    2    0    0  0.85822819886E+01  0.14535039724E+02  0.81090318647E+01  0.72461565697E+02  0.69999994011E+02 0.  0.
         12    1    1    2    0    0 -0.85822819886E+01 -0.14535039724E+02 -0.81090318647E+01  0.18726434303E+02  0.00000000000E+00 0. -1.
         11    1    3    3    0    0  0.52624133119E+01 -0.17066004023E+01  0.37652014391E+02  0.38056269743E+02  0.51100000000E-03 0.  1.
        -11    1    3    3    0    0  0.20496107663E+01  0.98447702495E+00 -0.47506052158E+01  0.52667209422E+01  0.51100000000E-03 0. -1.
        -12    1    3    3    0    0  0.12702579104E+01  0.15257163101E+02 -0.24792377310E+02  0.29138575012E+02  0.00000000000E+00 0.  1.
</event>
<event>
 7    1  0.3027254E-013  0.7246157E+02  0.7816164E-02  0.1226708E+00
        -11   -1    0    0    0    0  0.00000000000E+00  0.00000000000E+00  0.45593999997E+02  0.45594000000E+02  0.51100000000E-03 0. -1.
         11   -1    0    0    0    0 -0.00000000000E+00 -0.00000000000E+00 -0.45593999997E+02  0.45594000000E+02  0.51100000000E-03 0.  1.
    9900012    2    1    2    0    0 -0.13933467770E+02  0.49616001757E+01 -0.11485645798E+02  0.72461573224E+02  0.70000003816E+02 0.  0.
         12    1    1    2    0    0  0.13933467770E+02 -0.49616001757E+01  0.11485645798E+02  0.18726426776E+02  0.00000000000E+00 0. -1.
         11    1    3    3    0    0 -0.55584086252E+01  0.27772190364E+02 -0.21341706012E+01  0.28403259469E+02  0.51100000000E-03 0. -1.
        -11    1    3    3    0    0 -0.91187923650E+01  0.68696139773E+01 -0.87132763365E+01  0.14361934242E+02  0.51100000000E-03 0.  1.
         12    1    3    3    0    0  0.74373321969E+00 -0.29680204165E+02 -0.63819886036E+00  0.29696379513E+02  0.00000000000E+00 0. -1.
</event>
<event>
 7    1  0.3872312E-013  0.7246146E+02  0.7816164E-02  0.1226708E+00
        -11   -1    0    0    0    0  0.00000000000E+00  0.00000000000E+00  0.45593999997E+02  0.45594000000E+02  0.51100000000E-03 0. -1.
         11   -1    0    0    0    0 -0.00000000000E+00 -0.00000000000E+00 -0.45593999997E+02  0.45594000000E+02  0.51100000000E-03 0.  1.
    9900012    2    1    2    0    0  0.12675330372E+02 -0.15555133500E+01 -0.13696701158E+02  0.72461461494E+02  0.69999858267E+02 0.  0.
         12    1    1    2    0    0 -0.12675330372E+02  0.15555133500E+01  0.13696701158E+02  0.18726538506E+02  0.00000000000E+00 0. -1.
         11    1    3    3    0    0  0.10786262309E+02 -0.21906095113E+02  0.85854321289E+01  0.25883007994E+02  0.51100000000E-03 0. -1.
        -11    1    3    3    0    0  0.13899963608E+02 -0.24282767494E+00  0.64792646473E-01  0.13902235501E+02  0.51100000000E-03 0.  1.
        -12    1    3    3    0    0 -0.12010895544E+02  0.20593409438E+02 -0.22346925933E+02  0.32676217999E+02  0.00000000000E+00 0.  1.
</event>
<event>
 7    1  0.3027254E-013  0.7246159E+02  0.7816164E-02  0.1226708E+00
        -11   -1    0    0    0    0  0.00000000000E+00  0.00000000000E+00  0.45593999997E+02  0.45594000000E+02  0.51100000000E-03 0. -1.
         11   -1    0    0    0    0 -0.00000000000E+00 -0.00000000000E+00 -0.45593999997E+02  0.45594000000E+02  0.51100000000E-03 0.  1.
    9900012    2    1    2    0    0  0.15267930445E+02  0.90229533453E+01  0.60129120421E+01  0.72461588214E+02  0.70000023344E+02 0.  0.
         12    1    1    2    0    0 -0.15267930445E+02 -0.90229533453E+01 -0.60129120421E+01  0.18726411786E+02  0.00000000000E+00 0. -1.
         11    1    3    3    0    0 -0.60579250572E+01  0.25426151478E+01  0.27610590916E+02  0.28381474218E+02  0.51100000000E-03 0. -1.
        -11    1    3    3    0    0 -0.18758354252E+01  0.58391570794E+01  0.56137227579E+01  0.83143488864E+01  0.51100000000E-03 0.  1.
        -12    1    3    3    0    0  0.23201690928E+02  0.64118111809E+00 -0.27211401632E+02  0.35765765110E+02  0.00000000000E+00 0.  1.
</event>
<event>
 7    1  0.3027254E-013  0.7246142E+02  0.7816164E-02  0.1226708E+00
        -11   -1    0    0    0    0  0.00000000000E+00  0.00000000000E+00  0.45593999997E+02  0.45594000000E+02  0.51100000000E-03 0.  1.
         11   -1    0    0    0    0 -0.00000000000E+00 -0.00000000000E+00 -0.45593999997E+02  0.45594000000E+02  0.51100000000E-03 0. -1.
    9900012    2    1    2    0    0 -0.52937571674E+01 -0.17623387255E+02  0.34752382709E+01  0.72461416641E+02  0.69999799837E+02 0.  0.
         12    1    1    2    0    0  0.52937571674E+01  0.17623387255E+02 -0.34752382709E+01  0.18726583359E+02  0.00000000000E+00 0. -1.
         11    1    3    3    0    0  0.65921672486E+01  0.49156207833E+01 -0.22199241836E+02  0.23673325391E+02  0.51100000000E-03 0. -1.
        -11    1    3    3    0    0  0.10462909563E+02 -0.37749583767E+01  0.22044216240E+01  0.11339411899E+02  0.51100000000E-03 0.  1.
         12    1    3    3    0    0 -0.22348833979E+02 -0.18764049661E+02  0.23470058483E+02  0.37448679350E+02  0.00000000000E+00 0. -1.
</event>
<event>
 7    1  0.3027254E-013  0.7246159E+02  0.7816164E-02  0.1226708E+00
        -11   -1    0    0    0    0  0.00000000000E+00  0.00000000000E+00  0.45593999997E+02  0.45594000000E+02  0.51100000000E-03 0. -1.
         11   -1    0    0    0    0 -0.00000000000E+00 -0.00000000000E+00 -0.45593999997E+02  0.45594000000E+02  0.51100000000E-03 0.  1.
    9900012    2    1    2    0    0 -0.16421143971E+02 -0.80913044944E+01  0.39440351402E+01  0.72461585743E+02  0.70000020125E+02 0.  0.
         12    1    1    2    0    0  0.16421143971E+02  0.80913044944E+01 -0.39440351402E+01  0.18726414257E+02  0.00000000000E+00 0. -1.
         11    1    3    3    0    0  0.70614851592E+01  0.10257257988E+02 -0.18583194731E+02  0.22369869037E+02  0.51100000000E-03 0. -1.
        -11    1    3    3    0    0  0.39837244794E+01  0.53827416426E+01 -0.10924411652E+01  0.67850863133E+01  0.51100000000E-03 0.  1.
        -12    1    3    3    0    0 -0.27466353610E+02 -0.23731304125E+02  0.23619671036E+02  0.43306630392E+02  0.00000000000E+00 0.  1.
</event>
<event>
 7    1  0.3027254E-013  0.7246158E+02  0.7816164E-02  0.1226708E+00
        -11   -1    0    0    0    0  0.00000000000E+00  0.00000000000E+00  0.45593999997E+02  0.45594000000E+02  0.51100000000E-03 0. -1.
         11   -1    0    0    0    0 -0.00000000000E+00 -0.00000000000E+00 -0.45593999997E+02  0.45594000000E+02  0.51100000000E-03 0.  1.
    9900012    2    1    2    0    0  0.11904816903E+02  0.14416048192E+02 -0.10638643907E+01  0.72461576999E+02  0.70000008734E+02 0.  0.
         12    1    1    2    0    0 -0.11904816903E+02 -0.14416048192E+02  0.10638643907E+01  0.18726423001E+02  0.00000000000E+00 0. -1.
         11    1    3    3    0    0  0.20793183383E+02  0.19470553180E+00  0.12378416530E+02  0.24199578126E+02  0.51100000000E-03 0. -1.
        -11    1    3    3    0    0  0.13084505055E+01 -0.41614061412E-01  0.14887845175E+02  0.14945290518E+02  0.51100000000E-03 0.  1.
        -12    1    3    3    0    0 -0.10196816985E+02  0.14262956721E+02 -0.28330126095E+02  0.33316708355E+02  0.00000000000E+00 0.  1.
</event>
<event>
 7    1  0.3027254E-013  0.7246165E+02  0.7816164E-02  0.1226708E+00
        -11   -1    0    0    0    0  0.00000000000E+00  0.00000000000E+00  0.45593999997E+02  0.45594000000E+02  0.51100000000E-03 0.  1.
         11   -1    0    0    0    0 -0.00000000000E+00 -0.00000000000E+00 -0.45593999997E+02  0.45594000000E+02  0.51100000000E-03 0. -1.
    9900012    2    1    2    0    0 -0.13394302834E+02  0.11660290093E+02 -0.59419256967E+01  0.72461649729E+02  0.70000103479E+02 0.  0.
         12    1    1    2    0    0  0.13394302834E+02 -0.11660290093E+02  0.59419256967E+01  0.18726350271E+02  0.00000000000E+00 0. -1.
         11    1    3    3    0    0 -0.40175870407E+01 -0.89236816364E+01  0.12198263647E+02  0.15638757490E+02  0.51100000000E-03 0. -1.
        -11    1    3    3    0    0  0.16971666514E+02  0.20952067570E+02 -0.51768907227E+01  0.27455906423E+02  0.51100000000E-03 0.  1.
         12    1    3    3    0    0 -0.26348382307E+02 -0.36809583968E+00 -0.12963298621E+02  0.29366985816E+02  0.00000000000E+00 0. -1.
</event>
<event>
 7    1  0.3027254E-013  0.7246154E+02  0.7816164E-02  0.1226708E+00
        -11   -1    0    0    0    0  0.00000000000E+00  0.00000000000E+00  0.45593999997E+02  0.45594000000E+02  0.51100000000E-03 0.  1.
         11   -1    0    0    0    0 -0.00000000000E+00 -0.00000000000E+00 -0.45593999997E+02  0.45594000000E+02  0.51100000000E-03 0. -1.
    9900012    2    1    2    0    0  0.10215790133E+02  0.14508327389E+02  0.59855192868E+01  0.72461538167E+02  0.69999958148E+02 0.  0.
         12    1    1    2    0    0 -0.10215790133E+02 -0.14508327389E+02 -0.59855192868E+01  0.18726461833E+02  0.00000000000E+00 0. -1.
         11    1    3    3    0    0  0.84215900128E+01  0.16506254810E+02  0.27541473956E+01  0.18734058672E+02  0.51100000000E-03 0. -1.
        -11    1    3    3    0    0  0.21882485805E+02 -0.14906554921E+00  0.18317177566E+02  0.28537421043E+02  0.51100000000E-03 0.  1.
         12    1    3    3    0    0 -0.20088285685E+02 -0.18488618722E+01 -0.15085805674E+02  0.25190058452E+02  0.00000000000E+00 0. -1.
</event>
<event>
 7    1  0.3027254E-013  0.7246156E+02  0.7816164E-02  0.1226708E+00
        -11   -1    0    0    0    0  0.00000000000E+00  0.00000000000E+00  0.45593999997E+02  0.45594000000E+02  0.51100000000E-03 0.  1.
         11   -1    0    0    0    0 -0.00000000000E+00 -0.00000000000E+00 -0.45593999997E+02  0.45594000000E+02  0.51100000000E-03 0. -1.
    9900012    2    1    2    0    0 -0.10483378294E+02  0.15515849048E+02  0.19196778142E+00  0.72461557632E+02  0.69999983505E+02 0.  0.
         12    1    1    2    0    0  0.10483378294E+02 -0.15515849048E+02 -0.19196778142E+00  0.18726442368E+02  0.00000000000E+00 0. -1.
         11    1    3    3    0    0 -0.66345084596E+01 -0.55550233268E+01  0.37274223434E+01  0.94217123841E+01  0.51100000000E-03 0. -1.
        -11    1    3    3    0    0  0.10942287291E+02  0.26304915995E+02  0.19960694771E+02  0.34786658256E+02  0.51100000000E-03 0.  1.
         12    1    3    3    0    0 -0.14791157125E+02 -0.52340436201E+01 -0.23496149333E+02  0.28253186991E+02  0.00000000000E+00 0. -1.
</event>
<event>
 7    1  0.3027254E-013  0.7246156E+02  0.7816164E-02  0.1226708E+00
        -11   -1    0    0    0    0  0.00000000000E+00  0.00000000000E+00  0.45593999997E+02  0.45594000000E+02  0.51100000000E-03 0. -1.
         11   -1    0    0    0    0 -0.00000000000E+00 -0.00000000000E+00 -0.45593999997E+02  0.45594000000E+02  0.51100000000E-03 0.  1.
    9900012    2    1    2    0    0  0.18475901063E+02  0.29395795370E+01 -0.82434087675E+00  0.72461559179E+02  0.69999985520E+02 0.  0.
         12    1    1    2    0    0 -0.18475901063E+02 -0.29395795370E+01  0.82434087675E+00  0.18726440821E+02  0.00000000000E+00 0. -1.
         11    1    3    3    0    0 -0.59733292291E+01 -0.41736998432E+01 -0.37712571850E+01  0.82050480485E+01  0.51100000000E-03 0. -1.
        -11    1    3    3    0    0  0.29760942258E+02 -0.19887634016E+02 -0.35853263511E+01  0.35973410127E+02  0.51100000000E-03 0.  1.
         12    1    3    3    0    0 -0.53117119658E+01  0.27000913397E+02  0.65322426594E+01  0.28283101004E+02  0.00000000000E+00 0. -1.
</event>
<event>
 7    1  0.3027254E-013  0.7246212E+02  0.7816164E-02  0.1226707E+00
        -11   -1    0    0    0    0  0.00000000000E+00  0.00000000000E+00  0.45593999997E+02  0.45594000000E+02  0.51100000000E-03 0. -1.
         11   -1    0    0    0    0 -0.00000000000E+00 -0.00000000000E+00 -0.45593999997E+02  0.45594000000E+02  0.51100000000E-03 0.  1.
    9900012    2    1    2    0    0 -0.63904380245E+01  0.17540087656E+02  0.14718309131E+01  0.72462117929E+02  0.70000713392E+02 0.  0.
         12    1    1    2    0    0  0.63904380245E+01 -0.17540087656E+02 -0.14718309131E+01  0.18725882071E+02  0.00000000000E+00 0. -1.
         11    1    3    3    0    0  0.12327302081E+02  0.19536806735E+01  0.63441924672E+01  0.14001000789E+02  0.51100000000E-03 0. -1.
        -11    1    3    3    0    0  0.10193860597E+02  0.24442423316E+02 -0.89399541066E+01  0.27951200889E+02  0.51100000000E-03 0.  1.
         12    1    3    3    0    0 -0.28911600702E+02 -0.88560163342E+01  0.40675925525E+01  0.30509916251E+02  0.00000000000E+00 0. -1.
</event>
<event>
 7    1  0.3027254E-013  0.7246099E+02  0.7816164E-02  0.1226710E+00
        -11   -1    0    0    0    0  0.00000000000E+00  0.00000000000E+00  0.45593999997E+02  0.45594000000E+02  0.51100000000E-03 0.  1.
         11   -1    0    0    0    0 -0.00000000000E+00 -0.00000000000E+00 -0.45593999997E+02  0.45594000000E+02  0.51100000000E-03 0. -1.
    9900012    2    1    2    0    0 -0.69201235296E+01 -0.94244519242E+01  0.14628485997E+02  0.72460987257E+02  0.69999240481E+02 0.  0.
         12    1    1    2    0    0  0.69201235296E+01  0.94244519242E+01 -0.14628485997E+02  0.18727012743E+02  0.00000000000E+00 0. -1.
         11    1    3    3    0    0  0.62526622493E+01 -0.30074728711E+01  0.22811101328E+01  0.73037074129E+01  0.51100000000E-03 0. -1.
        -11    1    3    3    0    0 -0.25303388591E+01 -0.32468038286E+02  0.16835212825E+02  0.36660612597E+02  0.51100000000E-03 0.  1.
        -12    1    3    3    0    0 -0.10642446920E+02  0.26051059233E+02 -0.44878369610E+01  0.28496667247E+02  0.00000000000E+00 0.  1.
</event>
<event>
 7    1  0.3027254E-013  0.7246160E+02  0.7816164E-02  0.1226708E+00
        -11   -1    0    0    0    0  0.00000000000E+00  0.00000000000E+00  0.45593999997E+02  0.45594000000E+02  0.51100000000E-03 0.  1.
         11   -1    0    0    0    0 -0.00000000000E+00 -0.00000000000E+00 -0.45593999997E+02  0.45594000000E+02  0.51100000000E-03 0. -1.
    9900012    2    1    2    0    0  0.57371613808E+01 -0.17825164189E+02  0.16251230390E+00  0.72461603942E+02  0.70000043833E+02 0.  0.
         12    1    1    2    0    0 -0.57371613808E+01  0.17825164189E+02 -0.16251230390E+00  0.18726396058E+02  0.00000000000E+00 0. -1.
         11    1    3    3    0    0 -0.10587901769E+01 -0.29762578063E+02  0.33099631203E+01  0.29964778419E+02  0.51100000000E-03 0. -1.
        -11    1    3    3    0    0  0.64278162825E+00 -0.63970996875E+00 -0.20319655389E+02  0.20339881820E+02  0.51100000000E-03 0.  1.
        -12    1    3    3    0    0  0.61531699294E+01  0.12577123843E+02  0.17172204573E+02  0.22156943703E+02  0.00000000000E+00 0.  1.
</event>
<event>
 7    1  0.3027254E-013  0.7246156E+02  0.7816164E-02  0.1226708E+00
        -11   -1    0    0    0    0  0.00000000000E+00  0.00000000000E+00  0.45593999997E+02  0.45594000000E+02  0.51100000000E-03 0.  1.
         11   -1    0    0    0    0 -0.00000000000E+00 -0.00000000000E+00 -0.45593999997E+02  0.45594000000E+02  0.51100000000E-03 0. -1.
    9900012    2    1    2    0    0 -0.27584377375E+01 -0.17849624560E+02 -0.49458386779E+01  0.72461564249E+02  0.69999992125E+02 0.  0.
         12    1    1    2    0    0  0.27584377375E+01  0.17849624560E+02  0.49458386779E+01  0.18726435751E+02  0.00000000000E+00 0. -1.
         11    1    3    3    0    0 -0.11697495367E+02  0.49938735177E+01 -0.18472100667E+01  0.12852328811E+02  0.51100000000E-03 0. -1.
        -11    1    3    3    0    0 -0.13668216013E+02  0.96407664331E+01  0.79498033131E+01  0.18519283986E+02  0.51100000000E-03 0.  1.
         12    1    3    3    0    0  0.22607273642E+02 -0.32484264511E+02 -0.11048431924E+02  0.41089951452E+02  0.00000000000E+00 0. -1.
</event>
<event>
 7    1  0.3027254E-013  0.7246155E+02  0.7816164E-02  0.1226708E+00
        -11   -1    0    0    0    0  0.00000000000E+00  0.00000000000E+00  0.45593999997E+02  0.45594000000E+02  0.51100000000E-03 0.  1.
         11   -1    0    0    0    0 -0.00000000000E+00 -0.00000000000E+00 -0.45593999997E+02  0.45594000000E+02  0.51100000000E-03 0. -1.
    9900012    2    1    2    0    0  0.41637555041E+00  0.53661873419E+01  0.17936294189E+02  0.72461548536E+02  0.69999971656E+02 0.  0.
         12    1    1    2    0    0 -0.41637555041E+00 -0.53661873419E+01 -0.17936294189E+02  0.18726451464E+02  0.00000000000E+00 0. -1.
         11    1    3    3    0    0 -0.90134295711E+01 -0.18485376537E+02 -0.15194233133E+02  0.25569821648E+02  0.51100000000E-03 0. -1.
        -11    1    3    3    0    0 -0.58631263375E+01  0.31852281220E+01  0.30941720767E+01  0.73549867261E+01  0.51100000000E-03 0.  1.
        -12    1    3    3    0    0  0.15292931459E+02  0.20666335757E+02  0.30036355245E+02  0.39536740162E+02  0.00000000000E+00 0.  1.
</event>
<event>
 7    1  0.3027254E-013  0.7246160E+02  0.7816164E-02  0.1226708E+00
        -11   -1    0    0    0    0  0.00000000000E+00  0.00000000000E+00  0.45593999997E+02  0.45594000000E+02  0.51100000000E-03 0. -1.
         11   -1    0    0    0    0 -0.00000000000E+00 -0.00000000000E+00 -0.45593999997E+02  0.45594000000E+02  0.51100000000E-03 0.  1.
    9900012    2    1    2    0    0 -0.16883569483E+02 -0.79639451924E+01  0.14828620400E+01  0.72461595611E+02  0.70000032980E+02 0.  0.
         12    1    1    2    0    0  0.16883569483E+02  0.79639451924E+01 -0.14828620400E+01  0.18726404389E+02  0.00000000000E+00 0. -1.
         11    1    3    3    0    0 -0.15966278287E+02 -0.17040554730E+02  0.94086513919E+01  0.25175886660E+02  0.51100000000E-03 0.  1.
        -11    1    3    3    0    0  0.13238495645E+02 -0.10728160676E+02 -0.14161288015E+02  0.22156111503E+02  0.51100000000E-03 0. -1.
         12    1    3    3    0    0 -0.14155786841E+02  0.19804770214E+02  0.62354986631E+01  0.25129597448E+02  0.00000000000E+00 0. -1.
</event>
<event>
 7    1  0.3027254E-013  0.7246154E+02  0.7816164E-02  0.1226708E+00
        -11   -1    0    0    0    0  0.00000000000E+00  0.00000000000E+00  0.45593999997E+02  0.45594000000E+02  0.51100000000E-03 0. -1.
         11   -1    0    0    0    0 -0.00000000000E+00 -0.00000000000E+00 -0.45593999997E+02  0.45594000000E+02  0.51100000000E-03 0.  1.
    9900012    2    1    2    0    0  0.49092785515E+01 -0.90241538252E+01 -0.15657068159E+02  0.72461544075E+02  0.69999965845E+02 0.  0.
         12    1    1    2    0    0 -0.49092785515E+01  0.90241538252E+01  0.15657068159E+02  0.18726455925E+02  0.00000000000E+00 0. -1.
         11    1    3    3    0    0 -0.11961201809E+01  0.67856989537E+01  0.11036595668E+02  0.13010874604E+02  0.51100000000E-03 0. -1.
        -11    1    3    3    0    0  0.12240976006E+02  0.15344957359E+02 -0.30571811125E+01  0.19865939861E+02  0.51100000000E-03 0.  1.
        -12    1    3    3    0    0 -0.61355772736E+01 -0.31154810138E+02 -0.23636482714E+02  0.39584729610E+02  0.00000000000E+00 0.  1.
</event>
<event>
 7    1  0.3027254E-013  0.7246157E+02  0.7816164E-02  0.1226708E+00
        -11   -1    0    0    0    0  0.00000000000E+00  0.00000000000E+00  0.45593999997E+02  0.45594000000E+02  0.51100000000E-03 0. -1.
         11   -1    0    0    0    0 -0.00000000000E+00 -0.00000000000E+00 -0.45593999997E+02  0.45594000000E+02  0.51100000000E-03 0.  1.
    9900012    2    1    2    0    0  0.12480327195E+02 -0.83742571357E+01 -0.11171048916E+02  0.72461572594E+02  0.70000002996E+02 0.  0.
         12    1    1    2    0    0 -0.12480327195E+02  0.83742571357E+01  0.11171048916E+02  0.18726427406E+02  0.00000000000E+00 0. -1.
         11    1    3    3    0    0  0.11115884913E+02  0.20031613708E+02  0.14907559638E+02  0.27332467503E+02  0.51100000000E-03 0. -1.
        -11    1    3    3    0    0  0.18249456349E+01  0.27915124672E+01 -0.89163315415E+01  0.95196605425E+01  0.51100000000E-03 0.  1.
        -12    1    3    3    0    0 -0.46050335269E+00 -0.31197383311E+02 -0.17162277013E+02  0.35609444549E+02  0.00000000000E+00 0.  1.
</event>
<event>
 7    1  0.3027254E-013  0.7246173E+02  0.7816164E-02  0.1226708E+00
        -11   -1    0    0    0    0  0.00000000000E+00  0.00000000000E+00  0.45593999997E+02  0.45594000000E+02  0.51100000000E-03 0.  1.
         11   -1    0    0    0    0 -0.00000000000E+00 -0.00000000000E+00 -0.45593999997E+02  0.45594000000E+02  0.51100000000E-03 0. -1.
    9900012    2    1    2    0    0  0.15936522919E+01 -0.18406963519E+02 -0.30523962338E+01  0.72461730847E+02  0.70000209149E+02 0.  0.
         12    1    1    2    0    0 -0.15936522919E+01  0.18406963519E+02  0.30523962338E+01  0.18726269153E+02  0.00000000000E+00 0. -1.
         11    1    3    3    0    0 -0.28458011022E+01 -0.19995652676E+02  0.59758102896E+00  0.20205984589E+02  0.51100000000E-03 0. -1.
        -11    1    3    3    0    0  0.15014614469E+02  0.39368271098E+01  0.20543223819E+02  0.25748034886E+02  0.51100000000E-03 0.  1.
         12    1    3    3    0    0 -0.10575161075E+02 -0.23481379525E+01 -0.24193201082E+02  0.26507711372E+02  0.00000000000E+00 0. -1.
</event>
<event>
 7    1  0.3027254E-013  0.7246159E+02  0.7816164E-02  0.1226708E+00
        -11   -1    0    0    0    0  0.00000000000E+00  0.00000000000E+00  0.45593999997E+02  0.45594000000E+02  0.51100000000E-03 0. -1.
         11   -1    0    0    0    0 -0.00000000000E+00 -0.00000000000E+00 -0.45593999997E+02  0.45594000000E+02  0.51100000000E-03 0.  1.
    9900012    2    1    2    0    0  0.82733402066E+01  0.11090694817E+01 -0.16763059914E+02  0.72461591616E+02  0.70000027775E+02 0.  0.
         12    1    1    2    0    0 -0.82733402066E+01 -0.11090694817E+01  0.16763059914E+02  0.18726408384E+02  0.00000000000E+00 0. -1.
         11    1    3    3    0    0  0.16893098290E+01  0.23410470443E+01  0.21989291863E+02  0.22177989672E+02  0.51100000000E-03 0. -1.
        -11    1    3    3    0    0  0.73748123979E+01  0.67159285588E+01  0.73022901995E+00  0.10001239373E+02  0.51100000000E-03 0.  1.
        -12    1    3    3    0    0 -0.79078202038E+00 -0.79479061214E+01 -0.39482580797E+02  0.40282362571E+02  0.00000000000E+00 0.  1.
</event>
<event>
 7    1  0.3027254E-013  0.7246156E+02  0.7816164E-02  0.1226708E+00
        -11   -1    0    0    0    0  0.00000000000E+00  0.00000000000E+00  0.45593999997E+02  0.45594000000E+02  0.51100000000E-03 0.  1.
         11   -1    0    0    0    0 -0.00000000000E+00 -0.00000000000E+00 -0.45593999997E+02  0.45594000000E+02  0.51100000000E-03 0. -1.
    9900012    2    1    2    0    0  0.85950290349E+01  0.14208185153E+02 -0.86563492942E+01  0.72461563271E+02  0.69999990851E+02 0.  0.
         12    1    1    2    0    0 -0.85950290349E+01 -0.14208185153E+02  0.86563492942E+01  0.18726436729E+02  0.00000000000E+00 0. -1.
         11    1    3    3    0    0  0.85661526985E+01 -0.17877516564E+02 -0.17646439110E+02  0.26540184327E+02  0.51100000000E-03 0. -1.
        -11    1    3    3    0    0  0.14784504859E+02  0.11622562931E+02  0.86272089327E+01  0.20690439513E+02  0.51100000000E-03 0.  1.
         12    1    3    3    0    0 -0.14755628522E+02  0.20463138786E+02  0.36288088355E+00  0.25230939431E+02  0.00000000000E+00 0. -1.
</event>
<event>
 7    1  0.3027254E-013  0.7246155E+02  0.7816164E-02  0.1226708E+00
        -11   -1    0    0    0    0  0.00000000000E+00  0.00000000000E+00  0.45593999997E+02  0.45594000000E+02  0.51100000000E-03 0.  1.
         11   -1    0    0    0    0 -0.00000000000E+00 -0.00000000000E+00 -0.45593999997E+02  0.45594000000E+02  0.51100000000E-03 0. -1.
    9900012    2    1    2    0    0 -0.11275688608E+02  0.11294371439E+02  0.97967243624E+01  0.72461553781E+02  0.69999978488E+02 0.  0.
         12    1    1    2    0    0  0.11275688608E+02 -0.11294371439E+02 -0.97967243624E+01  0.18726446219E+02  0.00000000000E+00 0. -1.
         11    1    3    3    0    0 -0.10497255136E+02  0.97615828169E+01 -0.23934762375E+01  0.14533051752E+02  0.51100000000E-03 0. -1.
        -11    1    3    3    0    0 -0.19406148398E+02  0.12648507987E+02  0.23894971496E+02  0.33279919065E+02  0.51100000000E-03 0.  1.
         12    1    3    3    0    0  0.18627714926E+02 -0.11115719365E+02 -0.11704770896E+02  0.24648582963E+02  0.00000000000E+00 0. -1.
</event>
<event>
 7    1  0.3027254E-013  0.7246158E+02  0.7816164E-02  0.1226708E+00
        -11   -1    0    0    0    0  0.00000000000E+00  0.00000000000E+00  0.45593999997E+02  0.45594000000E+02  0.51100000000E-03 0. -1.
         11   -1    0    0    0    0 -0.00000000000E+00 -0.00000000000E+00 -0.45593999997E+02  0.45594000000E+02  0.51100000000E-03 0.  1.
    9900012    2    1    2    0    0 -0.16239341844E+02 -0.87657426428E+01 -0.31818821376E+01  0.72461579052E+02  0.70000011408E+02 0.  0.
         12    1    1    2    0    0  0.16239341844E+02  0.87657426428E+01  0.31818821376E+01  0.18726420948E+02  0.00000000000E+00 0. -1.
         11    1    3    3    0    0  0.56538658062E+01  0.33729269707E+01  0.46578185201E+01  0.80646207928E+01  0.51100000000E-03 0. -1.
        -11    1    3    3    0    0  0.18441819212E+02 -0.21665692036E+01  0.76107043102E+01  0.20067823458E+02  0.51100000000E-03 0.  1.
        -12    1    3    3    0    0 -0.40335026862E+02 -0.99721004099E+01 -0.15450404968E+02  0.44329134801E+02  0.00000000000E+00 0.  1.
</event>
<event>
 7    1  0.3027254E-013  0.7246158E+02  0.7816164E-02  0.1226708E+00
        -11   -1    0    0    0    0  0.00000000000E+00  0.00000000000E+00  0.45593999997E+02  0.45594000000E+02  0.51100000000E-03 0.  1.
         11   -1    0    0    0    0 -0.00000000000E+00 -0.00000000000E+00 -0.45593999997E+02  0.45594000000E+02  0.51100000000E-03 0. -1.
    9900012    2    1    2    0    0 -0.14832885604E+02  0.53336788011E+01  0.10110202953E+02  0.72461579395E+02  0.70000011856E+02 0.  0.
         12    1    1    2    0    0  0.14832885604E+02 -0.53336788011E+01 -0.10110202953E+02  0.18726420605E+02  0.00000000000E+00 0. -1.
         11    1    3    3    0    0 -0.15717793423E+02 -0.23452631052E+02 -0.37975489843E+01  0.28486774333E+02  0.51100000000E-03 0. -1.
        -11    1    3    3    0    0 -0.72104224424E+01  0.61682187380E+01 -0.72668518588E+01  0.11951746751E+02  0.51100000000E-03 0.  1.
        -12    1    3    3    0    0  0.80953302605E+01  0.22618091115E+02  0.21174603796E+02  0.32023058312E+02  0.00000000000E+00 0.  1.
</event>
<event>
 7    1  0.3027254E-013  0.7246151E+02  0.7816164E-02  0.1226708E+00
        -11   -1    0    0    0    0  0.00000000000E+00  0.00000000000E+00  0.45593999997E+02  0.45594000000E+02  0.51100000000E-03 0.  1.
         11   -1    0    0    0    0 -0.00000000000E+00 -0.00000000000E+00 -0.45593999997E+02  0.45594000000E+02  0.51100000000E-03 0. -1.
    9900012    2    1    2    0    0 -0.27920791644E+01 -0.69497051567E+01  0.17163543270E+02  0.72461512732E+02  0.69999925015E+02 0.  0.
         12    1    1    2    0    0  0.27920791644E+01  0.69497051567E+01 -0.17163543270E+02  0.18726487268E+02  0.00000000000E+00 0. -1.
         11    1    3    3    0    0 -0.21772480097E+02 -0.25554026475E+02  0.65497257184E+01  0.34204503591E+02  0.51100000000E-03 0.  1.
        -11    1    3    3    0    0  0.10840958593E+02 -0.47406595865E+01  0.53210188459E+01  0.12973568451E+02  0.51100000000E-03 0. -1.
        -12    1    3    3    0    0  0.81394423395E+01  0.23344980904E+02  0.52927987053E+01  0.25283440691E+02  0.00000000000E+00 0.  1.
</event>
<event>
 7    1  0.3027254E-013  0.7246156E+02  0.7816164E-02  0.1226708E+00
        -11   -1    0    0    0    0  0.00000000000E+00  0.00000000000E+00  0.45593999997E+02  0.45594000000E+02  0.51100000000E-03 0.  1.
         11   -1    0    0    0    0 -0.00000000000E+00 -0.00000000000E+00 -0.45593999997E+02  0.45594000000E+02  0.51100000000E-03 0. -1.
    9900012    2    1    2    0    0 -0.15562768627E+01  0.12351794308E+02  0.13988948896E+02  0.72461561163E+02  0.69999988104E+02 0.  0.
         12    1    1    2    0    0  0.15562768627E+01 -0.12351794308E+02 -0.13988948896E+02  0.18726438837E+02  0.00000000000E+00 0. -1.
         11    1    3    3    0    0  0.10051414087E+02  0.37925379454E+01 -0.23791341596E+02  0.26104447981E+02  0.51100000000E-03 0. -1.
        -11    1    3    3    0    0  0.51864429206E+01 -0.86571043392E+00  0.18190928950E+01  0.55639683631E+01  0.51100000000E-03 0.  1.
        -12    1    3    3    0    0 -0.16794133870E+02  0.94249667968E+01  0.35961197597E+02  0.40793144818E+02  0.00000000000E+00 0.  1.
</event>
<event>
 7    1  0.3027254E-013  0.7246154E+02  0.7816164E-02  0.1226708E+00
        -11   -1    0    0    0    0  0.00000000000E+00  0.00000000000E+00  0.45593999997E+02  0.45594000000E+02  0.51100000000E-03 0.  1.
         11   -1    0    0    0    0 -0.00000000000E+00 -0.00000000000E+00 -0.45593999997E+02  0.45594000000E+02  0.51100000000E-03 0. -1.
    9900012    2    1    2    0    0  0.15350577413E+02 -0.94592740917E+01  0.50559111547E+01  0.72461539286E+02  0.69999959606E+02 0.  0.
         12    1    1    2    0    0 -0.15350577413E+02  0.94592740917E+01 -0.50559111547E+01  0.18726460714E+02  0.00000000000E+00 0. -1.
         11    1    3    3    0    0  0.85193928701E+01  0.10176214524E+02 -0.16995962504E+02  0.21563815493E+02  0.51100000000E-03 0. -1.
        -11    1    3    3    0    0  0.25937435569E+01  0.83717948421E+01 -0.63206434532E+01  0.10805784953E+02  0.51100000000E-03 0.  1.
        -12    1    3    3    0    0  0.42374409859E+01 -0.28007283458E+02  0.28372517112E+02  0.40091938841E+02  0.00000000000E+00 0.  1.
</event>
<event>
 7    1  0.3027254E-013  0.7246124E+02  0.7816164E-02  0.1226709E+00
        -11   -1    0    0    0    0  0.00000000000E+00  0.00000000000E+00  0.45593999997E+02  0.45594000000E+02  0.51100000000E-03 0.  1.
         11   -1    0    0    0    0 -0.00000000000E+00 -0.00000000000E+00 -0.45593999997E+02  0.45594000000E+02  0.51100000000E-03 0. -1.
    9900012    2    1    2    0    0  0.90232355587E+01 -0.57769935397E+01  0.15359005431E+02  0.72461241548E+02  0.69999571745E+02 0.  0.
         12    1    1    2    0    0 -0.90232355587E+01  0.57769935397E+01 -0.15359005431E+02  0.18726758452E+02  0.00000000000E+00 0. -1.
         11    1    3    3    0    0 -0.40036460398E+01  0.11792636146E+02  0.77224138110E+01  0.14653706842E+02  0.51100000000E-03 0. -1.
        -11    1    3    3    0    0  0.70925621802E+01 -0.34232878556E+01  0.29816662602E+02  0.30839207302E+02  0.51100000000E-03 0.  1.
         12    1    3    3    0    0  0.59343194183E+01 -0.14146341830E+02 -0.22180070982E+02  0.26968327403E+02  0.00000000000E+00 0. -1.
</event>
<event>
 7    1  0.3027254E-013  0.7246160E+02  0.7816164E-02  0.1226708E+00
        -11   -1    0    0    0    0  0.00000000000E+00  0.00000000000E+00  0.45593999997E+02  0.45594000000E+02  0.51100000000E-03 0.  1.
         11   -1    0    0    0    0 -0.00000000000E+00 -0.00000000000E+00 -0.45593999997E+02  0.45594000000E+02  0.51100000000E-03 0. -1.
    9900012    2    1    2    0    0  0.40849690696E+01  0.12794568294E+02  0.13049525452E+02  0.72461599794E+02  0.70000038429E+02 0.  0.
         12    1    1    2    0    0 -0.40849690696E+01 -0.12794568294E+02 -0.13049525452E+02  0.18726400206E+02  0.00000000000E+00 0. -1.
         11    1    3    3    0    0 -0.26803840145E+01 -0.65384759393E+01  0.13411520874E+02  0.15159321175E+02  0.51100000000E-03 0. -1.
        -11    1    3    3    0    0 -0.16923199701E+02 -0.98903950723E+01  0.13229890785E+01  0.19645989494E+02  0.51100000000E-03 0.  1.
         12    1    3    3    0    0  0.23688552785E+02  0.29223439306E+02 -0.16849845009E+01  0.37656289125E+02  0.00000000000E+00 0. -1.
</event>
<event>
 7    1  0.3027254E-013  0.7246152E+02  0.7816164E-02  0.1226708E+00
        -11   -1    0    0    0    0  0.00000000000E+00  0.00000000000E+00  0.45593999997E+02  0.45594000000E+02  0.51100000000E-03 0.  1.
         11   -1    0    0    0    0 -0.00000000000E+00 -0.00000000000E+00 -0.45593999997E+02  0.45594000000E+02  0.51100000000E-03 0. -1.
    9900012    2    1    2    0    0  0.15665348721E+01  0.12237474399E+01  0.18620672334E+02  0.72461520686E+02  0.69999935376E+02 0.  0.
         12    1    1    2    0    0 -0.15665348721E+01 -0.12237474399E+01 -0.18620672334E+02  0.18726479314E+02  0.00000000000E+00 0. -1.
         11    1    3    3    0    0  0.11608486849E+02  0.19154603680E+02  0.35760394603E+01  0.22681355064E+02  0.51100000000E-03 0. -1.
        -11    1    3    3    0    0  0.37608545949E+00  0.56987381840E+00  0.25917009980E+02  0.25926002449E+02  0.51100000000E-03 0.  1.
         12    1    3    3    0    0 -0.10418037436E+02 -0.18500730059E+02 -0.10872377106E+02  0.23854163173E+02  0.00000000000E+00 0. -1.
</event>
<event>
 7    1  0.3027254E-013  0.7246160E+02  0.7816164E-02  0.1226708E+00
        -11   -1    0    0    0    0  0.00000000000E+00  0.00000000000E+00  0.45593999997E+02  0.45594000000E+02  0.51100000000E-03 0.  1.
         11   -1    0    0    0    0 -0.00000000000E+00 -0.00000000000E+00 -0.45593999997E+02  0.45594000000E+02  0.51100000000E-03 0. -1.
    9900012    2    1    2    0    0  0.17660665133E+02 -0.37260140170E+01 -0.49895687827E+01  0.72461599651E+02  0.70000038242E+02 0.  0.
         12    1    1    2    0    0 -0.17660665133E+02  0.37260140170E+01  0.49895687827E+01  0.18726400349E+02  0.00000000000E+00 0. -1.
         11    1    3    3    0    0  0.17624188782E+02  0.37657915704E+01  0.42826569425E+00  0.18027108147E+02  0.51100000000E-03 0. -1.
        -11    1    3    3    0    0  0.25913944899E+02 -0.24499905200E+01  0.42093831840E+01  0.26367667717E+02  0.51100000000E-03 0.  1.
         12    1    3    3    0    0 -0.25877468548E+02 -0.50418150674E+01 -0.96272176610E+01  0.28066823787E+02  0.00000000000E+00 0. -1.
</event>
<event>
 7    1  0.3027254E-013  0.7246162E+02  0.7816164E-02  0.1226708E+00
        -11   -1    0    0    0    0  0.00000000000E+00  0.00000000000E+00  0.45593999997E+02  0.45594000000E+02  0.51100000000E-03 0.  1.
         11   -1    0    0    0    0 -0.00000000000E+00 -0.00000000000E+00 -0.45593999997E+02  0.45594000000E+02  0.51100000000E-03 0. -1.
    9900012    2    1    2    0    0  0.69679050765E+01 -0.16329227300E+02  0.59566714081E+01  0.72461620221E+02  0.70000065039E+02 0.  0.
         12    1    1    2    0    0 -0.69679050765E+01  0.16329227300E+02 -0.59566714081E+01  0.18726379779E+02  0.00000000000E+00 0. -1.
         11    1    3    3    0    0 -0.12130040790E+02 -0.34271165211E+02  0.12642994452E+02  0.38490206072E+02  0.51100000000E-03 0. -1.
        -11    1    3    3    0    0 -0.13755723130E+01  0.11913355980E+01  0.47993445146E+01  0.51327563479E+01  0.51100000000E-03 0.  1.
        -12    1    3    3    0    0  0.20473518180E+02  0.16750602313E+02 -0.11485667559E+02  0.28838657801E+02  0.00000000000E+00 0.  1.
</event>
<event>
 7    1  0.3027254E-013  0.7246165E+02  0.7816164E-02  0.1226708E+00
        -11   -1    0    0    0    0  0.00000000000E+00  0.00000000000E+00  0.45593999997E+02  0.45594000000E+02  0.51100000000E-03 0.  1.
         11   -1    0    0    0    0 -0.00000000000E+00 -0.00000000000E+00 -0.45593999997E+02  0.45594000000E+02  0.51100000000E-03 0. -1.
    9900012    2    1    2    0    0 -0.65533608208E+01  0.25031054207E+01  0.17362722435E+02  0.72461649444E+02  0.70000103106E+02 0.  0.
         12    1    1    2    0    0  0.65533608208E+01 -0.25031054207E+01 -0.17362722435E+02  0.18726350556E+02  0.00000000000E+00 0. -1.
         11    1    3    3    0    0  0.11646518046E+02  0.23788020304E+02 -0.58208240131E+01  0.27118135722E+02  0.51100000000E-03 0. -1.
        -11    1    3    3    0    0 -0.75281640861E+01  0.46275441533E+01 -0.20929129172E+00  0.88391867558E+01  0.51100000000E-03 0.  1.
        -12    1    3    3    0    0 -0.10671714781E+02 -0.25912459036E+02  0.23392837740E+02  0.36504326966E+02  0.00000000000E+00 0.  1.
</event>
<event>
 7    1  0.3027254E-013  0.7246170E+02  0.7816164E-02  0.1226708E+00
        -11   -1    0    0    0    0  0.00000000000E+00  0.00000000000E+00  0.45593999997E+02  0.45594000000E+02  0.51100000000E-03 0. -1.
         11   -1    0    0    0    0 -0.00000000000E+00 -0.00000000000E+00 -0.45593999997E+02  0.45594000000E+02  0.51100000000E-03 0.  1.
    9900012    2    1    2    0    0  0.60283200299E+01 -0.43006147139E+01 -0.17199950643E+02  0.72461702143E+02  0.70000171757E+02 0.  0.
         12    1    1    2    0    0 -0.60283200299E+01  0.43006147139E+01  0.17199950643E+02  0.18726297857E+02  0.00000000000E+00 0. -1.
         11    1    3    3    0    0 -0.56494646085E+01 -0.17702897422E+02  0.82294802392E+01  0.20323222499E+02  0.51100000000E-03 0. -1.
        -11    1    3    3    0    0  0.32648167613E+01 -0.15194866835E+02 -0.66313638071E+01  0.16897277675E+02  0.51100000000E-03 0.  1.
         12    1    3    3    0    0  0.84129678771E+01  0.28597149543E+02 -0.18798067075E+02  0.35241201969E+02  0.00000000000E+00 0. -1.
</event>
<event>
 7    1  0.3027254E-013  0.7246159E+02  0.7816164E-02  0.1226708E+00
        -11   -1    0    0    0    0  0.00000000000E+00  0.00000000000E+00  0.45593999997E+02  0.45594000000E+02  0.51100000000E-03 0. -1.
         11   -1    0    0    0    0 -0.00000000000E+00 -0.00000000000E+00 -0.45593999997E+02  0.45594000000E+02  0.51100000000E-03 0.  1.
    9900012    2    1    2    0    0 -0.12950133743E+02  0.11575647271E+02  0.69983449171E+01  0.72461590700E+02  0.70000026582E+02 0.  0.
         12    1    1    2    0    0  0.12950133743E+02 -0.11575647271E+02 -0.69983449171E+01  0.18726409300E+02  0.00000000000E+00 0. -1.
         11    1    3    3    0    0 -0.11901359585E+02 -0.14801847807E+02  0.14894497796E+02  0.24136758758E+02  0.51100000000E-03 0. -1.
        -11    1    3    3    0    0 -0.88336400453E+01 -0.77484359660E+01 -0.61889417059E+01  0.13280604507E+02  0.51100000000E-03 0.  1.
        -12    1    3    3    0    0  0.77848658877E+01  0.34125931044E+02 -0.17072111730E+01  0.35044227435E+02  0.00000000000E+00 0.  1.
</event>
<event>
 7    1  0.3027254E-013  0.7246158E+02  0.7816164E-02  0.1226708E+00
        -11   -1    0    0    0    0  0.00000000000E+00  0.00000000000E+00  0.45593999997E+02  0.45594000000E+02  0.51100000000E-03 0. -1.
         11   -1    0    0    0    0 -0.00000000000E+00 -0.00000000000E+00 -0.45593999997E+02  0.45594000000E+02  0.51100000000E-03 0.  1.
    9900012    2    1    2    0    0 -0.10449646462E+02 -0.15528358008E+02  0.59471958559E+00  0.72461582698E+02  0.70000016158E+02 0.  0.
         12    1    1    2    0    0  0.10449646462E+02  0.15528358008E+02 -0.59471958559E+00  0.18726417302E+02  0.00000000000E+00 0. -1.
         11    1    3    3    0    0 -0.22299703261E+02  0.13642301774E+02  0.53476105697E+01  0.26683067708E+02  0.51100000000E-03 0. -1.
        -11    1    3    3    0    0 -0.62142970768E+01 -0.67984234200E+00 -0.98443391600E+01  0.11661504514E+02  0.51100000000E-03 0.  1.
         12    1    3    3    0    0  0.18064353876E+02 -0.28490817439E+02  0.50914481759E+01  0.34117010476E+02  0.00000000000E+00 0. -1.
</event>
<event>
 7    1  0.3027254E-013  0.7246153E+02  0.7816164E-02  0.1226708E+00
        -11   -1    0    0    0    0  0.00000000000E+00  0.00000000000E+00  0.45593999997E+02  0.45594000000E+02  0.51100000000E-03 0. -1.
         11   -1    0    0    0    0 -0.00000000000E+00 -0.00000000000E+00 -0.45593999997E+02  0.45594000000E+02  0.51100000000E-03 0.  1.
    9900012    2    1    2    0    0  0.43390291462E+01 -0.18154613344E+02  0.15045261055E+01  0.72461527871E+02  0.69999944736E+02 0.  0.
         12    1    1    2    0    0 -0.43390291462E+01  0.18154613344E+02 -0.15045261055E+01  0.18726472129E+02  0.00000000000E+00 0. -1.
         11    1    3    3    0    0 -0.71811693062E+01  0.29906354162E+01 -0.30875360801E+00  0.77851410937E+01  0.51100000000E-03 0. -1.
        -11    1    3    3    0    0 -0.17094211579E+02  0.90294257821E+01 -0.95562410542E+01  0.21565350514E+02  0.51100000000E-03 0.  1.
        -12    1    3    3    0    0  0.28614410031E+02 -0.30174674542E+02  0.11369520768E+02  0.43111036263E+02  0.00000000000E+00 0.  1.
</event>
<event>
 7    1  0.3027254E-013  0.7246155E+02  0.7816164E-02  0.1226708E+00
        -11   -1    0    0    0    0  0.00000000000E+00  0.00000000000E+00  0.45593999997E+02  0.45594000000E+02  0.51100000000E-03 0. -1.
         11   -1    0    0    0    0 -0.00000000000E+00 -0.00000000000E+00 -0.45593999997E+02  0.45594000000E+02  0.51100000000E-03 0.  1.
    9900012    2    1    2    0    0  0.17883535296E+02  0.51109041211E+01  0.21766610906E+01  0.72461547342E+02  0.69999970101E+02 0.  0.
         12    1    1    2    0    0 -0.17883535296E+02 -0.51109041211E+01 -0.21766610906E+01  0.18726452658E+02  0.00000000000E+00 0. -1.
         11    1    3    3    0    0 -0.27285608552E+01 -0.15343575550E+02 -0.13677386598E+02  0.20735024943E+02  0.51100000000E-03 0.  1.
        -11    1    3    3    0    0 -0.12052423355E+02  0.65049118259E+01  0.51198413676E+01  0.14621476071E+02  0.51100000000E-03 0. -1.
        -12    1    3    3    0    0  0.32664519507E+02  0.13949567845E+02  0.10734206321E+02  0.37105046328E+02  0.00000000000E+00 0.  1.
</event>
<event>
 7    1  0.3027254E-013  0.7246157E+02  0.7816164E-02  0.1226708E+00
        -11   -1    0    0    0    0  0.00000000000E+00  0.00000000000E+00  0.45593999997E+02  0.45594000000E+02  0.51100000000E-03 0.  1.
         11   -1    0    0    0    0 -0.00000000000E+00 -0.00000000000E+00 -0.45593999997E+02  0.45594000000E+02  0.51100000000E-03 0. -1.
    9900012    2    1    2    0    0  0.37599085650E+01  0.76649414215E+01  0.16667065856E+02  0.72461566179E+02  0.69999994639E+02 0.  0.
         12    1    1    2    0    0 -0.37599085650E+01 -0.76649414215E+01 -0.16667065856E+02  0.18726433821E+02  0.00000000000E+00 0. -1.
         11    1    3    3    0    0  0.28308869626E+00 -0.50922437859E+01  0.24944614228E+02  0.25460653276E+02  0.51100000000E-03 0. -1.
        -11    1    3    3    0    0  0.12933463913E+02  0.14295162498E+02  0.13280767955E+02  0.23409505705E+02  0.51100000000E-03 0.  1.
         12    1    3    3    0    0 -0.94566440439E+01 -0.15379772902E+01 -0.21558316327E+02  0.23591407198E+02  0.00000000000E+00 0. -1.
</event>
<event>
 7    1  0.3027254E-013  0.7246141E+02  0.7816164E-02  0.1226708E+00
        -11   -1    0    0    0    0  0.00000000000E+00  0.00000000000E+00  0.45593999997E+02  0.45594000000E+02  0.51100000000E-03 0. -1.
         11   -1    0    0    0    0 -0.00000000000E+00 -0.00000000000E+00 -0.45593999997E+02  0.45594000000E+02  0.51100000000E-03 0.  1.
    9900012    2    1    2    0    0  0.21026632483E+01 -0.16993516300E+02 -0.75818399447E+01  0.72461412326E+02  0.69999794217E+02 0.  0.
         12    1    1    2    0    0 -0.21026632483E+01  0.16993516300E+02  0.75818399447E+01  0.18726587674E+02  0.00000000000E+00 0. -1.
         11    1    3    3    0    0  0.41626968479E+01  0.36119343356E+01 -0.16792889315E+01  0.57614343934E+01  0.51100000000E-03 0. -1.
        -11    1    3    3    0    0  0.26001945627E+02 -0.24304145580E+02  0.58183474294E+01  0.36064467774E+02  0.51100000000E-03 0.  1.
         12    1    3    3    0    0 -0.28061979226E+02  0.36986949446E+01 -0.11720898443E+02  0.30635510159E+02  0.00000000000E+00 0. -1.
</event>
<event>
 7    1  0.3027254E-013  0.7246149E+02  0.7816164E-02  0.1226708E+00
        -11   -1    0    0    0    0  0.00000000000E+00  0.00000000000E+00  0.45593999997E+02  0.45594000000E+02  0.51100000000E-03 0. -1.
         11   -1    0    0    0    0 -0.00000000000E+00 -0.00000000000E+00 -0.45593999997E+02  0.45594000000E+02  0.51100000000E-03 0.  1.
    9900012    2    1    2    0    0 -0.12729210860E+02  0.63565971294E+01 -0.12175513265E+02  0.72461487792E+02  0.69999892526E+02 0.  0.
         12    1    1    2    0    0  0.12729210860E+02 -0.63565971294E+01  0.12175513265E+02  0.18726512208E+02  0.00000000000E+00 0. -1.
         11    1    3    3    0    0 -0.12735525637E+01 -0.70652732541E+01 -0.23904830600E+02  0.24959586306E+02  0.51100000000E-03 0. -1.
        -11    1    3    3    0    0 -0.22362847009E+01  0.19691855298E+01 -0.15914741296E+02  0.16191283201E+02  0.51100000000E-03 0.  1.
        -12    1    3    3    0    0 -0.92193735957E+01  0.11452684854E+02  0.27644058631E+02  0.31310618286E+02  0.00000000000E+00 0.  1.
</event>
<event>
 7    1  0.3027254E-013  0.7246151E+02  0.7816164E-02  0.1226708E+00
        -11   -1    0    0    0    0  0.00000000000E+00  0.00000000000E+00  0.45593999997E+02  0.45594000000E+02  0.51100000000E-03 0.  1.
         11   -1    0    0    0    0 -0.00000000000E+00 -0.00000000000E+00 -0.45593999997E+02  0.45594000000E+02  0.51100000000E-03 0. -1.
    9900012    2    1    2    0    0 -0.31029743940E+01 -0.83739293471E+01  0.16459958450E+02  0.72461511408E+02  0.69999923290E+02 0.  0.
         12    1    1    2    0    0  0.31029743940E+01  0.83739293471E+01 -0.16459958450E+02  0.18726488592E+02  0.00000000000E+00 0. -1.
         11    1    3    3    0    0  0.30305048441E+01 -0.41326022848E+01 -0.10704671463E+02  0.11868123384E+02  0.51100000000E-03 0. -1.
        -11    1    3    3    0    0 -0.54339401320E+01  0.17652043453E+02  0.33095324532E+02  0.37900169519E+02  0.51100000000E-03 0.  1.
         12    1    3    3    0    0 -0.69953910612E+00 -0.21893370516E+02 -0.59306946187E+01  0.22693218506E+02  0.00000000000E+00 0. -1.
</event>
<event>
 7    1  0.3027254E-013  0.7246158E+02  0.7816164E-02  0.1226708E+00
        -11   -1    0    0    0    0  0.00000000000E+00  0.00000000000E+00  0.45593999997E+02  0.45594000000E+02  0.51100000000E-03 0.  1.
         11   -1    0    0    0    0 -0.00000000000E+00 -0.00000000000E+00 -0.45593999997E+02  0.45594000000E+02  0.51100000000E-03 0. -1.
    9900012    2    1    2    0    0 -0.10806867867E+02  0.53144983051E+01  0.14340384088E+02  0.72461577461E+02  0.70000009335E+02 0.  0.
         12    1    1    2    0    0  0.10806867867E+02 -0.53144983051E+01 -0.14340384088E+02  0.18726422539E+02  0.00000000000E+00 0. -1.
         11    1    3    3    0    0  0.20825127205E+01 -0.72223857720E+00  0.68309824614E+01  0.71777997634E+01  0.51100000000E-03 0. -1.
        -11    1    3    3    0    0  0.14630106332E+02 -0.31560813663E+01  0.26621624824E+02  0.30540330211E+02  0.51100000000E-03 0.  1.
         12    1    3    3    0    0 -0.27519486920E+02  0.91928182486E+01 -0.19112223197E+02  0.34743447486E+02  0.00000000000E+00 0. -1.
</event>
<event>
 7    1  0.3042820E-013  0.7246154E+02  0.7816164E-02  0.1226708E+00
        -11   -1    0    0    0    0  0.00000000000E+00  0.00000000000E+00  0.45593999997E+02  0.45594000000E+02  0.51100000000E-03 0. -1.
         11   -1    0    0    0    0 -0.00000000000E+00 -0.00000000000E+00 -0.45593999997E+02  0.45594000000E+02  0.51100000000E-03 0.  1.
    9900012    2    1    2    0    0  0.13003895394E+02  0.13469449129E+02 -0.39106737239E+00  0.72461540405E+02  0.69999961064E+02 0.  0.
         12    1    1    2    0    0 -0.13003895394E+02 -0.13469449129E+02  0.39106737239E+00  0.18726459595E+02  0.00000000000E+00 0. -1.
         11    1    3    3    0    0 -0.19483500632E+02  0.15532564798E+02  0.81294401470E+01  0.26209829520E+02  0.51100000000E-03 0. -1.
        -11    1    3    3    0    0  0.17326548591E+01 -0.12035542726E+02  0.18467207158E+01  0.12299055217E+02  0.51100000000E-03 0.  1.
        -12    1    3    3    0    0  0.30754741167E+02  0.99724270570E+01 -0.10367228235E+02  0.33952655669E+02  0.00000000000E+00 0.  1.
</event>
<event>
 7    1  0.3027254E-013  0.7246157E+02  0.7816164E-02  0.1226708E+00
        -11   -1    0    0    0    0  0.00000000000E+00  0.00000000000E+00  0.45593999997E+02  0.45594000000E+02  0.51100000000E-03 0.  1.
         11   -1    0    0    0    0 -0.00000000000E+00 -0.00000000000E+00 -0.45593999997E+02  0.45594000000E+02  0.51100000000E-03 0. -1.
    9900012    2    1    2    0    0  0.15275412870E+02 -0.10802283078E+02  0.80722561009E+00  0.72461570249E+02  0.69999999941E+02 0.  0.
         12    1    1    2    0    0 -0.15275412870E+02  0.10802283078E+02 -0.80722561009E+00  0.18726429751E+02  0.00000000000E+00 0. -1.
         11    1    3    3    0    0  0.20327051537E+02 -0.10999444597E+02 -0.11375983358E+02  0.25760236863E+02  0.51100000000E-03 0. -1.
        -11    1    3    3    0    0  0.12053968459E+02  0.12857077874E+02 -0.60952860905E+01  0.18648193474E+02  0.51100000000E-03 0.  1.
        -12    1    3    3    0    0 -0.17105607126E+02 -0.12659916355E+02  0.18278495059E+02  0.28053139911E+02  0.00000000000E+00 0.  1.
</event>
<event>
 7    1  0.3027254E-013  0.7246155E+02  0.7816164E-02  0.1226708E+00
        -11   -1    0    0    0    0  0.00000000000E+00  0.00000000000E+00  0.45593999997E+02  0.45594000000E+02  0.51100000000E-03 0.  1.
         11   -1    0    0    0    0 -0.00000000000E+00 -0.00000000000E+00 -0.45593999997E+02  0.45594000000E+02  0.51100000000E-03 0. -1.
    9900012    2    1    2    0    0 -0.18076997078E+02 -0.29484341975E+01  0.38998373221E+01  0.72461552961E+02  0.69999977420E+02 0.  0.
         12    1    1    2    0    0  0.18076997078E+02  0.29484341975E+01 -0.38998373221E+01  0.18726447039E+02  0.00000000000E+00 0. -1.
         11    1    3    3    0    0  0.17258491026E+01  0.56583996573E+01  0.25185928805E+01  0.64295685831E+01  0.51100000000E-03 0. -1.
        -11    1    3    3    0    0 -0.19387239059E+02 -0.18952361696E+02  0.27083903443E+02  0.38322250432E+02  0.51100000000E-03 0.  1.
         12    1    3    3    0    0 -0.41560712132E+00  0.10345527842E+02 -0.25702659001E+02  0.27709733946E+02  0.00000000000E+00 0. -1.
</event>
<event>
 7    1  0.3027254E-013  0.7246153E+02  0.7816164E-02  0.1226708E+00
        -11   -1    0    0    0    0  0.00000000000E+00  0.00000000000E+00  0.45593999997E+02  0.45594000000E+02  0.51100000000E-03 0.  1.
         11   -1    0    0    0    0 -0.00000000000E+00 -0.00000000000E+00 -0.45593999997E+02  0.45594000000E+02  0.51100000000E-03 0. -1.
    9900012    2    1    2    0    0 -0.93078555426E+00 -0.17808130045E+02  0.57170569181E+01  0.72461532174E+02  0.69999950341E+02 0.  0.
         12    1    1    2    0    0  0.93078555426E+00  0.17808130045E+02 -0.57170569181E+01  0.18726467826E+02  0.00000000000E+00 0. -1.
         11    1    3    3    0    0 -0.54016844784E+01 -0.31930925181E+02 -0.16401280492E+02  0.36301021751E+02  0.51100000000E-03 0. -1.
        -11    1    3    3    0    0  0.83769790982E+00  0.10282838978E+02 -0.27979768835E+01  0.10689583254E+02  0.51100000000E-03 0.  1.
        -12    1    3    3    0    0  0.36332010143E+01  0.38399561581E+01  0.24916314293E+02  0.25470927169E+02  0.00000000000E+00 0.  1.
</event>
<event>
 7    1  0.3027254E-013  0.7246159E+02  0.7816164E-02  0.1226708E+00
        -11   -1    0    0    0    0  0.00000000000E+00  0.00000000000E+00  0.45593999997E+02  0.45594000000E+02  0.51100000000E-03 0. -1.
         11   -1    0    0    0    0 -0.00000000000E+00 -0.00000000000E+00 -0.45593999997E+02  0.45594000000E+02  0.51100000000E-03 0.  1.
    9900012    2    1    2    0    0  0.24383024688E+01  0.16885101524E+02 -0.77218187723E+01  0.72461589304E+02  0.70000024764E+02 0.  0.
         12    1    1    2    0    0 -0.24383024688E+01 -0.16885101524E+02  0.77218187723E+01  0.18726410696E+02  0.00000000000E+00 0. -1.
         11    1    3    3    0    0 -0.69133302603E+01  0.17172310206E+02  0.18674886534E+01  0.18605641274E+02  0.51100000000E-03 0. -1.
        -11    1    3    3    0    0 -0.46665965345E+01 -0.11925946985E+02 -0.26224296668E+02  0.29184226403E+02  0.51100000000E-03 0.  1.
         12    1    3    3    0    0  0.14018229264E+02  0.11638738303E+02  0.16634989243E+02  0.24671721628E+02  0.00000000000E+00 0. -1.
</event>
<event>
 7    1  0.3027254E-013  0.7246158E+02  0.7816164E-02  0.1226708E+00
        -11   -1    0    0    0    0  0.00000000000E+00  0.00000000000E+00  0.45593999997E+02  0.45594000000E+02  0.51100000000E-03 0.  1.
         11   -1    0    0    0    0 -0.00000000000E+00 -0.00000000000E+00 -0.45593999997E+02  0.45594000000E+02  0.51100000000E-03 0. -1.
    9900012    2    1    2    0    0  0.20711995981E+01 -0.18272843972E+02 -0.35344065759E+01  0.72461582178E+02  0.70000015481E+02 0.  0.
         12    1    1    2    0    0 -0.20711995981E+01  0.18272843972E+02  0.35344065759E+01  0.18726417822E+02  0.00000000000E+00 0. -1.
         11    1    3    3    0    0 -0.36897307778E+01  0.10412281163E+02 -0.24772290700E+02  0.27123718385E+02  0.51100000000E-03 0. -1.
        -11    1    3    3    0    0  0.11096433508E+02 -0.14593299895E+02 -0.11304318175E+01  0.18367719368E+02  0.51100000000E-03 0.  1.
        -12    1    3    3    0    0 -0.53355031319E+01 -0.14091825240E+02  0.22368315942E+02  0.26970144425E+02  0.00000000000E+00 0.  1.
</event>
<event>
 7    1  0.3027254E-013  0.7246166E+02  0.7816164E-02  0.1226708E+00
        -11   -1    0    0    0    0  0.00000000000E+00  0.00000000000E+00  0.45593999997E+02  0.45594000000E+02  0.51100000000E-03 0.  1.
         11   -1    0    0    0    0 -0.00000000000E+00 -0.00000000000E+00 -0.45593999997E+02  0.45594000000E+02  0.51100000000E-03 0. -1.
    9900012    2    1    2    0    0  0.56539440229E+01  0.22083318351E+01  0.17715305038E+02  0.72461659057E+02  0.70000115630E+02 0.  0.
         12    1    1    2    0    0 -0.56539440229E+01 -0.22083318351E+01 -0.17715305038E+02  0.18726340943E+02  0.00000000000E+00 0. -1.
         11    1    3    3    0    0  0.17768592889E+02  0.99308183433E+01 -0.65382469002E+01  0.21379726823E+02  0.51100000000E-03 0. -1.
        -11    1    3    3    0    0  0.13349168048E+02 -0.13117098402E+02  0.77142568863E+01  0.20242734934E+02  0.51100000000E-03 0.  1.
         12    1    3    3    0    0 -0.25463816914E+02  0.53946118935E+01  0.16539295052E+02  0.30839197300E+02  0.00000000000E+00 0. -1.
</event>
<event>
 7    1  0.3027254E-013  0.7246157E+02  0.7816164E-02  0.1226708E+00
        -11   -1    0    0    0    0  0.00000000000E+00  0.00000000000E+00  0.45593999997E+02  0.45594000000E+02  0.51100000000E-03 0.  1.
         11   -1    0    0    0    0 -0.00000000000E+00 -0.00000000000E+00 -0.45593999997E+02  0.45594000000E+02  0.51100000000E-03 0. -1.
    9900012    2    1    2    0    0  0.80659425011E+01  0.16018299861E+02 -0.53882897522E+01  0.72461574144E+02  0.70000005015E+02 0.  0.
         12    1    1    2    0    0 -0.80659425011E+01 -0.16018299861E+02  0.53882897522E+01  0.18726425856E+02  0.00000000000E+00 0. -1.
         11    1    3    3    0    0  0.12800861228E+02  0.19068287939E+02 -0.11771464470E+02  0.25807538223E+02  0.51100000000E-03 0.  1.
        -11    1    3    3    0    0 -0.57225892859E+01 -0.72094432525E+01 -0.18894558403E+02  0.21017336597E+02  0.51100000000E-03 0. -1.
         12    1    3    3    0    0  0.98767055858E+00  0.41594551754E+01  0.25277733121E+02  0.25636699324E+02  0.00000000000E+00 0. -1.
</event>
<event>
 7    1  0.3027254E-013  0.7246155E+02  0.7816164E-02  0.1226708E+00
        -11   -1    0    0    0    0  0.00000000000E+00  0.00000000000E+00  0.45593999997E+02  0.45594000000E+02  0.51100000000E-03 0.  1.
         11   -1    0    0    0    0 -0.00000000000E+00 -0.00000000000E+00 -0.45593999997E+02  0.45594000000E+02  0.51100000000E-03 0. -1.
    9900012    2    1    2    0    0 -0.93591482274E+01  0.12884953897E+02 -0.98521106216E+01  0.72461554097E+02  0.69999978899E+02 0.  0.
         12    1    1    2    0    0  0.93591482274E+01 -0.12884953897E+02  0.98521106216E+01  0.18726445903E+02  0.00000000000E+00 0. -1.
         11    1    3    3    0    0  0.46549509649E+01  0.11119698979E+02 -0.74365012898E+01  0.14163962213E+02  0.51100000000E-03 0. -1.
        -11    1    3    3    0    0 -0.10759401020E+01  0.14350111170E+02  0.22996505042E+02  0.27127893064E+02  0.51100000000E-03 0.  1.
         12    1    3    3    0    0 -0.12938159090E+02 -0.12584856252E+02 -0.25412114374E+02  0.31169698819E+02  0.00000000000E+00 0. -1.
</event>
<event>
 7    1  0.3027254E-013  0.7246159E+02  0.7816164E-02  0.1226708E+00
        -11   -1    0    0    0    0  0.00000000000E+00  0.00000000000E+00  0.45593999997E+02  0.45594000000E+02  0.51100000000E-03 0. -1.
         11   -1    0    0    0    0 -0.00000000000E+00 -0.00000000000E+00 -0.45593999997E+02  0.45594000000E+02  0.51100000000E-03 0.  1.
    9900012    2    1    2    0    0 -0.97601514123E+00 -0.18474485666E+02  0.29015990273E+01  0.72461588088E+02  0.70000023180E+02 0.  0.
         12    1    1    2    0    0  0.97601514123E+00  0.18474485666E+02 -0.29015990273E+01  0.18726411912E+02  0.00000000000E+00 0. -1.
         11    1    3    3    0    0  0.13446953076E+02  0.10691972805E+02  0.10229620845E+02  0.19994598580E+02  0.51100000000E-03 0. -1.
        -11    1    3    3    0    0  0.12352865947E+02 -0.27855073671E+00  0.23835567624E+00  0.12358304953E+02  0.51100000000E-03 0.  1.
        -12    1    3    3    0    0 -0.26775834164E+02 -0.28887907734E+02 -0.75663774937E+01  0.40108684556E+02  0.00000000000E+00 0.  1.
</event>
<event>
 7    1  0.3027254E-013  0.7246158E+02  0.7816164E-02  0.1226708E+00
        -11   -1    0    0    0    0  0.00000000000E+00  0.00000000000E+00  0.45593999997E+02  0.45594000000E+02  0.51100000000E-03 0. -1.
         11   -1    0    0    0    0 -0.00000000000E+00 -0.00000000000E+00 -0.45593999997E+02  0.45594000000E+02  0.51100000000E-03 0.  1.
    9900012    2    1    2    0    0 -0.10645276083E+02 -0.11128114994E+01  0.15366154648E+02  0.72461575863E+02  0.70000007254E+02 0.  0.
         12    1    1    2    0    0  0.10645276083E+02  0.11128114994E+01 -0.15366154648E+02  0.18726424137E+02  0.00000000000E+00 0. -1.
         11    1    3    3    0    0  0.35486391510E+01 -0.26525898156E+01 -0.18197372872E+01  0.47896259363E+01  0.51100000000E-03 0. -1.
        -11    1    3    3    0    0 -0.99436341467E+01  0.79929582124E+01 -0.23241435167E+02  0.26512780879E+02  0.51100000000E-03 0.  1.
         12    1    3    3    0    0 -0.42502810875E+01 -0.64531798962E+01  0.40427327102E+02  0.41159169048E+02  0.00000000000E+00 0. -1.
</event>
<event>
 7    1  0.3027254E-013  0.7246156E+02  0.7816164E-02  0.1226708E+00
        -11   -1    0    0    0    0  0.00000000000E+00  0.00000000000E+00  0.45593999997E+02  0.45594000000E+02  0.51100000000E-03 0.  1.
         11   -1    0    0    0    0 -0.00000000000E+00 -0.00000000000E+00 -0.45593999997E+02  0.45594000000E+02  0.51100000000E-03 0. -1.
    9900012    2    1    2    0    0  0.14888360201E+02 -0.10684194464E+02  0.38554142800E+01  0.72461561468E+02  0.69999988502E+02 0.  0.
         12    1    1    2    0    0 -0.14888360201E+02  0.10684194464E+02 -0.38554142800E+01  0.18726438532E+02  0.00000000000E+00 0. -1.
         11    1    3    3    0    0 -0.12823228924E+02 -0.29223717702E+02 -0.45324505194E+01  0.32233584726E+02  0.51100000000E-03 0. -1.
        -11    1    3    3    0    0  0.21031120853E+02  0.22888908779E+01  0.10329915458E+01  0.21180513157E+02  0.51100000000E-03 0.  1.
        -12    1    3    3    0    0  0.66804682721E+01  0.16250632360E+02  0.73548732536E+01  0.19047463585E+02  0.00000000000E+00 0.  1.
</event>
<event>
 7    1  0.3027254E-013  0.7246157E+02  0.7816164E-02  0.1226708E+00
        -11   -1    0    0    0    0  0.00000000000E+00  0.00000000000E+00  0.45593999997E+02  0.45594000000E+02  0.51100000000E-03 0.  1.
         11   -1    0    0    0    0 -0.00000000000E+00 -0.00000000000E+00 -0.45593999997E+02  0.45594000000E+02  0.51100000000E-03 0. -1.
    9900012    2    1    2    0    0 -0.17349235446E+02  0.21483923309E+01  0.67132547467E+01  0.72461565490E+02  0.69999993741E+02 0.  0.
         12    1    1    2    0    0  0.17349235446E+02 -0.21483923309E+01 -0.67132547467E+01  0.18726434510E+02  0.00000000000E+00 0. -1.
         11    1    3    3    0    0 -0.22564071527E+02 -0.16932507281E+01  0.14047738460E+02  0.26633501047E+02  0.51100000000E-03 0. -1.
        -11    1    3    3    0    0 -0.56666749819E+01  0.19787980777E+02  0.70454420220E+01  0.21755772617E+02  0.51100000000E-03 0.  1.
         12    1    3    3    0    0  0.10881511063E+02 -0.15946337718E+02 -0.14379925735E+02  0.24072291827E+02  0.00000000000E+00 0. -1.
</event>
<event>
 7    1  0.3027254E-013  0.7246163E+02  0.7816164E-02  0.1226708E+00
        -11   -1    0    0    0    0  0.00000000000E+00  0.00000000000E+00  0.45593999997E+02  0.45594000000E+02  0.51100000000E-03 0.  1.
         11   -1    0    0    0    0 -0.00000000000E+00 -0.00000000000E+00 -0.45593999997E+02  0.45594000000E+02  0.51100000000E-03 0. -1.
    9900012    2    1    2    0    0  0.15178503955E+02  0.96460288289E+01  0.52195918559E+01  0.72461628391E+02  0.70000075682E+02 0.  0.
         12    1    1    2    0    0 -0.15178503955E+02 -0.96460288289E+01 -0.52195918559E+01  0.18726371609E+02  0.00000000000E+00 0. -1.
         11    1    3    3    0    0  0.13478109328E+02  0.31982848261E+02  0.89976018639E+01  0.35854133004E+02  0.51100000000E-03 0.  1.
        -11    1    3    3    0    0  0.80609227934E+01  0.23940660594E+01 -0.69054700049E+01  0.10880971686E+02  0.51100000000E-03 0. -1.
        -12    1    3    3    0    0 -0.63605281656E+01 -0.24730885491E+02  0.31274599968E+01  0.25726523701E+02  0.00000000000E+00 0.  1.
</event>
<event>
 7    1  0.3027254E-013  0.7246165E+02  0.7816164E-02  0.1226708E+00
        -11   -1    0    0    0    0  0.00000000000E+00  0.00000000000E+00  0.45593999997E+02  0.45594000000E+02  0.51100000000E-03 0.  1.
         11   -1    0    0    0    0 -0.00000000000E+00 -0.00000000000E+00 -0.45593999997E+02  0.45594000000E+02  0.51100000000E-03 0. -1.
    9900012    2    1    2    0    0 -0.13537035459E+02 -0.66792950198E+01  0.11082049864E+02  0.72461651178E+02  0.70000105366E+02 0.  0.
         12    1    1    2    0    0  0.13537035459E+02  0.66792950198E+01 -0.11082049864E+02  0.18726348822E+02  0.00000000000E+00 0. -1.
         11    1    3    3    0    0 -0.30698222274E+02  0.96575679042E+01  0.13660861419E+02  0.34960958276E+02  0.51100000000E-03 0. -1.
        -11    1    3    3    0    0 -0.52870050053E+01 -0.36826150169E+01 -0.88809846947E+01  0.10972053805E+02  0.51100000000E-03 0.  1.
        -12    1    3    3    0    0  0.22448191820E+02 -0.12654247907E+02  0.63021731401E+01  0.26528639097E+02  0.00000000000E+00 0.  1.
</event>
<event>
 7    1  0.3027254E-013  0.7246156E+02  0.7816164E-02  0.1226708E+00
        -11   -1    0    0    0    0  0.00000000000E+00  0.00000000000E+00  0.45593999997E+02  0.45594000000E+02  0.51100000000E-03 0. -1.
         11   -1    0    0    0    0 -0.00000000000E+00 -0.00000000000E+00 -0.45593999997E+02  0.45594000000E+02  0.51100000000E-03 0.  1.
    9900012    2    1    2    0    0  0.16702598574E+02  0.34014335992E+01 -0.77545382006E+01  0.72461563811E+02  0.69999991554E+02 0.  0.
         12    1    1    2    0    0 -0.16702598574E+02 -0.34014335992E+01  0.77545382006E+01  0.18726436189E+02  0.00000000000E+00 0. -1.
         11    1    3    3    0    0  0.22420870185E+02  0.77208525042E+01 -0.20418900584E+02  0.31292786462E+02  0.51100000000E-03 0. -1.
        -11    1    3    3    0    0  0.59421485822E+01  0.14023849387E+02  0.12055518197E+02  0.19424546344E+02  0.51100000000E-03 0.  1.
         12    1    3    3    0    0 -0.11660420194E+02 -0.18343268292E+02  0.60884418660E+00  0.21744231005E+02  0.00000000000E+00 0. -1.
</event>
<event>
 7    1  0.3027254E-013  0.7246154E+02  0.7816164E-02  0.1226708E+00
        -11   -1    0    0    0    0  0.00000000000E+00  0.00000000000E+00  0.45593999997E+02  0.45594000000E+02  0.51100000000E-03 0.  1.
         11   -1    0    0    0    0 -0.00000000000E+00 -0.00000000000E+00 -0.45593999997E+02  0.45594000000E+02  0.51100000000E-03 0. -1.
    9900012    2    1    2    0    0 -0.47023970008E+01 -0.11391843397E+02  0.14099427234E+02  0.72461535254E+02  0.69999954354E+02 0.  0.
         12    1    1    2    0    0  0.47023970008E+01  0.11391843397E+02 -0.14099427234E+02  0.18726464746E+02  0.00000000000E+00 0. -1.
         11    1    3    3    0    0  0.24595835841E+02  0.45581310739E+01  0.17688267511E+01  0.25077090102E+02  0.51100000000E-03 0. -1.
        -11    1    3    3    0    0  0.14753236174E+01  0.71262687219E+01  0.16013905535E+01  0.74514923095E+01  0.51100000000E-03 0.  1.
        -12    1    3    3    0    0 -0.30773556460E+02 -0.23076243193E+02  0.10729209929E+02  0.39932952843E+02  0.00000000000E+00 0.  1.
</event>
<event>
 7    1  0.3027254E-013  0.7246153E+02  0.7816164E-02  0.1226708E+00
        -11   -1    0    0    0    0  0.00000000000E+00  0.00000000000E+00  0.45593999997E+02  0.45594000000E+02  0.51100000000E-03 0. -1.
         11   -1    0    0    0    0 -0.00000000000E+00 -0.00000000000E+00 -0.45593999997E+02  0.45594000000E+02  0.51100000000E-03 0.  1.
    9900012    2    1    2    0    0 -0.26824028919E+00 -0.84003402288E+01 -0.16734482402E+02  0.72461532899E+02  0.69999951286E+02 0.  0.
         12    1    1    2    0    0  0.26824028919E+00  0.84003402288E+01  0.16734482402E+02  0.18726467101E+02  0.00000000000E+00 0. -1.
         11    1    3    3    0    0 -0.12934759090E+02  0.25766477782E+01 -0.46492562540E+01  0.13984373081E+02  0.51100000000E-03 0. -1.
        -11    1    3    3    0    0  0.17816159469E+01  0.20764877118E+02  0.40693695564E+01  0.21234736776E+02  0.51100000000E-03 0.  1.
         12    1    3    3    0    0  0.10884902854E+02 -0.31741865125E+02 -0.16154595704E+02  0.37242423043E+02  0.00000000000E+00 0. -1.
</event>
<event>
 7    1  0.3027254E-013  0.7246145E+02  0.7816164E-02  0.1226708E+00
        -11   -1    0    0    0    0  0.00000000000E+00  0.00000000000E+00  0.45593999997E+02  0.45594000000E+02  0.51100000000E-03 0.  1.
         11   -1    0    0    0    0 -0.00000000000E+00 -0.00000000000E+00 -0.45593999997E+02  0.45594000000E+02  0.51100000000E-03 0. -1.
    9900012    2    1    2    0    0 -0.25155456178E+01  0.14371701592E+02  0.11739240447E+02  0.72461453530E+02  0.69999847893E+02 0.  0.
         12    1    1    2    0    0  0.25155456178E+01 -0.14371701592E+02 -0.11739240447E+02  0.18726546470E+02  0.00000000000E+00 0. -1.
         11    1    3    3    0    0  0.43622040288E+01  0.17229889522E+02 -0.91355856196E+01  0.19983914576E+02  0.51100000000E-03 0. -1.
        -11    1    3    3    0    0  0.17640020419E+02  0.94559915118E+01  0.13243564345E+02  0.23999543593E+02  0.51100000000E-03 0.  1.
         12    1    3    3    0    0 -0.24517770066E+02 -0.12314179442E+02  0.76312617218E+01  0.28477995361E+02  0.00000000000E+00 0. -1.
</event>
<event>
 7    1  0.3027254E-013  0.7246156E+02  0.7816164E-02  0.1226708E+00
        -11   -1    0    0    0    0  0.00000000000E+00  0.00000000000E+00  0.45593999997E+02  0.45594000000E+02  0.51100000000E-03 0.  1.
         11   -1    0    0    0    0 -0.00000000000E+00 -0.00000000000E+00 -0.45593999997E+02  0.45594000000E+02  0.51100000000E-03 0. -1.
    9900012    2    1    2    0    0  0.11320168402E+02 -0.69429781148E+01  0.13203342110E+02  0.72461564124E+02  0.69999991962E+02 0.  0.
         12    1    1    2    0    0 -0.11320168402E+02  0.69429781148E+01 -0.13203342110E+02  0.18726435876E+02  0.00000000000E+00 0. -1.
         11    1    3    3    0    0  0.11412160414E+02 -0.14852080536E+02  0.60088505278E+01  0.19670485161E+02  0.51100000000E-03 0. -1.
        -11    1    3    3    0    0  0.11532402069E+02 -0.88772890696E+01 -0.16174753591E+02  0.21758336625E+02  0.51100000000E-03 0.  1.
        -12    1    3    3    0    0 -0.11624394080E+02  0.16786391491E+02  0.23369245173E+02  0.31032742338E+02  0.00000000000E+00 0.  1.
</event>
<event>
 7    1  0.3027254E-013  0.7246162E+02  0.7816164E-02  0.1226708E+00
        -11   -1    0    0    0    0  0.00000000000E+00  0.00000000000E+00  0.45593999997E+02  0.45594000000E+02  0.51100000000E-03 0.  1.
         11   -1    0    0    0    0 -0.00000000000E+00 -0.00000000000E+00 -0.45593999997E+02  0.45594000000E+02  0.51100000000E-03 0. -1.
    9900012    2    1    2    0    0 -0.93914405558E+01 -0.16114791312E+02 -0.16708550165E+01  0.72461617241E+02  0.70000061157E+02 0.  0.
         12    1    1    2    0    0  0.93914405558E+01  0.16114791312E+02  0.16708550165E+01  0.18726382759E+02  0.00000000000E+00 0. -1.
         11    1    3    3    0    0  0.79388588096E+01  0.10005173210E+02  0.17455935589E+02  0.21629578306E+02  0.51100000000E-03 0. -1.
        -11    1    3    3    0    0  0.83526753362E+01 -0.89949452826E+01  0.32593941265E+01  0.12700388822E+02  0.51100000000E-03 0.  1.
         12    1    3    3    0    0 -0.25682974702E+02 -0.17125019239E+02 -0.22386184732E+02  0.38131650113E+02  0.00000000000E+00 0. -1.
</event>
<event>
 7    1  0.3027254E-013  0.7246158E+02  0.7816164E-02  0.1226708E+00
        -11   -1    0    0    0    0  0.00000000000E+00  0.00000000000E+00  0.45593999997E+02  0.45594000000E+02  0.51100000000E-03 0. -1.
         11   -1    0    0    0    0 -0.00000000000E+00 -0.00000000000E+00 -0.45593999997E+02  0.45594000000E+02  0.51100000000E-03 0.  1.
    9900012    2    1    2    0    0  0.43121498378E+01  0.34422194132E+01 -0.17895118696E+02  0.72461580591E+02  0.70000013414E+02 0.  0.
         12    1    1    2    0    0 -0.43121498378E+01 -0.34422194132E+01  0.17895118696E+02  0.18726419409E+02  0.00000000000E+00 0. -1.
         11    1    3    3    0    0  0.14668608278E+02  0.25010431991E+02 -0.29733670138E+01  0.29146709743E+02  0.51100000000E-03 0. -1.
        -11    1    3    3    0    0  0.21868205851E+01  0.52182541089E+01 -0.12399868616E+02  0.13629713943E+02  0.51100000000E-03 0.  1.
        -12    1    3    3    0    0 -0.12543279026E+02 -0.26786466687E+02 -0.25218830668E+01  0.29685156905E+02  0.00000000000E+00 0.  1.
</event>
<event>
 7    1  0.3027254E-013  0.7246157E+02  0.7816164E-02  0.1226708E+00
        -11   -1    0    0    0    0  0.00000000000E+00  0.00000000000E+00  0.45593999997E+02  0.45594000000E+02  0.51100000000E-03 0. -1.
         11   -1    0    0    0    0 -0.00000000000E+00 -0.00000000000E+00 -0.45593999997E+02  0.45594000000E+02  0.51100000000E-03 0.  1.
    9900012    2    1    2    0    0 -0.11496974735E+02 -0.14731263980E+02 -0.12200346616E+01  0.72461573456E+02  0.70000004119E+02 0.  0.
         12    1    1    2    0    0  0.11496974735E+02  0.14731263980E+02  0.12200346616E+01  0.18726426544E+02  0.00000000000E+00 0. -1.
         11    1    3    3    0    0 -0.10959027897E+02  0.79438421785E+01  0.20520171670E+01  0.13689985235E+02  0.51100000000E-03 0. -1.
        -11    1    3    3    0    0 -0.23855316663E+02 -0.16430844065E+02 -0.14217009648E+02  0.32267199032E+02  0.51100000000E-03 0.  1.
         12    1    3    3    0    0  0.23317369825E+02 -0.62442620937E+01  0.10944957819E+02  0.26504389189E+02  0.00000000000E+00 0. -1.
</event>
<event>
 7    1  0.3027254E-013  0.7246147E+02  0.7816164E-02  0.1226708E+00
        -11   -1    0    0    0    0  0.00000000000E+00  0.00000000000E+00  0.45593999997E+02  0.45594000000E+02  0.51100000000E-03 0.  1.
         11   -1    0    0    0    0 -0.00000000000E+00 -0.00000000000E+00 -0.45593999997E+02  0.45594000000E+02  0.51100000000E-03 0. -1.
    9900012    2    1    2    0    0  0.51666823752E+00 -0.18523447626E+02  0.27014613584E+01  0.72461469315E+02  0.69999868456E+02 0.  0.
         12    1    1    2    0    0 -0.51666823752E+00  0.18523447626E+02 -0.27014613584E+01  0.18726530685E+02  0.00000000000E+00 0. -1.
         11    1    3    3    0    0  0.10022844537E+02 -0.88104058239E+01  0.16011791330E+01  0.13440403204E+02  0.51100000000E-03 0. -1.
        -11    1    3    3    0    0  0.20963706608E+02 -0.15577240751E+02 -0.68275675339E+01  0.26995242226E+02  0.51100000000E-03 0.  1.
        -12    1    3    3    0    0 -0.30469882908E+02  0.58641989488E+01  0.79278497593E+01  0.32025823885E+02  0.00000000000E+00 0.  1.
</event>
<event>
 7    1  0.3027254E-013  0.7246169E+02  0.7816164E-02  0.1226708E+00
        -11   -1    0    0    0    0  0.00000000000E+00  0.00000000000E+00  0.45593999997E+02  0.45594000000E+02  0.51100000000E-03 0.  1.
         11   -1    0    0    0    0 -0.00000000000E+00 -0.00000000000E+00 -0.45593999997E+02  0.45594000000E+02  0.51100000000E-03 0. -1.
    9900012    2    1    2    0    0 -0.20871823910E+01 -0.54483705395E+01 -0.17794203572E+02  0.72461688227E+02  0.70000153629E+02 0.  0.
         12    1    1    2    0    0  0.20871823910E+01  0.54483705395E+01  0.17794203572E+02  0.18726311773E+02  0.00000000000E+00 0. -1.
         11    1    3    3    0    0  0.24775859714E+01 -0.23389033515E+02  0.79841692173E+01  0.24838121494E+02  0.51100000000E-03 0. -1.
        -11    1    3    3    0    0  0.61885207900E+01 -0.67388879893E+01  0.15306798213E+01  0.92764962069E+01  0.51100000000E-03 0.  1.
         12    1    3    3    0    0 -0.10753289153E+02  0.24679550965E+02 -0.27309052611E+02  0.38347070526E+02  0.00000000000E+00 0. -1.
</event>
<event>
 7    1  0.3027254E-013  0.7246128E+02  0.7816164E-02  0.1226709E+00
        -11   -1    0    0    0    0  0.00000000000E+00  0.00000000000E+00  0.45593999997E+02  0.45594000000E+02  0.51100000000E-03 0.  1.
         11   -1    0    0    0    0 -0.00000000000E+00 -0.00000000000E+00 -0.45593999997E+02  0.45594000000E+02  0.51100000000E-03 0. -1.
    9900012    2    1    2    0    0 -0.84577778572E+01  0.71467098499E+01  0.15102333772E+02  0.72461282367E+02  0.69999624920E+02 0.  0.
         12    1    1    2    0    0  0.84577778572E+01 -0.71467098499E+01 -0.15102333772E+02  0.18726717633E+02  0.00000000000E+00 0. -1.
         11    1    3    3    0    0  0.13685445450E+02  0.83460971868E+00  0.34991030869E+02  0.37581381455E+02  0.51100000000E-03 0.  1.
        -11    1    3    3    0    0 -0.40885056905E+01 -0.38238324553E+01 -0.11009600744E+02  0.12351068061E+02  0.51100000000E-03 0. -1.
        -12    1    3    3    0    0 -0.18054717617E+02  0.10135932586E+02 -0.88790963529E+01  0.22528832852E+02  0.00000000000E+00 0.  1.
</event>
<event>
 7    1  0.3027254E-013  0.7246146E+02  0.7816164E-02  0.1226708E+00
        -11   -1    0    0    0    0  0.00000000000E+00  0.00000000000E+00  0.45593999997E+02  0.45594000000E+02  0.51100000000E-03 0. -1.
         11   -1    0    0    0    0 -0.00000000000E+00 -0.00000000000E+00 -0.45593999997E+02  0.45594000000E+02  0.51100000000E-03 0.  1.
    9900012    2    1    2    0    0 -0.14469403840E+02  0.81372783996E+01 -0.86662796620E+01  0.72461458664E+02  0.69999854580E+02 0.  0.
         12    1    1    2    0    0  0.14469403840E+02 -0.81372783996E+01  0.86662796620E+01  0.18726541336E+02  0.00000000000E+00 0. -1.
         11    1    3    3    0    0 -0.78251340886E+01 -0.31046587930E+01 -0.14819917856E+02  0.17044107347E+02  0.51100000000E-03 0. -1.
        -11    1    3    3    0    0 -0.19129306075E+02 -0.14311193389E+02 -0.57728632889E+01  0.24577765520E+02  0.51100000000E-03 0.  1.
         12    1    3    3    0    0  0.12485036323E+02  0.25553130582E+02  0.11926501483E+02  0.30839585797E+02  0.00000000000E+00 0. -1.
</event>
<event>
 7    1  0.3027254E-013  0.7246160E+02  0.7816164E-02  0.1226708E+00
        -11   -1    0    0    0    0  0.00000000000E+00  0.00000000000E+00  0.45593999997E+02  0.45594000000E+02  0.51100000000E-03 0. -1.
         11   -1    0    0    0    0 -0.00000000000E+00 -0.00000000000E+00 -0.45593999997E+02  0.45594000000E+02  0.51100000000E-03 0.  1.
    9900012    2    1    2    0    0  0.51854200117E+01  0.53725545736E+01 -0.17173388313E+02  0.72461596461E+02  0.70000034087E+02 0.  0.
         12    1    1    2    0    0 -0.51854200117E+01 -0.53725545736E+01  0.17173388313E+02  0.18726403539E+02  0.00000000000E+00 0. -1.
         11    1    3    3    0    0 -0.54219905243E+01  0.33554871964E+02 -0.17156550543E+02  0.38074593111E+02  0.51100000000E-03 0. -1.
        -11    1    3    3    0    0 -0.88072598370E+00  0.19418150341E+01  0.23956070311E+00  0.21456265930E+01  0.51100000000E-03 0.  1.
        -12    1    3    3    0    0  0.11488136520E+02 -0.30124132424E+02 -0.25639847302E+00  0.32241376757E+02  0.00000000000E+00 0.  1.
</event>
<event>
 7    1  0.3027254E-013  0.7246147E+02  0.7816164E-02  0.1226708E+00
        -11   -1    0    0    0    0  0.00000000000E+00  0.00000000000E+00  0.45593999997E+02  0.45594000000E+02  0.51100000000E-03 0. -1.
         11   -1    0    0    0    0 -0.00000000000E+00 -0.00000000000E+00 -0.45593999997E+02  0.45594000000E+02  0.51100000000E-03 0.  1.
    9900012    2    1    2    0    0 -0.15164358921E+02  0.10987363437E+02 -0.54116757605E-01  0.72461471613E+02  0.69999871450E+02 0.  0.
         12    1    1    2    0    0  0.15164358921E+02 -0.10987363437E+02  0.54116757605E-01  0.18726528387E+02  0.00000000000E+00 0. -1.
         11    1    3    3    0    0  0.37195188908E+00  0.57257416372E+00 -0.54492017387E+01  0.54918111066E+01  0.51100000000E-03 0. -1.
        -11    1    3    3    0    0  0.89555628183E+00  0.29265176035E+02 -0.16607644173E+02  0.33661051598E+02  0.51100000000E-03 0.  1.
         12    1    3    3    0    0 -0.16431867092E+02 -0.18850386762E+02  0.22002729154E+02  0.33308608909E+02  0.00000000000E+00 0. -1.
</event>
<event>
 7    1  0.3027254E-013  0.7246148E+02  0.7816164E-02  0.1226708E+00
        -11   -1    0    0    0    0  0.00000000000E+00  0.00000000000E+00  0.45593999997E+02  0.45594000000E+02  0.51100000000E-03 0. -1.
         11   -1    0    0    0    0 -0.00000000000E+00 -0.00000000000E+00 -0.45593999997E+02  0.45594000000E+02  0.51100000000E-03 0.  1.
    9900012    2    1    2    0    0 -0.34451311016E+01 -0.16634541661E+02 -0.78807031513E+01  0.72461484394E+02  0.69999888099E+02 0.  0.
         12    1    1    2    0    0  0.34451311016E+01  0.16634541661E+02  0.78807031513E+01  0.18726515606E+02  0.00000000000E+00 0. -1.
         11    1    3    3    0    0  0.14352721628E+02 -0.26034797504E+02  0.13139016821E+01  0.29757984426E+02  0.51100000000E-03 0. -1.
        -11    1    3    3    0    0  0.80976820255E+01  0.13121860416E+02 -0.49868167196E+01  0.16205678518E+02  0.51100000000E-03 0.  1.
         12    1    3    3    0    0 -0.25895534755E+02 -0.37216045722E+01 -0.42077881137E+01  0.26497821451E+02  0.00000000000E+00 0. -1.
</event>
<event>
 7    1  0.3027254E-013  0.7246147E+02  0.7816164E-02  0.1226708E+00
        -11   -1    0    0    0    0  0.00000000000E+00  0.00000000000E+00  0.45593999997E+02  0.45594000000E+02  0.51100000000E-03 0. -1.
         11   -1    0    0    0    0 -0.00000000000E+00 -0.00000000000E+00 -0.45593999997E+02  0.45594000000E+02  0.51100000000E-03 0.  1.
    9900012    2    1    2    0    0  0.11317913002E+01 -0.17454487754E+02  0.66890077356E+01  0.72461470189E+02  0.69999869594E+02 0.  0.
         12    1    1    2    0    0 -0.11317913002E+01  0.17454487754E+02 -0.66890077356E+01  0.18726529811E+02  0.00000000000E+00 0. -1.
         11    1    3    3    0    0  0.82456239435E+01 -0.23989115366E+02 -0.16382402283E+01  0.25419516155E+02  0.51100000000E-03 0. -1.
        -11    1    3    3    0    0 -0.20640448089E+02 -0.79864915138E+01 -0.55610982486E+01  0.22819683565E+02  0.51100000000E-03 0.  1.
         12    1    3    3    0    0  0.13526615446E+02  0.14521119126E+02  0.13888346212E+02  0.24222270468E+02  0.00000000000E+00 0. -1.
</event>
<event>
 7    1  0.3027254E-013  0.7246152E+02  0.7816164E-02  0.1226708E+00
        -11   -1    0    0    0    0  0.00000000000E+00  0.00000000000E+00  0.45593999997E+02  0.45594000000E+02  0.51100000000E-03 0. -1.
         11   -1    0    0    0    0 -0.00000000000E+00 -0.00000000000E+00 -0.45593999997E+02  0.45594000000E+02  0.51100000000E-03 0.  1.
    9900012    2    1    2    0    0 -0.97159934119E+00 -0.11451302860E+01 -0.18666160402E+02  0.72461524816E+02  0.69999940756E+02 0.  0.
         12    1    1    2    0    0  0.97159934119E+00  0.11451302860E+01  0.18666160402E+02  0.18726475184E+02  0.00000000000E+00 0. -1.
         11    1    3    3    0    0 -0.20658195775E+02 -0.42864775132E+01  0.69081501549E+01  0.22200393712E+02  0.51100000000E-03 0. -1.
        -11    1    3    3    0    0 -0.13066820323E-01 -0.78710307399E+01  0.70664941649E+01  0.10577742467E+02  0.51100000000E-03 0.  1.
        -12    1    3    3    0    0  0.19699663254E+02  0.11012377967E+02 -0.32640804722E+02  0.39683388637E+02  0.00000000000E+00 0.  1.
</event>
<event>
 7    1  0.3027254E-013  0.7246157E+02  0.7816164E-02  0.1226708E+00
        -11   -1    0    0    0    0  0.00000000000E+00  0.00000000000E+00  0.45593999997E+02  0.45594000000E+02  0.51100000000E-03 0.  1.
         11   -1    0    0    0    0 -0.00000000000E+00 -0.00000000000E+00 -0.45593999997E+02  0.45594000000E+02  0.51100000000E-03 0. -1.
    9900012    2    1    2    0    0  0.16372865335E+01 -0.15170859384E+02  0.10855579261E+02  0.72461567271E+02  0.69999996062E+02 0.  0.
         12    1    1    2    0    0 -0.16372865335E+01  0.15170859384E+02 -0.10855579261E+02  0.18726432729E+02  0.00000000000E+00 0. -1.
         11    1    3    3    0    0 -0.89739263410E+01 -0.28272332581E+02 -0.10625203119E+02  0.31507952729E+02  0.51100000000E-03 0. -1.
        -11    1    3    3    0    0 -0.94122530809E+01  0.40442095870E+01  0.31202004912E-01  0.10244369823E+02  0.51100000000E-03 0.  1.
        -12    1    3    3    0    0  0.20023465955E+02  0.90572636100E+01  0.21449580376E+02  0.30709244720E+02  0.00000000000E+00 0.  1.
</event>
<event>
 7    1  0.3027254E-013  0.7246092E+02  0.7816164E-02  0.1226710E+00
        -11   -1    0    0    0    0  0.00000000000E+00  0.00000000000E+00  0.45593999997E+02  0.45594000000E+02  0.51100000000E-03 0.  1.
         11   -1    0    0    0    0 -0.00000000000E+00 -0.00000000000E+00 -0.45593999997E+02  0.45594000000E+02  0.51100000000E-03 0. -1.
    9900012    2    1    2    0    0 -0.11729031949E+02  0.96436328860E+01  0.10960542637E+02  0.72460924932E+02  0.69999159291E+02 0.  0.
         12    1    1    2    0    0  0.11729031949E+02 -0.96436328860E+01 -0.10960542637E+02  0.18727075068E+02  0.00000000000E+00 0. -1.
         11    1    3    3    0    0 -0.23706612955E+00 -0.84961298273E+00  0.94278666701E+01  0.94690396969E+01  0.51100000000E-03 0. -1.
        -11    1    3    3    0    0 -0.27980617746E+02 -0.13916895266E+02  0.91559437342E+01  0.32564186604E+02  0.51100000000E-03 0.  1.
         12    1    3    3    0    0  0.16488651927E+02  0.24410141134E+02 -0.76232677671E+01  0.30427698631E+02  0.00000000000E+00 0. -1.
</event>
<event>
 7    1  0.3027254E-013  0.7246164E+02  0.7816164E-02  0.1226708E+00
        -11   -1    0    0    0    0  0.00000000000E+00  0.00000000000E+00  0.45593999997E+02  0.45594000000E+02  0.51100000000E-03 0.  1.
         11   -1    0    0    0    0 -0.00000000000E+00 -0.00000000000E+00 -0.45593999997E+02  0.45594000000E+02  0.51100000000E-03 0. -1.
    9900012    2    1    2    0    0 -0.16666563455E+02  0.58214805738E+01  0.62460092322E+01  0.72461638773E+02  0.70000089207E+02 0.  0.
         12    1    1    2    0    0  0.16666563455E+02 -0.58214805738E+01 -0.62460092322E+01  0.18726361227E+02  0.00000000000E+00 0. -1.
         11    1    3    3    0    0  0.12069906261E+02 -0.41657737579E+01 -0.16462323605E+02  0.20833732428E+02  0.51100000000E-03 0. -1.
        -11    1    3    3    0    0 -0.46607899678E+01  0.11863380451E+02  0.24286178102E+02  0.27427745185E+02  0.51100000000E-03 0.  1.
        -12    1    3    3    0    0 -0.24075679748E+02 -0.18761261191E+01 -0.15778452649E+01  0.24200161161E+02  0.00000000000E+00 0.  1.
</event>
<event>
 7    1  0.3027254E-013  0.7246196E+02  0.7816164E-02  0.1226707E+00
        -11   -1    0    0    0    0  0.00000000000E+00  0.00000000000E+00  0.45593999997E+02  0.45594000000E+02  0.51100000000E-03 0.  1.
         11   -1    0    0    0    0 -0.00000000000E+00 -0.00000000000E+00 -0.45593999997E+02  0.45594000000E+02  0.51100000000E-03 0. -1.
    9900012    2    1    2    0    0  0.10914892225E+02 -0.12967173770E+02  0.79612790993E+01  0.72461963773E+02  0.70000512577E+02 0.  0.
         12    1    1    2    0    0 -0.10914892225E+02  0.12967173770E+02 -0.79612790993E+01  0.18726036227E+02  0.00000000000E+00 0. -1.
         11    1    3    3    0    0 -0.22137611098E+01  0.65067951705E+01 -0.15949860714E+02  0.17367705050E+02  0.51100000000E-03 0. -1.
        -11    1    3    3    0    0 -0.12628957828E+02 -0.17007489621E+01  0.19778518971E+02  0.23528130733E+02  0.51100000000E-03 0.  1.
        -12    1    3    3    0    0  0.25757611163E+02 -0.17773219978E+02  0.41326208425E+01  0.31566127990E+02  0.00000000000E+00 0.  1.
</event>
<event>
 7    1  0.3027254E-013  0.7246152E+02  0.7816164E-02  0.1226708E+00
        -11   -1    0    0    0    0  0.00000000000E+00  0.00000000000E+00  0.45593999997E+02  0.45594000000E+02  0.51100000000E-03 0. -1.
         11   -1    0    0    0    0 -0.00000000000E+00 -0.00000000000E+00 -0.45593999997E+02  0.45594000000E+02  0.51100000000E-03 0.  1.
    9900012    2    1    2    0    0  0.65417943108E+01  0.33851700603E+01 -0.17217048090E+02  0.72461516238E+02  0.69999929582E+02 0.  0.
         12    1    1    2    0    0 -0.65417943108E+01 -0.33851700603E+01  0.17217048090E+02  0.18726483762E+02  0.00000000000E+00 0. -1.
         11    1    3    3    0    0 -0.23396746766E+01  0.17218511165E+02 -0.46653960603E+01  0.17992140645E+02  0.51100000000E-03 0. -1.
        -11    1    3    3    0    0  0.55182484497E+01  0.18050484654E+02 -0.12071273021E+02  0.22405059581E+02  0.51100000000E-03 0.  1.
         12    1    3    3    0    0  0.33632205378E+01 -0.31883825758E+02 -0.48037900881E+00  0.32064316013E+02  0.00000000000E+00 0. -1.
</event>
<event>
 7    1  0.3027254E-013  0.7246159E+02  0.7816164E-02  0.1226708E+00
        -11   -1    0    0    0    0  0.00000000000E+00  0.00000000000E+00  0.45593999997E+02  0.45594000000E+02  0.51100000000E-03 0. -1.
         11   -1    0    0    0    0 -0.00000000000E+00 -0.00000000000E+00 -0.45593999997E+02  0.45594000000E+02  0.51100000000E-03 0.  1.
    9900012    2    1    2    0    0 -0.82775270532E+01 -0.19004516329E+01 -0.16689796445E+02  0.72461588814E+02  0.70000024126E+02 0.  0.
         12    1    1    2    0    0  0.82775270532E+01  0.19004516329E+01  0.16689796445E+02  0.18726411186E+02  0.00000000000E+00 0. -1.
         11    1    3    3    0    0 -0.15778701780E+01  0.87387604204E+01 -0.10969910844E+01  0.89475693729E+01  0.51100000000E-03 0. -1.
        -11    1    3    3    0    0 -0.12035417322E+02 -0.30423767172E+01 -0.37617421874E+02  0.39612848356E+02  0.51100000000E-03 0.  1.
         12    1    3    3    0    0  0.53357604466E+01 -0.75968353360E+01  0.22024616514E+02  0.23901171085E+02  0.00000000000E+00 0. -1.
</event>
<event>
 7    1  0.3027254E-013  0.7246155E+02  0.7816164E-02  0.1226708E+00
        -11   -1    0    0    0    0  0.00000000000E+00  0.00000000000E+00  0.45593999997E+02  0.45594000000E+02  0.51100000000E-03 0. -1.
         11   -1    0    0    0    0 -0.00000000000E+00 -0.00000000000E+00 -0.45593999997E+02  0.45594000000E+02  0.51100000000E-03 0.  1.
    9900012    2    1    2    0    0  0.14834831293E+02 -0.11372295343E+02 -0.11308050460E+01  0.72461547028E+02  0.69999969691E+02 0.  0.
         12    1    1    2    0    0 -0.14834831293E+02  0.11372295343E+02  0.11308050460E+01  0.18726452972E+02  0.00000000000E+00 0. -1.
         11    1    3    3    0    0  0.13325723191E+02  0.20729993454E+02  0.15236390174E+02  0.28973351773E+02  0.51100000000E-03 0. -1.
        -11    1    3    3    0    0  0.80183251297E+01 -0.94442318902E+01 -0.15573572664E+02  0.19900332150E+02  0.51100000000E-03 0.  1.
        -12    1    3    3    0    0 -0.65092170272E+01 -0.22658056907E+02 -0.79362255617E+00  0.23587863105E+02  0.00000000000E+00 0.  1.
</event>
<event>
 7    1  0.3027254E-013  0.7246159E+02  0.7816164E-02  0.1226708E+00
        -11   -1    0    0    0    0  0.00000000000E+00  0.00000000000E+00  0.45593999997E+02  0.45594000000E+02  0.51100000000E-03 0.  1.
         11   -1    0    0    0    0 -0.00000000000E+00 -0.00000000000E+00 -0.45593999997E+02  0.45594000000E+02  0.51100000000E-03 0. -1.
    9900012    2    1    2    0    0 -0.64491083406E+01  0.70229939167E+01  0.16117221536E+02  0.72461594258E+02  0.70000031218E+02 0.  0.
         12    1    1    2    0    0  0.64491083406E+01 -0.70229939167E+01 -0.16117221536E+02  0.18726405742E+02  0.00000000000E+00 0. -1.
         11    1    3    3    0    0  0.25639544074E+02  0.79921319441E+01  0.70543074316E+01  0.27767312563E+02  0.51100000000E-03 0. -1.
        -11    1    3    3    0    0 -0.17453563083E+02  0.12299204754E+02  0.12353216868E+02  0.24667777953E+02  0.51100000000E-03 0.  1.
        -12    1    3    3    0    0 -0.14635089332E+02 -0.13268342781E+02 -0.32903027630E+01  0.20026503743E+02  0.00000000000E+00 0.  1.
</event>
<event>
 7    1  0.3027254E-013  0.7246161E+02  0.7816164E-02  0.1226708E+00
        -11   -1    0    0    0    0  0.00000000000E+00  0.00000000000E+00  0.45593999997E+02  0.45594000000E+02  0.51100000000E-03 0. -1.
         11   -1    0    0    0    0 -0.00000000000E+00 -0.00000000000E+00 -0.45593999997E+02  0.45594000000E+02  0.51100000000E-03 0.  1.
    9900012    2    1    2    0    0 -0.14076249182E+01 -0.16847856832E+02 -0.80526901437E+01  0.72461614703E+02  0.70000057851E+02 0.  0.
         12    1    1    2    0    0  0.14076249182E+01  0.16847856832E+02  0.80526901437E+01  0.18726385297E+02  0.00000000000E+00 0. -1.
         11    1    3    3    0    0  0.25068526380E+02 -0.16257355464E+02 -0.13186502078E+02  0.32659094581E+02  0.51100000000E-03 0.  1.
        -11    1    3    3    0    0 -0.86507294129E+01 -0.14353182502E+02  0.25772557715E+00  0.16760530721E+02  0.51100000000E-03 0. -1.
        -12    1    3    3    0    0 -0.17825421885E+02  0.13762681135E+02  0.48760863572E+01  0.23041989401E+02  0.00000000000E+00 0.  1.
</event>
<event>
 7    1  0.3027254E-013  0.7246167E+02  0.7816164E-02  0.1226708E+00
        -11   -1    0    0    0    0  0.00000000000E+00  0.00000000000E+00  0.45593999997E+02  0.45594000000E+02  0.51100000000E-03 0. -1.
         11   -1    0    0    0    0 -0.00000000000E+00 -0.00000000000E+00 -0.45593999997E+02  0.45594000000E+02  0.51100000000E-03 0.  1.
    9900012    2    1    2    0    0  0.19362581287E+01 -0.11369836133E+02 -0.14753075646E+02  0.72461667998E+02  0.70000127277E+02 0.  0.
         12    1    1    2    0    0 -0.19362581287E+01  0.11369836133E+02  0.14753075646E+02  0.18726332002E+02  0.00000000000E+00 0. -1.
         11    1    3    3    0    0 -0.20351083107E+01 -0.99338396166E+01 -0.17530713208E+02  0.20252129300E+02  0.51100000000E-03 0.  1.
        -11    1    3    3    0    0 -0.21197100572E+02  0.46595335844E+01 -0.93289412558E+01  0.23623240064E+02  0.51100000000E-03 0. -1.
        -12    1    3    3    0    0  0.25168467012E+02 -0.60955301009E+01  0.12106578818E+02  0.28586298634E+02  0.00000000000E+00 0.  1.
</event>
<event>
 7    1  0.3027254E-013  0.7246140E+02  0.7816164E-02  0.1226708E+00
        -11   -1    0    0    0    0  0.00000000000E+00  0.00000000000E+00  0.45593999997E+02  0.45594000000E+02  0.51100000000E-03 0. -1.
         11   -1    0    0    0    0 -0.00000000000E+00 -0.00000000000E+00 -0.45593999997E+02  0.45594000000E+02  0.51100000000E-03 0.  1.
    9900012    2    1    2    0    0 -0.16798711623E+02 -0.81291228239E+01  0.15512454399E+01  0.72461395597E+02  0.69999772423E+02 0.  0.
         12    1    1    2    0    0  0.16798711623E+02  0.81291228239E+01 -0.15512454399E+01  0.18726604403E+02  0.00000000000E+00 0. -1.
         11    1    3    3    0    0  0.17203147433E+02 -0.53743067503E+01 -0.13235474585E+02  0.22360886440E+02  0.51100000000E-03 0. -1.
        -11    1    3    3    0    0  0.32709707681E+01  0.56044158575E+01  0.95477979817E+01  0.11544226844E+02  0.51100000000E-03 0.  1.
        -12    1    3    3    0    0 -0.37272829824E+02 -0.83592319311E+01  0.52389220432E+01  0.38556282312E+02  0.00000000000E+00 0.  1.
</event>
<event>
 7    1  0.3027254E-013  0.7246142E+02  0.7816164E-02  0.1226708E+00
        -11   -1    0    0    0    0  0.00000000000E+00  0.00000000000E+00  0.45593999997E+02  0.45594000000E+02  0.51100000000E-03 0.  1.
         11   -1    0    0    0    0 -0.00000000000E+00 -0.00000000000E+00 -0.45593999997E+02  0.45594000000E+02  0.51100000000E-03 0. -1.
    9900012    2    1    2    0    0 -0.90762896414E+01  0.12550555729E+02  0.10525654686E+02  0.72461417574E+02  0.69999801053E+02 0.  0.
         12    1    1    2    0    0  0.90762896414E+01 -0.12550555729E+02 -0.10525654686E+02  0.18726582426E+02  0.00000000000E+00 0. -1.
         11    1    3    3    0    0  0.79115949550E+01  0.41960758012E+01  0.52087453808E+01  0.10360087623E+02  0.51100000000E-03 0. -1.
        -11    1    3    3    0    0  0.33747520684E+01 -0.14644484093E+02  0.22383683752E+02  0.26960696661E+02  0.51100000000E-03 0.  1.
         12    1    3    3    0    0 -0.20362636665E+02  0.22998964021E+02 -0.17066774446E+02  0.35140633290E+02  0.00000000000E+00 0. -1.
</event>
<event>
 7    1  0.3027254E-013  0.7246155E+02  0.7816164E-02  0.1226708E+00
        -11   -1    0    0    0    0  0.00000000000E+00  0.00000000000E+00  0.45593999997E+02  0.45594000000E+02  0.51100000000E-03 0.  1.
         11   -1    0    0    0    0 -0.00000000000E+00 -0.00000000000E+00 -0.45593999997E+02  0.45594000000E+02  0.51100000000E-03 0. -1.
    9900012    2    1    2    0    0  0.17454516167E+02  0.70949518239E+00 -0.67465853054E+01  0.72461549954E+02  0.69999973503E+02 0.  0.
         12    1    1    2    0    0 -0.17454516167E+02 -0.70949518239E+00  0.67465853054E+01  0.18726450046E+02  0.00000000000E+00 0. -1.
         11    1    3    3    0    0  0.94667527880E+01 -0.18894063380E+02  0.55055335024E+01  0.21838405134E+02  0.51100000000E-03 0. -1.
        -11    1    3    3    0    0  0.11807740597E+02 -0.10139802893E+02  0.45937118469E+01  0.16227770319E+02  0.51100000000E-03 0.  1.
         12    1    3    3    0    0 -0.38199772178E+01  0.29743361456E+02 -0.16845830655E+02  0.34395374501E+02  0.00000000000E+00 0. -1.
</event>
<event>
 7    1  0.3027254E-013  0.7246160E+02  0.7816164E-02  0.1226708E+00
        -11   -1    0    0    0    0  0.00000000000E+00  0.00000000000E+00  0.45593999997E+02  0.45594000000E+02  0.51100000000E-03 0. -1.
         11   -1    0    0    0    0 -0.00000000000E+00 -0.00000000000E+00 -0.45593999997E+02  0.45594000000E+02  0.51100000000E-03 0.  1.
    9900012    2    1    2    0    0 -0.83343725388E+01 -0.98397235571E+01 -0.13579256368E+02  0.72461598082E+02  0.70000036199E+02 0.  0.
         12    1    1    2    0    0  0.83343725388E+01  0.98397235571E+01  0.13579256368E+02  0.18726401918E+02  0.00000000000E+00 0. -1.
         11    1    3    3    0    0 -0.72700798679E+01  0.49800105511E+01 -0.17539120586E+02  0.19628431357E+02  0.51100000000E-03 0. -1.
        -11    1    3    3    0    0 -0.23904407901E+02 -0.62979439279E+01 -0.75876697662E+01  0.25858413478E+02  0.51100000000E-03 0.  1.
         12    1    3    3    0    0  0.22840115231E+02 -0.85217901802E+01  0.11547533984E+02  0.26974753247E+02  0.00000000000E+00 0. -1.
</event>
<event>
 7    1  0.3027254E-013  0.7246156E+02  0.7816164E-02  0.1226708E+00
        -11   -1    0    0    0    0  0.00000000000E+00  0.00000000000E+00  0.45593999997E+02  0.45594000000E+02  0.51100000000E-03 0.  1.
         11   -1    0    0    0    0 -0.00000000000E+00 -0.00000000000E+00 -0.45593999997E+02  0.45594000000E+02  0.51100000000E-03 0. -1.
    9900012    2    1    2    0    0 -0.94254627679E+01 -0.14464721570E+02  0.72534177894E+01  0.72461559118E+02  0.69999985440E+02 0.  0.
         12    1    1    2    0    0  0.94254627679E+01  0.14464721570E+02 -0.72534177894E+01  0.18726440882E+02  0.00000000000E+00 0. -1.
         11    1    3    3    0    0 -0.92867041296E+01 -0.84666281279E+01  0.55250409197E+01  0.13727809107E+02  0.51100000000E-03 0. -1.
        -11    1    3    3    0    0 -0.82438471499E+00  0.44156049808E+01  0.29097608780E+02  0.29442282766E+02  0.51100000000E-03 0.  1.
         12    1    3    3    0    0  0.68562607667E+00 -0.10413698423E+02 -0.27369231910E+02  0.29291467244E+02  0.00000000000E+00 0. -1.
</event>
<event>
 7    1  0.3027254E-013  0.7246157E+02  0.7816164E-02  0.1226708E+00
        -11   -1    0    0    0    0  0.00000000000E+00  0.00000000000E+00  0.45593999997E+02  0.45594000000E+02  0.51100000000E-03 0. -1.
         11   -1    0    0    0    0 -0.00000000000E+00 -0.00000000000E+00 -0.45593999997E+02  0.45594000000E+02  0.51100000000E-03 0.  1.
    9900012    2    1    2    0    0 -0.13741769433E+02  0.12410108077E+02 -0.27986046586E+01  0.72461569543E+02  0.69999999021E+02 0.  0.
         12    1    1    2    0    0  0.13741769433E+02 -0.12410108077E+02  0.27986046586E+01  0.18726430457E+02  0.00000000000E+00 0. -1.
         11    1    3    3    0    0 -0.52385378615E+01 -0.19128456481E+02  0.84440973455E+01  0.21555577156E+02  0.51100000000E-03 0. -1.
        -11    1    3    3    0    0 -0.63305462936E-01 -0.58497051345E+01 -0.11133410711E+02  0.12576799754E+02  0.51100000000E-03 0.  1.
         12    1    3    3    0    0 -0.84399261090E+01  0.37388269692E+02 -0.10929129344E+00  0.38329192633E+02  0.00000000000E+00 0. -1.
</event>
<event>
 7    1  0.3027254E-013  0.7246161E+02  0.7816164E-02  0.1226708E+00
        -11   -1    0    0    0    0  0.00000000000E+00  0.00000000000E+00  0.45593999997E+02  0.45594000000E+02  0.51100000000E-03 0.  1.
         11   -1    0    0    0    0 -0.00000000000E+00 -0.00000000000E+00 -0.45593999997E+02  0.45594000000E+02  0.51100000000E-03 0. -1.
    9900012    2    1    2    0    0  0.13751596825E+01  0.24431357514E+01  0.18515341544E+02  0.72461605554E+02  0.70000045932E+02 0.  0.
         12    1    1    2    0    0 -0.13751596825E+01 -0.24431357514E+01 -0.18515341544E+02  0.18726394446E+02  0.00000000000E+00 0. -1.
         11    1    3    3    0    0 -0.95683621424E+00 -0.19618065161E+01  0.75980658315E+01  0.79053668472E+01  0.51100000000E-03 0. -1.
        -11    1    3    3    0    0  0.31574896627E+02  0.10853959387E+02  0.88395527168E+01  0.34538677217E+02  0.51100000000E-03 0.  1.
         12    1    3    3    0    0 -0.29242900731E+02 -0.64490171193E+01  0.20777229958E+01  0.30017561490E+02  0.00000000000E+00 0. -1.
</event>
<event>
 7    1  0.3027254E-013  0.7246164E+02  0.7816164E-02  0.1226708E+00
        -11   -1    0    0    0    0  0.00000000000E+00  0.00000000000E+00  0.45593999997E+02  0.45594000000E+02  0.51100000000E-03 0.  1.
         11   -1    0    0    0    0 -0.00000000000E+00 -0.00000000000E+00 -0.45593999997E+02  0.45594000000E+02  0.51100000000E-03 0. -1.
    9900012    2    1    2    0    0  0.15274194284E+02  0.18493083786E+01  0.10675001372E+02  0.72461638720E+02  0.70000089137E+02 0.  0.
         12    1    1    2    0    0 -0.15274194284E+02 -0.18493083786E+01 -0.10675001372E+02  0.18726361280E+02  0.00000000000E+00 0. -1.
         11    1    3    3    0    0 -0.15817594695E+02  0.29733669354E+01 -0.71515751051E+01  0.17611991359E+02  0.51100000000E-03 0. -1.
        -11    1    3    3    0    0 -0.36820377464E+01 -0.19354795709E+01  0.19585053665E+02  0.20021933235E+02  0.51100000000E-03 0.  1.
         12    1    3    3    0    0  0.34773826726E+02  0.81142101408E+00 -0.17584771882E+01  0.34827714126E+02  0.00000000000E+00 0. -1.
</event>
<event>
 7    1  0.3027254E-013  0.7246158E+02  0.7816164E-02  0.1226708E+00
        -11   -1    0    0    0    0  0.00000000000E+00  0.00000000000E+00  0.45593999997E+02  0.45594000000E+02  0.51100000000E-03 0.  1.
         11   -1    0    0    0    0 -0.00000000000E+00 -0.00000000000E+00 -0.45593999997E+02  0.45594000000E+02  0.51100000000E-03 0. -1.
    9900012    2    1    2    0    0 -0.16327709610E+02  0.33319885870E+01 -0.85429721492E+01  0.72461584908E+02  0.70000019038E+02 0.  0.
         12    1    1    2    0    0  0.16327709610E+02 -0.33319885870E+01  0.85429721492E+01  0.18726415092E+02  0.00000000000E+00 0. -1.
         11    1    3    3    0    0 -0.12492467812E+02  0.97984555659E+01  0.10312018693E+02  0.18931698637E+02  0.51100000000E-03 0. -1.
        -11    1    3    3    0    0 -0.48437222485E+01  0.21440852691E+02 -0.10641144470E+02  0.24421420214E+02  0.51100000000E-03 0.  1.
         12    1    3    3    0    0  0.10084804509E+01 -0.27907319670E+02 -0.82138463718E+01  0.29108466058E+02  0.00000000000E+00 0. -1.
</event>
<event>
 7    1  0.3027254E-013  0.7246152E+02  0.7816164E-02  0.1226708E+00
        -11   -1    0    0    0    0  0.00000000000E+00  0.00000000000E+00  0.45593999997E+02  0.45594000000E+02  0.51100000000E-03 0. -1.
         11   -1    0    0    0    0 -0.00000000000E+00 -0.00000000000E+00 -0.45593999997E+02  0.45594000000E+02  0.51100000000E-03 0.  1.
    9900012    2    1    2    0    0 -0.65854128715E+01 -0.89544083989E+01 -0.15070896025E+02  0.72461521434E+02  0.69999936351E+02 0.  0.
         12    1    1    2    0    0  0.65854128715E+01  0.89544083989E+01  0.15070896025E+02  0.18726478566E+02  0.00000000000E+00 0. -1.
         11    1    3    3    0    0  0.57828836908E+01  0.83450776100E+01  0.66844957464E+01  0.12155844181E+02  0.51100000000E-03 0. -1.
        -11    1    3    3    0    0 -0.26002216762E+02 -0.14034883602E+02  0.51247677236E+01  0.29989272728E+02  0.51100000000E-03 0.  1.
         12    1    3    3    0    0  0.13633920200E+02 -0.32646024073E+01 -0.26880159495E+02  0.30316404526E+02  0.00000000000E+00 0. -1.
</event>
<event>
 7    1  0.3293059E-013  0.7246158E+02  0.7816164E-02  0.1226708E+00
        -11   -1    0    0    0    0  0.00000000000E+00  0.00000000000E+00  0.45593999997E+02  0.45594000000E+02  0.51100000000E-03 0. -1.
         11   -1    0    0    0    0 -0.00000000000E+00 -0.00000000000E+00 -0.45593999997E+02  0.45594000000E+02  0.51100000000E-03 0.  1.
    9900012    2    1    2    0    0 -0.93299709054E+01  0.16233506122E+02  0.32213166833E+00  0.72461578908E+02  0.70000011221E+02 0.  0.
         12    1    1    2    0    0  0.93299709054E+01 -0.16233506122E+02 -0.32213166833E+00  0.18726421092E+02  0.00000000000E+00 0. -1.
         11    1    3    3    0    0  0.12518522632E+02 -0.15473944155E+02  0.13860383256E+01  0.19951878586E+02  0.51100000000E-03 0. -1.
        -11    1    3    3    0    0 -0.12316155733E+02  0.10194878134E+02  0.16630289437E+02  0.23069238375E+02  0.51100000000E-03 0.  1.
        -12    1    3    3    0    0 -0.95323378045E+01  0.21512572143E+02 -0.17694196094E+02  0.29440461947E+02  0.00000000000E+00 0.  1.
</event>
<event>
 7    1  0.3027254E-013  0.7246144E+02  0.7816164E-02  0.1226708E+00
        -11   -1    0    0    0    0  0.00000000000E+00  0.00000000000E+00  0.45593999997E+02  0.45594000000E+02  0.51100000000E-03 0.  1.
         11   -1    0    0    0    0 -0.00000000000E+00 -0.00000000000E+00 -0.45593999997E+02  0.45594000000E+02  0.51100000000E-03 0. -1.
    9900012    2    1    2    0    0 -0.27287420722E+01  0.28684070118E+01  0.18303284969E+02  0.72461440446E+02  0.69999830848E+02 0.  0.
         12    1    1    2    0    0  0.27287420722E+01 -0.28684070118E+01 -0.18303284969E+02  0.18726559554E+02  0.00000000000E+00 0. -1.
         11    1    3    3    0    0  0.17715342089E+02 -0.98613728351E+01 -0.39924831472E+01  0.20664460831E+02  0.51100000000E-03 0. -1.
        -11    1    3    3    0    0 -0.25736310627E+02 -0.36921056497E+01  0.22734805608E+02  0.34537815725E+02  0.51100000000E-03 0.  1.
         12    1    3    3    0    0  0.52922264658E+01  0.16421885497E+02 -0.43903749188E+00  0.17259163889E+02  0.00000000000E+00 0. -1.
</event>
<event>
 7    1  0.3027254E-013  0.7246155E+02  0.7816164E-02  0.1226708E+00
        -11   -1    0    0    0    0  0.00000000000E+00  0.00000000000E+00  0.45593999997E+02  0.45594000000E+02  0.51100000000E-03 0. -1.
         11   -1    0    0    0    0 -0.00000000000E+00 -0.00000000000E+00 -0.45593999997E+02  0.45594000000E+02  0.51100000000E-03 0.  1.
    9900012    2    1    2    0    0 -0.10348884456E+02 -0.76563320562E+01 -0.13600035491E+02  0.72461553584E+02  0.69999978231E+02 0.  0.
         12    1    1    2    0    0  0.10348884456E+02  0.76563320562E+01  0.13600035491E+02  0.18726446416E+02  0.00000000000E+00 0. -1.
         11    1    3    3    0    0 -0.24907432079E+02  0.32894002172E+01 -0.30826003880E+02  0.39767359003E+02  0.51100000000E-03 0. -1.
        -11    1    3    3    0    0 -0.20064698445E+01  0.46269805681E+01  0.28079750242E+01  0.57723127438E+01  0.51100000000E-03 0.  1.
        -12    1    3    3    0    0  0.16565017468E+02 -0.15572712841E+02  0.14417993365E+02  0.26921881837E+02  0.00000000000E+00 0.  1.
</event>
<event>
 7    1  0.3027254E-013  0.7246156E+02  0.7816164E-02  0.1226708E+00
        -11   -1    0    0    0    0  0.00000000000E+00  0.00000000000E+00  0.45593999997E+02  0.45594000000E+02  0.51100000000E-03 0. -1.
         11   -1    0    0    0    0 -0.00000000000E+00 -0.00000000000E+00 -0.45593999997E+02  0.45594000000E+02  0.51100000000E-03 0.  1.
    9900012    2    1    2    0    0  0.14659541060E+02 -0.80409005242E+01  0.84333450691E+01  0.72461560553E+02  0.69999987310E+02 0.  0.
         12    1    1    2    0    0 -0.14659541060E+02  0.80409005242E+01 -0.84333450691E+01  0.18726439447E+02  0.00000000000E+00 0. -1.
         11    1    3    3    0    0 -0.91152820291E+01 -0.13619175119E+02 -0.76482282096E+01  0.18084957628E+02  0.51100000000E-03 0. -1.
        -11    1    3    3    0    0  0.19897754493E+01  0.18687454598E+02 -0.69830718568E+01  0.20048527590E+02  0.51100000000E-03 0.  1.
         12    1    3    3    0    0  0.21785047639E+02 -0.13109180003E+02  0.23064645135E+02  0.34328075335E+02  0.00000000000E+00 0. -1.
</event>
<event>
 7    1  0.3027254E-013  0.7246157E+02  0.7816164E-02  0.1226708E+00
        -11   -1    0    0    0    0  0.00000000000E+00  0.00000000000E+00  0.45593999997E+02  0.45594000000E+02  0.51100000000E-03 0.  1.
         11   -1    0    0    0    0 -0.00000000000E+00 -0.00000000000E+00 -0.45593999997E+02  0.45594000000E+02  0.51100000000E-03 0. -1.
    9900012    2    1    2    0    0  0.11452168672E+02 -0.10026733081E+02  0.10908332610E+02  0.72461567775E+02  0.69999996717E+02 0.  0.
         12    1    1    2    0    0 -0.11452168672E+02  0.10026733081E+02 -0.10908332610E+02  0.18726432225E+02  0.00000000000E+00 0. -1.
         11    1    3    3    0    0 -0.26305915847E-01  0.15729965767E+02  0.27845779899E+00  0.15732452257E+02  0.51100000000E-03 0. -1.
        -11    1    3    3    0    0 -0.65769911306E+01  0.74384250155E+01 -0.96477983861E+01  0.13844384891E+02  0.51100000000E-03 0.  1.
        -12    1    3    3    0    0  0.18055465718E+02 -0.33195123863E+02  0.20277673197E+02  0.42884730626E+02  0.00000000000E+00 0.  1.
</event>
<event>
 7    1  0.3027254E-013  0.7246158E+02  0.7816164E-02  0.1226708E+00
        -11   -1    0    0    0    0  0.00000000000E+00  0.00000000000E+00  0.45593999997E+02  0.45594000000E+02  0.51100000000E-03 0.  1.
         11   -1    0    0    0    0 -0.00000000000E+00 -0.00000000000E+00 -0.45593999997E+02  0.45594000000E+02  0.51100000000E-03 0. -1.
    9900012    2    1    2    0    0 -0.11300934783E+02  0.14615979213E+02 -0.30562773873E+01  0.72461579979E+02  0.70000012616E+02 0.  0.
         12    1    1    2    0    0  0.11300934783E+02 -0.14615979213E+02  0.30562773873E+01  0.18726420021E+02  0.00000000000E+00 0. -1.
         11    1    3    3    0    0 -0.13218095929E+02 -0.15156918492E+02  0.63614665417E+01  0.21093091167E+02  0.51100000000E-03 0. -1.
        -11    1    3    3    0    0 -0.86680905162E+01 -0.62683051904E+01  0.40868627948E+01  0.11451196048E+02  0.51100000000E-03 0.  1.
        -12    1    3    3    0    0  0.10585251662E+02  0.36041202896E+02 -0.13504606724E+02  0.39917292765E+02  0.00000000000E+00 0.  1.
</event>
<event>
 7    1  0.3027254E-013  0.7246158E+02  0.7816164E-02  0.1226708E+00
        -11   -1    0    0    0    0  0.00000000000E+00  0.00000000000E+00  0.45593999997E+02  0.45594000000E+02  0.51100000000E-03 0. -1.
         11   -1    0    0    0    0 -0.00000000000E+00 -0.00000000000E+00 -0.45593999997E+02  0.45594000000E+02  0.51100000000E-03 0.  1.
    9900012    2    1    2    0    0  0.12699155985E+01 -0.16529930759E+02 -0.87078975343E+01  0.72461580802E+02  0.70000013688E+02 0.  0.
         12    1    1    2    0    0 -0.12699155985E+01  0.16529930759E+02  0.87078975343E+01  0.18726419198E+02  0.00000000000E+00 0. -1.
         11    1    3    3    0    0  0.21006809605E+02 -0.78819499038E+00  0.47172197048E+01  0.21544360355E+02  0.51100000000E-03 0. -1.
        -11    1    3    3    0    0 -0.39301396622E+01  0.11856970069E+02 -0.14444009461E+02  0.19096155282E+02  0.51100000000E-03 0.  1.
         12    1    3    3    0    0 -0.15806754344E+02 -0.27598705838E+02  0.10188922219E+01  0.31821065164E+02  0.00000000000E+00 0. -1.
</event>
<event>
 7    1  0.3116930E-013  0.7246164E+02  0.7816164E-02  0.1226708E+00
        -11   -1    0    0    0    0  0.00000000000E+00  0.00000000000E+00  0.45593999997E+02  0.45594000000E+02  0.51100000000E-03 0. -1.
         11   -1    0    0    0    0 -0.00000000000E+00 -0.00000000000E+00 -0.45593999997E+02  0.45594000000E+02  0.51100000000E-03 0.  1.
    9900012    2    1    2    0    0 -0.44071565109E+01 -0.92987405573E+01 -0.15645669246E+02  0.72461639686E+02  0.70000090395E+02 0.  0.
         12    1    1    2    0    0  0.44071565109E+01  0.92987405573E+01  0.15645669246E+02  0.18726360314E+02  0.00000000000E+00 0. -1.
         11    1    3    3    0    0 -0.21378539191E+01 -0.73075864319E+01  0.70135592891E+01  0.10351871956E+02  0.51100000000E-03 0. -1.
        -11    1    3    3    0    0  0.23415016987E+01 -0.28618663201E+02 -0.19920395747E+02  0.34947570454E+02  0.51100000000E-03 0.  1.
         12    1    3    3    0    0 -0.46108042905E+01  0.26627509076E+02 -0.27388327880E+01  0.27162197275E+02  0.00000000000E+00 0. -1.
</event>
<event>
 7    1  0.3027254E-013  0.7246158E+02  0.7816164E-02  0.1226708E+00
        -11   -1    0    0    0    0  0.00000000000E+00  0.00000000000E+00  0.45593999997E+02  0.45594000000E+02  0.51100000000E-03 0. -1.
         11   -1    0    0    0    0 -0.00000000000E+00 -0.00000000000E+00 -0.45593999997E+02  0.45594000000E+02  0.51100000000E-03 0.  1.
    9900012    2    1    2    0    0  0.17273821678E+02 -0.99273396091E+00 -0.71629767034E+01  0.72461583596E+02  0.70000017328E+02 0.  0.
         12    1    1    2    0    0 -0.17273821678E+02  0.99273396091E+00  0.71629767034E+01  0.18726416404E+02  0.00000000000E+00 0. -1.
         11    1    3    3    0    0  0.46566829502E+01 -0.49874470322E+01  0.78148460538E+00  0.68680450237E+01  0.51100000000E-03 0. -1.
        -11    1    3    3    0    0 -0.98425790239E+01  0.19807087197E+02  0.17460007598E+02  0.28178873835E+02  0.51100000000E-03 0.  1.
         12    1    3    3    0    0  0.22459717752E+02 -0.15812374125E+02 -0.25404468906E+02  0.37414664737E+02  0.00000000000E+00 0. -1.
</event>
<event>
 7    1  0.3027254E-013  0.7246149E+02  0.7816164E-02  0.1226708E+00
        -11   -1    0    0    0    0  0.00000000000E+00  0.00000000000E+00  0.45593999997E+02  0.45594000000E+02  0.51100000000E-03 0.  1.
         11   -1    0    0    0    0 -0.00000000000E+00 -0.00000000000E+00 -0.45593999997E+02  0.45594000000E+02  0.51100000000E-03 0. -1.
    9900012    2    1    2    0    0 -0.12269064375E+02 -0.13215961957E+02  0.50488037775E+01  0.72461494435E+02  0.69999901179E+02 0.  0.
         12    1    1    2    0    0  0.12269064375E+02  0.13215961957E+02 -0.50488037775E+01  0.18726505565E+02  0.00000000000E+00 0. -1.
         11    1    3    3    0    0 -0.20552627023E+00 -0.85078341482E+01 -0.28036570200E+02  0.29299739791E+02  0.51100000000E-03 0. -1.
        -11    1    3    3    0    0 -0.79370937185E+01  0.49458435331E+01  0.10034518202E+01  0.94056228272E+01  0.51100000000E-03 0.  1.
        -12    1    3    3    0    0 -0.41264443863E+01 -0.96539713420E+01  0.32081922158E+02  0.33756131817E+02  0.00000000000E+00 0.  1.
</event>
<event>
 7    1  0.3027254E-013  0.7246160E+02  0.7816164E-02  0.1226708E+00
        -11   -1    0    0    0    0  0.00000000000E+00  0.00000000000E+00  0.45593999997E+02  0.45594000000E+02  0.51100000000E-03 0.  1.
         11   -1    0    0    0    0 -0.00000000000E+00 -0.00000000000E+00 -0.45593999997E+02  0.45594000000E+02  0.51100000000E-03 0. -1.
    9900012    2    1    2    0    0  0.41929087659E+01 -0.68389371217E+01  0.16921188924E+02  0.72461596728E+02  0.70000034435E+02 0.  0.
         12    1    1    2    0    0 -0.41929087659E+01  0.68389371217E+01 -0.16921188924E+02  0.18726403272E+02  0.00000000000E+00 0. -1.
         11    1    3    3    0    0  0.10366920556E+01  0.12631796657E+02  0.16162906547E+02  0.20539634016E+02  0.51100000000E-03 0. -1.
        -11    1    3    3    0    0 -0.83193212992E+01 -0.20898441146E+02  0.19586589175E+02  0.29826002498E+02  0.51100000000E-03 0.  1.
         12    1    3    3    0    0  0.11475538009E+02  0.14277073677E+01 -0.18828306798E+02  0.22095960215E+02  0.00000000000E+00 0. -1.
</event>
<event>
 7    1  0.3027254E-013  0.7246156E+02  0.7816164E-02  0.1226708E+00
        -11   -1    0    0    0    0  0.00000000000E+00  0.00000000000E+00  0.45593999997E+02  0.45594000000E+02  0.51100000000E-03 0.  1.
         11   -1    0    0    0    0 -0.00000000000E+00 -0.00000000000E+00 -0.45593999997E+02  0.45594000000E+02  0.51100000000E-03 0. -1.
    9900012    2    1    2    0    0  0.77325713611E+01  0.16813016607E+02  0.28651855527E+01  0.72461562124E+02  0.69999989357E+02 0.  0.
         12    1    1    2    0    0 -0.77325713611E+01 -0.16813016607E+02 -0.28651855527E+01  0.18726437876E+02  0.00000000000E+00 0. -1.
         11    1    3    3    0    0  0.22970811870E+02  0.14820406259E+02  0.65790746008E+01  0.28117376522E+02  0.51100000000E-03 0. -1.
        -11    1    3    3    0    0 -0.26150213347E+01 -0.25870343949E+01  0.18241052072E+02  0.18608252592E+02  0.51100000000E-03 0.  1.
         12    1    3    3    0    0 -0.12623219174E+02  0.45796447425E+01 -0.21954941121E+02  0.25735933010E+02  0.00000000000E+00 0. -1.
</event>
<event>
 7    1  0.3027254E-013  0.7246172E+02  0.7816164E-02  0.1226708E+00
        -11   -1    0    0    0    0  0.00000000000E+00  0.00000000000E+00  0.45593999997E+02  0.45594000000E+02  0.51100000000E-03 0.  1.
         11   -1    0    0    0    0 -0.00000000000E+00 -0.00000000000E+00 -0.45593999997E+02  0.45594000000E+02  0.51100000000E-03 0. -1.
    9900012    2    1    2    0    0  0.49519428435E+01  0.16139018619E+02  0.81045490865E+01  0.72461724989E+02  0.70000201518E+02 0.  0.
         12    1    1    2    0    0 -0.49519428435E+01 -0.16139018619E+02 -0.81045490865E+01  0.18726275011E+02  0.00000000000E+00 0. -1.
         11    1    3    3    0    0  0.41302408885E+01  0.62072883105E+01 -0.20560737603E+02  0.21870831008E+02  0.51100000000E-03 0. -1.
        -11    1    3    3    0    0 -0.16381261047E+02  0.99528335263E+01  0.25756036596E+01  0.19340070920E+02  0.51100000000E-03 0.  1.
        -12    1    3    3    0    0  0.17202963002E+02 -0.21103217871E-01  0.26089683029E+02  0.31250823061E+02  0.00000000000E+00 0.  1.
</event>
<event>
 7    1  0.3027254E-013  0.7246159E+02  0.7816164E-02  0.1226708E+00
        -11   -1    0    0    0    0  0.00000000000E+00  0.00000000000E+00  0.45593999997E+02  0.45594000000E+02  0.51100000000E-03 0.  1.
         11   -1    0    0    0    0 -0.00000000000E+00 -0.00000000000E+00 -0.45593999997E+02  0.45594000000E+02  0.51100000000E-03 0. -1.
    9900012    2    1    2    0    0  0.71790550891E+00 -0.18679197735E+02 -0.11183031590E+01  0.72461590352E+02  0.70000026129E+02 0.  0.
         12    1    1    2    0    0 -0.71790550891E+00  0.18679197735E+02  0.11183031590E+01  0.18726409648E+02  0.00000000000E+00 0. -1.
         11    1    3    3    0    0  0.22622723704E+01 -0.13418410984E+02 -0.30963122259E+02  0.33821392194E+02  0.51100000000E-03 0. -1.
        -11    1    3    3    0    0  0.40966988120E+01 -0.68086141423E+01 -0.28166810460E+00  0.79510694172E+01  0.51100000000E-03 0.  1.
        -12    1    3    3    0    0 -0.56410656735E+01  0.15478273914E+01  0.30126487205E+02  0.30689128741E+02  0.00000000000E+00 0.  1.
</event>
<event>
 7    1  0.3027254E-013  0.7246160E+02  0.7816164E-02  0.1226708E+00
        -11   -1    0    0    0    0  0.00000000000E+00  0.00000000000E+00  0.45593999997E+02  0.45594000000E+02  0.51100000000E-03 0. -1.
         11   -1    0    0    0    0 -0.00000000000E+00 -0.00000000000E+00 -0.45593999997E+02  0.45594000000E+02  0.51100000000E-03 0.  1.
    9900012    2    1    2    0    0  0.38858850900E+01  0.84411281995E+01 -0.16258081306E+02  0.72461602696E+02  0.70000042209E+02 0.  0.
         12    1    1    2    0    0 -0.38858850900E+01 -0.84411281995E+01  0.16258081306E+02  0.18726397304E+02  0.00000000000E+00 0. -1.
         11    1    3    3    0    0  0.11206763976E+02 -0.14936353424E+02  0.16328346653E+01  0.18744395475E+02  0.51100000000E-03 0. -1.
        -11    1    3    3    0    0 -0.16139552127E+02  0.19298175593E+00  0.78683921775E+01  0.17956446768E+02  0.51100000000E-03 0.  1.
        -12    1    3    3    0    0  0.88186732405E+01  0.23184499868E+02 -0.25759308149E+02  0.35760760453E+02  0.00000000000E+00 0.  1.
</event>
<event>
 7    1  0.3027254E-013  0.7246157E+02  0.7816164E-02  0.1226708E+00
        -11   -1    0    0    0    0  0.00000000000E+00  0.00000000000E+00  0.45593999997E+02  0.45594000000E+02  0.51100000000E-03 0.  1.
         11   -1    0    0    0    0 -0.00000000000E+00 -0.00000000000E+00 -0.45593999997E+02  0.45594000000E+02  0.51100000000E-03 0. -1.
    9900012    2    1    2    0    0 -0.50834190758E+01 -0.16088649672E+02 -0.81236201983E+01  0.72461574743E+02  0.70000005796E+02 0.  0.
         12    1    1    2    0    0  0.50834190758E+01  0.16088649672E+02  0.81236201983E+01  0.18726425257E+02  0.00000000000E+00 0. -1.
         11    1    3    3    0    0  0.14395105605E+01 -0.21085189350E+01 -0.22541178141E+01  0.34057436976E+01  0.51100000000E-03 0. -1.
        -11    1    3    3    0    0  0.24755751998E+02 -0.15617974317E+02 -0.19210334898E+02  0.35011503052E+02  0.51100000000E-03 0.  1.
         12    1    3    3    0    0 -0.31278681635E+02  0.16378435803E+01  0.13340832514E+02  0.34044327994E+02  0.00000000000E+00 0. -1.
</event>
<event>
 7    1  0.3027254E-013  0.7246158E+02  0.7816164E-02  0.1226708E+00
        -11   -1    0    0    0    0  0.00000000000E+00  0.00000000000E+00  0.45593999997E+02  0.45594000000E+02  0.51100000000E-03 0.  1.
         11   -1    0    0    0    0 -0.00000000000E+00 -0.00000000000E+00 -0.45593999997E+02  0.45594000000E+02  0.51100000000E-03 0. -1.
    9900012    2    1    2    0    0 -0.31695405596E+01 -0.15963521865E+02  0.92627729096E+01  0.72461575364E+02  0.70000006604E+02 0.  0.
         12    1    1    2    0    0  0.31695405596E+01  0.15963521865E+02 -0.92627729096E+01  0.18726424636E+02  0.00000000000E+00 0. -1.
         11    1    3    3    0    0  0.46787820949E+01 -0.93286387776E+01 -0.62750940523E+01  0.12177491899E+02  0.51100000000E-03 0. -1.
        -11    1    3    3    0    0  0.86024682101E+01 -0.23606345219E+02  0.24417334092E+02  0.35035242234E+02  0.51100000000E-03 0.  1.
         12    1    3    3    0    0 -0.16450790865E+02  0.16971462132E+02 -0.88794671306E+01  0.25248841231E+02  0.00000000000E+00 0. -1.
</event>
<event>
 7    1  0.3027254E-013  0.7246123E+02  0.7816164E-02  0.1226709E+00
        -11   -1    0    0    0    0  0.00000000000E+00  0.00000000000E+00  0.45593999997E+02  0.45594000000E+02  0.51100000000E-03 0.  1.
         11   -1    0    0    0    0 -0.00000000000E+00 -0.00000000000E+00 -0.45593999997E+02  0.45594000000E+02  0.51100000000E-03 0. -1.
    9900012    2    1    2    0    0 -0.73702388758E+01  0.43556770996E+01 -0.16655314300E+02  0.72461232033E+02  0.69999559350E+02 0.  0.
         12    1    1    2    0    0  0.73702388758E+01 -0.43556770996E+01  0.16655314300E+02  0.18726767967E+02  0.00000000000E+00 0. -1.
         11    1    3    3    0    0 -0.43574318533E+01 -0.77696020023E+00  0.56679637286E+01  0.71914318879E+01  0.51100000000E-03 0. -1.
        -11    1    3    3    0    0  0.25648990864E+02  0.15529721779E+02 -0.56243061859E+01  0.30506979713E+02  0.51100000000E-03 0.  1.
        -12    1    3    3    0    0 -0.28661797887E+02 -0.10397084479E+02 -0.16698971842E+02  0.34762820432E+02  0.00000000000E+00 0.  1.
</event>
<event>
 7    1  0.3027254E-013  0.7246181E+02  0.7816164E-02  0.1226707E+00
        -11   -1    0    0    0    0  0.00000000000E+00  0.00000000000E+00  0.45593999997E+02  0.45594000000E+02  0.51100000000E-03 0.  1.
         11   -1    0    0    0    0 -0.00000000000E+00 -0.00000000000E+00 -0.45593999997E+02  0.45594000000E+02  0.51100000000E-03 0. -1.
    9900012    2    1    2    0    0  0.13379769641E+02 -0.11488316453E+02 -0.62984583784E+01  0.72461809022E+02  0.70000310987E+02 0.  0.
         12    1    1    2    0    0 -0.13379769641E+02  0.11488316453E+02  0.62984583784E+01  0.18726190978E+02  0.00000000000E+00 0. -1.
         11    1    3    3    0    0 -0.66267695284E+01 -0.20809695900E+02 -0.13823655465E+02  0.25846681963E+02  0.51100000000E-03 0. -1.
        -11    1    3    3    0    0 -0.74120318962E+01  0.21156074498E+01  0.15374847492E+02  0.17198835640E+02  0.51100000000E-03 0.  1.
         12    1    3    3    0    0  0.27418571066E+02  0.72057719967E+01 -0.78496504052E+01  0.29416291419E+02  0.00000000000E+00 0. -1.
</event>
<event>
 7    1  0.3027254E-013  0.7246158E+02  0.7816164E-02  0.1226708E+00
        -11   -1    0    0    0    0  0.00000000000E+00  0.00000000000E+00  0.45593999997E+02  0.45594000000E+02  0.51100000000E-03 0.  1.
         11   -1    0    0    0    0 -0.00000000000E+00 -0.00000000000E+00 -0.45593999997E+02  0.45594000000E+02  0.51100000000E-03 0. -1.
    9900012    2    1    2    0    0 -0.18356308031E+02  0.28697484902E+01  0.23429290708E+01  0.72461579692E+02  0.70000012243E+02 0.  0.
         12    1    1    2    0    0  0.18356308031E+02 -0.28697484902E+01 -0.23429290708E+01  0.18726420308E+02  0.00000000000E+00 0. -1.
         11    1    3    3    0    0 -0.36198841275E+01 -0.23705806418E+01 -0.11094782994E+02  0.11908712089E+02  0.51100000000E-03 0. -1.
        -11    1    3    3    0    0 -0.32202269478E+02  0.14703998523E+02  0.18653844341E+02  0.40014492888E+02  0.51100000000E-03 0.  1.
         12    1    3    3    0    0  0.17465845575E+02 -0.94636693909E+01 -0.52161322766E+01  0.20538374715E+02  0.00000000000E+00 0. -1.
</event>
<event>
 7    1  0.3027254E-013  0.7246156E+02  0.7816164E-02  0.1226708E+00
        -11   -1    0    0    0    0  0.00000000000E+00  0.00000000000E+00  0.45593999997E+02  0.45594000000E+02  0.51100000000E-03 0. -1.
         11   -1    0    0    0    0 -0.00000000000E+00 -0.00000000000E+00 -0.45593999997E+02  0.45594000000E+02  0.51100000000E-03 0.  1.
    9900012    2    1    2    0    0  0.12747673580E+02  0.32109708256E+01 -0.13336641291E+02  0.72461561036E+02  0.69999987939E+02 0.  0.
         12    1    1    2    0    0 -0.12747673580E+02 -0.32109708256E+01  0.13336641291E+02  0.18726438964E+02  0.00000000000E+00 0. -1.
         11    1    3    3    0    0 -0.38008603455E+01  0.63612038932E+01  0.12996171862E+02  0.14960345506E+02  0.51100000000E-03 0. -1.
        -11    1    3    3    0    0  0.27742459973E+01  0.21872895695E+02 -0.15504630751E+02  0.26953915892E+02  0.51100000000E-03 0.  1.
        -12    1    3    3    0    0  0.13774287928E+02 -0.25023128763E+02 -0.10828182402E+02  0.30547299638E+02  0.00000000000E+00 0.  1.
</event>
<event>
 7    1  0.3027254E-013  0.7246158E+02  0.7816164E-02  0.1226708E+00
        -11   -1    0    0    0    0  0.00000000000E+00  0.00000000000E+00  0.45593999997E+02  0.45594000000E+02  0.51100000000E-03 0.  1.
         11   -1    0    0    0    0 -0.00000000000E+00 -0.00000000000E+00 -0.45593999997E+02  0.45594000000E+02  0.51100000000E-03 0. -1.
    9900012    2    1    2    0    0  0.75181748457E+01 -0.16424296919E+02 -0.49394788964E+01  0.72461576581E+02  0.70000008190E+02 0.  0.
         12    1    1    2    0    0 -0.75181748457E+01  0.16424296919E+02  0.49394788964E+01  0.18726423419E+02  0.00000000000E+00 0. -1.
         11    1    3    3    0    0  0.57905536248E+01 -0.14280246258E+02  0.11002828821E+02  0.18934576488E+02  0.51100000000E-03 0. -1.
        -11    1    3    3    0    0  0.18560186968E+02 -0.10528226680E+02 -0.24820127655E+02  0.32731679370E+02  0.51100000000E-03 0.  1.
         12    1    3    3    0    0 -0.16832565747E+02  0.83841760191E+01  0.88778199378E+01  0.20795320723E+02  0.00000000000E+00 0. -1.
</event>
<event>
 7    1  0.3027254E-013  0.7246159E+02  0.7816164E-02  0.1226708E+00
        -11   -1    0    0    0    0  0.00000000000E+00  0.00000000000E+00  0.45593999997E+02  0.45594000000E+02  0.51100000000E-03 0.  1.
         11   -1    0    0    0    0 -0.00000000000E+00 -0.00000000000E+00 -0.45593999997E+02  0.45594000000E+02  0.51100000000E-03 0. -1.
    9900012    2    1    2    0    0 -0.86077600414E+01  0.71577520405E+01  0.15011716593E+02  0.72461585974E+02  0.70000020426E+02 0.  0.
         12    1    1    2    0    0  0.86077600414E+01 -0.71577520405E+01 -0.15011716593E+02  0.18726414026E+02  0.00000000000E+00 0. -1.
         11    1    3    3    0    0 -0.30819743869E+01  0.21700546343E+02  0.10556989945E+02  0.24328220540E+02  0.51100000000E-03 0. -1.
        -11    1    3    3    0    0 -0.47547218757E+01  0.14045661069E+02 -0.81038989539E+01  0.16898554775E+02  0.51100000000E-03 0.  1.
         12    1    3    3    0    0 -0.77106377873E+00 -0.28588455371E+02  0.12558625602E+02  0.31234810659E+02  0.00000000000E+00 0. -1.
</event>
<event>
 7    1  0.3027254E-013  0.7246155E+02  0.7816164E-02  0.1226708E+00
        -11   -1    0    0    0    0  0.00000000000E+00  0.00000000000E+00  0.45593999997E+02  0.45594000000E+02  0.51100000000E-03 0.  1.
         11   -1    0    0    0    0 -0.00000000000E+00 -0.00000000000E+00 -0.45593999997E+02  0.45594000000E+02  0.51100000000E-03 0. -1.
    9900012    2    1    2    0    0  0.82690955341E+01  0.42413077339E+01  0.16257713487E+02  0.72461551322E+02  0.69999975285E+02 0.  0.
         12    1    1    2    0    0 -0.82690955341E+01 -0.42413077339E+01 -0.16257713487E+02  0.18726448678E+02  0.00000000000E+00 0. -1.
         11    1    3    3    0    0  0.94519816249E+01 -0.59007380663E+01 -0.19002934042E+02  0.22028848559E+02  0.51100000000E-03 0. -1.
        -11    1    3    3    0    0  0.74432887527E+01 -0.10917008177E+02  0.11284746465E+02  0.17376107678E+02  0.51100000000E-03 0.  1.
        -12    1    3    3    0    0 -0.86261748435E+01  0.21059053977E+02  0.23975901064E+02  0.33056595086E+02  0.00000000000E+00 0.  1.
</event>
<event>
 7    1  0.3027254E-013  0.7246161E+02  0.7816164E-02  0.1226708E+00
        -11   -1    0    0    0    0  0.00000000000E+00  0.00000000000E+00  0.45593999997E+02  0.45594000000E+02  0.51100000000E-03 0.  1.
         11   -1    0    0    0    0 -0.00000000000E+00 -0.00000000000E+00 -0.45593999997E+02  0.45594000000E+02  0.51100000000E-03 0. -1.
    9900012    2    1    2    0    0  0.13643569418E+02  0.32502512120E+01  0.12408326066E+02  0.72461610194E+02  0.70000051977E+02 0.  0.
         12    1    1    2    0    0 -0.13643569418E+02 -0.32502512120E+01 -0.12408326066E+02  0.18726389806E+02  0.00000000000E+00 0. -1.
         11    1    3    3    0    0  0.22546073535E+02  0.13621363336E+01  0.13995374282E+02  0.26571626762E+02  0.51100000000E-03 0. -1.
        -11    1    3    3    0    0  0.32460649270E+01  0.15972466253E+02  0.14105096174E+02  0.21554822060E+02  0.51100000000E-03 0.  1.
         12    1    3    3    0    0 -0.12148569043E+02 -0.14084351374E+02 -0.15692144390E+02  0.24335161372E+02  0.00000000000E+00 0. -1.
</event>
<event>
 7    1  0.3027254E-013  0.7246159E+02  0.7816164E-02  0.1226708E+00
        -11   -1    0    0    0    0  0.00000000000E+00  0.00000000000E+00  0.45593999997E+02  0.45594000000E+02  0.51100000000E-03 0.  1.
         11   -1    0    0    0    0 -0.00000000000E+00 -0.00000000000E+00 -0.45593999997E+02  0.45594000000E+02  0.51100000000E-03 0. -1.
    9900012    2    1    2    0    0  0.40642210352E+01  0.11395686088E+02  0.14293313580E+02  0.72461591718E+02  0.70000027908E+02 0.  0.
         12    1    1    2    0    0 -0.40642210352E+01 -0.11395686088E+02 -0.14293313580E+02  0.18726408282E+02  0.00000000000E+00 0. -1.
         11    1    3    3    0    0  0.19992273946E+02  0.11738980879E+02 -0.11561237107E+02  0.25906695917E+02  0.51100000000E-03 0. -1.
        -11    1    3    3    0    0  0.60297218323E+00 -0.15415951063E+02  0.57094086497E+01  0.16450303037E+02  0.51100000000E-03 0.  1.
        -12    1    3    3    0    0 -0.16531025094E+02  0.15072656273E+02  0.20145142037E+02  0.30104592764E+02  0.00000000000E+00 0.  1.
</event>
<event>
 7    1  0.3027254E-013  0.7246170E+02  0.7816164E-02  0.1226708E+00
        -11   -1    0    0    0    0  0.00000000000E+00  0.00000000000E+00  0.45593999997E+02  0.45594000000E+02  0.51100000000E-03 0.  1.
         11   -1    0    0    0    0 -0.00000000000E+00 -0.00000000000E+00 -0.45593999997E+02  0.45594000000E+02  0.51100000000E-03 0. -1.
    9900012    2    1    2    0    0  0.14676155504E+02  0.43505272011E+01  0.10786918209E+02  0.72461702135E+02  0.70000171746E+02 0.  0.
         12    1    1    2    0    0 -0.14676155504E+02 -0.43505272011E+01 -0.10786918209E+02  0.18726297865E+02  0.00000000000E+00 0. -1.
         11    1    3    3    0    0 -0.10757016184E+02  0.13972689738E+02 -0.12580668936E+02  0.21661548579E+02  0.51100000000E-03 0. -1.
        -11    1    3    3    0    0 -0.37260461912E+01  0.71060996917E+01 -0.24764750848E+01  0.83972020432E+01  0.51100000000E-03 0.  1.
        -12    1    3    3    0    0  0.29159217879E+02 -0.16728262228E+02  0.25844062229E+02  0.42402951513E+02  0.00000000000E+00 0.  1.
</event>
<event>
 7    1  0.3027254E-013  0.7246164E+02  0.7816164E-02  0.1226708E+00
        -11   -1    0    0    0    0  0.00000000000E+00  0.00000000000E+00  0.45593999997E+02  0.45594000000E+02  0.51100000000E-03 0.  1.
         11   -1    0    0    0    0 -0.00000000000E+00 -0.00000000000E+00 -0.45593999997E+02  0.45594000000E+02  0.51100000000E-03 0. -1.
    9900012    2    1    2    0    0  0.96932409812E+01 -0.11091416008E+02  0.11562784303E+02  0.72461643958E+02  0.70000095961E+02 0.  0.
         12    1    1    2    0    0 -0.96932409812E+01  0.11091416008E+02 -0.11562784303E+02  0.18726356042E+02  0.00000000000E+00 0. -1.
         11    1    3    3    0    0  0.18449711603E+02 -0.32362731878E+01  0.15988289975E+02  0.24627032687E+02  0.51100000000E-03 0. -1.
        -11    1    3    3    0    0  0.83244657827E+01 -0.21933202679E+02  0.46418154795E+01  0.23914609793E+02  0.51100000000E-03 0.  1.
         12    1    3    3    0    0 -0.17080936404E+02  0.14078059860E+02 -0.90673211519E+01  0.23920001478E+02  0.00000000000E+00 0. -1.
</event>
<event>
 7    1  0.3158195E-013  0.7246221E+02  0.7816164E-02  0.1226706E+00
        -11   -1    0    0    0    0  0.00000000000E+00  0.00000000000E+00  0.45593999997E+02  0.45594000000E+02  0.51100000000E-03 0.  1.
         11   -1    0    0    0    0 -0.00000000000E+00 -0.00000000000E+00 -0.45593999997E+02  0.45594000000E+02  0.51100000000E-03 0. -1.
    9900012    2    1    2    0    0  0.17837551240E+02  0.15730738629E+01 -0.54774473881E+01  0.72462209616E+02  0.70000832831E+02 0.  0.
         12    1    1    2    0    0 -0.17837551240E+02 -0.15730738629E+01  0.54774473881E+01  0.18725790384E+02  0.00000000000E+00 0. -1.
         11    1    3    3    0    0  0.87999200679E+01  0.27985399314E+01 -0.29952717898E+02  0.31343830792E+02  0.51100000000E-03 0. -1.
        -11    1    3    3    0    0 -0.10514637068E+02 -0.67126031190E+01  0.68663379748E+01  0.14239495452E+02  0.51100000000E-03 0.  1.
        -12    1    3    3    0    0  0.19552268239E+02  0.54871370505E+01  0.17608932535E+02  0.26878883372E+02  0.00000000000E+00 0.  1.
</event>
<event>
 7    1  0.3027254E-013  0.7246152E+02  0.7816164E-02  0.1226708E+00
        -11   -1    0    0    0    0  0.00000000000E+00  0.00000000000E+00  0.45593999997E+02  0.45594000000E+02  0.51100000000E-03 0.  1.
         11   -1    0    0    0    0 -0.00000000000E+00 -0.00000000000E+00 -0.45593999997E+02  0.45594000000E+02  0.51100000000E-03 0. -1.
    9900012    2    1    2    0    0  0.94109364178E+01  0.12050395029E+02  0.10812180493E+02  0.72461521644E+02  0.69999936623E+02 0.  0.
         12    1    1    2    0    0 -0.94109364178E+01 -0.12050395029E+02 -0.10812180493E+02  0.18726478356E+02  0.00000000000E+00 0. -1.
         11    1    3    3    0    0 -0.11286257737E+02  0.26187140543E+02 -0.49345645336E+01  0.28939520917E+02  0.51100000000E-03 0. -1.
        -11    1    3    3    0    0  0.16825699096E+00  0.68327475562E+01  0.12171905567E+02  0.13959585773E+02  0.51100000000E-03 0.  1.
        -12    1    3    3    0    0  0.20528937164E+02 -0.20969493070E+02  0.35748394598E+01  0.29562414953E+02  0.00000000000E+00 0.  1.
</event>
<event>
 7    1  0.3027254E-013  0.7246163E+02  0.7816164E-02  0.1226708E+00
        -11   -1    0    0    0    0  0.00000000000E+00  0.00000000000E+00  0.45593999997E+02  0.45594000000E+02  0.51100000000E-03 0. -1.
         11   -1    0    0    0    0 -0.00000000000E+00 -0.00000000000E+00 -0.45593999997E+02  0.45594000000E+02  0.51100000000E-03 0.  1.
    9900012    2    1    2    0    0  0.51323036380E+00  0.18500928007E+02  0.28511975158E+01  0.72461626357E+02  0.70000073032E+02 0.  0.
         12    1    1    2    0    0 -0.51323036380E+00 -0.18500928007E+02 -0.28511975158E+01  0.18726373643E+02  0.00000000000E+00 0. -1.
         11    1    3    3    0    0  0.36587046926E+01  0.11198425460E+01 -0.13331137169E+02  0.13869368617E+02  0.51100000000E-03 0. -1.
        -11    1    3    3    0    0 -0.87502741608E+01  0.12103600923E+02 -0.18094117937E+02  0.23461917171E+02  0.51100000000E-03 0.  1.
         12    1    3    3    0    0  0.56047998320E+01  0.52774845386E+01  0.34276452621E+02  0.35130340569E+02  0.00000000000E+00 0. -1.
</event>
<event>
 7    1  0.3027254E-013  0.7246158E+02  0.7816164E-02  0.1226708E+00
        -11   -1    0    0    0    0  0.00000000000E+00  0.00000000000E+00  0.45593999997E+02  0.45594000000E+02  0.51100000000E-03 0. -1.
         11   -1    0    0    0    0 -0.00000000000E+00 -0.00000000000E+00 -0.45593999997E+02  0.45594000000E+02  0.51100000000E-03 0.  1.
    9900012    2    1    2    0    0 -0.50383971559E+01 -0.16901504069E+02  0.62954322313E+01  0.72461581424E+02  0.70000014498E+02 0.  0.
         12    1    1    2    0    0  0.50383971559E+01  0.16901504069E+02 -0.62954322313E+01  0.18726418576E+02  0.00000000000E+00 0. -1.
         11    1    3    3    0    0  0.94332824336E+01 -0.42881462834E+01  0.47996476207E+00  0.10373301425E+02  0.51100000000E-03 0. -1.
        -11    1    3    3    0    0  0.20450553404E+02 -0.15211771019E+02 -0.38096152647E+01  0.25770841678E+02  0.51100000000E-03 0.  1.
         12    1    3    3    0    0 -0.34922232993E+02  0.25984132329E+01  0.96250827339E+01  0.36317438321E+02  0.00000000000E+00 0. -1.
</event>
<event>
 7    1  0.3027254E-013  0.7246158E+02  0.7816164E-02  0.1226708E+00
        -11   -1    0    0    0    0  0.00000000000E+00  0.00000000000E+00  0.45593999997E+02  0.45594000000E+02  0.51100000000E-03 0.  1.
         11   -1    0    0    0    0 -0.00000000000E+00 -0.00000000000E+00 -0.45593999997E+02  0.45594000000E+02  0.51100000000E-03 0. -1.
    9900012    2    1    2    0    0  0.11012033133E+02 -0.15145683510E+02  0.14887226494E+00  0.72461581077E+02  0.70000014047E+02 0.  0.
         12    1    1    2    0    0 -0.11012033133E+02  0.15145683510E+02 -0.14887226494E+00  0.18726418923E+02  0.00000000000E+00 0. -1.
         11    1    3    3    0    0  0.80429120414E+01 -0.21287610784E+02 -0.22135485440E+02  0.31746346608E+02  0.51100000000E-03 0. -1.
        -11    1    3    3    0    0  0.11306477998E+02  0.44076664580E+01 -0.42421338218E+01  0.12855336166E+02  0.51100000000E-03 0.  1.
        -12    1    3    3    0    0 -0.83373569062E+01  0.17342608162E+01  0.26526491527E+02  0.27859898303E+02  0.00000000000E+00 0.  1.
</event>
<event>
 7    1  0.3027254E-013  0.7246159E+02  0.7816164E-02  0.1226708E+00
        -11   -1    0    0    0    0  0.00000000000E+00  0.00000000000E+00  0.45593999997E+02  0.45594000000E+02  0.51100000000E-03 0.  1.
         11   -1    0    0    0    0 -0.00000000000E+00 -0.00000000000E+00 -0.45593999997E+02  0.45594000000E+02  0.51100000000E-03 0. -1.
    9900012    2    1    2    0    0 -0.17535387226E+02 -0.35273869180E+01 -0.55449151286E+01  0.72461592245E+02  0.70000028595E+02 0.  0.
         12    1    1    2    0    0  0.17535387226E+02  0.35273869180E+01  0.55449151286E+01  0.18726407755E+02  0.00000000000E+00 0. -1.
         11    1    3    3    0    0  0.92698934543E+01  0.14580400219E+02 -0.10663053356E+02  0.20303194387E+02  0.51100000000E-03 0. -1.
        -11    1    3    3    0    0  0.42604083793E+01 -0.80538081926E+01  0.15427797117E+02  0.17917361137E+02  0.51100000000E-03 0.  1.
        -12    1    3    3    0    0 -0.31065689059E+02 -0.10053978944E+02 -0.10309658889E+02  0.34241036721E+02  0.00000000000E+00 0.  1.
</event>
<event>
 7    1  0.3027254E-013  0.7246158E+02  0.7816164E-02  0.1226708E+00
        -11   -1    0    0    0    0  0.00000000000E+00  0.00000000000E+00  0.45593999997E+02  0.45594000000E+02  0.51100000000E-03 0. -1.
         11   -1    0    0    0    0 -0.00000000000E+00 -0.00000000000E+00 -0.45593999997E+02  0.45594000000E+02  0.51100000000E-03 0.  1.
    9900012    2    1    2    0    0  0.17803698775E+02 -0.57957162953E+01  0.34175992750E+00  0.72461579699E+02  0.70000012251E+02 0.  0.
         12    1    1    2    0    0 -0.17803698775E+02  0.57957162953E+01 -0.34175992750E+00  0.18726420301E+02  0.00000000000E+00 0. -1.
         11    1    3    3    0    0  0.28088568878E+00  0.71591845384E+01 -0.52841903822E+01  0.89025551546E+01  0.51100000000E-03 0. -1.
        -11    1    3    3    0    0 -0.50011964933E+01  0.11937089941E+02 -0.18243503102E+02  0.22368090851E+02  0.51100000000E-03 0.  1.
         12    1    3    3    0    0  0.22524009580E+02 -0.24891990775E+02  0.23869453412E+02  0.41190933693E+02  0.00000000000E+00 0. -1.
</event>
<event>
 7    1  0.3027254E-013  0.7246160E+02  0.7816164E-02  0.1226708E+00
        -11   -1    0    0    0    0  0.00000000000E+00  0.00000000000E+00  0.45593999997E+02  0.45594000000E+02  0.51100000000E-03 0.  1.
         11   -1    0    0    0    0 -0.00000000000E+00 -0.00000000000E+00 -0.45593999997E+02  0.45594000000E+02  0.51100000000E-03 0. -1.
    9900012    2    1    2    0    0 -0.54985123888E+01  0.71334415488E+01  0.16418235266E+02  0.72461599490E+02  0.70000038032E+02 0.  0.
         12    1    1    2    0    0  0.54985123888E+01 -0.71334415488E+01 -0.16418235266E+02  0.18726400510E+02  0.00000000000E+00 0. -1.
         11    1    3    3    0    0  0.45091773937E+01 -0.12453485835E+02 -0.96440863069E+01  0.16383845433E+02  0.51100000000E-03 0. -1.
        -11    1    3    3    0    0  0.31032362040E+01  0.16795127770E+02 -0.84486512743E+01  0.19054818298E+02  0.51100000000E-03 0.  1.
        -12    1    3    3    0    0 -0.13110925986E+02  0.27917996137E+01  0.34510972847E+02  0.37022935758E+02  0.00000000000E+00 0.  1.
</event>
<event>
 7    1  0.3027254E-013  0.7246154E+02  0.7816164E-02  0.1226708E+00
        -11   -1    0    0    0    0  0.00000000000E+00  0.00000000000E+00  0.45593999997E+02  0.45594000000E+02  0.51100000000E-03 0.  1.
         11   -1    0    0    0    0 -0.00000000000E+00 -0.00000000000E+00 -0.45593999997E+02  0.45594000000E+02  0.51100000000E-03 0. -1.
    9900012    2    1    2    0    0  0.74575910406E+01 -0.35438287648E+01  0.16807909305E+02  0.72461542736E+02  0.69999964100E+02 0.  0.
         12    1    1    2    0    0 -0.74575910406E+01  0.35438287648E+01 -0.16807909305E+02  0.18726457264E+02  0.00000000000E+00 0. -1.
         11    1    3    3    0    0 -0.12756792695E+02 -0.15458345951E+02  0.89008449166E+01  0.21929917006E+02  0.51100000000E-03 0. -1.
        -11    1    3    3    0    0  0.93632026376E+01 -0.68538156536E+01 -0.15018424877E+02  0.18978868214E+02  0.51100000000E-03 0.  1.
        -12    1    3    3    0    0  0.10851181098E+02  0.18768332839E+02  0.22925489265E+02  0.31552757516E+02  0.00000000000E+00 0.  1.
</event>
<event>
 7    1  0.3027254E-013  0.7246154E+02  0.7816164E-02  0.1226708E+00
        -11   -1    0    0    0    0  0.00000000000E+00  0.00000000000E+00  0.45593999997E+02  0.45594000000E+02  0.51100000000E-03 0.  1.
         11   -1    0    0    0    0 -0.00000000000E+00 -0.00000000000E+00 -0.45593999997E+02  0.45594000000E+02  0.51100000000E-03 0. -1.
    9900012    2    1    2    0    0 -0.92246534341E+01  0.93040614652E+01  0.13379850713E+02  0.72461542891E+02  0.69999964303E+02 0.  0.
         12    1    1    2    0    0  0.92246534341E+01 -0.93040614652E+01 -0.13379850713E+02  0.18726457109E+02  0.00000000000E+00 0. -1.
         11    1    3    3    0    0 -0.16277452383E+02  0.55543899670E+01 -0.20734771818E+02  0.26939514966E+02  0.51100000000E-03 0. -1.
        -11    1    3    3    0    0 -0.17634487628E+01  0.17015397303E+01 -0.48960894750E+01  0.54750964741E+01  0.51100000000E-03 0.  1.
        -12    1    3    3    0    0  0.88162477118E+01  0.20481317679E+01  0.39010712006E+02  0.40046931452E+02  0.00000000000E+00 0.  1.
</event>
<event>
 7    1  0.3027254E-013  0.7246157E+02  0.7816164E-02  0.1226708E+00
        -11   -1    0    0    0    0  0.00000000000E+00  0.00000000000E+00  0.45593999997E+02  0.45594000000E+02  0.51100000000E-03 0. -1.
         11   -1    0    0    0    0 -0.00000000000E+00 -0.00000000000E+00 -0.45593999997E+02  0.45594000000E+02  0.51100000000E-03 0.  1.
    9900012    2    1    2    0    0  0.58070748403E+01 -0.42739735377E+01 -0.17282660832E+02  0.72461565918E+02  0.69999994299E+02 0.  0.
         12    1    1    2    0    0 -0.58070748403E+01  0.42739735377E+01  0.17282660832E+02  0.18726434082E+02  0.00000000000E+00 0. -1.
         11    1    3    3    0    0 -0.12605519208E+02  0.73740742668E+01 -0.20930521405E+02  0.25521810523E+02  0.51100000000E-03 0. -1.
        -11    1    3    3    0    0 -0.88709612586E+01 -0.16373535214E+02 -0.18349594528E+01  0.18712393901E+02  0.51100000000E-03 0.  1.
        -12    1    3    3    0    0  0.27283555307E+02  0.47254874098E+01  0.54828200266E+01  0.28227361494E+02  0.00000000000E+00 0.  1.
</event>
<event>
 7    1  0.3027254E-013  0.7246155E+02  0.7816164E-02  0.1226708E+00
        -11   -1    0    0    0    0  0.00000000000E+00  0.00000000000E+00  0.45593999997E+02  0.45594000000E+02  0.51100000000E-03 0.  1.
         11   -1    0    0    0    0 -0.00000000000E+00 -0.00000000000E+00 -0.45593999997E+02  0.45594000000E+02  0.51100000000E-03 0. -1.
    9900012    2    1    2    0    0  0.15299852871E+02 -0.87543091211E+01  0.63211035657E+01  0.72461554092E+02  0.69999978893E+02 0.  0.
         12    1    1    2    0    0 -0.15299852871E+02  0.87543091211E+01 -0.63211035657E+01  0.18726445908E+02  0.00000000000E+00 0. -1.
         11    1    3    3    0    0  0.11137360861E+02  0.16595163938E+02 -0.11951829332E+02  0.23287045706E+02  0.51100000000E-03 0. -1.
        -11    1    3    3    0    0 -0.23232254569E+01  0.84190984302E+01  0.10969443416E+02  0.14021671941E+02  0.51100000000E-03 0.  1.
        -12    1    3    3    0    0  0.64857174674E+01 -0.33768571489E+02  0.73034894812E+01  0.35152836445E+02  0.00000000000E+00 0.  1.
</event>
<event>
 7    1  0.3027254E-013  0.7246158E+02  0.7816164E-02  0.1226708E+00
        -11   -1    0    0    0    0  0.00000000000E+00  0.00000000000E+00  0.45593999997E+02  0.45594000000E+02  0.51100000000E-03 0. -1.
         11   -1    0    0    0    0 -0.00000000000E+00 -0.00000000000E+00 -0.45593999997E+02  0.45594000000E+02  0.51100000000E-03 0.  1.
    9900012    2    1    2    0    0  0.69338198071E+01 -0.11124222726E+02 -0.13373573283E+02  0.72461584146E+02  0.70000018044E+02 0.  0.
         12    1    1    2    0    0 -0.69338198071E+01  0.11124222726E+02  0.13373573283E+02  0.18726415854E+02  0.00000000000E+00 0. -1.
         11    1    3    3    0    0 -0.25974633065E+02 -0.15418213030E+02 -0.76970719403E+01  0.31171265176E+02  0.51100000000E-03 0. -1.
        -11    1    3    3    0    0 -0.32490087237E+00 -0.57857304841E+00  0.57675671822E+01  0.58056126991E+01  0.51100000000E-03 0.  1.
        -12    1    3    3    0    0  0.33233353745E+02  0.48725633530E+01 -0.11444068525E+02  0.35484706271E+02  0.00000000000E+00 0.  1.
</event>
<event>
 7    1  0.3027254E-013  0.7246153E+02  0.7816164E-02  0.1226708E+00
        -11   -1    0    0    0    0  0.00000000000E+00  0.00000000000E+00  0.45593999997E+02  0.45594000000E+02  0.51100000000E-03 0.  1.
         11   -1    0    0    0    0 -0.00000000000E+00 -0.00000000000E+00 -0.45593999997E+02  0.45594000000E+02  0.51100000000E-03 0. -1.
    9900012    2    1    2    0    0 -0.48808214607E+01 -0.15374709635E+02  0.95119101879E+01  0.72461533438E+02  0.69999951988E+02 0.  0.
         12    1    1    2    0    0  0.48808214607E+01  0.15374709635E+02 -0.95119101879E+01  0.18726466562E+02  0.00000000000E+00 0. -1.
         11    1    3    3    0    0 -0.10632860569E+02 -0.10089065649E+00  0.30739914646E+00  0.10637781596E+02  0.51100000000E-03 0. -1.
        -11    1    3    3    0    0 -0.26368771883E+02 -0.53200750433E+01 -0.21761850178E+00  0.26900979297E+02  0.51100000000E-03 0.  1.
         12    1    3    3    0    0  0.32120810991E+02 -0.99537439348E+01  0.94221295432E+01  0.34922772544E+02  0.00000000000E+00 0. -1.
</event>
<event>
 7    1  0.3027254E-013  0.7246159E+02  0.7816164E-02  0.1226708E+00
        -11   -1    0    0    0    0  0.00000000000E+00  0.00000000000E+00  0.45593999997E+02  0.45594000000E+02  0.51100000000E-03 0. -1.
         11   -1    0    0    0    0 -0.00000000000E+00 -0.00000000000E+00 -0.45593999997E+02  0.45594000000E+02  0.51100000000E-03 0.  1.
    9900012    2    1    2    0    0  0.74482226791E+01  0.17097120921E+02 -0.17002041501E+01  0.72461594605E+02  0.70000031670E+02 0.  0.
         12    1    1    2    0    0 -0.74482226791E+01 -0.17097120921E+02  0.17002041501E+01  0.18726405395E+02  0.00000000000E+00 0. -1.
         11    1    3    3    0    0  0.22122257249E+02  0.26947575631E+02  0.13734582201E+00  0.34865240029E+02  0.51100000000E-03 0. -1.
        -11    1    3    3    0    0 -0.88214442313E+00  0.10063428128E+02  0.64602161102E+01  0.11991044864E+02  0.51100000000E-03 0.  1.
        -12    1    3    3    0    0 -0.13791890147E+02 -0.19913882838E+02 -0.82977660823E+01  0.25605309712E+02  0.00000000000E+00 0.  1.
</event>
<event>
 7    1  0.3027254E-013  0.7246157E+02  0.7816164E-02  0.1226708E+00
        -11   -1    0    0    0    0  0.00000000000E+00  0.00000000000E+00  0.45593999997E+02  0.45594000000E+02  0.51100000000E-03 0.  1.
         11   -1    0    0    0    0 -0.00000000000E+00 -0.00000000000E+00 -0.45593999997E+02  0.45594000000E+02  0.51100000000E-03 0. -1.
    9900012    2    1    2    0    0  0.10252642512E+02 -0.12712956874E+02 -0.91620470958E+01  0.72461573273E+02  0.70000003880E+02 0.  0.
         12    1    1    2    0    0 -0.10252642512E+02  0.12712956874E+02  0.91620470958E+01  0.18726426727E+02  0.00000000000E+00 0. -1.
         11    1    3    3    0    0  0.23306299770E+02 -0.47925821483E+01 -0.10939777012E+02  0.26188378605E+02  0.51100000000E-03 0. -1.
        -11    1    3    3    0    0 -0.19932434630E+02 -0.17269537690E+02 -0.11383459438E+02  0.28724937447E+02  0.51100000000E-03 0.  1.
        -12    1    3    3    0    0  0.68787773723E+01  0.93491629644E+01  0.13161189354E+02  0.17548257220E+02  0.00000000000E+00 0.  1.
</event>
<event>
 7    1  0.3027254E-013  0.7246157E+02  0.7816164E-02  0.1226708E+00
        -11   -1    0    0    0    0  0.00000000000E+00  0.00000000000E+00  0.45593999997E+02  0.45594000000E+02  0.51100000000E-03 0.  1.
         11   -1    0    0    0    0 -0.00000000000E+00 -0.00000000000E+00 -0.45593999997E+02  0.45594000000E+02  0.51100000000E-03 0. -1.
    9900012    2    1    2    0    0  0.11211954647E+02 -0.95724242851E+01  0.11547288464E+02  0.72461572029E+02  0.70000002259E+02 0.  0.
         12    1    1    2    0    0 -0.11211954647E+02  0.95724242851E+01 -0.11547288464E+02  0.18726427971E+02  0.00000000000E+00 0. -1.
         11    1    3    3    0    0  0.56523290453E+01  0.14830037563E+02 -0.36518392201E+01  0.16285415798E+02  0.51100000000E-03 0. -1.
        -11    1    3    3    0    0  0.16787683866E+02  0.42302407905E+01  0.18388344273E+02  0.25255741369E+02  0.51100000000E-03 0.  1.
         12    1    3    3    0    0 -0.11228058265E+02 -0.28632702639E+02 -0.31892165884E+01  0.30920414862E+02  0.00000000000E+00 0. -1.
</event>
<event>
 7    1  0.3027254E-013  0.7246147E+02  0.7816164E-02  0.1226708E+00
        -11   -1    0    0    0    0  0.00000000000E+00  0.00000000000E+00  0.45593999997E+02  0.45594000000E+02  0.51100000000E-03 0. -1.
         11   -1    0    0    0    0 -0.00000000000E+00 -0.00000000000E+00 -0.45593999997E+02  0.45594000000E+02  0.51100000000E-03 0.  1.
    9900012    2    1    2    0    0  0.16652608983E+01  0.11819339775E+02 -0.14429585054E+02  0.72461473055E+02  0.69999873328E+02 0.  0.
         12    1    1    2    0    0 -0.16652608983E+01 -0.11819339775E+02  0.14429585054E+02  0.18726526945E+02  0.00000000000E+00 0. -1.
         11    1    3    3    0    0 -0.14832721294E+02  0.73365433342E+01  0.15380732157E+02  0.22592065223E+02  0.51100000000E-03 0. -1.
        -11    1    3    3    0    0 -0.81701925419E+01  0.57822628099E+01  0.13559807098E+01  0.10100757067E+02  0.51100000000E-03 0.  1.
        -12    1    3    3    0    0  0.24668174735E+02 -0.12994663692E+01 -0.31166297921E+02  0.39768650765E+02  0.00000000000E+00 0.  1.
</event>
<event>
 7    1  0.3027254E-013  0.7246159E+02  0.7816164E-02  0.1226708E+00
        -11   -1    0    0    0    0  0.00000000000E+00  0.00000000000E+00  0.45593999997E+02  0.45594000000E+02  0.51100000000E-03 0.  1.
         11   -1    0    0    0    0 -0.00000000000E+00 -0.00000000000E+00 -0.45593999997E+02  0.45594000000E+02  0.51100000000E-03 0. -1.
    9900012    2    1    2    0    0 -0.17835073589E+02 -0.57600430609E+00  0.56794967619E+01  0.72461593127E+02  0.70000029744E+02 0.  0.
         12    1    1    2    0    0  0.17835073589E+02  0.57600430609E+00 -0.56794967619E+01  0.18726406873E+02  0.00000000000E+00 0. -1.
         11    1    3    3    0    0  0.31159807865E+01 -0.13310872383E+02  0.95519895749E+01  0.16677204951E+02  0.51100000000E-03 0. -1.
        -11    1    3    3    0    0 -0.19166299691E+02 -0.16620215675E+02  0.31065518989E+01  0.25558350453E+02  0.51100000000E-03 0.  1.
         12    1    3    3    0    0 -0.17847546845E+01  0.29355083752E+02 -0.69790447119E+01  0.30226037723E+02  0.00000000000E+00 0. -1.
</event>
<event>
 7    1  0.3027254E-013  0.7246170E+02  0.7816164E-02  0.1226708E+00
        -11   -1    0    0    0    0  0.00000000000E+00  0.00000000000E+00  0.45593999997E+02  0.45594000000E+02  0.51100000000E-03 0. -1.
         11   -1    0    0    0    0 -0.00000000000E+00 -0.00000000000E+00 -0.45593999997E+02  0.45594000000E+02  0.51100000000E-03 0.  1.
    9900012    2    1    2    0    0  0.11270452099E+02  0.11521179093E+02 -0.95348572584E+01  0.72461704020E+02  0.70000174202E+02 0.  0.
         12    1    1    2    0    0 -0.11270452099E+02 -0.11521179093E+02  0.95348572584E+01  0.18726295980E+02  0.00000000000E+00 0. -1.
         11    1    3    3    0    0  0.50634494559E+01  0.77294944980E+01  0.23967646079E+01  0.95461032068E+01  0.51100000000E-03 0. -1.
        -11    1    3    3    0    0 -0.67356746234E+00  0.54117775595E+01 -0.36728348825E+02  0.37131019877E+02  0.51100000000E-03 0.  1.
         12    1    3    3    0    0  0.68805701056E+01 -0.16200929650E+01  0.24796726958E+02  0.25784580936E+02  0.00000000000E+00 0. -1.
</event>
<event>
 7    1  0.3027254E-013  0.7246158E+02  0.7816164E-02  0.1226708E+00
        -11   -1    0    0    0    0  0.00000000000E+00  0.00000000000E+00  0.45593999997E+02  0.45594000000E+02  0.51100000000E-03 0. -1.
         11   -1    0    0    0    0 -0.00000000000E+00 -0.00000000000E+00 -0.45593999997E+02  0.45594000000E+02  0.51100000000E-03 0.  1.
    9900012    2    1    2    0    0 -0.11861541975E+02  0.61144294692E+01 -0.13137597169E+02  0.72461577887E+02  0.70000009891E+02 0.  0.
         12    1    1    2    0    0  0.11861541975E+02 -0.61144294692E+01  0.13137597169E+02  0.18726422113E+02  0.00000000000E+00 0. -1.
         11    1    3    3    0    0  0.25557058111E+02  0.31968465912E+01 -0.23479730306E+01  0.25863024282E+02  0.51100000000E-03 0. -1.
        -11    1    3    3    0    0  0.19274738769E+01  0.33966084027E+01  0.29772188980E+01  0.49107979815E+01  0.51100000000E-03 0.  1.
        -12    1    3    3    0    0 -0.39346073963E+02 -0.47902552477E+00 -0.13766843037E+02  0.41687755624E+02  0.00000000000E+00 0.  1.
</event>
<event>
 7    1  0.3027254E-013  0.7246167E+02  0.7816164E-02  0.1226708E+00
        -11   -1    0    0    0    0  0.00000000000E+00  0.00000000000E+00  0.45593999997E+02  0.45594000000E+02  0.51100000000E-03 0. -1.
         11   -1    0    0    0    0 -0.00000000000E+00 -0.00000000000E+00 -0.45593999997E+02  0.45594000000E+02  0.51100000000E-03 0.  1.
    9900012    2    1    2    0    0 -0.90716539344E+01 -0.76946770825E+01 -0.14462802453E+02  0.72461665193E+02  0.70000123623E+02 0.  0.
         12    1    1    2    0    0  0.90716539344E+01  0.76946770825E+01  0.14462802453E+02  0.18726334807E+02  0.00000000000E+00 0. -1.
         11    1    3    3    0    0 -0.19616768141E+02  0.23184691148E+02  0.31076546942E+01  0.30528757162E+02  0.51100000000E-03 0. -1.
        -11    1    3    3    0    0 -0.21204945383E+01  0.85928717712E+00  0.15607488374E+01  0.27696224895E+01  0.51100000000E-03 0.  1.
        -12    1    3    3    0    0  0.12665608744E+02 -0.31738655408E+02 -0.19131205984E+02  0.39163285541E+02  0.00000000000E+00 0.  1.
</event>
<event>
 7    1  0.3027254E-013  0.7246157E+02  0.7816164E-02  0.1226708E+00
        -11   -1    0    0    0    0  0.00000000000E+00  0.00000000000E+00  0.45593999997E+02  0.45594000000E+02  0.51100000000E-03 0. -1.
         11   -1    0    0    0    0 -0.00000000000E+00 -0.00000000000E+00 -0.45593999997E+02  0.45594000000E+02  0.51100000000E-03 0.  1.
    9900012    2    1    2    0    0 -0.11930611714E+02 -0.13433135858E+02 -0.52811506497E+01  0.72461569827E+02  0.69999999391E+02 0.  0.
         12    1    1    2    0    0  0.11930611714E+02  0.13433135858E+02  0.52811506497E+01  0.18726430173E+02  0.00000000000E+00 0. -1.
         11    1    3    3    0    0 -0.24770886980E+02 -0.17966312131E+02 -0.59055941319E+01  0.31165064666E+02  0.51100000000E-03 0. -1.
        -11    1    3    3    0    0  0.94884719577E+01  0.34991109516E+01 -0.18912795358E+02  0.21446881033E+02  0.51100000000E-03 0.  1.
        -12    1    3    3    0    0  0.33518033086E+01  0.10340653214E+01  0.19537238840E+02  0.19849624128E+02  0.00000000000E+00 0.  1.
</event>
<event>
 7    1  0.3027254E-013  0.7246155E+02  0.7816164E-02  0.1226708E+00
        -11   -1    0    0    0    0  0.00000000000E+00  0.00000000000E+00  0.45593999997E+02  0.45594000000E+02  0.51100000000E-03 0. -1.
         11   -1    0    0    0    0 -0.00000000000E+00 -0.00000000000E+00 -0.45593999997E+02  0.45594000000E+02  0.51100000000E-03 0.  1.
    9900012    2    1    2    0    0  0.16591633074E+02  0.20362483896E+01  0.84410478973E+01  0.72461551187E+02  0.69999975109E+02 0.  0.
         12    1    1    2    0    0 -0.16591633074E+02 -0.20362483896E+01 -0.84410478973E+01  0.18726448813E+02  0.00000000000E+00 0. -1.
         11    1    3    3    0    0 -0.19739720087E+01  0.14660169163E+02  0.23361051570E+02  0.27650603178E+02  0.51100000000E-03 0. -1.
        -11    1    3    3    0    0 -0.60822853159E+01  0.34026355306E+01  0.56145448722E+01  0.89495942702E+01  0.51100000000E-03 0.  1.
        -12    1    3    3    0    0  0.24647890398E+02 -0.16026556304E+02 -0.20534548545E+02  0.35861353739E+02  0.00000000000E+00 0.  1.
</event>
<event>
 7    1  0.3027254E-013  0.7246156E+02  0.7816164E-02  0.1226708E+00
        -11   -1    0    0    0    0  0.00000000000E+00  0.00000000000E+00  0.45593999997E+02  0.45594000000E+02  0.51100000000E-03 0. -1.
         11   -1    0    0    0    0 -0.00000000000E+00 -0.00000000000E+00 -0.45593999997E+02  0.45594000000E+02  0.51100000000E-03 0.  1.
    9900012    2    1    2    0    0 -0.99782607130E+01  0.60573031591E+00  0.15834987252E+02  0.72461563678E+02  0.69999991381E+02 0.  0.
         12    1    1    2    0    0  0.99782607130E+01 -0.60573031591E+00 -0.15834987252E+02  0.18726436322E+02  0.00000000000E+00 0. -1.
         11    1    3    3    0    0  0.22361667097E+00  0.10373858072E+02  0.92498493853E+01  0.13900598894E+02  0.51100000000E-03 0. -1.
        -11    1    3    3    0    0 -0.56895157062E+01  0.21743534080E+02 -0.75788086757E+01  0.23718984052E+02  0.51100000000E-03 0.  1.
         12    1    3    3    0    0 -0.45123616777E+01 -0.31511661836E+02  0.14163946542E+02  0.34841980731E+02  0.00000000000E+00 0. -1.
</event>
<event>
 7    1  0.3027254E-013  0.7246174E+02  0.7816164E-02  0.1226708E+00
        -11   -1    0    0    0    0  0.00000000000E+00  0.00000000000E+00  0.45593999997E+02  0.45594000000E+02  0.51100000000E-03 0.  1.
         11   -1    0    0    0    0 -0.00000000000E+00 -0.00000000000E+00 -0.45593999997E+02  0.45594000000E+02  0.51100000000E-03 0. -1.
    9900012    2    1    2    0    0  0.16972333138E+01 -0.47314168916E+01  0.18039009342E+02  0.72461741304E+02  0.70000222771E+02 0.  0.
         12    1    1    2    0    0 -0.16972333138E+01  0.47314168916E+01 -0.18039009342E+02  0.18726258696E+02  0.00000000000E+00 0. -1.
         11    1    3    3    0    0  0.27604605808E+01  0.18514780346E+01  0.12192493362E+02  0.12637444686E+02  0.51100000000E-03 0. -1.
        -11    1    3    3    0    0  0.18821923983E+02  0.86402829056E+01  0.21849072666E+02  0.30104838278E+02  0.51100000000E-03 0.  1.
         12    1    3    3    0    0 -0.19885151250E+02 -0.15223177832E+02 -0.16002556686E+02  0.29719458340E+02  0.00000000000E+00 0. -1.
</event>
<event>
 7    1  0.3027254E-013  0.7246157E+02  0.7816164E-02  0.1226708E+00
        -11   -1    0    0    0    0  0.00000000000E+00  0.00000000000E+00  0.45593999997E+02  0.45594000000E+02  0.51100000000E-03 0.  1.
         11   -1    0    0    0    0 -0.00000000000E+00 -0.00000000000E+00 -0.45593999997E+02  0.45594000000E+02  0.51100000000E-03 0. -1.
    9900012    2    1    2    0    0  0.17677888539E+02  0.59299733553E+01 -0.17340091496E+01  0.72461571752E+02  0.70000001899E+02 0.  0.
         12    1    1    2    0    0 -0.17677888539E+02 -0.59299733553E+01  0.17340091496E+01  0.18726428248E+02  0.00000000000E+00 0. -1.
         11    1    3    3    0    0 -0.67462973421E+00 -0.46353956450E+01  0.33298976907E+01  0.57471938331E+01  0.51100000000E-03 0. -1.
        -11    1    3    3    0    0  0.32645055110E+02 -0.54740205539E+01  0.15878544598E+02  0.36712296345E+02  0.51100000000E-03 0.  1.
         12    1    3    3    0    0 -0.14292536837E+02  0.16039389554E+02 -0.20942451439E+02  0.30002081574E+02  0.00000000000E+00 0. -1.
</event>
<event>
 7    1  0.3027254E-013  0.7246154E+02  0.7816164E-02  0.1226708E+00
        -11   -1    0    0    0    0  0.00000000000E+00  0.00000000000E+00  0.45593999997E+02  0.45594000000E+02  0.51100000000E-03 0. -1.
         11   -1    0    0    0    0 -0.00000000000E+00 -0.00000000000E+00 -0.45593999997E+02  0.45594000000E+02  0.51100000000E-03 0.  1.
    9900012    2    1    2    0    0 -0.15156050809E+02 -0.68499562401E+01 -0.86053690489E+01  0.72461544033E+02  0.69999965789E+02 0.  0.
         12    1    1    2    0    0  0.15156050809E+02  0.68499562401E+01  0.86053690489E+01  0.18726455967E+02  0.00000000000E+00 0. -1.
         11    1    3    3    0    0 -0.26718175339E+02  0.32167055624E+01 -0.76408928993E+01  0.27974833917E+02  0.51100000000E-03 0.  1.
        -11    1    3    3    0    0  0.12915525967E+01 -0.64736909814E+01 -0.20822070813E+02  0.21843429590E+02  0.51100000000E-03 0. -1.
         12    1    3    3    0    0  0.10270571933E+02 -0.35929708210E+01  0.19857594664E+02  0.22643280526E+02  0.00000000000E+00 0. -1.
</event>
<event>
 7    1  0.3027254E-013  0.7246157E+02  0.7816164E-02  0.1226708E+00
        -11   -1    0    0    0    0  0.00000000000E+00  0.00000000000E+00  0.45593999997E+02  0.45594000000E+02  0.51100000000E-03 0.  1.
         11   -1    0    0    0    0 -0.00000000000E+00 -0.00000000000E+00 -0.45593999997E+02  0.45594000000E+02  0.51100000000E-03 0. -1.
    9900012    2    1    2    0    0  0.25094485093E+01  0.41055405557E+01  0.18097691173E+02  0.72461568924E+02  0.69999998214E+02 0.  0.
         12    1    1    2    0    0 -0.25094485093E+01 -0.41055405557E+01 -0.18097691173E+02  0.18726431076E+02  0.00000000000E+00 0. -1.
         11    1    3    3    0    0 -0.26499227408E+02 -0.13477559031E+02  0.19920598292E+02  0.35786643978E+02  0.51100000000E-03 0. -1.
        -11    1    3    3    0    0  0.47339201330E+01 -0.22876694300E+01 -0.15153789074E+00  0.52598854779E+01  0.51100000000E-03 0.  1.
        -12    1    3    3    0    0  0.24274755784E+02  0.19870769016E+02 -0.16713692282E+01  0.31415039468E+02  0.00000000000E+00 0.  1.
</event>
<event>
 7    1  0.3027254E-013  0.7246158E+02  0.7816164E-02  0.1226708E+00
        -11   -1    0    0    0    0  0.00000000000E+00  0.00000000000E+00  0.45593999997E+02  0.45594000000E+02  0.51100000000E-03 0. -1.
         11   -1    0    0    0    0 -0.00000000000E+00 -0.00000000000E+00 -0.45593999997E+02  0.45594000000E+02  0.51100000000E-03 0.  1.
    9900012    2    1    2    0    0 -0.43197794663E+01  0.18215668000E+02 -0.45586781352E+00  0.72461578271E+02  0.70000010391E+02 0.  0.
         12    1    1    2    0    0  0.43197794663E+01 -0.18215668000E+02  0.45586781352E+00  0.18726421729E+02  0.00000000000E+00 0. -1.
         11    1    3    3    0    0 -0.41725378506E+01 -0.15121229260E+02 -0.64289787401E+01  0.16952681627E+02  0.51100000000E-03 0. -1.
        -11    1    3    3    0    0 -0.24938378300E-01 -0.80386173168E+01 -0.84770432348E+01  0.11682476302E+02  0.51100000000E-03 0.  1.
         12    1    3    3    0    0 -0.12230323739E+00  0.41375514577E+02  0.14450154161E+02  0.43826420341E+02  0.00000000000E+00 0. -1.
</event>
<event>
 7    1  0.3027254E-013  0.7246158E+02  0.7816164E-02  0.1226708E+00
        -11   -1    0    0    0    0  0.00000000000E+00  0.00000000000E+00  0.45593999997E+02  0.45594000000E+02  0.51100000000E-03 0.  1.
         11   -1    0    0    0    0 -0.00000000000E+00 -0.00000000000E+00 -0.45593999997E+02  0.45594000000E+02  0.51100000000E-03 0. -1.
    9900012    2    1    2    0    0  0.17204517787E+02 -0.73881261392E+01  0.31455007719E+00  0.72461580644E+02  0.70000013483E+02 0.  0.
         12    1    1    2    0    0 -0.17204517787E+02  0.73881261392E+01 -0.31455007719E+00  0.18726419356E+02  0.00000000000E+00 0. -1.
         11    1    3    3    0    0 -0.50861209722E+01  0.28078680048E+01  0.17719346654E+01  0.60739198214E+01  0.51100000000E-03 0. -1.
        -11    1    3    3    0    0 -0.67147859359E+01  0.14967863030E+02  0.17136488431E+02  0.23723079687E+02  0.51100000000E-03 0.  1.
         12    1    3    3    0    0  0.29005424695E+02 -0.25163857174E+02 -0.18593873019E+02  0.42664581136E+02  0.00000000000E+00 0. -1.
</event>
<event>
 7    1  0.3027254E-013  0.7246158E+02  0.7816164E-02  0.1226708E+00
        -11   -1    0    0    0    0  0.00000000000E+00  0.00000000000E+00  0.45593999997E+02  0.45594000000E+02  0.51100000000E-03 0.  1.
         11   -1    0    0    0    0 -0.00000000000E+00 -0.00000000000E+00 -0.45593999997E+02  0.45594000000E+02  0.51100000000E-03 0. -1.
    9900012    2    1    2    0    0  0.18898036977E+01  0.22197220658E+00  0.18629495407E+02  0.72461582062E+02  0.70000015329E+02 0.  0.
         12    1    1    2    0    0 -0.18898036977E+01 -0.22197220658E+00 -0.18629495407E+02  0.18726417938E+02  0.00000000000E+00 0. -1.
         11    1    3    3    0    0  0.29409961160E+02  0.74696116422E+01 -0.27837039250E+01  0.30471132591E+02  0.51100000000E-03 0. -1.
        -11    1    3    3    0    0 -0.10654208227E+01 -0.21232746846E+01 -0.41922433689E+01  0.48185393680E+01  0.51100000000E-03 0.  1.
        -12    1    3    3    0    0 -0.26454736640E+02 -0.51243647510E+01  0.25605442701E+02  0.37171910103E+02  0.00000000000E+00 0.  1.
</event>
<event>
 7    1  0.3027254E-013  0.7246151E+02  0.7816164E-02  0.1226708E+00
        -11   -1    0    0    0    0  0.00000000000E+00  0.00000000000E+00  0.45593999997E+02  0.45594000000E+02  0.51100000000E-03 0. -1.
         11   -1    0    0    0    0 -0.00000000000E+00 -0.00000000000E+00 -0.45593999997E+02  0.45594000000E+02  0.51100000000E-03 0.  1.
    9900012    2    1    2    0    0  0.62572280455E+01 -0.36880783199E+01 -0.17260550467E+02  0.72461510021E+02  0.69999921482E+02 0.  0.
         12    1    1    2    0    0 -0.62572280455E+01  0.36880783199E+01  0.17260550467E+02  0.18726489979E+02  0.00000000000E+00 0. -1.
         11    1    3    3    0    0  0.56634931095E+01 -0.17886375084E+02  0.69538188229E+01  0.20008827161E+02  0.51100000000E-03 0. -1.
        -11    1    3    3    0    0 -0.25928403355E+01 -0.71763398150E+01 -0.29278455499E+02  0.30256414705E+02  0.51100000000E-03 0.  1.
         12    1    3    3    0    0  0.31865752715E+01  0.21374636579E+02  0.50640862090E+01  0.22196268155E+02  0.00000000000E+00 0. -1.
</event>
<event>
 7    1  0.3027254E-013  0.7246158E+02  0.7816164E-02  0.1226708E+00
        -11   -1    0    0    0    0  0.00000000000E+00  0.00000000000E+00  0.45593999997E+02  0.45594000000E+02  0.51100000000E-03 0.  1.
         11   -1    0    0    0    0 -0.00000000000E+00 -0.00000000000E+00 -0.45593999997E+02  0.45594000000E+02  0.51100000000E-03 0. -1.
    9900012    2    1    2    0    0  0.89326178743E+01  0.15643589541E+02  0.51151926069E+01  0.72461581463E+02  0.70000014549E+02 0.  0.
         12    1    1    2    0    0 -0.89326178743E+01 -0.15643589541E+02 -0.51151926069E+01  0.18726418537E+02  0.00000000000E+00 0. -1.
         11    1    3    3    0    0  0.15060508518E+02 -0.11608709036E+02  0.48462215527E+01  0.19623121716E+02  0.51100000000E-03 0. -1.
        -11    1    3    3    0    0 -0.11421681039E+02  0.15852602084E+01  0.17871256410E+02  0.21268513198E+02  0.51100000000E-03 0.  1.
         12    1    3    3    0    0  0.52937903960E+01  0.25667038369E+02 -0.17602285356E+02  0.31569946549E+02  0.00000000000E+00 0. -1.
</event>
<event>
 7    1  0.3027254E-013  0.7246163E+02  0.7816164E-02  0.1226708E+00
        -11   -1    0    0    0    0  0.00000000000E+00  0.00000000000E+00  0.45593999997E+02  0.45594000000E+02  0.51100000000E-03 0.  1.
         11   -1    0    0    0    0 -0.00000000000E+00 -0.00000000000E+00 -0.45593999997E+02  0.45594000000E+02  0.51100000000E-03 0. -1.
    9900012    2    1    2    0    0 -0.87465221124E+01  0.71673169254E+01  0.14926646722E+02  0.72461631870E+02  0.70000080214E+02 0.  0.
         12    1    1    2    0    0  0.87465221124E+01 -0.71673169254E+01 -0.14926646722E+02  0.18726368130E+02  0.00000000000E+00 0. -1.
         11    1    3    3    0    0 -0.28028384066E+02 -0.15722579962E+02  0.61994247431E+00  0.32143026661E+02  0.51100000000E-03 0. -1.
        -11    1    3    3    0    0 -0.44968471585E+01  0.28650311019E+01 -0.13657595908E+01  0.55041200116E+01  0.51100000000E-03 0.  1.
        -12    1    3    3    0    0  0.23778709112E+02  0.20024865785E+02  0.15672463839E+02  0.34814485197E+02  0.00000000000E+00 0.  1.
</event>
<event>
 7    1  0.3332404E-013  0.7246167E+02  0.7816164E-02  0.1226708E+00
        -11   -1    0    0    0    0  0.00000000000E+00  0.00000000000E+00  0.45593999997E+02  0.45594000000E+02  0.51100000000E-03 0. -1.
         11   -1    0    0    0    0 -0.00000000000E+00 -0.00000000000E+00 -0.45593999997E+02  0.45594000000E+02  0.51100000000E-03 0.  1.
    9900012    2    1    2    0    0  0.12450947651E+02  0.69845553020E+00 -0.13970024132E+02  0.72461667957E+02  0.70000127224E+02 0.  0.
         12    1    1    2    0    0 -0.12450947651E+02 -0.69845553020E+00  0.13970024132E+02  0.18726332043E+02  0.00000000000E+00 0. -1.
         11    1    3    3    0    0  0.59258499858E+00  0.39169176246E+01 -0.15855969951E+02  0.16343352899E+02  0.51100000000E-03 0. -1.
        -11    1    3    3    0    0  0.14726381877E+02 -0.20765373779E+02 -0.16661895176E+02  0.30425085415E+02  0.51100000000E-03 0.  1.
         12    1    3    3    0    0 -0.28680192248E+01  0.17546911684E+02  0.18547840995E+02  0.25693229643E+02  0.00000000000E+00 0. -1.
</event>
<event>
 7    1  0.3027254E-013  0.7246151E+02  0.7816164E-02  0.1226708E+00
        -11   -1    0    0    0    0  0.00000000000E+00  0.00000000000E+00  0.45593999997E+02  0.45594000000E+02  0.51100000000E-03 0. -1.
         11   -1    0    0    0    0 -0.00000000000E+00 -0.00000000000E+00 -0.45593999997E+02  0.45594000000E+02  0.51100000000E-03 0.  1.
    9900012    2    1    2    0    0 -0.17184876579E+02 -0.68022711545E+01  0.30150329999E+01  0.72461513413E+02  0.69999925901E+02 0.  0.
         12    1    1    2    0    0  0.17184876579E+02  0.68022711545E+01 -0.30150329999E+01  0.18726486587E+02  0.00000000000E+00 0. -1.
         11    1    3    3    0    0 -0.13128813316E+02 -0.68602756729E+01 -0.13733593616E+02  0.20200017705E+02  0.51100000000E-03 0. -1.
        -11    1    3    3    0    0 -0.68785271226E+01  0.23234353175E+02  0.13008013659E+01  0.24266054218E+02  0.51100000000E-03 0.  1.
         12    1    3    3    0    0  0.28224638595E+01 -0.23176348657E+02  0.15447825250E+02  0.27995441491E+02  0.00000000000E+00 0. -1.
</event>
<event>
 7    1  0.3027254E-013  0.7246155E+02  0.7816164E-02  0.1226708E+00
        -11   -1    0    0    0    0  0.00000000000E+00  0.00000000000E+00  0.45593999997E+02  0.45594000000E+02  0.51100000000E-03 0.  1.
         11   -1    0    0    0    0 -0.00000000000E+00 -0.00000000000E+00 -0.45593999997E+02  0.45594000000E+02  0.51100000000E-03 0. -1.
    9900012    2    1    2    0    0  0.56802391908E+01  0.64139341418E+01  0.16651619230E+02  0.72461545680E+02  0.69999967935E+02 0.  0.
         12    1    1    2    0    0 -0.56802391908E+01 -0.64139341418E+01 -0.16651619230E+02  0.18726454320E+02  0.00000000000E+00 0. -1.
         11    1    3    3    0    0  0.24203441283E+02 -0.16778744623E+02  0.22898541145E+01  0.29539402046E+02  0.51100000000E-03 0. -1.
        -11    1    3    3    0    0 -0.51745748746E+00 -0.39553821529E+01  0.90835571789E+01  0.99208780615E+01  0.51100000000E-03 0.  1.
         12    1    3    3    0    0 -0.18005744605E+02  0.27148060918E+02  0.52782079363E+01  0.33001265573E+02  0.00000000000E+00 0. -1.
</event>
<event>
 7    1  0.3027254E-013  0.7246147E+02  0.7816164E-02  0.1226708E+00
        -11   -1    0    0    0    0  0.00000000000E+00  0.00000000000E+00  0.45593999997E+02  0.45594000000E+02  0.51100000000E-03 0. -1.
         11   -1    0    0    0    0 -0.00000000000E+00 -0.00000000000E+00 -0.45593999997E+02  0.45594000000E+02  0.51100000000E-03 0.  1.
    9900012    2    1    2    0    0  0.87891228014E+01 -0.35522123896E+01 -0.16149798919E+02  0.72461470754E+02  0.69999870330E+02 0.  0.
         12    1    1    2    0    0 -0.87891228014E+01  0.35522123896E+01  0.16149798919E+02  0.18726529246E+02  0.00000000000E+00 0. -1.
         11    1    3    3    0    0 -0.13900906583E+02  0.88037436342E+00  0.40060493150E+01  0.14493401748E+02  0.51100000000E-03 0. -1.
        -11    1    3    3    0    0 -0.71100953284E+01 -0.17838905721E+02  0.67635499730E+00  0.19215552796E+02  0.51100000000E-03 0.  1.
         12    1    3    3    0    0  0.29800124713E+02  0.13406318968E+02 -0.20832203231E+02  0.38752516210E+02  0.00000000000E+00 0. -1.
</event>
<event>
 7    1  0.3027254E-013  0.7246159E+02  0.7816164E-02  0.1226708E+00
        -11   -1    0    0    0    0  0.00000000000E+00  0.00000000000E+00  0.45593999997E+02  0.45594000000E+02  0.51100000000E-03 0.  1.
         11   -1    0    0    0    0 -0.00000000000E+00 -0.00000000000E+00 -0.45593999997E+02  0.45594000000E+02  0.51100000000E-03 0. -1.
    9900012    2    1    2    0    0  0.48154842278E+01 -0.52448413995E+01  0.17319964470E+02  0.72461590336E+02  0.70000026108E+02 0.  0.
         12    1    1    2    0    0 -0.48154842278E+01  0.52448413995E+01 -0.17319964470E+02  0.18726409664E+02  0.00000000000E+00 0. -1.
         11    1    3    3    0    0  0.75284061500E+00  0.78403187743E+01  0.31638496150E+00  0.78827322153E+01  0.51100000000E-03 0. -1.
        -11    1    3    3    0    0  0.66660320571E+01  0.16589277485E+02  0.27665682348E+02  0.32939794944E+02  0.51100000000E-03 0.  1.
         12    1    3    3    0    0 -0.26033884443E+01 -0.29674437659E+02 -0.10662102839E+02  0.31639063177E+02  0.00000000000E+00 0. -1.
</event>
<event>
 7    1  0.3027254E-013  0.7246157E+02  0.7816164E-02  0.1226708E+00
        -11   -1    0    0    0    0  0.00000000000E+00  0.00000000000E+00  0.45593999997E+02  0.45594000000E+02  0.51100000000E-03 0. -1.
         11   -1    0    0    0    0 -0.00000000000E+00 -0.00000000000E+00 -0.45593999997E+02  0.45594000000E+02  0.51100000000E-03 0.  1.
    9900012    2    1    2    0    0  0.60575947645E+01  0.62966968942E+01 -0.16563100317E+02  0.72461571130E+02  0.70000001089E+02 0.  0.
         12    1    1    2    0    0 -0.60575947645E+01 -0.62966968942E+01  0.16563100317E+02  0.18726428870E+02  0.00000000000E+00 0. -1.
         11    1    3    3    0    0 -0.98424554081E+01 -0.16041037550E+01 -0.11963482654E+02  0.15574722944E+02  0.51100000000E-03 0. -1.
        -11    1    3    3    0    0 -0.18524421288E+02  0.38212779420E+01  0.72438840909E+01  0.20254140469E+02  0.51100000000E-03 0.  1.
         12    1    3    3    0    0  0.34424471461E+02  0.40795227072E+01 -0.11843501754E+02  0.36632707717E+02  0.00000000000E+00 0. -1.
</event>
<event>
 7    1  0.3027254E-013  0.7246157E+02  0.7816164E-02  0.1226708E+00
        -11   -1    0    0    0    0  0.00000000000E+00  0.00000000000E+00  0.45593999997E+02  0.45594000000E+02  0.51100000000E-03 0. -1.
         11   -1    0    0    0    0 -0.00000000000E+00 -0.00000000000E+00 -0.45593999997E+02  0.45594000000E+02  0.51100000000E-03 0.  1.
    9900012    2    1    2    0    0 -0.18143066972E+02  0.79147488582E+00 -0.45696508851E+01  0.72461574264E+02  0.70000005171E+02 0.  0.
         12    1    1    2    0    0  0.18143066972E+02 -0.79147488582E+00  0.45696508851E+01  0.18726425736E+02  0.00000000000E+00 0. -1.
         11    1    3    3    0    0 -0.19880032938E+02  0.59358888346E+00 -0.16949753671E+02  0.26131632310E+02  0.51100000000E-03 0. -1.
        -11    1    3    3    0    0 -0.27174758271E+01 -0.15767797142E+02 -0.97073475460E+01  0.18714718759E+02  0.51100000000E-03 0.  1.
         12    1    3    3    0    0  0.44544417936E+01  0.15965683144E+02  0.22087450332E+02  0.27615223196E+02  0.00000000000E+00 0. -1.
</event>
<event>
 7    1  0.3027254E-013  0.7246157E+02  0.7816164E-02  0.1226708E+00
        -11   -1    0    0    0    0  0.00000000000E+00  0.00000000000E+00  0.45593999997E+02  0.45594000000E+02  0.51100000000E-03 0.  1.
         11   -1    0    0    0    0 -0.00000000000E+00 -0.00000000000E+00 -0.45593999997E+02  0.45594000000E+02  0.51100000000E-03 0. -1.
    9900012    2    1    2    0    0  0.21780853041E+01  0.13972803875E+01  0.18546770305E+02  0.72461571167E+02  0.70000001137E+02 0.  0.
         12    1    1    2    0    0 -0.21780853041E+01 -0.13972803875E+01 -0.18546770305E+02  0.18726428833E+02  0.00000000000E+00 0. -1.
         11    1    3    3    0    0 -0.10817624904E+02 -0.25204812886E+02  0.19489256965E+02  0.33647209966E+02  0.51100000000E-03 0. -1.
        -11    1    3    3    0    0  0.11635439512E+02 -0.51968177339E+00 -0.26869067253E+00  0.11650138056E+02  0.51100000000E-03 0.  1.
        -12    1    3    3    0    0  0.13602706962E+01  0.27121775047E+02 -0.67379598732E+00  0.27164223145E+02  0.00000000000E+00 0.  1.
</event>
<event>
 7    1  0.3027254E-013  0.7246155E+02  0.7816164E-02  0.1226708E+00
        -11   -1    0    0    0    0  0.00000000000E+00  0.00000000000E+00  0.45593999997E+02  0.45594000000E+02  0.51100000000E-03 0. -1.
         11   -1    0    0    0    0 -0.00000000000E+00 -0.00000000000E+00 -0.45593999997E+02  0.45594000000E+02  0.51100000000E-03 0.  1.
    9900012    2    1    2    0    0  0.67783941106E+01  0.11051938204E+02 -0.13512512316E+02  0.72461549352E+02  0.69999972719E+02 0.  0.
         12    1    1    2    0    0 -0.67783941106E+01 -0.11051938204E+02  0.13512512316E+02  0.18726450648E+02  0.00000000000E+00 0. -1.
         11    1    3    3    0    0 -0.25711303585E+02 -0.11315795569E+02 -0.25185081673E+01  0.28203922511E+02  0.51100000000E-03 0. -1.
        -11    1    3    3    0    0  0.40684862622E+01  0.65871732190E+01 -0.87328776689E+01  0.11670757650E+02  0.51100000000E-03 0.  1.
        -12    1    3    3    0    0  0.28421211433E+02  0.15780560554E+02 -0.22611264794E+01  0.32586869191E+02  0.00000000000E+00 0.  1.
</event>
<event>
 7    1  0.3027254E-013  0.7246158E+02  0.7816164E-02  0.1226708E+00
        -11   -1    0    0    0    0  0.00000000000E+00  0.00000000000E+00  0.45593999997E+02  0.45594000000E+02  0.51100000000E-03 0. -1.
         11   -1    0    0    0    0 -0.00000000000E+00 -0.00000000000E+00 -0.45593999997E+02  0.45594000000E+02  0.51100000000E-03 0.  1.
    9900012    2    1    2    0    0  0.18215342947E+02 -0.19492469679E+01 -0.38833674015E+01  0.72461579498E+02  0.70000011990E+02 0.  0.
         12    1    1    2    0    0 -0.18215342947E+02  0.19492469679E+01  0.38833674015E+01  0.18726420502E+02  0.00000000000E+00 0. -1.
         11    1    3    3    0    0 -0.52648861738E+01 -0.85602723079E+01 -0.50029154448E+01  0.11226150347E+02  0.51100000000E-03 0. -1.
        -11    1    3    3    0    0 -0.21854596738E+01  0.75805208291E+01 -0.24028046169E+02  0.25290067872E+02  0.51100000000E-03 0.  1.
         12    1    3    3    0    0  0.25665688795E+02 -0.96949548902E+00  0.25147594212E+02  0.35945361279E+02  0.00000000000E+00 0. -1.
</event>
<event>
 7    1  0.3027254E-013  0.7246153E+02  0.7816164E-02  0.1226708E+00
        -11   -1    0    0    0    0  0.00000000000E+00  0.00000000000E+00  0.45593999997E+02  0.45594000000E+02  0.51100000000E-03 0.  1.
         11   -1    0    0    0    0 -0.00000000000E+00 -0.00000000000E+00 -0.45593999997E+02  0.45594000000E+02  0.51100000000E-03 0. -1.
    9900012    2    1    2    0    0 -0.14040211875E+02  0.14215254228E+00  0.12390840243E+02  0.72461529997E+02  0.69999947505E+02 0.  0.
         12    1    1    2    0    0  0.14040211875E+02 -0.14215254228E+00 -0.12390840243E+02  0.18726470003E+02  0.00000000000E+00 0. -1.
         11    1    3    3    0    0 -0.16341789396E+02  0.19900830447E+02 -0.55978467564E+01  0.26352097103E+02  0.51100000000E-03 0. -1.
        -11    1    3    3    0    0 -0.16676433836E+02 -0.26706384902E+01  0.80009445283E+01  0.18688254842E+02  0.51100000000E-03 0.  1.
         12    1    3    3    0    0  0.18978011357E+02 -0.17088039414E+02  0.99877424709E+01  0.27421178052E+02  0.00000000000E+00 0. -1.
</event>
<event>
 7    1  0.3027254E-013  0.7246148E+02  0.7816164E-02  0.1226708E+00
        -11   -1    0    0    0    0  0.00000000000E+00  0.00000000000E+00  0.45593999997E+02  0.45594000000E+02  0.51100000000E-03 0.  1.
         11   -1    0    0    0    0 -0.00000000000E+00 -0.00000000000E+00 -0.45593999997E+02  0.45594000000E+02  0.51100000000E-03 0. -1.
    9900012    2    1    2    0    0 -0.59215544892E+01  0.68646655786E+01  0.16385785063E+02  0.72461484221E+02  0.69999887873E+02 0.  0.
         12    1    1    2    0    0  0.59215544892E+01 -0.68646655786E+01 -0.16385785063E+02  0.18726515779E+02  0.00000000000E+00 0. -1.
         11    1    3    3    0    0  0.66508418422E+01  0.69574659989E+01  0.28211041112E+01  0.10029888285E+02  0.51100000000E-03 0. -1.
        -11    1    3    3    0    0  0.16692307073E+02  0.11335345145E+02  0.22050362488E+02  0.29888821507E+02  0.51100000000E-03 0.  1.
         12    1    3    3    0    0 -0.29264703404E+02 -0.11428145565E+02 -0.84856815360E+01  0.32542774429E+02  0.00000000000E+00 0. -1.
</event>
<event>
 7    1  0.3027254E-013  0.7246161E+02  0.7816164E-02  0.1226708E+00
        -11   -1    0    0    0    0  0.00000000000E+00  0.00000000000E+00  0.45593999997E+02  0.45594000000E+02  0.51100000000E-03 0. -1.
         11   -1    0    0    0    0 -0.00000000000E+00 -0.00000000000E+00 -0.45593999997E+02  0.45594000000E+02  0.51100000000E-03 0.  1.
    9900012    2    1    2    0    0 -0.13462011337E+02 -0.60949521945E+01 -0.11502324758E+02  0.72461610430E+02  0.70000052284E+02 0.  0.
         12    1    1    2    0    0  0.13462011337E+02  0.60949521945E+01  0.11502324758E+02  0.18726389570E+02  0.00000000000E+00 0. -1.
         11    1    3    3    0    0 -0.18223606125E+02 -0.16052077506E+01  0.83006559027E+01  0.20089235943E+02  0.51100000000E-03 0. -1.
        -11    1    3    3    0    0 -0.14557959543E+02  0.14924089740E+02 -0.11187379068E+02  0.23660517562E+02  0.51100000000E-03 0.  1.
         12    1    3    3    0    0  0.19319554330E+02 -0.19413834184E+02 -0.86156015922E+01  0.28711856925E+02  0.00000000000E+00 0. -1.
</event>
<event>
 7    1  0.3027254E-013  0.7246160E+02  0.7816164E-02  0.1226708E+00
        -11   -1    0    0    0    0  0.00000000000E+00  0.00000000000E+00  0.45593999997E+02  0.45594000000E+02  0.51100000000E-03 0.  1.
         11   -1    0    0    0    0 -0.00000000000E+00 -0.00000000000E+00 -0.45593999997E+02  0.45594000000E+02  0.51100000000E-03 0. -1.
    9900012    2    1    2    0    0  0.16319606156E+02 -0.32812021332E+01  0.85780149137E+01  0.72461596918E+02  0.70000034682E+02 0.  0.
         12    1    1    2    0    0 -0.16319606156E+02  0.32812021332E+01 -0.85780149137E+01  0.18726403082E+02  0.00000000000E+00 0. -1.
         11    1    3    3    0    0  0.84104943787E+00  0.21422520215E+02 -0.74957356728E+01  0.22711622357E+02  0.51100000000E-03 0.  1.
        -11    1    3    3    0    0  0.21197214963E+02 -0.39414417096E+01 -0.19757370229E+01  0.21650875778E+02  0.51100000000E-03 0. -1.
        -12    1    3    3    0    0 -0.57186582443E+01 -0.20762280639E+02  0.18049487609E+02  0.28099098783E+02  0.00000000000E+00 0.  1.
</event>
<event>
 7    1  0.3027254E-013  0.7246142E+02  0.7816164E-02  0.1226708E+00
        -11   -1    0    0    0    0  0.00000000000E+00  0.00000000000E+00  0.45593999997E+02  0.45594000000E+02  0.51100000000E-03 0. -1.
         11   -1    0    0    0    0 -0.00000000000E+00 -0.00000000000E+00 -0.45593999997E+02  0.45594000000E+02  0.51100000000E-03 0.  1.
    9900012    2    1    2    0    0 -0.16915543031E+02  0.80329399644E+01 -0.14472056305E+00  0.72461423576E+02  0.69999808872E+02 0.  0.
         12    1    1    2    0    0  0.16915543031E+02 -0.80329399644E+01  0.14472056305E+00  0.18726576424E+02  0.00000000000E+00 0. -1.
         11    1    3    3    0    0 -0.92816397431E+01 -0.14638589060E+02  0.70933168754E+01  0.18728381418E+02  0.51100000000E-03 0. -1.
        -11    1    3    3    0    0 -0.18742144430E+01 -0.34479288966E+01 -0.22566439709E+02  0.22905132501E+02  0.51100000000E-03 0.  1.
        -12    1    3    3    0    0 -0.57596888453E+01  0.26119457921E+02  0.15328402271E+02  0.30827909657E+02  0.00000000000E+00 0.  1.
</event>
<event>
 7    1  0.3027254E-013  0.7246160E+02  0.7816164E-02  0.1226708E+00
        -11   -1    0    0    0    0  0.00000000000E+00  0.00000000000E+00  0.45593999997E+02  0.45594000000E+02  0.51100000000E-03 0.  1.
         11   -1    0    0    0    0 -0.00000000000E+00 -0.00000000000E+00 -0.45593999997E+02  0.45594000000E+02  0.51100000000E-03 0. -1.
    9900012    2    1    2    0    0 -0.12140211903E+02 -0.12660095484E+02 -0.65585983251E+01  0.72461602196E+02  0.70000041557E+02 0.  0.
         12    1    1    2    0    0  0.12140211903E+02  0.12660095484E+02  0.65585983251E+01  0.18726397804E+02  0.00000000000E+00 0. -1.
         11    1    3    3    0    0  0.28672177467E+01  0.25024113880E+01 -0.16006515979E+02  0.16452706598E+02  0.51100000000E-03 0. -1.
        -11    1    3    3    0    0  0.78029999675E+01 -0.69128300959E+01 -0.17113322242E+02  0.20038458694E+02  0.51100000000E-03 0.  1.
        -12    1    3    3    0    0 -0.22810429618E+02 -0.82496767765E+01  0.26561239895E+02  0.35970436904E+02  0.00000000000E+00 0.  1.
</event>
<event>
 7    1  0.3027254E-013  0.7246170E+02  0.7816164E-02  0.1226708E+00
        -11   -1    0    0    0    0  0.00000000000E+00  0.00000000000E+00  0.45593999997E+02  0.45594000000E+02  0.51100000000E-03 0.  1.
         11   -1    0    0    0    0 -0.00000000000E+00 -0.00000000000E+00 -0.45593999997E+02  0.45594000000E+02  0.51100000000E-03 0. -1.
    9900012    2    1    2    0    0 -0.39549915336E+01  0.15887305113E+02  0.90898862515E+01  0.72461696204E+02  0.70000164021E+02 0.  0.
         12    1    1    2    0    0  0.39549915336E+01 -0.15887305113E+02 -0.90898862515E+01  0.18726303796E+02  0.00000000000E+00 0. -1.
         11    1    3    3    0    0  0.96871903254E+01 -0.85766963999E+01 -0.10784460269E+02  0.16843573288E+02  0.51100000000E-03 0. -1.
        -11    1    3    3    0    0  0.12779529389E+02  0.36729854612E+01  0.17409911951E+02  0.21906899096E+02  0.51100000000E-03 0.  1.
         12    1    3    3    0    0 -0.26421711248E+02  0.20791016052E+02  0.24644345694E+01  0.33711223821E+02  0.00000000000E+00 0. -1.
</event>
<event>
 7    1  0.3027254E-013  0.7246145E+02  0.7816164E-02  0.1226708E+00
        -11   -1    0    0    0    0  0.00000000000E+00  0.00000000000E+00  0.45593999997E+02  0.45594000000E+02  0.51100000000E-03 0. -1.
         11   -1    0    0    0    0 -0.00000000000E+00 -0.00000000000E+00 -0.45593999997E+02  0.45594000000E+02  0.51100000000E-03 0.  1.
    9900012    2    1    2    0    0 -0.18350160059E+02  0.19477390363E+00 -0.37305759026E+01  0.72461454466E+02  0.69999849112E+02 0.  0.
         12    1    1    2    0    0  0.18350160059E+02 -0.19477390363E+00  0.37305759026E+01  0.18726545534E+02  0.00000000000E+00 0. -1.
         11    1    3    3    0    0 -0.40620265915E+01  0.44179867562E-01  0.10979298424E+01  0.42080235373E+01  0.51100000000E-03 0. -1.
        -11    1    3    3    0    0 -0.32070900204E+02  0.13451834993E+02  0.15565960791E+02  0.38102409900E+02  0.51100000000E-03 0.  1.
         12    1    3    3    0    0  0.17782766736E+02 -0.13301240956E+02 -0.20394466536E+02  0.30151021029E+02  0.00000000000E+00 0. -1.
</event>
<event>
 7    1  0.3027254E-013  0.7246163E+02  0.7816164E-02  0.1226708E+00
        -11   -1    0    0    0    0  0.00000000000E+00  0.00000000000E+00  0.45593999997E+02  0.45594000000E+02  0.51100000000E-03 0. -1.
         11   -1    0    0    0    0 -0.00000000000E+00 -0.00000000000E+00 -0.45593999997E+02  0.45594000000E+02  0.51100000000E-03 0.  1.
    9900012    2    1    2    0    0 -0.16660654028E+02 -0.65155812028E+01 -0.55359405650E+01  0.72461632787E+02  0.70000081408E+02 0.  0.
         12    1    1    2    0    0  0.16660654028E+02  0.65155812028E+01  0.55359405650E+01  0.18726367213E+02  0.00000000000E+00 0. -1.
         11    1    3    3    0    0 -0.44694043706E+01  0.15718574983E+02  0.59897972999E+01  0.17404793790E+02  0.51100000000E-03 0. -1.
        -11    1    3    3    0    0 -0.90225896158E+01 -0.51028014513E+01 -0.28747769426E+02  0.30559449492E+02  0.51100000000E-03 0.  1.
         12    1    3    3    0    0 -0.31686600421E+01 -0.17131354734E+02  0.17222031561E+02  0.24497389505E+02  0.00000000000E+00 0. -1.
</event>
<event>
 7    1  0.3027254E-013  0.7246157E+02  0.7816164E-02  0.1226708E+00
        -11   -1    0    0    0    0  0.00000000000E+00  0.00000000000E+00  0.45593999997E+02  0.45594000000E+02  0.51100000000E-03 0. -1.
         11   -1    0    0    0    0 -0.00000000000E+00 -0.00000000000E+00 -0.45593999997E+02  0.45594000000E+02  0.51100000000E-03 0.  1.
    9900012    2    1    2    0    0 -0.50525858222E+01  0.14205606647E+01 -0.17975885437E+02  0.72461572862E+02  0.70000003345E+02 0.  0.
         12    1    1    2    0    0  0.50525858222E+01 -0.14205606647E+01  0.17975885437E+02  0.18726427138E+02  0.00000000000E+00 0. -1.
         11    1    3    3    0    0  0.17264586631E+02 -0.17745622716E+02 -0.21216332532E+02  0.32605303916E+02  0.51100000000E-03 0. -1.
        -11    1    3    3    0    0  0.56768870035E+01  0.40859616787E+01  0.39851367530E+01  0.80500586390E+01  0.51100000000E-03 0.  1.
        -12    1    3    3    0    0 -0.27994059456E+02  0.15080221702E+02 -0.74468965829E+00  0.31806210307E+02  0.00000000000E+00 0.  1.
</event>
<event>
 7    1  0.3027254E-013  0.7246153E+02  0.7816164E-02  0.1226708E+00
        -11   -1    0    0    0    0  0.00000000000E+00  0.00000000000E+00  0.45593999997E+02  0.45594000000E+02  0.51100000000E-03 0.  1.
         11   -1    0    0    0    0 -0.00000000000E+00 -0.00000000000E+00 -0.45593999997E+02  0.45594000000E+02  0.51100000000E-03 0. -1.
    9900012    2    1    2    0    0  0.33696631693E+01  0.28655425167E+01 -0.18196557755E+02  0.72461530020E+02  0.69999947535E+02 0.  0.
         12    1    1    2    0    0 -0.33696631693E+01 -0.28655425167E+01  0.18196557755E+02  0.18726469980E+02  0.00000000000E+00 0. -1.
         11    1    3    3    0    0  0.77221522816E+01 -0.35450895232E+01 -0.23232681778E+01  0.88089086086E+01  0.51100000000E-03 0. -1.
        -11    1    3    3    0    0  0.26700713572E+02 -0.70882666111E+01 -0.93855439101E+01  0.29176361383E+02  0.51100000000E-03 0.  1.
        -12    1    3    3    0    0 -0.31053202684E+02  0.13498898651E+02 -0.64877456669E+01  0.34476260029E+02  0.00000000000E+00 0.  1.
</event>
<event>
 7    1  0.3027254E-013  0.7246161E+02  0.7816164E-02  0.1226708E+00
        -11   -1    0    0    0    0  0.00000000000E+00  0.00000000000E+00  0.45593999997E+02  0.45594000000E+02  0.51100000000E-03 0.  1.
         11   -1    0    0    0    0 -0.00000000000E+00 -0.00000000000E+00 -0.45593999997E+02  0.45594000000E+02  0.51100000000E-03 0. -1.
    9900012    2    1    2    0    0 -0.15654137831E+02  0.67197563696E+01  0.77762733115E+01  0.72461612641E+02  0.70000055165E+02 0.  0.
         12    1    1    2    0    0  0.15654137831E+02 -0.67197563696E+01 -0.77762733115E+01  0.18726387359E+02  0.00000000000E+00 0. -1.
         11    1    3    3    0    0 -0.22948989604E+02  0.17544345090E+01  0.16484495749E+02  0.28310294323E+02  0.51100000000E-03 0. -1.
        -11    1    3    3    0    0 -0.14067305611E+02 -0.96461696043E+01 -0.74673753089E+00  0.17073233215E+02  0.51100000000E-03 0.  1.
         12    1    3    3    0    0  0.21362157385E+02  0.14611491465E+02 -0.79614849070E+01  0.27078085104E+02  0.00000000000E+00 0. -1.
</event>
<event>
 7    1  0.3027254E-013  0.7246164E+02  0.7816164E-02  0.1226708E+00
        -11   -1    0    0    0    0  0.00000000000E+00  0.00000000000E+00  0.45593999997E+02  0.45594000000E+02  0.51100000000E-03 0.  1.
         11   -1    0    0    0    0 -0.00000000000E+00 -0.00000000000E+00 -0.45593999997E+02  0.45594000000E+02  0.51100000000E-03 0. -1.
    9900012    2    1    2    0    0 -0.13360150846E+02 -0.13092965605E+02 -0.87019376853E+00  0.72461638470E+02  0.70000088811E+02 0.  0.
         12    1    1    2    0    0  0.13360150846E+02  0.13092965605E+02  0.87019376853E+00  0.18726361530E+02  0.00000000000E+00 0. -1.
         11    1    3    3    0    0 -0.75150317888E+01  0.62530730620E+01 -0.24336852535E+02  0.26227066498E+02  0.51100000000E-03 0. -1.
        -11    1    3    3    0    0 -0.19401604332E+02 -0.68598647391E+01  0.17033274220E+02  0.26713525148E+02  0.51100000000E-03 0.  1.
        -12    1    3    3    0    0  0.13556485275E+02 -0.12486173928E+02  0.64333845466E+01  0.19521046824E+02  0.00000000000E+00 0.  1.
</event>
<event>
 7    1  0.3027254E-013  0.7246154E+02  0.7816164E-02  0.1226708E+00
        -11   -1    0    0    0    0  0.00000000000E+00  0.00000000000E+00  0.45593999997E+02  0.45594000000E+02  0.51100000000E-03 0.  1.
         11   -1    0    0    0    0 -0.00000000000E+00 -0.00000000000E+00 -0.45593999997E+02  0.45594000000E+02  0.51100000000E-03 0. -1.
    9900012    2    1    2    0    0  0.25873768972E+01 -0.60802599592E+01  0.17521878137E+02  0.72461540275E+02  0.69999960894E+02 0.  0.
         12    1    1    2    0    0 -0.25873768972E+01  0.60802599592E+01 -0.17521878137E+02  0.18726459725E+02  0.00000000000E+00 0. -1.
         11    1    3    3    0    0  0.32355876594E+01 -0.16993039724E+02 -0.20163824171E+02  0.26567126906E+02  0.51100000000E-03 0. -1.
        -11    1    3    3    0    0  0.56094483198E+00 -0.13428123254E+01 -0.30276666565E+01  0.33592513585E+01  0.51100000000E-03 0.  1.
        -12    1    3    3    0    0 -0.12091555942E+01  0.12255592090E+02  0.40713368965E+02  0.42535162010E+02  0.00000000000E+00 0.  1.
</event>
<event>
 7    1  0.3027254E-013  0.7246161E+02  0.7816164E-02  0.1226708E+00
        -11   -1    0    0    0    0  0.00000000000E+00  0.00000000000E+00  0.45593999997E+02  0.45594000000E+02  0.51100000000E-03 0.  1.
         11   -1    0    0    0    0 -0.00000000000E+00 -0.00000000000E+00 -0.45593999997E+02  0.45594000000E+02  0.51100000000E-03 0. -1.
    9900012    2    1    2    0    0 -0.13874611189E+02  0.80494992980E+01 -0.96632542880E+01  0.72461607982E+02  0.70000049095E+02 0.  0.
         12    1    1    2    0    0  0.13874611189E+02 -0.80494992980E+01  0.96632542880E+01  0.18726392018E+02  0.00000000000E+00 0. -1.
         11    1    3    3    0    0 -0.13391848824E+02  0.95488824780E+01 -0.14893542668E+02  0.22188744556E+02  0.51100000000E-03 0.  1.
        -11    1    3    3    0    0 -0.10082058809E+02  0.14757387867E+02 -0.14463282336E+02  0.22991627665E+02  0.51100000000E-03 0. -1.
        -12    1    3    3    0    0  0.95992964446E+01 -0.16256771047E+02  0.19693570716E+02  0.27281235761E+02  0.00000000000E+00 0.  1.
</event>
<event>
 7    1  0.3027254E-013  0.7246156E+02  0.7816164E-02  0.1226708E+00
        -11   -1    0    0    0    0  0.00000000000E+00  0.00000000000E+00  0.45593999997E+02  0.45594000000E+02  0.51100000000E-03 0.  1.
         11   -1    0    0    0    0 -0.00000000000E+00 -0.00000000000E+00 -0.45593999997E+02  0.45594000000E+02  0.51100000000E-03 0. -1.
    9900012    2    1    2    0    0 -0.12619313270E+02  0.10689793452E+02 -0.87841138628E+01  0.72461563932E+02  0.69999991712E+02 0.  0.
         12    1    1    2    0    0  0.12619313270E+02 -0.10689793452E+02  0.87841138628E+01  0.18726436068E+02  0.00000000000E+00 0. -1.
         11    1    3    3    0    0  0.21194896731E+01  0.35990938771E+02 -0.33308967456E+00  0.36054831286E+02  0.51100000000E-03 0. -1.
        -11    1    3    3    0    0 -0.43611087875E+00 -0.98865253763E+01 -0.11485591449E+02  0.15160883481E+02  0.51100000000E-03 0.  1.
        -12    1    3    3    0    0 -0.14302692065E+02 -0.15414619943E+02  0.30345672610E+01  0.21245849165E+02  0.00000000000E+00 0.  1.
</event>
<event>
 7    1  0.3027254E-013  0.7246196E+02  0.7816164E-02  0.1226707E+00
        -11   -1    0    0    0    0  0.00000000000E+00  0.00000000000E+00  0.45593999997E+02  0.45594000000E+02  0.51100000000E-03 0. -1.
         11   -1    0    0    0    0 -0.00000000000E+00 -0.00000000000E+00 -0.45593999997E+02  0.45594000000E+02  0.51100000000E-03 0.  1.
    9900012    2    1    2    0    0  0.66979816086E+01  0.17368266377E+02 -0.20358741704E+01  0.72461964162E+02  0.70000513083E+02 0.  0.
         12    1    1    2    0    0 -0.66979816086E+01 -0.17368266377E+02  0.20358741704E+01  0.18726035838E+02  0.00000000000E+00 0. -1.
         11    1    3    3    0    0 -0.23778866161E+02  0.47381339718E+01 -0.49121856004E+01  0.24738915843E+02  0.51100000000E-03 0. -1.
        -11    1    3    3    0    0  0.41608452916E+01  0.85528252733E+01 -0.13460142492E+02  0.16481471107E+02  0.51100000000E-03 0.  1.
         12    1    3    3    0    0  0.26316002479E+02  0.40773071321E+01  0.16336453922E+02  0.31241577211E+02  0.00000000000E+00 0. -1.
</event>
<event>
 7    1  0.3027254E-013  0.7246157E+02  0.7816164E-02  0.1226708E+00
        -11   -1    0    0    0    0  0.00000000000E+00  0.00000000000E+00  0.45593999997E+02  0.45594000000E+02  0.51100000000E-03 0.  1.
         11   -1    0    0    0    0 -0.00000000000E+00 -0.00000000000E+00 -0.45593999997E+02  0.45594000000E+02  0.51100000000E-03 0. -1.
    9900012    2    1    2    0    0 -0.10030931209E+02  0.10991695782E+02  0.11368482223E+02  0.72461565606E+02  0.69999993892E+02 0.  0.
         12    1    1    2    0    0  0.10030931209E+02 -0.10991695782E+02 -0.11368482223E+02  0.18726434394E+02  0.00000000000E+00 0. -1.
         11    1    3    3    0    0  0.12820569785E+02 -0.14403996135E+01 -0.23559954201E+01  0.13114590171E+02  0.51100000000E-03 0. -1.
        -11    1    3    3    0    0  0.10698952775E+01 -0.56733605724E+01  0.26219983574E+02  0.26848076933E+02  0.51100000000E-03 0.  1.
         12    1    3    3    0    0 -0.23921396271E+02  0.18105455968E+02 -0.12495505931E+02  0.32498898502E+02  0.00000000000E+00 0. -1.
</event>
<event>
 7    1  0.3027254E-013  0.7246083E+02  0.7816164E-02  0.1226710E+00
        -11   -1    0    0    0    0  0.00000000000E+00  0.00000000000E+00  0.45593999997E+02  0.45594000000E+02  0.51100000000E-03 0.  1.
         11   -1    0    0    0    0 -0.00000000000E+00 -0.00000000000E+00 -0.45593999997E+02  0.45594000000E+02  0.51100000000E-03 0. -1.
    9900012    2    1    2    0    0  0.82345376431E+00  0.12274626810E+02  0.14119577664E+02  0.72460826886E+02  0.69999031566E+02 0.  0.
         12    1    1    2    0    0 -0.82345376431E+00 -0.12274626810E+02 -0.14119577664E+02  0.18727173114E+02  0.00000000000E+00 0. -1.
         11    1    3    3    0    0  0.29330707915E+01  0.58742711964E+01  0.88797797518E+01  0.11043570757E+02  0.51100000000E-03 0. -1.
        -11    1    3    3    0    0 -0.15303575499E+02 -0.11745234658E+02  0.24960706005E+02  0.31546581506E+02  0.51100000000E-03 0.  1.
         12    1    3    3    0    0  0.13193958471E+02  0.18145590272E+02 -0.19720908092E+02  0.29870674623E+02  0.00000000000E+00 0. -1.
</event>
<event>
 7    1  0.3027254E-013  0.7246156E+02  0.7816164E-02  0.1226708E+00
        -11   -1    0    0    0    0  0.00000000000E+00  0.00000000000E+00  0.45593999997E+02  0.45594000000E+02  0.51100000000E-03 0.  1.
         11   -1    0    0    0    0 -0.00000000000E+00 -0.00000000000E+00 -0.45593999997E+02  0.45594000000E+02  0.51100000000E-03 0. -1.
    9900012    2    1    2    0    0  0.16014854872E+02  0.20206653260E+01  0.94931946998E+01  0.72461563859E+02  0.69999991617E+02 0.  0.
         12    1    1    2    0    0 -0.16014854872E+02 -0.20206653260E+01 -0.94931946998E+01  0.18726436141E+02  0.00000000000E+00 0. -1.
         11    1    3    3    0    0 -0.19934122530E+01 -0.18190369902E+02 -0.13172069695E+01  0.18346615057E+02  0.51100000000E-03 0. -1.
        -11    1    3    3    0    0 -0.12409439767E+02  0.17548451596E+02 -0.64572495967E+00  0.21502541937E+02  0.51100000000E-03 0.  1.
        -12    1    3    3    0    0  0.30417706892E+02  0.26625836321E+01  0.11456126629E+02  0.32612406865E+02  0.00000000000E+00 0.  1.
</event>
<event>
 7    1  0.3027254E-013  0.7246162E+02  0.7816164E-02  0.1226708E+00
        -11   -1    0    0    0    0  0.00000000000E+00  0.00000000000E+00  0.45593999997E+02  0.45594000000E+02  0.51100000000E-03 0.  1.
         11   -1    0    0    0    0 -0.00000000000E+00 -0.00000000000E+00 -0.45593999997E+02  0.45594000000E+02  0.51100000000E-03 0. -1.
    9900012    2    1    2    0    0 -0.80781731310E+00  0.10926419830E+02  0.15186776365E+02  0.72461617662E+02  0.70000061705E+02 0.  0.
         12    1    1    2    0    0  0.80781731310E+00 -0.10926419830E+02 -0.15186776365E+02  0.18726382338E+02  0.00000000000E+00 0. -1.
         11    1    3    3    0    0 -0.55141318898E+01  0.17003192064E+02 -0.35468294740E+01  0.18223451661E+02  0.51100000000E-03 0. -1.
        -11    1    3    3    0    0  0.23304792452E+02 -0.17423710090E+02  0.11374139503E+02  0.31242120194E+02  0.51100000000E-03 0.  1.
         12    1    3    3    0    0 -0.18598477875E+02  0.11346937856E+02  0.73594663358E+01  0.22996045807E+02  0.00000000000E+00 0. -1.
</event>
<event>
 7    1  0.3027254E-013  0.7246153E+02  0.7816164E-02  0.1226708E+00
        -11   -1    0    0    0    0  0.00000000000E+00  0.00000000000E+00  0.45593999997E+02  0.45594000000E+02  0.51100000000E-03 0. -1.
         11   -1    0    0    0    0 -0.00000000000E+00 -0.00000000000E+00 -0.45593999997E+02  0.45594000000E+02  0.51100000000E-03 0.  1.
    9900012    2    1    2    0    0 -0.15751658890E+02 -0.88737187669E+00  0.10088533223E+02  0.72461529717E+02  0.69999947141E+02 0.  0.
         12    1    1    2    0    0  0.15751658890E+02  0.88737187669E+00 -0.10088533223E+02  0.18726470283E+02  0.00000000000E+00 0. -1.
         11    1    3    3    0    0  0.18320096501E+02 -0.64752237919E+01  0.47415291504E+01  0.20000913926E+02  0.51100000000E-03 0. -1.
        -11    1    3    3    0    0 -0.19865549558E+02  0.22290581444E+02  0.62889786373E+01  0.30513297641E+02  0.51100000000E-03 0.  1.
         12    1    3    3    0    0 -0.14206205832E+02 -0.16702729529E+02 -0.94197456427E+00  0.21947318150E+02  0.00000000000E+00 0. -1.
</event>
<event>
 7    1  0.3027254E-013  0.7246166E+02  0.7816164E-02  0.1226708E+00
        -11   -1    0    0    0    0  0.00000000000E+00  0.00000000000E+00  0.45593999997E+02  0.45594000000E+02  0.51100000000E-03 0. -1.
         11   -1    0    0    0    0 -0.00000000000E+00 -0.00000000000E+00 -0.45593999997E+02  0.45594000000E+02  0.51100000000E-03 0.  1.
    9900012    2    1    2    0    0  0.67004015808E+01 -0.14424081216E+02 -0.98856619323E+01  0.72461659938E+02  0.70000116778E+02 0.  0.
         12    1    1    2    0    0 -0.67004015808E+01  0.14424081216E+02  0.98856619323E+01  0.18726340062E+02  0.00000000000E+00 0. -1.
         11    1    3    3    0    0 -0.31977854665E+00 -0.36854936791E+01 -0.13841995834E+02  0.14327804120E+02  0.51100000000E-03 0. -1.
        -11    1    3    3    0    0 -0.16439182047E+02 -0.79993164873E+01 -0.18165914885E+02  0.25772780884E+02  0.51100000000E-03 0.  1.
         12    1    3    3    0    0  0.23459362175E+02 -0.27392710493E+01  0.22122248786E+02  0.32361074934E+02  0.00000000000E+00 0. -1.
</event>
<event>
 7    1  0.3027254E-013  0.7246158E+02  0.7816164E-02  0.1226708E+00
        -11   -1    0    0    0    0  0.00000000000E+00  0.00000000000E+00  0.45593999997E+02  0.45594000000E+02  0.51100000000E-03 0.  1.
         11   -1    0    0    0    0 -0.00000000000E+00 -0.00000000000E+00 -0.45593999997E+02  0.45594000000E+02  0.51100000000E-03 0. -1.
    9900012    2    1    2    0    0 -0.32226260417E+01  0.18410157159E+02 -0.11659488526E+01  0.72461584381E+02  0.70000018350E+02 0.  0.
         12    1    1    2    0    0  0.32226260417E+01 -0.18410157159E+02  0.11659488526E+01  0.18726415619E+02  0.00000000000E+00 0. -1.
         11    1    3    3    0    0 -0.93681381313E+01  0.57651100767E+01  0.64902527960E+01  0.12771917940E+02  0.51100000000E-03 0. -1.
        -11    1    3    3    0    0  0.11648259165E+02  0.33921459397E+02 -0.10876247535E+02  0.37478528652E+02  0.51100000000E-03 0.  1.
         12    1    3    3    0    0 -0.55027470750E+01 -0.21276412315E+02  0.32200458860E+01  0.22211137789E+02  0.00000000000E+00 0. -1.
</event>
<event>
 7    1  0.3027254E-013  0.7246171E+02  0.7816164E-02  0.1226708E+00
        -11   -1    0    0    0    0  0.00000000000E+00  0.00000000000E+00  0.45593999997E+02  0.45594000000E+02  0.51100000000E-03 0.  1.
         11   -1    0    0    0    0 -0.00000000000E+00 -0.00000000000E+00 -0.45593999997E+02  0.45594000000E+02  0.51100000000E-03 0. -1.
    9900012    2    1    2    0    0  0.13139324243E+02 -0.80662406811E+00 -0.13318457280E+02  0.72461713975E+02  0.70000187171E+02 0.  0.
         12    1    1    2    0    0 -0.13139324243E+02  0.80662406811E+00  0.13318457280E+02  0.18726286025E+02  0.00000000000E+00 0. -1.
         11    1    3    3    0    0  0.37196386118E+01  0.10384674592E+02 -0.37810872163E+02  0.39387043958E+02  0.51100000000E-03 0. -1.
        -11    1    3    3    0    0  0.81489007452E+01 -0.58474960999E+01  0.24045241497E+01  0.10314045309E+02  0.51100000000E-03 0.  1.
        -12    1    3    3    0    0  0.12707848864E+01 -0.53438025605E+01  0.22087890734E+02  0.22760624708E+02  0.00000000000E+00 0.  1.
</event>
<event>
 7    1  0.3027254E-013  0.7246158E+02  0.7816164E-02  0.1226708E+00
        -11   -1    0    0    0    0  0.00000000000E+00  0.00000000000E+00  0.45593999997E+02  0.45594000000E+02  0.51100000000E-03 0.  1.
         11   -1    0    0    0    0 -0.00000000000E+00 -0.00000000000E+00 -0.45593999997E+02  0.45594000000E+02  0.51100000000E-03 0. -1.
    9900012    2    1    2    0    0 -0.14262846097E+02  0.12129766349E+02  0.34468514603E+00  0.72461579671E+02  0.70000012215E+02 0.  0.
         12    1    1    2    0    0  0.14262846097E+02 -0.12129766349E+02 -0.34468514603E+00  0.18726420329E+02  0.00000000000E+00 0. -1.
         11    1    3    3    0    0 -0.21284309347E+01  0.98456374388E-01 -0.71502304913E+01  0.74609455327E+01  0.51100000000E-03 0. -1.
        -11    1    3    3    0    0  0.13732744249E+02 -0.16255787359E+02 -0.92101360265E+01  0.23187615081E+02  0.51100000000E-03 0.  1.
         12    1    3    3    0    0 -0.25867159411E+02  0.28287097334E+02  0.16705051664E+02  0.41813019057E+02  0.00000000000E+00 0. -1.
</event>
<event>
 7    1  0.3027254E-013  0.7246157E+02  0.7816164E-02  0.1226708E+00
        -11   -1    0    0    0    0  0.00000000000E+00  0.00000000000E+00  0.45593999997E+02  0.45594000000E+02  0.51100000000E-03 0.  1.
         11   -1    0    0    0    0 -0.00000000000E+00 -0.00000000000E+00 -0.45593999997E+02  0.45594000000E+02  0.51100000000E-03 0. -1.
    9900012    2    1    2    0    0  0.11262489328E+00 -0.47508503974E+01  0.18113418859E+02  0.72461569304E+02  0.69999998710E+02 0.  0.
         12    1    1    2    0    0 -0.11262489328E+00  0.47508503974E+01 -0.18113418859E+02  0.18726430696E+02  0.00000000000E+00 0. -1.
         11    1    3    3    0    0 -0.54017596015E+01  0.15042717192E+02 -0.82452102500E+01  0.17984600069E+02  0.51100000000E-03 0. -1.
        -11    1    3    3    0    0  0.18597502250E+02 -0.24741625777E+02  0.90999429880E+01  0.32261805570E+02  0.51100000000E-03 0.  1.
         12    1    3    3    0    0 -0.13083117756E+02  0.49480581874E+01  0.17258686121E+02  0.22215163665E+02  0.00000000000E+00 0. -1.
</event>
<event>
 7    1  0.3027254E-013  0.7246156E+02  0.7816164E-02  0.1226708E+00
        -11   -1    0    0    0    0  0.00000000000E+00  0.00000000000E+00  0.45593999997E+02  0.45594000000E+02  0.51100000000E-03 0.  1.
         11   -1    0    0    0    0 -0.00000000000E+00 -0.00000000000E+00 -0.45593999997E+02  0.45594000000E+02  0.51100000000E-03 0. -1.
    9900012    2    1    2    0    0  0.11430683981E+02 -0.13786379952E+02 -0.54730805482E+01  0.72461563629E+02  0.69999991318E+02 0.  0.
         12    1    1    2    0    0 -0.11430683981E+02  0.13786379952E+02  0.54730805482E+01  0.18726436371E+02  0.00000000000E+00 0. -1.
         11    1    3    3    0    0 -0.11601535340E+02  0.84690575330E+01 -0.14157574205E+02  0.20168229109E+02  0.51100000000E-03 0. -1.
        -11    1    3    3    0    0 -0.17440874166E+01  0.85925171058E+01 -0.53977447297E+01  0.10296059419E+02  0.51100000000E-03 0.  1.
        -12    1    3    3    0    0  0.24776306738E+02 -0.30847954591E+02  0.14082238387E+02  0.41997275102E+02  0.00000000000E+00 0.  1.
</event>
<event>
 7    1  0.3027254E-013  0.7246161E+02  0.7816164E-02  0.1226708E+00
        -11   -1    0    0    0    0  0.00000000000E+00  0.00000000000E+00  0.45593999997E+02  0.45594000000E+02  0.51100000000E-03 0. -1.
         11   -1    0    0    0    0 -0.00000000000E+00 -0.00000000000E+00 -0.45593999997E+02  0.45594000000E+02  0.51100000000E-03 0.  1.
    9900012    2    1    2    0    0  0.15308448650E+02 -0.16460344812E+01 -0.10659253327E+02  0.72461609236E+02  0.70000050728E+02 0.  0.
         12    1    1    2    0    0 -0.15308448650E+02  0.16460344812E+01  0.10659253327E+02  0.18726390764E+02  0.00000000000E+00 0. -1.
         11    1    3    3    0    0  0.20906477671E+02  0.23813631573E+02 -0.19782565711E+02  0.37356656217E+02  0.51100000000E-03 0. -1.
        -11    1    3    3    0    0 -0.57521040986E+01 -0.71346980368E+00 -0.40495136155E+01  0.70706648559E+01  0.51100000000E-03 0.  1.
        -12    1    3    3    0    0  0.15407507697E+00 -0.24746196250E+02  0.13172826000E+02  0.28034288163E+02  0.00000000000E+00 0.  1.
</event>
<event>
 7    1  0.3027254E-013  0.7246174E+02  0.7816164E-02  0.1226708E+00
        -11   -1    0    0    0    0  0.00000000000E+00  0.00000000000E+00  0.45593999997E+02  0.45594000000E+02  0.51100000000E-03 0.  1.
         11   -1    0    0    0    0 -0.00000000000E+00 -0.00000000000E+00 -0.45593999997E+02  0.45594000000E+02  0.51100000000E-03 0. -1.
    9900012    2    1    2    0    0  0.10643789859E+02  0.27810624730E+01  0.15154153287E+02  0.72461736815E+02  0.70000216923E+02 0.  0.
         12    1    1    2    0    0 -0.10643789859E+02 -0.27810624730E+01 -0.15154153287E+02  0.18726263185E+02  0.00000000000E+00 0. -1.
         11    1    3    3    0    0 -0.34742992941E+01  0.15257568175E+02 -0.21962232378E+02  0.26966716402E+02  0.51100000000E-03 0. -1.
        -11    1    3    3    0    0  0.13192683613E+01 -0.72173159266E+00 -0.21103913359E+01  0.25913543472E+01  0.51100000000E-03 0.  1.
        -12    1    3    3    0    0  0.12798820791E+02 -0.11754774110E+02  0.39226777001E+02  0.42903666066E+02  0.00000000000E+00 0.  1.
</event>
<event>
 7    1  0.3027254E-013  0.7246154E+02  0.7816164E-02  0.1226708E+00
        -11   -1    0    0    0    0  0.00000000000E+00  0.00000000000E+00  0.45593999997E+02  0.45594000000E+02  0.51100000000E-03 0.  1.
         11   -1    0    0    0    0 -0.00000000000E+00 -0.00000000000E+00 -0.45593999997E+02  0.45594000000E+02  0.51100000000E-03 0. -1.
    9900012    2    1    2    0    0 -0.12185352798E+02 -0.16919047015E+00  0.14218604783E+02  0.72461543575E+02  0.69999965194E+02 0.  0.
         12    1    1    2    0    0  0.12185352798E+02  0.16919047015E+00 -0.14218604783E+02  0.18726456425E+02  0.00000000000E+00 0. -1.
         11    1    3    3    0    0 -0.24830788150E+02  0.20314741513E+02  0.13235995953E+02  0.34705163189E+02  0.51100000000E-03 0. -1.
        -11    1    3    3    0    0 -0.20910055563E+01  0.53769640118E+01 -0.47152685979E+01  0.74510270723E+01  0.51100000000E-03 0.  1.
        -12    1    3    3    0    0  0.14736440908E+02 -0.25860895995E+02  0.56978774282E+01  0.30305353314E+02  0.00000000000E+00 0.  1.
</event>
<event>
 7    1  0.3027254E-013  0.7246161E+02  0.7816164E-02  0.1226708E+00
        -11   -1    0    0    0    0  0.00000000000E+00  0.00000000000E+00  0.45593999997E+02  0.45594000000E+02  0.51100000000E-03 0. -1.
         11   -1    0    0    0    0 -0.00000000000E+00 -0.00000000000E+00 -0.45593999997E+02  0.45594000000E+02  0.51100000000E-03 0.  1.
    9900012    2    1    2    0    0  0.12841032493E+02 -0.13609034590E+02  0.76149895783E+00  0.72461606364E+02  0.70000046987E+02 0.  0.
         12    1    1    2    0    0 -0.12841032493E+02  0.13609034590E+02 -0.76149895783E+00  0.18726393636E+02  0.00000000000E+00 0. -1.
         11    1    3    3    0    0 -0.14516576315E+02 -0.21745684521E+02 -0.76683877998E+01  0.27247200864E+02  0.51100000000E-03 0. -1.
        -11    1    3    3    0    0 -0.45661681855E+01  0.71612156605E+01 -0.57634368962E+01  0.10264020009E+02  0.51100000000E-03 0.  1.
        -12    1    3    3    0    0  0.31923776994E+02  0.97543427034E+00  0.14193323654E+02  0.34950385490E+02  0.00000000000E+00 0.  1.
</event>
<event>
 7    1  0.3027254E-013  0.7246155E+02  0.7816164E-02  0.1226708E+00
        -11   -1    0    0    0    0  0.00000000000E+00  0.00000000000E+00  0.45593999997E+02  0.45594000000E+02  0.51100000000E-03 0. -1.
         11   -1    0    0    0    0 -0.00000000000E+00 -0.00000000000E+00 -0.45593999997E+02  0.45594000000E+02  0.51100000000E-03 0.  1.
    9900012    2    1    2    0    0 -0.13281403672E+01 -0.50751605445E+01 -0.17976611015E+02  0.72461554663E+02  0.69999979637E+02 0.  0.
         12    1    1    2    0    0  0.13281403672E+01  0.50751605445E+01  0.17976611015E+02  0.18726445337E+02  0.00000000000E+00 0. -1.
         11    1    3    3    0    0  0.20753132820E+02  0.73636331833E+00 -0.39163802124E+00  0.20769885252E+02  0.51100000000E-03 0. -1.
        -11    1    3    3    0    0 -0.75182717992E+01  0.13075895927E+02  0.76985656137E+01  0.16934325435E+02  0.51100000000E-03 0.  1.
        -12    1    3    3    0    0 -0.14563001388E+02 -0.18887419790E+02 -0.25283538607E+02  0.34757343976E+02  0.00000000000E+00 0.  1.
</event>
<event>
 7    1  0.3027254E-013  0.7246131E+02  0.7816164E-02  0.1226709E+00
        -11   -1    0    0    0    0  0.00000000000E+00  0.00000000000E+00  0.45593999997E+02  0.45594000000E+02  0.51100000000E-03 0. -1.
         11   -1    0    0    0    0 -0.00000000000E+00 -0.00000000000E+00 -0.45593999997E+02  0.45594000000E+02  0.51100000000E-03 0.  1.
    9900012    2    1    2    0    0 -0.17689283085E+02  0.57538840850E+01 -0.21612837385E+01  0.72461306070E+02  0.69999655798E+02 0.  0.
         12    1    1    2    0    0  0.17689283085E+02 -0.57538840850E+01  0.21612837385E+01  0.18726693930E+02  0.00000000000E+00 0. -1.
         11    1    3    3    0    0 -0.54201180843E+01  0.25094688182E+02  0.16275098119E+02  0.30397366235E+02  0.51100000000E-03 0. -1.
        -11    1    3    3    0    0 -0.43216758552E+01  0.77204263518E+01 -0.81894268910E+01  0.12056059817E+02  0.51100000000E-03 0.  1.
        -12    1    3    3    0    0 -0.79474891459E+01 -0.27061230449E+02 -0.10246954966E+02  0.30007880018E+02  0.00000000000E+00 0.  1.
</event>
<event>
 7    1  0.3027254E-013  0.7246226E+02  0.7816164E-02  0.1226706E+00
        -11   -1    0    0    0    0  0.00000000000E+00  0.00000000000E+00  0.45593999997E+02  0.45594000000E+02  0.51100000000E-03 0.  1.
         11   -1    0    0    0    0 -0.00000000000E+00 -0.00000000000E+00 -0.45593999997E+02  0.45594000000E+02  0.51100000000E-03 0. -1.
    9900012    2    1    2    0    0  0.68729625878E+01 -0.12573833523E+02  0.12054646664E+02  0.72462258081E+02  0.70000895965E+02 0.  0.
         12    1    1    2    0    0 -0.68729625878E+01  0.12573833523E+02 -0.12054646664E+02  0.18725741919E+02  0.00000000000E+00 0. -1.
         11    1    3    3    0    0 -0.17604203403E+02 -0.29022230542E+01  0.13675148258E+02  0.22479781054E+02  0.51100000000E-03 0. -1.
        -11    1    3    3    0    0 -0.26673145420E+01 -0.16696882678E+02 -0.11280656054E+02  0.20326181621E+02  0.51100000000E-03 0.  1.
        -12    1    3    3    0    0  0.27144480533E+02  0.70252722092E+01  0.96601544600E+01  0.29656295406E+02  0.00000000000E+00 0.  1.
</event>
<event>
 7    1  0.3027254E-013  0.7246159E+02  0.7816164E-02  0.1226708E+00
        -11   -1    0    0    0    0  0.00000000000E+00  0.00000000000E+00  0.45593999997E+02  0.45594000000E+02  0.51100000000E-03 0.  1.
         11   -1    0    0    0    0 -0.00000000000E+00 -0.00000000000E+00 -0.45593999997E+02  0.45594000000E+02  0.51100000000E-03 0. -1.
    9900012    2    1    2    0    0 -0.49556439835E+01 -0.14491731436E+02  0.10775419065E+02  0.72461592354E+02  0.70000028737E+02 0.  0.
         12    1    1    2    0    0  0.49556439835E+01  0.14491731436E+02 -0.10775419065E+02  0.18726407646E+02  0.00000000000E+00 0. -1.
         11    1    3    3    0    0  0.14305827282E+02 -0.50740543944E+01  0.56085773443E+01  0.16182053711E+02  0.51100000000E-03 0. -1.
        -11    1    3    3    0    0 -0.16039655047E+02 -0.82611201542E+01  0.27935385045E+02  0.33255110556E+02  0.51100000000E-03 0.  1.
         12    1    3    3    0    0 -0.32218162190E+01 -0.11565568871E+01 -0.22768543325E+02  0.23024428087E+02  0.00000000000E+00 0. -1.
</event>
<event>
 7    1  0.3027254E-013  0.7246161E+02  0.7816164E-02  0.1226708E+00
        -11   -1    0    0    0    0  0.00000000000E+00  0.00000000000E+00  0.45593999997E+02  0.45594000000E+02  0.51100000000E-03 0. -1.
         11   -1    0    0    0    0 -0.00000000000E+00 -0.00000000000E+00 -0.45593999997E+02  0.45594000000E+02  0.51100000000E-03 0.  1.
    9900012    2    1    2    0    0 -0.16821724075E+02 -0.64797003039E+01 -0.50715467282E+01  0.72461614788E+02  0.70000057961E+02 0.  0.
         12    1    1    2    0    0  0.16821724075E+02  0.64797003039E+01  0.50715467282E+01  0.18726385212E+02  0.00000000000E+00 0. -1.
         11    1    3    3    0    0 -0.19358979598E+02 -0.90552146727E+01  0.25684004231E+02  0.33413097394E+02  0.51100000000E-03 0. -1.
        -11    1    3    3    0    0 -0.89280459953E+01  0.31800779445E+01 -0.47071158395E+01  0.10582052769E+02  0.51100000000E-03 0.  1.
        -12    1    3    3    0    0  0.11465301518E+02 -0.60456357580E+00 -0.26048435120E+02  0.28466464624E+02  0.00000000000E+00 0.  1.
</event>
<event>
 7    1  0.3027254E-013  0.7246160E+02  0.7816164E-02  0.1226708E+00
        -11   -1    0    0    0    0  0.00000000000E+00  0.00000000000E+00  0.45593999997E+02  0.45594000000E+02  0.51100000000E-03 0. -1.
         11   -1    0    0    0    0 -0.00000000000E+00 -0.00000000000E+00 -0.45593999997E+02  0.45594000000E+02  0.51100000000E-03 0.  1.
    9900012    2    1    2    0    0 -0.10502203461E+02 -0.13565439490E+02  0.75073765507E+01  0.72461598082E+02  0.70000036199E+02 0.  0.
         12    1    1    2    0    0  0.10502203461E+02  0.13565439490E+02 -0.75073765507E+01  0.18726401918E+02  0.00000000000E+00 0. -1.
         11    1    3    3    0    0  0.52679235424E+01 -0.67390444041E+01  0.17323290695E+02  0.19319993237E+02  0.51100000000E-03 0. -1.
        -11    1    3    3    0    0 -0.88027876856E+01 -0.26215455396E+02  0.45485925179E+01  0.28025503864E+02  0.51100000000E-03 0.  1.
         12    1    3    3    0    0 -0.69673393181E+01  0.19389060310E+02 -0.14364506662E+02  0.25116100982E+02  0.00000000000E+00 0. -1.
</event>
<event>
 7    1  0.3027254E-013  0.7246159E+02  0.7816164E-02  0.1226708E+00
        -11   -1    0    0    0    0  0.00000000000E+00  0.00000000000E+00  0.45593999997E+02  0.45594000000E+02  0.51100000000E-03 0.  1.
         11   -1    0    0    0    0 -0.00000000000E+00 -0.00000000000E+00 -0.45593999997E+02  0.45594000000E+02  0.51100000000E-03 0. -1.
    9900012    2    1    2    0    0 -0.12700080091E+02 -0.25598659368E+01 -0.13521587103E+02  0.72461594426E+02  0.70000031436E+02 0.  0.
         12    1    1    2    0    0  0.12700080091E+02  0.25598659368E+01  0.13521587103E+02  0.18726405574E+02  0.00000000000E+00 0. -1.
         11    1    3    3    0    0 -0.11758842312E+01 -0.21512145543E+02  0.12460948090E+02  0.24888357462E+02  0.51100000000E-03 0. -1.
        -11    1    3    3    0    0 -0.13344002838E+02  0.29647859107E+01  0.33887471391E+01  0.14083180560E+02  0.51100000000E-03 0.  1.
         12    1    3    3    0    0  0.18198069790E+01  0.15987493696E+02 -0.29371282332E+02  0.33490056404E+02  0.00000000000E+00 0. -1.
</event>
<event>
 7    1  0.3027254E-013  0.7246159E+02  0.7816164E-02  0.1226708E+00
        -11   -1    0    0    0    0  0.00000000000E+00  0.00000000000E+00  0.45593999997E+02  0.45594000000E+02  0.51100000000E-03 0.  1.
         11   -1    0    0    0    0 -0.00000000000E+00 -0.00000000000E+00 -0.45593999997E+02  0.45594000000E+02  0.51100000000E-03 0. -1.
    9900012    2    1    2    0    0 -0.17481784140E+02  0.66626659582E+01 -0.82138463559E+00  0.72461586379E+02  0.70000020953E+02 0.  0.
         12    1    1    2    0    0  0.17481784140E+02 -0.66626659582E+01  0.82138463559E+00  0.18726413621E+02  0.00000000000E+00 0. -1.
         11    1    3    3    0    0  0.20487766070E+01 -0.21311981100E+01 -0.17021299498E+01  0.34112662747E+01  0.51100000000E-03 0. -1.
        -11    1    3    3    0    0 -0.53861197709E+01  0.34947848310E+02 -0.10998371878E+02  0.37031426814E+02  0.51100000000E-03 0.  1.
         12    1    3    3    0    0 -0.14144440976E+02 -0.26153984242E+02  0.11879117192E+02  0.32018893290E+02  0.00000000000E+00 0. -1.
</event>
<event>
 7    1  0.3027254E-013  0.7246150E+02  0.7816164E-02  0.1226708E+00
        -11   -1    0    0    0    0  0.00000000000E+00  0.00000000000E+00  0.45593999997E+02  0.45594000000E+02  0.51100000000E-03 0.  1.
         11   -1    0    0    0    0 -0.00000000000E+00 -0.00000000000E+00 -0.45593999997E+02  0.45594000000E+02  0.51100000000E-03 0. -1.
    9900012    2    1    2    0    0 -0.15419558234E+02  0.78326450145E+01 -0.71811297217E+01  0.72461501979E+02  0.69999911007E+02 0.  0.
         12    1    1    2    0    0  0.15419558234E+02 -0.78326450145E+01  0.71811297217E+01  0.18726498021E+02  0.00000000000E+00 0. -1.
         11    1    3    3    0    0 -0.12056491240E+02 -0.64620691025E+01 -0.11135610058E+02  0.17638569378E+02  0.51100000000E-03 0. -1.
        -11    1    3    3    0    0 -0.57245100334E+01 -0.73094410637E+01  0.23703755295E+02  0.25457139649E+02  0.51100000000E-03 0.  1.
         12    1    3    3    0    0  0.23614430393E+01  0.21604155181E+02 -0.19749274958E+02  0.29365792952E+02  0.00000000000E+00 0. -1.
</event>
<event>
 7    1  0.3027254E-013  0.7246157E+02  0.7816164E-02  0.1226708E+00
        -11   -1    0    0    0    0  0.00000000000E+00  0.00000000000E+00  0.45593999997E+02  0.45594000000E+02  0.51100000000E-03 0.  1.
         11   -1    0    0    0    0 -0.00000000000E+00 -0.00000000000E+00 -0.45593999997E+02  0.45594000000E+02  0.51100000000E-03 0. -1.
    9900012    2    1    2    0    0 -0.68716129715E+01 -0.16686644086E+02 -0.50015959628E+01  0.72461571674E+02  0.70000001797E+02 0.  0.
         12    1    1    2    0    0  0.68716129715E+01  0.16686644086E+02  0.50015959628E+01  0.18726428326E+02  0.00000000000E+00 0. -1.
         11    1    3    3    0    0 -0.49630534503E+01  0.85595827414E+01 -0.29302557671E+01  0.10319145090E+02  0.51100000000E-03 0. -1.
        -11    1    3    3    0    0 -0.19974005597E+01 -0.14330037968E+02  0.27251068721E+02  0.30853854603E+02  0.51100000000E-03 0.  1.
         12    1    3    3    0    0  0.88841038519E-01 -0.10916188859E+02 -0.29322408917E+02  0.31288571981E+02  0.00000000000E+00 0. -1.
</event>
<event>
 7    1  0.3027254E-013  0.7246157E+02  0.7816164E-02  0.1226708E+00
        -11   -1    0    0    0    0  0.00000000000E+00  0.00000000000E+00  0.45593999997E+02  0.45594000000E+02  0.51100000000E-03 0.  1.
         11   -1    0    0    0    0 -0.00000000000E+00 -0.00000000000E+00 -0.45593999997E+02  0.45594000000E+02  0.51100000000E-03 0. -1.
    9900012    2    1    2    0    0  0.11174084322E+02  0.14453494758E+02 -0.41128265133E+01  0.72461574471E+02  0.70000005441E+02 0.  0.
         12    1    1    2    0    0 -0.11174084322E+02 -0.14453494758E+02  0.41128265133E+01  0.18726425529E+02  0.00000000000E+00 0. -1.
         11    1    3    3    0    0  0.12842436667E+02  0.23817224358E+02 -0.26845551024E+02  0.38116557632E+02  0.51100000000E-03 0. -1.
        -11    1    3    3    0    0  0.76462721603E+01  0.43828165272E+01  0.53714008142E+01  0.10321167842E+02  0.51100000000E-03 0.  1.
        -12    1    3    3    0    0 -0.93146245052E+01 -0.13746546128E+02  0.17361323697E+02  0.24023848997E+02  0.00000000000E+00 0.  1.
</event>
<event>
 7    1  0.3027254E-013  0.7246165E+02  0.7816164E-02  0.1226708E+00
        -11   -1    0    0    0    0  0.00000000000E+00  0.00000000000E+00  0.45593999997E+02  0.45594000000E+02  0.51100000000E-03 0.  1.
         11   -1    0    0    0    0 -0.00000000000E+00 -0.00000000000E+00 -0.45593999997E+02  0.45594000000E+02  0.51100000000E-03 0. -1.
    9900012    2    1    2    0    0 -0.74667805500E+01 -0.36178423008E+01  0.16787932793E+02  0.72461647388E+02  0.70000100429E+02 0.  0.
         12    1    1    2    0    0  0.74667805500E+01  0.36178423008E+01 -0.16787932793E+02  0.18726352612E+02  0.00000000000E+00 0. -1.
         11    1    3    3    0    0 -0.31237321913E+01  0.63620591073E+00 -0.39997642596E+01  0.51147409668E+01  0.51100000000E-03 0. -1.
        -11    1    3    3    0    0  0.21161192950E+02 -0.21484886237E+02 -0.87433629817E-01  0.30156327173E+02  0.51100000000E-03 0.  1.
         12    1    3    3    0    0 -0.25504241309E+02  0.17230838025E+02  0.20875130682E+02  0.37190579248E+02  0.00000000000E+00 0. -1.
</event>
<event>
 7    1  0.3027254E-013  0.7246158E+02  0.7816164E-02  0.1226708E+00
        -11   -1    0    0    0    0  0.00000000000E+00  0.00000000000E+00  0.45593999997E+02  0.45594000000E+02  0.51100000000E-03 0. -1.
         11   -1    0    0    0    0 -0.00000000000E+00 -0.00000000000E+00 -0.45593999997E+02  0.45594000000E+02  0.51100000000E-03 0.  1.
    9900012    2    1    2    0    0  0.91686565408E+00  0.55870141879E+01 -0.17850029545E+02  0.72461576825E+02  0.70000008507E+02 0.  0.
         12    1    1    2    0    0 -0.91686565408E+00 -0.55870141879E+01  0.17850029545E+02  0.18726423175E+02  0.00000000000E+00 0. -1.
         11    1    3    3    0    0  0.10704273723E+02  0.90922296023E+01 -0.10403091569E+02  0.17477826797E+02  0.51100000000E-03 0.  1.
        -11    1    3    3    0    0  0.15982709501E+02 -0.18441065431E+02 -0.54677579945E+00  0.24409401084E+02  0.51100000000E-03 0. -1.
        -12    1    3    3    0    0 -0.25770117570E+02  0.14935850017E+02 -0.69001621770E+01  0.30574348945E+02  0.00000000000E+00 0.  1.
</event>
<event>
 7    1  0.3027254E-013  0.7246156E+02  0.7816164E-02  0.1226708E+00
        -11   -1    0    0    0    0  0.00000000000E+00  0.00000000000E+00  0.45593999997E+02  0.45594000000E+02  0.51100000000E-03 0.  1.
         11   -1    0    0    0    0 -0.00000000000E+00 -0.00000000000E+00 -0.45593999997E+02  0.45594000000E+02  0.51100000000E-03 0. -1.
    9900012    2    1    2    0    0 -0.17846450093E+02  0.48186245790E+01  0.29940880619E+01  0.72461561815E+02  0.69999988954E+02 0.  0.
         12    1    1    2    0    0  0.17846450093E+02 -0.48186245790E+01 -0.29940880619E+01  0.18726438185E+02  0.00000000000E+00 0. -1.
         11    1    3    3    0    0  0.20341569918E+01 -0.12362896576E+02 -0.11959929848E+02  0.17321054490E+02  0.51100000000E-03 0.  1.
        -11    1    3    3    0    0 -0.17812957412E+02  0.25394330370E+02  0.26516559302E+02  0.40808104393E+02  0.51100000000E-03 0. -1.
         12    1    3    3    0    0 -0.20676496731E+01 -0.82128092143E+01 -0.11562541392E+02  0.14332402932E+02  0.00000000000E+00 0. -1.
</event>
<event>
 7    1  0.3027254E-013  0.7246160E+02  0.7816164E-02  0.1226708E+00
        -11   -1    0    0    0    0  0.00000000000E+00  0.00000000000E+00  0.45593999997E+02  0.45594000000E+02  0.51100000000E-03 0. -1.
         11   -1    0    0    0    0 -0.00000000000E+00 -0.00000000000E+00 -0.45593999997E+02  0.45594000000E+02  0.51100000000E-03 0.  1.
    9900012    2    1    2    0    0 -0.16993913389E+02  0.52210313548E+01 -0.58843590559E+01  0.72461603065E+02  0.70000042689E+02 0.  0.
         12    1    1    2    0    0  0.16993913389E+02 -0.52210313548E+01  0.58843590559E+01  0.18726396935E+02  0.00000000000E+00 0. -1.
         11    1    3    3    0    0  0.35279034230E+01  0.11414894362E+02  0.94604812048E+01  0.15239639784E+02  0.51100000000E-03 0. -1.
        -11    1    3    3    0    0 -0.14572768762E+02  0.19970260650E+02 -0.17522116564E+02  0.30301839366E+02  0.51100000000E-03 0.  1.
         12    1    3    3    0    0 -0.59490480504E+01 -0.26164123657E+02  0.21772763038E+01  0.26920123914E+02  0.00000000000E+00 0. -1.
</event>
<event>
 7    1  0.3027254E-013  0.7246153E+02  0.7816164E-02  0.1226708E+00
        -11   -1    0    0    0    0  0.00000000000E+00  0.00000000000E+00  0.45593999997E+02  0.45594000000E+02  0.51100000000E-03 0. -1.
         11   -1    0    0    0    0 -0.00000000000E+00 -0.00000000000E+00 -0.45593999997E+02  0.45594000000E+02  0.51100000000E-03 0.  1.
    9900012    2    1    2    0    0 -0.15681697673E+02  0.99063717789E+01 -0.25746419662E+01  0.72461531433E+02  0.69999949376E+02 0.  0.
         12    1    1    2    0    0  0.15681697673E+02 -0.99063717789E+01  0.25746419662E+01  0.18726468567E+02  0.00000000000E+00 0. -1.
         11    1    3    3    0    0  0.11964697426E+02  0.58139077935E+01  0.13539273870E+02  0.18980712461E+02  0.51100000000E-03 0. -1.
        -11    1    3    3    0    0  0.93934516545E+01 -0.50888344846E+01  0.25751862931E+01  0.10989301848E+02  0.51100000000E-03 0.  1.
        -12    1    3    3    0    0 -0.37039846754E+02  0.91812984700E+01 -0.18689102129E+02  0.42491517124E+02  0.00000000000E+00 0.  1.
</event>
<event>
 7    1  0.3027254E-013  0.7246155E+02  0.7816164E-02  0.1226708E+00
        -11   -1    0    0    0    0  0.00000000000E+00  0.00000000000E+00  0.45593999997E+02  0.45594000000E+02  0.51100000000E-03 0. -1.
         11   -1    0    0    0    0 -0.00000000000E+00 -0.00000000000E+00 -0.45593999997E+02  0.45594000000E+02  0.51100000000E-03 0.  1.
    9900012    2    1    2    0    0  0.11531839890E+02 -0.79313409236E+01 -0.12441476579E+02  0.72461552404E+02  0.69999976695E+02 0.  0.
         12    1    1    2    0    0 -0.11531839890E+02  0.79313409236E+01  0.12441476579E+02  0.18726447596E+02  0.00000000000E+00 0. -1.
         11    1    3    3    0    0 -0.11960937452E+01  0.96911393553E+01  0.56550293117E+01  0.11283978865E+02  0.51100000000E-03 0. -1.
        -11    1    3    3    0    0  0.29423288029E+02  0.12989545645E+01  0.10988093487E+01  0.29472437015E+02  0.51100000000E-03 0.  1.
         12    1    3    3    0    0 -0.16695354394E+02 -0.18921434843E+02 -0.19195315239E+02  0.31705136524E+02  0.00000000000E+00 0. -1.
</event>
<event>
 7    1  0.3027254E-013  0.7246183E+02  0.7816164E-02  0.1226707E+00
        -11   -1    0    0    0    0  0.00000000000E+00  0.00000000000E+00  0.45593999997E+02  0.45594000000E+02  0.51100000000E-03 0.  1.
         11   -1    0    0    0    0 -0.00000000000E+00 -0.00000000000E+00 -0.45593999997E+02  0.45594000000E+02  0.51100000000E-03 0. -1.
    9900012    2    1    2    0    0  0.60987457879E+01 -0.62657789302E+01 -0.16559426840E+02  0.72461833733E+02  0.70000343177E+02 0.  0.
         12    1    1    2    0    0 -0.60987457879E+01  0.62657789302E+01  0.16559426840E+02  0.18726166267E+02  0.00000000000E+00 0. -1.
         11    1    3    3    0    0 -0.95914732515E+01  0.87583464529E+01  0.21005376616E+02  0.24696777903E+02  0.51100000000E-03 0. -1.
        -11    1    3    3    0    0 -0.43548646594E+00  0.37530735807E+01 -0.15926204454E+01  0.41002012034E+01  0.51100000000E-03 0.  1.
         12    1    3    3    0    0  0.16125705505E+02 -0.18777198964E+02 -0.35972183011E+02  0.43664854627E+02  0.00000000000E+00 0. -1.
</event>
<event>
 7    1  0.3027254E-013  0.7246156E+02  0.7816164E-02  0.1226708E+00
        -11   -1    0    0    0    0  0.00000000000E+00  0.00000000000E+00  0.45593999997E+02  0.45594000000E+02  0.51100000000E-03 0.  1.
         11   -1    0    0    0    0 -0.00000000000E+00 -0.00000000000E+00 -0.45593999997E+02  0.45594000000E+02  0.51100000000E-03 0. -1.
    9900012    2    1    2    0    0  0.86976147505E+01  0.10657739367E+02  0.12706047602E+02  0.72461559964E+02  0.69999986543E+02 0.  0.
         12    1    1    2    0    0 -0.86976147505E+01 -0.10657739367E+02 -0.12706047602E+02  0.18726440036E+02  0.00000000000E+00 0. -1.
         11    1    3    3    0    0  0.93086117887E+01 -0.62787449221E+01 -0.80857449892E+01  0.13836623993E+02  0.51100000000E-03 0. -1.
        -11    1    3    3    0    0  0.17647876500E+02 -0.11375965348E+02  0.99413791163E+01  0.23231253767E+02  0.51100000000E-03 0.  1.
         12    1    3    3    0    0 -0.18258873539E+02  0.28312449638E+02  0.10850413475E+02  0.35393682204E+02  0.00000000000E+00 0. -1.
</event>
<event>
 7    1  0.3027254E-013  0.7246158E+02  0.7816164E-02  0.1226708E+00
        -11   -1    0    0    0    0  0.00000000000E+00  0.00000000000E+00  0.45593999997E+02  0.45594000000E+02  0.51100000000E-03 0. -1.
         11   -1    0    0    0    0 -0.00000000000E+00 -0.00000000000E+00 -0.45593999997E+02  0.45594000000E+02  0.51100000000E-03 0.  1.
    9900012    2    1    2    0    0 -0.13615673580E+02 -0.65973861422E+01 -0.11034801474E+02  0.72461577102E+02  0.70000008869E+02 0.  0.
         12    1    1    2    0    0  0.13615673580E+02  0.65973861422E+01  0.11034801474E+02  0.18726422898E+02  0.00000000000E+00 0. -1.
         11    1    3    3    0    0 -0.11560301590E+02 -0.46852059165E+01  0.14103318209E+02  0.18828045892E+02  0.51100000000E-03 0. -1.
        -11    1    3    3    0    0 -0.15205851029E+02  0.18666502206E+01  0.83572840460E+01  0.17451260283E+02  0.51100000000E-03 0.  1.
        -12    1    3    3    0    0  0.13150479039E+02 -0.37788304463E+01 -0.33495403729E+02  0.36182270928E+02  0.00000000000E+00 0.  1.
</event>
<event>
 7    1  0.3027254E-013  0.7246158E+02  0.7816164E-02  0.1226708E+00
        -11   -1    0    0    0    0  0.00000000000E+00  0.00000000000E+00  0.45593999997E+02  0.45594000000E+02  0.51100000000E-03 0.  1.
         11   -1    0    0    0    0 -0.00000000000E+00 -0.00000000000E+00 -0.45593999997E+02  0.45594000000E+02  0.51100000000E-03 0. -1.
    9900012    2    1    2    0    0 -0.73907838398E+01 -0.62652704197E+01  0.16025027837E+02  0.72461579724E+02  0.70000012284E+02 0.  0.
         12    1    1    2    0    0  0.73907838398E+01  0.62652704197E+01 -0.16025027837E+02  0.18726420276E+02  0.00000000000E+00 0. -1.
         11    1    3    3    0    0 -0.37335989588E+01 -0.41878223956E+01  0.12989934658E+02  0.14149771033E+02  0.51100000000E-03 0. -1.
        -11    1    3    3    0    0 -0.29193237801E+02 -0.84911096161E+01 -0.49390423944E+01  0.30801594372E+02  0.51100000000E-03 0.  1.
         12    1    3    3    0    0  0.25536052920E+02  0.64136615920E+01  0.79741355731E+01  0.27510214319E+02  0.00000000000E+00 0. -1.
</event>
<event>
 7    1  0.3027254E-013  0.7246161E+02  0.7816164E-02  0.1226708E+00
        -11   -1    0    0    0    0  0.00000000000E+00  0.00000000000E+00  0.45593999997E+02  0.45594000000E+02  0.51100000000E-03 0. -1.
         11   -1    0    0    0    0 -0.00000000000E+00 -0.00000000000E+00 -0.45593999997E+02  0.45594000000E+02  0.51100000000E-03 0.  1.
    9900012    2    1    2    0    0 -0.14497417988E+02  0.14354909857E+00  0.11852508616E+02  0.72461609660E+02  0.70000051281E+02 0.  0.
         12    1    1    2    0    0  0.14497417988E+02 -0.14354909857E+00 -0.11852508616E+02  0.18726390340E+02  0.00000000000E+00 0. -1.
         11    1    3    3    0    0 -0.29714235015E+01 -0.28666378014E+01 -0.97611481596E+00  0.42426136172E+01  0.51100000000E-03 0. -1.
        -11    1    3    3    0    0 -0.33386217453E+02 -0.16824612842E+02  0.53312860786E+01  0.37764132780E+02  0.51100000000E-03 0.  1.
         12    1    3    3    0    0  0.21860222966E+02  0.19834799742E+02  0.74973373529E+01  0.30454863263E+02  0.00000000000E+00 0. -1.
</event>
<event>
 7    1  0.3027254E-013  0.7246155E+02  0.7816164E-02  0.1226708E+00
        -11   -1    0    0    0    0  0.00000000000E+00  0.00000000000E+00  0.45593999997E+02  0.45594000000E+02  0.51100000000E-03 0. -1.
         11   -1    0    0    0    0 -0.00000000000E+00 -0.00000000000E+00 -0.45593999997E+02  0.45594000000E+02  0.51100000000E-03 0.  1.
    9900012    2    1    2    0    0 -0.10822833054E+02 -0.66003516436E+01 -0.13783374420E+02  0.72461554327E+02  0.69999979200E+02 0.  0.
         12    1    1    2    0    0  0.10822833054E+02  0.66003516436E+01  0.13783374420E+02  0.18726445673E+02  0.00000000000E+00 0. -1.
         11    1    3    3    0    0  0.16552976434E+02 -0.59497003745E+01 -0.25188482469E+01  0.17769202574E+02  0.51100000000E-03 0. -1.
        -11    1    3    3    0    0 -0.37045017549E+02 -0.75069736256E+01  0.76280758698E+00  0.37805685470E+02  0.51100000000E-03 0.  1.
         12    1    3    3    0    0  0.96692080605E+01  0.68563223565E+01 -0.12027333760E+02  0.16886666283E+02  0.00000000000E+00 0. -1.
</event>
<event>
 7    1  0.3027254E-013  0.7246157E+02  0.7816164E-02  0.1226708E+00
        -11   -1    0    0    0    0  0.00000000000E+00  0.00000000000E+00  0.45593999997E+02  0.45594000000E+02  0.51100000000E-03 0.  1.
         11   -1    0    0    0    0 -0.00000000000E+00 -0.00000000000E+00 -0.45593999997E+02  0.45594000000E+02  0.51100000000E-03 0. -1.
    9900012    2    1    2    0    0  0.41806387374E+01  0.61797433217E+01  0.17175921109E+02  0.72461568581E+02  0.69999997768E+02 0.  0.
         12    1    1    2    0    0 -0.41806387374E+01 -0.61797433217E+01 -0.17175921109E+02  0.18726431419E+02  0.00000000000E+00 0. -1.
         11    1    3    3    0    0  0.69225355137E+01  0.26434281446E+02  0.82121090020E+01  0.28532989118E+02  0.51100000000E-03 0. -1.
        -11    1    3    3    0    0  0.52167300584E+01  0.91234563436E+01  0.84532561179E+01  0.13487374371E+02  0.51100000000E-03 0.  1.
        -12    1    3    3    0    0 -0.79586268348E+01 -0.29377994468E+02  0.51055598877E+00  0.30441205092E+02  0.00000000000E+00 0.  1.
</event>
<event>
 7    1  0.3027254E-013  0.7246159E+02  0.7816164E-02  0.1226708E+00
        -11   -1    0    0    0    0  0.00000000000E+00  0.00000000000E+00  0.45593999997E+02  0.45594000000E+02  0.51100000000E-03 0.  1.
         11   -1    0    0    0    0 -0.00000000000E+00 -0.00000000000E+00 -0.45593999997E+02  0.45594000000E+02  0.51100000000E-03 0. -1.
    9900012    2    1    2    0    0 -0.12964490145E+02 -0.13416946669E+02 -0.16081124421E+01  0.72461588483E+02  0.70000023695E+02 0.  0.
         12    1    1    2    0    0  0.12964490145E+02  0.13416946669E+02  0.16081124421E+01  0.18726411517E+02  0.00000000000E+00 0. -1.
         11    1    3    3    0    0  0.91376947892E+00 -0.21641345536E+01  0.13033392817E+01  0.26864747479E+01  0.51100000000E-03 0. -1.
        -11    1    3    3    0    0  0.76867662698E+01 -0.23316413939E+02  0.23233167574E+02  0.33801207234E+02  0.51100000000E-03 0.  1.
         12    1    3    3    0    0 -0.21565025894E+02  0.12063601823E+02 -0.26144619298E+02  0.35973906502E+02  0.00000000000E+00 0. -1.
</event>
<event>
 7    1  0.3027254E-013  0.7246137E+02  0.7816164E-02  0.1226709E+00
        -11   -1    0    0    0    0  0.00000000000E+00  0.00000000000E+00  0.45593999997E+02  0.45594000000E+02  0.51100000000E-03 0.  1.
         11   -1    0    0    0    0 -0.00000000000E+00 -0.00000000000E+00 -0.45593999997E+02  0.45594000000E+02  0.51100000000E-03 0. -1.
    9900012    2    1    2    0    0 -0.35350391169E+01  0.15449183031E+02  0.99756087330E+01  0.72461373836E+02  0.69999744076E+02 0.  0.
         12    1    1    2    0    0  0.35350391169E+01 -0.15449183031E+02 -0.99756087330E+01  0.18726626164E+02  0.00000000000E+00 0. -1.
         11    1    3    3    0    0 -0.12171687148E+02  0.27295236941E+02 -0.18400491049E+02  0.35096410056E+02  0.51100000000E-03 0. -1.
        -11    1    3    3    0    0 -0.27166620966E+01  0.19400092194E+01 -0.53668290619E+00  0.33811118765E+01  0.51100000000E-03 0.  1.
        -12    1    3    3    0    0  0.11353310127E+02 -0.13786063129E+02  0.28912782689E+02  0.33983851904E+02  0.00000000000E+00 0.  1.
</event>
<event>
 7    1  0.3027254E-013  0.7246158E+02  0.7816164E-02  0.1226708E+00
        -11   -1    0    0    0    0  0.00000000000E+00  0.00000000000E+00  0.45593999997E+02  0.45594000000E+02  0.51100000000E-03 0. -1.
         11   -1    0    0    0    0 -0.00000000000E+00 -0.00000000000E+00 -0.45593999997E+02  0.45594000000E+02  0.51100000000E-03 0.  1.
    9900012    2    1    2    0    0 -0.50261028260E+01  0.15583900035E+02 -0.90862101790E+01  0.72461578416E+02  0.70000010581E+02 0.  0.
         12    1    1    2    0    0  0.50261028260E+01 -0.15583900035E+02  0.90862101790E+01  0.18726421584E+02  0.00000000000E+00 0. -1.
         11    1    3    3    0    0 -0.20900520217E+02 -0.35510674454E+01  0.36578844372E+01  0.21513296916E+02  0.51100000000E-03 0. -1.
        -11    1    3    3    0    0  0.31516022013E+01  0.62055871212E+01  0.15722122844E+02  0.17193808622E+02  0.51100000000E-03 0.  1.
        -12    1    3    3    0    0  0.12722815190E+02  0.12929380359E+02 -0.28466217460E+02  0.33754472879E+02  0.00000000000E+00 0.  1.
</event>
<event>
 7    1  0.3027254E-013  0.7246152E+02  0.7816164E-02  0.1226708E+00
        -11   -1    0    0    0    0  0.00000000000E+00  0.00000000000E+00  0.45593999997E+02  0.45594000000E+02  0.51100000000E-03 0.  1.
         11   -1    0    0    0    0 -0.00000000000E+00 -0.00000000000E+00 -0.45593999997E+02  0.45594000000E+02  0.51100000000E-03 0. -1.
    9900012    2    1    2    0    0  0.15518801540E+02  0.51960717278E+01  0.91021293192E+01  0.72461518195E+02  0.69999932131E+02 0.  0.
         12    1    1    2    0    0 -0.15518801540E+02 -0.51960717278E+01 -0.91021293192E+01  0.18726481805E+02  0.00000000000E+00 0. -1.
         11    1    3    3    0    0 -0.68822691269E+01 -0.62574663299E+01  0.23190815276E+02  0.24986704998E+02  0.51100000000E-03 0. -1.
        -11    1    3    3    0    0  0.13431167289E+02 -0.10606747335E+02  0.39929889172E+01  0.17573938219E+02  0.51100000000E-03 0.  1.
        -12    1    3    3    0    0  0.89699033776E+01  0.22060285393E+02 -0.18081674874E+02  0.29900874978E+02  0.00000000000E+00 0.  1.
</event>
<event>
 7    1  0.3027254E-013  0.7246159E+02  0.7816164E-02  0.1226708E+00
        -11   -1    0    0    0    0  0.00000000000E+00  0.00000000000E+00  0.45593999997E+02  0.45594000000E+02  0.51100000000E-03 0. -1.
         11   -1    0    0    0    0 -0.00000000000E+00 -0.00000000000E+00 -0.45593999997E+02  0.45594000000E+02  0.51100000000E-03 0.  1.
    9900012    2    1    2    0    0 -0.56298706233E+01  0.14940200719E+02  0.97863826785E+01  0.72461592798E+02  0.70000029316E+02 0.  0.
         12    1    1    2    0    0  0.56298706233E+01 -0.14940200719E+02 -0.97863826785E+01  0.18726407202E+02  0.00000000000E+00 0. -1.
         11    1    3    3    0    0  0.10357216199E+02  0.96041934847E-01  0.40562301234E+01  0.11123585507E+02  0.51100000000E-03 0. -1.
        -11    1    3    3    0    0  0.18657824902E+02 -0.66326467758E+01  0.55914935965E+01  0.20575986835E+02  0.51100000000E-03 0.  1.
         12    1    3    3    0    0 -0.34644911724E+02  0.21476805560E+02  0.13865895852E+00  0.40762020457E+02  0.00000000000E+00 0. -1.
</event>
<event>
 7    1  0.3027254E-013  0.7246157E+02  0.7816164E-02  0.1226708E+00
        -11   -1    0    0    0    0  0.00000000000E+00  0.00000000000E+00  0.45593999997E+02  0.45594000000E+02  0.51100000000E-03 0. -1.
         11   -1    0    0    0    0 -0.00000000000E+00 -0.00000000000E+00 -0.45593999997E+02  0.45594000000E+02  0.51100000000E-03 0.  1.
    9900012    2    1    2    0    0  0.32980620870E+01 -0.15830510256E+01 -0.18365616844E+02  0.72461570918E+02  0.70000000813E+02 0.  0.
         12    1    1    2    0    0 -0.32980620870E+01  0.15830510256E+01  0.18365616844E+02  0.18726429082E+02  0.00000000000E+00 0. -1.
         11    1    3    3    0    0 -0.34571145255E+01  0.20096505715E+01 -0.39120274233E+01  0.55941304136E+01  0.51100000000E-03 0. -1.
        -11    1    3    3    0    0 -0.19797453600E+02 -0.18696264299E+02 -0.22448858232E+02  0.35290801974E+02  0.51100000000E-03 0.  1.
         12    1    3    3    0    0  0.26552630213E+02  0.15103562702E+02  0.79952688113E+01  0.31576638531E+02  0.00000000000E+00 0. -1.
</event>
<event>
 7    1  0.3027254E-013  0.7246177E+02  0.7816164E-02  0.1226707E+00
        -11   -1    0    0    0    0  0.00000000000E+00  0.00000000000E+00  0.45593999997E+02  0.45594000000E+02  0.51100000000E-03 0. -1.
         11   -1    0    0    0    0 -0.00000000000E+00 -0.00000000000E+00 -0.45593999997E+02  0.45594000000E+02  0.51100000000E-03 0.  1.
    9900012    2    1    2    0    0  0.38148667517E+01  0.16298016869E+02 -0.83960242607E+01  0.72461767448E+02  0.70000256829E+02 0.  0.
         12    1    1    2    0    0 -0.38148667517E+01 -0.16298016869E+02  0.83960242607E+01  0.18726232552E+02  0.00000000000E+00 0. -1.
         11    1    3    3    0    0  0.40097469506E+01  0.33301636974E+02 -0.13866929394E+02  0.36295575857E+02  0.51100000000E-03 0. -1.
        -11    1    3    3    0    0 -0.82663706910E+01 -0.22892653190E+00 -0.92689202120E+01  0.12421681606E+02  0.51100000000E-03 0.  1.
        -12    1    3    3    0    0  0.80714904921E+01 -0.16774693572E+02  0.14739825346E+02  0.23744509985E+02  0.00000000000E+00 0.  1.
</event>
<event>
 7    1  0.3027254E-013  0.7246156E+02  0.7816164E-02  0.1226708E+00
        -11   -1    0    0    0    0  0.00000000000E+00  0.00000000000E+00  0.45593999997E+02  0.45594000000E+02  0.51100000000E-03 0.  1.
         11   -1    0    0    0    0 -0.00000000000E+00 -0.00000000000E+00 -0.45593999997E+02  0.45594000000E+02  0.51100000000E-03 0. -1.
    9900012    2    1    2    0    0  0.13699902310E+02 -0.12640761383E+02  0.17898401487E+01  0.72461556146E+02  0.69999981569E+02 0.  0.
         12    1    1    2    0    0 -0.13699902310E+02  0.12640761383E+02 -0.17898401487E+01  0.18726443854E+02  0.00000000000E+00 0. -1.
         11    1    3    3    0    0  0.63607922309E+01  0.13177483435E+02  0.11471321037E+02  0.18592927528E+02  0.51100000000E-03 0.  1.
        -11    1    3    3    0    0 -0.19382793077E+02 -0.11264418362E+02 -0.60794680880E+01  0.23227994339E+02  0.51100000000E-03 0. -1.
         12    1    3    3    0    0  0.26721903156E+02 -0.14553826456E+02 -0.36020128001E+01  0.30640634279E+02  0.00000000000E+00 0. -1.
</event>
<event>
 7    1  0.3027254E-013  0.7246172E+02  0.7816164E-02  0.1226708E+00
        -11   -1    0    0    0    0  0.00000000000E+00  0.00000000000E+00  0.45593999997E+02  0.45594000000E+02  0.51100000000E-03 0. -1.
         11   -1    0    0    0    0 -0.00000000000E+00 -0.00000000000E+00 -0.45593999997E+02  0.45594000000E+02  0.51100000000E-03 0.  1.
    9900012    2    1    2    0    0 -0.17622325207E+02  0.31034850225E+01 -0.55222758694E+01  0.72461721785E+02  0.70000197345E+02 0.  0.
         12    1    1    2    0    0  0.17622325207E+02 -0.31034850225E+01  0.55222758694E+01  0.18726278215E+02  0.00000000000E+00 0. -1.
         11    1    3    3    0    0 -0.22339987290E+01  0.59150120687E+00  0.42720447800E+01  0.48570557813E+01  0.51100000000E-03 0. -1.
        -11    1    3    3    0    0  0.25704701581E+02  0.27832467598E+00 -0.27572096722E+01  0.25853652613E+02  0.51100000000E-03 0.  1.
         12    1    3    3    0    0 -0.41093028060E+02  0.22336591396E+01 -0.70371109772E+01  0.41751013391E+02  0.00000000000E+00 0. -1.
</event>
<event>
 7    1  0.3087869E-013  0.7246156E+02  0.7816164E-02  0.1226708E+00
        -11   -1    0    0    0    0  0.00000000000E+00  0.00000000000E+00  0.45593999997E+02  0.45594000000E+02  0.51100000000E-03 0.  1.
         11   -1    0    0    0    0 -0.00000000000E+00 -0.00000000000E+00 -0.45593999997E+02  0.45594000000E+02  0.51100000000E-03 0. -1.
    9900012    2    1    2    0    0  0.72968919142E+01 -0.16217699725E+02  0.58669553412E+01  0.72461559309E+02  0.69999985690E+02 0.  0.
         12    1    1    2    0    0 -0.72968919142E+01  0.16217699725E+02 -0.58669553412E+01  0.18726440691E+02  0.00000000000E+00 0. -1.
         11    1    3    3    0    0  0.86195427316E+01  0.19799548345E+02 -0.10448071370E+02  0.23989181461E+02  0.51100000000E-03 0. -1.
        -11    1    3    3    0    0 -0.15158101550E+01  0.18275916090E+01  0.97835692707E+01  0.10067571676E+02  0.51100000000E-03 0.  1.
        -12    1    3    3    0    0  0.19315933766E+00 -0.37844839679E+02  0.65314574407E+01  0.38404806172E+02  0.00000000000E+00 0.  1.
</event>
<event>
 7    1  0.3027254E-013  0.7246159E+02  0.7816164E-02  0.1226708E+00
        -11   -1    0    0    0    0  0.00000000000E+00  0.00000000000E+00  0.45593999997E+02  0.45594000000E+02  0.51100000000E-03 0. -1.
         11   -1    0    0    0    0 -0.00000000000E+00 -0.00000000000E+00 -0.45593999997E+02  0.45594000000E+02  0.51100000000E-03 0.  1.
    9900012    2    1    2    0    0 -0.10126197734E+02 -0.14521560925E+02 -0.61043310075E+01  0.72461588990E+02  0.70000024355E+02 0.  0.
         12    1    1    2    0    0  0.10126197734E+02  0.14521560925E+02  0.61043310075E+01  0.18726411010E+02  0.00000000000E+00 0. -1.
         11    1    3    3    0    0 -0.23393144656E+02 -0.12442160085E+02 -0.15668002151E+02  0.30782021638E+02  0.51100000000E-03 0. -1.
        -11    1    3    3    0    0 -0.86262499888E+01  0.11245010800E+02  0.73229393966E+01  0.15952676842E+02  0.51100000000E-03 0.  1.
        -12    1    3    3    0    0  0.21893196911E+02 -0.13324411641E+02  0.22407317467E+01  0.25726890510E+02  0.00000000000E+00 0.  1.
</event>
<event>
 7    1  0.3027254E-013  0.7246170E+02  0.7816164E-02  0.1226708E+00
        -11   -1    0    0    0    0  0.00000000000E+00  0.00000000000E+00  0.45593999997E+02  0.45594000000E+02  0.51100000000E-03 0.  1.
         11   -1    0    0    0    0 -0.00000000000E+00 -0.00000000000E+00 -0.45593999997E+02  0.45594000000E+02  0.51100000000E-03 0. -1.
    9900012    2    1    2    0    0 -0.62702396784E+01  0.17515698154E+02  0.21351508247E+01  0.72461696134E+02  0.70000163929E+02 0.  0.
         12    1    1    2    0    0  0.62702396784E+01 -0.17515698154E+02 -0.21351508247E+01  0.18726303866E+02  0.00000000000E+00 0. -1.
         11    1    3    3    0    0 -0.99282600226E+01  0.24329114923E+02 -0.15681524523E+01  0.26323663924E+02  0.51100000000E-03 0. -1.
        -11    1    3    3    0    0 -0.58256547020E+01  0.16196471337E+02 -0.75856606747E+01  0.18809736431E+02  0.51100000000E-03 0.  1.
         12    1    3    3    0    0  0.94836750462E+01 -0.23009888106E+02  0.11288963952E+02  0.27328295778E+02  0.00000000000E+00 0. -1.
</event>
<event>
 7    1  0.3027254E-013  0.7246218E+02  0.7816164E-02  0.1226706E+00
        -11   -1    0    0    0    0  0.00000000000E+00  0.00000000000E+00  0.45593999997E+02  0.45594000000E+02  0.51100000000E-03 0. -1.
         11   -1    0    0    0    0 -0.00000000000E+00 -0.00000000000E+00 -0.45593999997E+02  0.45594000000E+02  0.51100000000E-03 0.  1.
    9900012    2    1    2    0    0 -0.33997328616E+01  0.88720597223E+01 -0.16136444671E+02  0.72462176283E+02  0.70000789409E+02 0.  0.
         12    1    1    2    0    0  0.33997328616E+01 -0.88720597223E+01  0.16136444671E+02  0.18725823717E+02  0.00000000000E+00 0. -1.
         11    1    3    3    0    0 -0.15589698965E+02  0.14643276049E+01  0.49765890570E+01  0.16430137189E+02  0.51100000000E-03 0. -1.
        -11    1    3    3    0    0 -0.10448938313E+02  0.22029551151E+02 -0.59048525109E+01  0.25086823617E+02  0.51100000000E-03 0.  1.
         12    1    3    3    0    0  0.22638904416E+02 -0.14621819033E+02 -0.15208181217E+02  0.30945215477E+02  0.00000000000E+00 0. -1.
</event>
<event>
 7    1  0.3027254E-013  0.7246162E+02  0.7816164E-02  0.1226708E+00
        -11   -1    0    0    0    0  0.00000000000E+00  0.00000000000E+00  0.45593999997E+02  0.45594000000E+02  0.51100000000E-03 0.  1.
         11   -1    0    0    0    0 -0.00000000000E+00 -0.00000000000E+00 -0.45593999997E+02  0.45594000000E+02  0.51100000000E-03 0. -1.
    9900012    2    1    2    0    0  0.82620265925E+01 -0.16719812291E+02  0.16923466835E+01  0.72461621712E+02  0.70000066982E+02 0.  0.
         12    1    1    2    0    0 -0.82620265925E+01  0.16719812291E+02 -0.16923466835E+01  0.18726378288E+02  0.00000000000E+00 0. -1.
         11    1    3    3    0    0  0.18007308521E+01 -0.11431220435E+02  0.14284467922E+02  0.18383728031E+02  0.51100000000E-03 0. -1.
        -11    1    3    3    0    0  0.26990491262E+02 -0.74270611659E+01 -0.17299319950E+02  0.32907663653E+02  0.51100000000E-03 0.  1.
         12    1    3    3    0    0 -0.20529195521E+02  0.21384693100E+01  0.47071987109E+01  0.21170230028E+02  0.00000000000E+00 0. -1.
</event>
<event>
 7    1  0.3027254E-013  0.7246180E+02  0.7816164E-02  0.1226707E+00
        -11   -1    0    0    0    0  0.00000000000E+00  0.00000000000E+00  0.45593999997E+02  0.45594000000E+02  0.51100000000E-03 0.  1.
         11   -1    0    0    0    0 -0.00000000000E+00 -0.00000000000E+00 -0.45593999997E+02  0.45594000000E+02  0.51100000000E-03 0. -1.
    9900012    2    1    2    0    0 -0.93188586881E+01 -0.16027427514E+02  0.26364674497E+01  0.72461801225E+02  0.70000300829E+02 0.  0.
         12    1    1    2    0    0  0.93188586881E+01  0.16027427514E+02 -0.26364674497E+01  0.18726198775E+02  0.00000000000E+00 0. -1.
         11    1    3    3    0    0 -0.53545184926E+01  0.22035471065E+01  0.30240146195E+01  0.65323160378E+01  0.51100000000E-03 0. -1.
        -11    1    3    3    0    0  0.14416016783E+02  0.69023265901E+01  0.22276612687E+02  0.27417350808E+02  0.51100000000E-03 0.  1.
         12    1    3    3    0    0 -0.18380356978E+02 -0.25133301210E+02 -0.22664159857E+02  0.38512134379E+02  0.00000000000E+00 0. -1.
</event>
<event>
 7    1  0.3027254E-013  0.7246152E+02  0.7816164E-02  0.1226708E+00
        -11   -1    0    0    0    0  0.00000000000E+00  0.00000000000E+00  0.45593999997E+02  0.45594000000E+02  0.51100000000E-03 0. -1.
         11   -1    0    0    0    0 -0.00000000000E+00 -0.00000000000E+00 -0.45593999997E+02  0.45594000000E+02  0.51100000000E-03 0.  1.
    9900012    2    1    2    0    0  0.38066136896E+01 -0.98846513644E+01 -0.15442946142E+02  0.72461515388E+02  0.69999928474E+02 0.  0.
         12    1    1    2    0    0 -0.38066136896E+01  0.98846513644E+01  0.15442946142E+02  0.18726484612E+02  0.00000000000E+00 0. -1.
         11    1    3    3    0    0  0.64701189167E+01  0.40388171894E+01 -0.15657548295E+02  0.17416466402E+02  0.51100000000E-03 0. -1.
        -11    1    3    3    0    0  0.37183600370E+01 -0.33748287081E+02  0.27543913828E+01  0.34064053699E+02  0.51100000000E-03 0.  1.
         12    1    3    3    0    0 -0.63818652640E+01  0.19824818527E+02 -0.25397892305E+01  0.20980995287E+02  0.00000000000E+00 0. -1.
</event>
<event>
 7    1  0.3027254E-013  0.7246158E+02  0.7816164E-02  0.1226708E+00
        -11   -1    0    0    0    0  0.00000000000E+00  0.00000000000E+00  0.45593999997E+02  0.45594000000E+02  0.51100000000E-03 0.  1.
         11   -1    0    0    0    0 -0.00000000000E+00 -0.00000000000E+00 -0.45593999997E+02  0.45594000000E+02  0.51100000000E-03 0. -1.
    9900012    2    1    2    0    0 -0.76891292471E+01 -0.25062915234E+01  0.16890078637E+02  0.72461575831E+02  0.70000007213E+02 0.  0.
         12    1    1    2    0    0  0.76891292471E+01  0.25062915234E+01 -0.16890078637E+02  0.18726424169E+02  0.00000000000E+00 0. -1.
         11    1    3    3    0    0 -0.17358465091E+01 -0.82145916030E+01  0.63162328788E+00  0.84197165360E+01  0.51100000000E-03 0. -1.
        -11    1    3    3    0    0 -0.92049597508E+01 -0.27151319579E+02  0.46689530368E+01  0.29046937216E+02  0.51100000000E-03 0.  1.
        -12    1    3    3    0    0  0.32516770128E+01  0.32859619659E+02  0.11589502313E+02  0.34994922080E+02  0.00000000000E+00 0.  1.
</event>
<event>
 7    1  0.3027254E-013  0.7246235E+02  0.7816164E-02  0.1226706E+00
        -11   -1    0    0    0    0  0.00000000000E+00  0.00000000000E+00  0.45593999997E+02  0.45594000000E+02  0.51100000000E-03 0.  1.
         11   -1    0    0    0    0 -0.00000000000E+00 -0.00000000000E+00 -0.45593999997E+02  0.45594000000E+02  0.51100000000E-03 0. -1.
    9900012    2    1    2    0    0  0.11642838673E+01  0.18665220581E+02  0.95068379653E+00  0.72462354058E+02  0.70001020990E+02 0.  0.
         12    1    1    2    0    0 -0.11642838673E+01 -0.18665220581E+02 -0.95068379653E+00  0.18725645942E+02  0.00000000000E+00 0. -1.
         11    1    3    3    0    0  0.73643756157E+01 -0.12921864296E+02  0.74534449796E+00  0.14891747505E+02  0.51100000000E-03 0. -1.
        -11    1    3    3    0    0  0.17127756217E+01 -0.10055895423E+02 -0.96608412528E+01  0.14049430133E+02  0.51100000000E-03 0.  1.
        -12    1    3    3    0    0 -0.79128673701E+01  0.41642980300E+02  0.98661805513E+01  0.43521176420E+02  0.00000000000E+00 0.  1.
</event>
<event>
 7    1  0.3391744E-013  0.7246156E+02  0.7816164E-02  0.1226708E+00
        -11   -1    0    0    0    0  0.00000000000E+00  0.00000000000E+00  0.45593999997E+02  0.45594000000E+02  0.51100000000E-03 0. -1.
         11   -1    0    0    0    0 -0.00000000000E+00 -0.00000000000E+00 -0.45593999997E+02  0.45594000000E+02  0.51100000000E-03 0.  1.
    9900012    2    1    2    0    0  0.13564792551E+02 -0.11406261372E+02 -0.60475863297E+01  0.72461556241E+02  0.69999981693E+02 0.  0.
         12    1    1    2    0    0 -0.13564792551E+02  0.11406261372E+02  0.60475863297E+01  0.18726443759E+02  0.00000000000E+00 0. -1.
         11    1    3    3    0    0 -0.11629971707E+02  0.76383949452E+01  0.15748201459E+02  0.21014451425E+02  0.51100000000E-03 0. -1.
        -11    1    3    3    0    0  0.10507119042E+02  0.92130540079E+01 -0.24577249004E+01  0.14188739432E+02  0.51100000000E-03 0.  1.
        -12    1    3    3    0    0  0.14687645216E+02 -0.28257710325E+02 -0.19338062888E+02  0.37258365384E+02  0.00000000000E+00 0.  1.
</event>
<event>
 7    1  0.3027254E-013  0.7246160E+02  0.7816164E-02  0.1226708E+00
        -11   -1    0    0    0    0  0.00000000000E+00  0.00000000000E+00  0.45593999997E+02  0.45594000000E+02  0.51100000000E-03 0.  1.
         11   -1    0    0    0    0 -0.00000000000E+00 -0.00000000000E+00 -0.45593999997E+02  0.45594000000E+02  0.51100000000E-03 0. -1.
    9900012    2    1    2    0    0  0.26103422563E+01  0.18357251279E+02 -0.26220953816E+01  0.72461602978E+02  0.70000042577E+02 0.  0.
         12    1    1    2    0    0 -0.26103422563E+01 -0.18357251279E+02  0.26220953816E+01  0.18726397022E+02  0.00000000000E+00 0. -1.
         11    1    3    3    0    0  0.44851741543E+00  0.15921822469E+01 -0.17788423178E+02  0.17865167550E+02  0.51100000000E-03 0. -1.
        -11    1    3    3    0    0 -0.11257860205E+02 -0.14523518881E+02  0.44869172482E+01  0.18915719488E+02  0.51100000000E-03 0.  1.
        -12    1    3    3    0    0  0.13419685046E+02  0.31288587914E+02  0.10679410548E+02  0.35680715940E+02  0.00000000000E+00 0.  1.
</event>
<event>
 7    1  0.3027254E-013  0.7246154E+02  0.7816164E-02  0.1226708E+00
        -11   -1    0    0    0    0  0.00000000000E+00  0.00000000000E+00  0.45593999997E+02  0.45594000000E+02  0.51100000000E-03 0. -1.
         11   -1    0    0    0    0 -0.00000000000E+00 -0.00000000000E+00 -0.45593999997E+02  0.45594000000E+02  0.51100000000E-03 0.  1.
    9900012    2    1    2    0    0  0.49656930496E+01 -0.14280648671E+02 -0.11049221817E+02  0.72461539131E+02  0.69999959404E+02 0.  0.
         12    1    1    2    0    0 -0.49656930496E+01  0.14280648671E+02  0.11049221817E+02  0.18726460869E+02  0.00000000000E+00 0. -1.
         11    1    3    3    0    0  0.81560347144E+01 -0.28038795369E+02 -0.82300518186E+01  0.30338567883E+02  0.51100000000E-03 0. -1.
        -11    1    3    3    0    0 -0.53166953995E+01 -0.13444982215E+02  0.13469774584E+01  0.14520645484E+02  0.51100000000E-03 0.  1.
        -12    1    3    3    0    0  0.21263537347E+01  0.27203128914E+02 -0.41661474569E+01  0.27602325763E+02  0.00000000000E+00 0.  1.
</event>
<event>
 7    1  0.3027254E-013  0.7246150E+02  0.7816164E-02  0.1226708E+00
        -11   -1    0    0    0    0  0.00000000000E+00  0.00000000000E+00  0.45593999997E+02  0.45594000000E+02  0.51100000000E-03 0. -1.
         11   -1    0    0    0    0 -0.00000000000E+00 -0.00000000000E+00 -0.45593999997E+02  0.45594000000E+02  0.51100000000E-03 0.  1.
    9900012    2    1    2    0    0 -0.14081055251E+02 -0.63121027103E+01 -0.10609573209E+02  0.72461500026E+02  0.69999908462E+02 0.  0.
         12    1    1    2    0    0  0.14081055251E+02  0.63121027103E+01  0.10609573209E+02  0.18726499974E+02  0.00000000000E+00 0. -1.
         11    1    3    3    0    0  0.12409020433E+02  0.54926617583E+01  0.12380464344E+02  0.18369241109E+02  0.51100000000E-03 0. -1.
        -11    1    3    3    0    0  0.73778397893E+01  0.70256291916E+01 -0.54946441792E+01  0.11575106929E+02  0.51100000000E-03 0.  1.
        -12    1    3    3    0    0 -0.33867915473E+02 -0.18830393660E+02 -0.17495393373E+02  0.42517151988E+02  0.00000000000E+00 0.  1.
</event>
<event>
 7    1  0.3027254E-013  0.7246157E+02  0.7816164E-02  0.1226708E+00
        -11   -1    0    0    0    0  0.00000000000E+00  0.00000000000E+00  0.45593999997E+02  0.45594000000E+02  0.51100000000E-03 0.  1.
         11   -1    0    0    0    0 -0.00000000000E+00 -0.00000000000E+00 -0.45593999997E+02  0.45594000000E+02  0.51100000000E-03 0. -1.
    9900012    2    1    2    0    0 -0.12810535204E+02 -0.49344684204E-01  0.13658952108E+02  0.72461568952E+02  0.69999998251E+02 0.  0.
         12    1    1    2    0    0  0.12810535204E+02  0.49344684204E-01 -0.13658952108E+02  0.18726431048E+02  0.00000000000E+00 0. -1.
         11    1    3    3    0    0  0.82569442335E+01  0.11181592096E+00 -0.48108171605E+00  0.82717030142E+01  0.51100000000E-03 0. -1.
        -11    1    3    3    0    0  0.19514714568E+02  0.74955168421E+01  0.82501486519E+01  0.22473802758E+02  0.51100000000E-03 0.  1.
         12    1    3    3    0    0 -0.40582194006E+02 -0.76566774473E+01  0.58898851719E+01  0.41716063179E+02  0.00000000000E+00 0. -1.
</event>
<event>
 7    1  0.3027254E-013  0.7246143E+02  0.7816164E-02  0.1226708E+00
        -11   -1    0    0    0    0  0.00000000000E+00  0.00000000000E+00  0.45593999997E+02  0.45594000000E+02  0.51100000000E-03 0. -1.
         11   -1    0    0    0    0 -0.00000000000E+00 -0.00000000000E+00 -0.45593999997E+02  0.45594000000E+02  0.51100000000E-03 0.  1.
    9900012    2    1    2    0    0  0.87972606136E-01 -0.17632464827E+02 -0.63065605230E+01  0.72461434359E+02  0.69999822919E+02 0.  0.
         12    1    1    2    0    0 -0.87972606136E-01  0.17632464827E+02  0.63065605230E+01  0.18726565641E+02  0.00000000000E+00 0. -1.
         11    1    3    3    0    0  0.68833388270E+00  0.30968832503E+01  0.15648751524E+01  0.35374176887E+01  0.51100000000E-03 0. -1.
        -11    1    3    3    0    0 -0.27505367492E+02 -0.28266650312E+02  0.14562940120E+01  0.39467322600E+02  0.51100000000E-03 0.  1.
         12    1    3    3    0    0  0.26905006215E+02  0.75373022346E+01 -0.93277296874E+01  0.29456694070E+02  0.00000000000E+00 0. -1.
</event>
<event>
 7    1  0.3027254E-013  0.7246152E+02  0.7816164E-02  0.1226708E+00
        -11   -1    0    0    0    0  0.00000000000E+00  0.00000000000E+00  0.45593999997E+02  0.45594000000E+02  0.51100000000E-03 0.  1.
         11   -1    0    0    0    0 -0.00000000000E+00 -0.00000000000E+00 -0.45593999997E+02  0.45594000000E+02  0.51100000000E-03 0. -1.
    9900012    2    1    2    0    0  0.15924629661E+02 -0.32773195414E+01 -0.92922767675E+01  0.72461519799E+02  0.69999934220E+02 0.  0.
         12    1    1    2    0    0 -0.15924629661E+02  0.32773195414E+01  0.92922767675E+01  0.18726480201E+02  0.00000000000E+00 0. -1.
         11    1    3    3    0    0  0.26358534785E+01 -0.21936130737E+01  0.12705565864E+01  0.36570447328E+01  0.51100000000E-03 0. -1.
        -11    1    3    3    0    0  0.40187171175E+02 -0.18443356097E+01 -0.98472526427E+00  0.40241520659E+02  0.51100000000E-03 0.  1.
         12    1    3    3    0    0 -0.26898394992E+02  0.76062914201E+00 -0.95781080896E+01  0.28562954407E+02  0.00000000000E+00 0. -1.
</event>
<event>
 7    1  0.3027254E-013  0.7246155E+02  0.7816164E-02  0.1226708E+00
        -11   -1    0    0    0    0  0.00000000000E+00  0.00000000000E+00  0.45593999997E+02  0.45594000000E+02  0.51100000000E-03 0. -1.
         11   -1    0    0    0    0 -0.00000000000E+00 -0.00000000000E+00 -0.45593999997E+02  0.45594000000E+02  0.51100000000E-03 0.  1.
    9900012    2    1    2    0    0 -0.50391877155E+01  0.15886518311E+02  0.85384399911E+01  0.72461552543E+02  0.69999976875E+02 0.  0.
         12    1    1    2    0    0  0.50391877155E+01 -0.15886518311E+02 -0.85384399911E+01  0.18726447457E+02  0.00000000000E+00 0. -1.
         11    1    3    3    0    0  0.21639997376E+01 -0.94461630283E+01  0.16173426736E+01  0.98249014452E+01  0.51100000000E-03 0. -1.
        -11    1    3    3    0    0 -0.31890426708E+02  0.16769098402E+02  0.56921594122E+01  0.36477426661E+02  0.51100000000E-03 0.  1.
        -12    1    3    3    0    0  0.24687239255E+02  0.85635829378E+01  0.12289379053E+01  0.26159224436E+02  0.00000000000E+00 0.  1.
</event>
<event>
 7    1  0.3027254E-013  0.7246143E+02  0.7816164E-02  0.1226708E+00
        -11   -1    0    0    0    0  0.00000000000E+00  0.00000000000E+00  0.45593999997E+02  0.45594000000E+02  0.51100000000E-03 0. -1.
         11   -1    0    0    0    0 -0.00000000000E+00 -0.00000000000E+00 -0.45593999997E+02  0.45594000000E+02  0.51100000000E-03 0.  1.
    9900012    2    1    2    0    0  0.65480240232E+01  0.16386842620E+02  0.62673246403E+01  0.72461425626E+02  0.69999811542E+02 0.  0.
         12    1    1    2    0    0 -0.65480240232E+01 -0.16386842620E+02 -0.62673246403E+01  0.18726574374E+02  0.00000000000E+00 0. -1.
         11    1    3    3    0    0  0.74949867546E+01 -0.65296411205E+01  0.62398390230E+01  0.11736551065E+02  0.51100000000E-03 0. -1.
        -11    1    3    3    0    0  0.25901669971E+02  0.76415140729E+00 -0.34337008403E+00  0.25915214411E+02  0.51100000000E-03 0.  1.
         12    1    3    3    0    0 -0.26848632703E+02  0.22152332333E+02  0.37085570126E+00  0.34809660150E+02  0.00000000000E+00 0. -1.
</event>
<event>
 7    1  0.3027254E-013  0.7246158E+02  0.7816164E-02  0.1226708E+00
        -11   -1    0    0    0    0  0.00000000000E+00  0.00000000000E+00  0.45593999997E+02  0.45594000000E+02  0.51100000000E-03 0. -1.
         11   -1    0    0    0    0 -0.00000000000E+00 -0.00000000000E+00 -0.45593999997E+02  0.45594000000E+02  0.51100000000E-03 0.  1.
    9900012    2    1    2    0    0 -0.79680229446E+01 -0.24188972132E+01 -0.16773148862E+02  0.72461575459E+02  0.70000006727E+02 0.  0.
         12    1    1    2    0    0  0.79680229446E+01  0.24188972132E+01  0.16773148862E+02  0.18726424541E+02  0.00000000000E+00 0. -1.
         11    1    3    3    0    0 -0.16750236344E+01 -0.21817266563E+01 -0.40241038778E+01  0.48743253542E+01  0.51100000000E-03 0. -1.
        -11    1    3    3    0    0  0.28560446249E+02 -0.18903714935E+01 -0.15564755276E+02  0.32581193984E+02  0.51100000000E-03 0.  1.
         12    1    3    3    0    0 -0.34853445559E+02  0.16532009366E+01  0.28157102925E+01  0.35006056121E+02  0.00000000000E+00 0. -1.
</event>
<event>
 7    1  0.3027254E-013  0.7246159E+02  0.7816164E-02  0.1226708E+00
        -11   -1    0    0    0    0  0.00000000000E+00  0.00000000000E+00  0.45593999997E+02  0.45594000000E+02  0.51100000000E-03 0. -1.
         11   -1    0    0    0    0 -0.00000000000E+00 -0.00000000000E+00 -0.45593999997E+02  0.45594000000E+02  0.51100000000E-03 0.  1.
    9900012    2    1    2    0    0 -0.15300676379E+02 -0.59344226135E+01 -0.90194392311E+01  0.72461592084E+02  0.70000028385E+02 0.  0.
         12    1    1    2    0    0  0.15300676379E+02  0.59344226135E+01  0.90194392311E+01  0.18726407916E+02  0.00000000000E+00 0. -1.
         11    1    3    3    0    0  0.77976325153E+01 -0.12795946861E+02  0.91504266125E+01  0.17557609073E+02  0.51100000000E-03 0. -1.
        -11    1    3    3    0    0  0.12294864962E+02 -0.15184519090E+01 -0.13353162014E+02  0.18214728564E+02  0.51100000000E-03 0.  1.
         12    1    3    3    0    0 -0.35393173856E+02  0.83799761569E+01 -0.48167038298E+01  0.36689254446E+02  0.00000000000E+00 0. -1.
</event>
<event>
 7    1  0.3027254E-013  0.7246160E+02  0.7816164E-02  0.1226708E+00
        -11   -1    0    0    0    0  0.00000000000E+00  0.00000000000E+00  0.45593999997E+02  0.45594000000E+02  0.51100000000E-03 0.  1.
         11   -1    0    0    0    0 -0.00000000000E+00 -0.00000000000E+00 -0.45593999997E+02  0.45594000000E+02  0.51100000000E-03 0. -1.
    9900012    2    1    2    0    0  0.37517132017E-02  0.15170890824E+02  0.10978256792E+02  0.72461599795E+02  0.70000038430E+02 0.  0.
         12    1    1    2    0    0 -0.37517132017E-02 -0.15170890824E+02 -0.10978256792E+02  0.18726400205E+02  0.00000000000E+00 0. -1.
         11    1    3    3    0    0  0.54145030281E+01  0.23551421449E+02  0.15531382571E+02  0.28726471070E+02  0.51100000000E-03 0. -1.
        -11    1    3    3    0    0  0.19046806852E+01  0.49698611667E+01  0.16736664980E+02  0.17562553443E+02  0.51100000000E-03 0.  1.
         12    1    3    3    0    0 -0.73154320002E+01 -0.13350391792E+02 -0.21289790759E+02  0.26172575282E+02  0.00000000000E+00 0. -1.
</event>
<event>
 7    1  0.3027254E-013  0.7246157E+02  0.7816164E-02  0.1226708E+00
        -11   -1    0    0    0    0  0.00000000000E+00  0.00000000000E+00  0.45593999997E+02  0.45594000000E+02  0.51100000000E-03 0. -1.
         11   -1    0    0    0    0 -0.00000000000E+00 -0.00000000000E+00 -0.45593999997E+02  0.45594000000E+02  0.51100000000E-03 0.  1.
    9900012    2    1    2    0    0  0.10644604397E+02  0.14083988367E+02  0.62460245770E+01  0.72461570705E+02  0.70000000535E+02 0.  0.
         12    1    1    2    0    0 -0.10644604397E+02 -0.14083988367E+02 -0.62460245770E+01  0.18726429295E+02  0.00000000000E+00 0. -1.
         11    1    3    3    0    0  0.17614963962E+02  0.15564793554E+02  0.25606129442E+01  0.23645432808E+02  0.51100000000E-03 0. -1.
        -11    1    3    3    0    0  0.17930864182E+02  0.99778333878E+01 -0.26270160490E+01  0.20687538834E+02  0.51100000000E-03 0.  1.
         12    1    3    3    0    0 -0.24901223746E+02 -0.11458638575E+02  0.63124276818E+01  0.28128599064E+02  0.00000000000E+00 0. -1.
</event>
<event>
 7    1  0.3027254E-013  0.7246158E+02  0.7816164E-02  0.1226708E+00
        -11   -1    0    0    0    0  0.00000000000E+00  0.00000000000E+00  0.45593999997E+02  0.45594000000E+02  0.51100000000E-03 0. -1.
         11   -1    0    0    0    0 -0.00000000000E+00 -0.00000000000E+00 -0.45593999997E+02  0.45594000000E+02  0.51100000000E-03 0.  1.
    9900012    2    1    2    0    0  0.10234799149E+01 -0.17354533063E+02  0.69606990627E+01  0.72461583888E+02  0.70000017708E+02 0.  0.
         12    1    1    2    0    0 -0.10234799149E+01  0.17354533063E+02 -0.69606990627E+01  0.18726416112E+02  0.00000000000E+00 0. -1.
         11    1    3    3    0    0  0.17339895140E+02 -0.32635128810E+02 -0.11566580513E+01  0.36973794152E+02  0.51100000000E-03 0. -1.
        -11    1    3    3    0    0  0.13836175723E+01  0.63067205687E+00 -0.75347900445E+01  0.76866901919E+01  0.51100000000E-03 0.  1.
        -12    1    3    3    0    0 -0.17700032798E+02  0.14649923690E+02  0.15652147159E+02  0.27801099544E+02  0.00000000000E+00 0.  1.
</event>
<event>
 7    1  0.3027254E-013  0.7246158E+02  0.7816164E-02  0.1226708E+00
        -11   -1    0    0    0    0  0.00000000000E+00  0.00000000000E+00  0.45593999997E+02  0.45594000000E+02  0.51100000000E-03 0. -1.
         11   -1    0    0    0    0 -0.00000000000E+00 -0.00000000000E+00 -0.45593999997E+02  0.45594000000E+02  0.51100000000E-03 0.  1.
    9900012    2    1    2    0    0  0.87877515324E+01 -0.16535098699E+02 -0.21156921314E+00  0.72461579426E+02  0.70000011896E+02 0.  0.
         12    1    1    2    0    0 -0.87877515324E+01  0.16535098699E+02  0.21156921314E+00  0.18726420574E+02  0.00000000000E+00 0. -1.
         11    1    3    3    0    0 -0.38500231624E+01 -0.58958048838E+01  0.15846072958E+02  0.17340162111E+02  0.51100000000E-03 0. -1.
        -11    1    3    3    0    0 -0.15296246006E+02  0.11531400000E+01  0.71635202017E+01  0.16929881738E+02  0.51100000000E-03 0.  1.
        -12    1    3    3    0    0  0.27934020700E+02 -0.11792433815E+02 -0.23221162373E+02  0.38191535577E+02  0.00000000000E+00 0.  1.
</event>
<event>
 7    1  0.3027254E-013  0.7246158E+02  0.7816164E-02  0.1226708E+00
        -11   -1    0    0    0    0  0.00000000000E+00  0.00000000000E+00  0.45593999997E+02  0.45594000000E+02  0.51100000000E-03 0.  1.
         11   -1    0    0    0    0 -0.00000000000E+00 -0.00000000000E+00 -0.45593999997E+02  0.45594000000E+02  0.51100000000E-03 0. -1.
    9900012    2    1    2    0    0  0.63543720093E+00 -0.94203230944E+01  0.16171969413E+02  0.72461578496E+02  0.70000010684E+02 0.  0.
         12    1    1    2    0    0 -0.63543720093E+00  0.94203230944E+01 -0.16171969413E+02  0.18726421504E+02  0.00000000000E+00 0. -1.
         11    1    3    3    0    0  0.15077032076E+02 -0.21300394721E+01 -0.12093231044E+02  0.19444798834E+02  0.51100000000E-03 0. -1.
        -11    1    3    3    0    0  0.12667480558E+02 -0.11628321134E+02  0.13375424093E+02  0.21784969268E+02  0.51100000000E-03 0.  1.
         12    1    3    3    0    0 -0.27109075433E+02  0.43380375121E+01  0.14889776363E+02  0.31231810393E+02  0.00000000000E+00 0. -1.
</event>
<event>
 7    1  0.3027254E-013  0.7246162E+02  0.7816164E-02  0.1226708E+00
        -11   -1    0    0    0    0  0.00000000000E+00  0.00000000000E+00  0.45593999997E+02  0.45594000000E+02  0.51100000000E-03 0.  1.
         11   -1    0    0    0    0 -0.00000000000E+00 -0.00000000000E+00 -0.45593999997E+02  0.45594000000E+02  0.51100000000E-03 0. -1.
    9900012    2    1    2    0    0  0.80492552884E+01 -0.10447128079E+02  0.13294524472E+02  0.72461618162E+02  0.70000062357E+02 0.  0.
         12    1    1    2    0    0 -0.80492552884E+01  0.10447128079E+02 -0.13294524472E+02  0.18726381838E+02  0.00000000000E+00 0. -1.
         11    1    3    3    0    0 -0.15053762596E+02 -0.31592677408E+01 -0.50604041822E+01  0.16192727741E+02  0.51100000000E-03 0. -1.
        -11    1    3    3    0    0 -0.45297101712E+01 -0.21341167506E+02  0.10881792319E+02  0.24379850473E+02  0.51100000000E-03 0.  1.
        -12    1    3    3    0    0  0.27632728055E+02  0.14053307168E+02  0.74731363348E+01  0.31889039948E+02  0.00000000000E+00 0.  1.
</event>
<event>
 7    1  0.3027254E-013  0.7246158E+02  0.7816164E-02  0.1226708E+00
        -11   -1    0    0    0    0  0.00000000000E+00  0.00000000000E+00  0.45593999997E+02  0.45594000000E+02  0.51100000000E-03 0.  1.
         11   -1    0    0    0    0 -0.00000000000E+00 -0.00000000000E+00 -0.45593999997E+02  0.45594000000E+02  0.51100000000E-03 0. -1.
    9900012    2    1    2    0    0 -0.13839022207E+02 -0.12615330599E+02 -0.11662601941E+00  0.72461582740E+02  0.70000016212E+02 0.  0.
         12    1    1    2    0    0  0.13839022207E+02  0.12615330599E+02  0.11662601941E+00  0.18726417260E+02  0.00000000000E+00 0. -1.
         11    1    3    3    0    0  0.22297181645E+02 -0.18110210733E+02  0.31152023706E+01  0.28893745486E+02  0.51100000000E-03 0. -1.
        -11    1    3    3    0    0 -0.11202989361E+02 -0.54302255559E+01 -0.94680345249E+01  0.15640907846E+02  0.51100000000E-03 0.  1.
        -12    1    3    3    0    0 -0.24933214491E+02  0.10925105690E+02  0.62362061349E+01  0.27926929408E+02  0.00000000000E+00 0.  1.
</event>
<event>
 7    1  0.3027254E-013  0.7246156E+02  0.7816164E-02  0.1226708E+00
        -11   -1    0    0    0    0  0.00000000000E+00  0.00000000000E+00  0.45593999997E+02  0.45594000000E+02  0.51100000000E-03 0. -1.
         11   -1    0    0    0    0 -0.00000000000E+00 -0.00000000000E+00 -0.45593999997E+02  0.45594000000E+02  0.51100000000E-03 0.  1.
    9900012    2    1    2    0    0  0.39944995434E+01  0.19970800312E+00 -0.18294356558E+02  0.72461564360E+02  0.69999992269E+02 0.  0.
         12    1    1    2    0    0 -0.39944995434E+01 -0.19970800312E+00  0.18294356558E+02  0.18726435640E+02  0.00000000000E+00 0. -1.
         11    1    3    3    0    0  0.56252937467E+01  0.52520169216E+01 -0.24593047544E+01  0.80793435141E+01  0.51100000000E-03 0. -1.
        -11    1    3    3    0    0  0.15321092960E+02  0.16175887746E+02 -0.27004793559E+02  0.35009343171E+02  0.51100000000E-03 0.  1.
         12    1    3    3    0    0 -0.16951887163E+02 -0.21228196664E+02  0.11169741755E+02  0.29372877675E+02  0.00000000000E+00 0. -1.
</event>
<event>
 7    1  0.3027254E-013  0.7246154E+02  0.7816164E-02  0.1226708E+00
        -11   -1    0    0    0    0  0.00000000000E+00  0.00000000000E+00  0.45593999997E+02  0.45594000000E+02  0.51100000000E-03 0.  1.
         11   -1    0    0    0    0 -0.00000000000E+00 -0.00000000000E+00 -0.45593999997E+02  0.45594000000E+02  0.51100000000E-03 0. -1.
    9900012    2    1    2    0    0 -0.39649262300E+01  0.38689318570E+01  0.17888294994E+02  0.72461538201E+02  0.69999958192E+02 0.  0.
         12    1    1    2    0    0  0.39649262300E+01 -0.38689318570E+01 -0.17888294994E+02  0.18726461799E+02  0.00000000000E+00 0. -1.
         11    1    3    3    0    0 -0.24868839133E+02  0.50602968089E+01  0.78655837992E+01  0.26569402936E+02  0.51100000000E-03 0. -1.
        -11    1    3    3    0    0  0.70211107845E+01  0.15871272434E+02  0.15449871310E+02  0.23235572062E+02  0.51100000000E-03 0.  1.
        -12    1    3    3    0    0  0.13882802119E+02 -0.17062637385E+02 -0.54271601153E+01  0.22656563202E+02  0.00000000000E+00 0.  1.
</event>
<event>
 7    1  0.3027254E-013  0.7246152E+02  0.7816164E-02  0.1226708E+00
        -11   -1    0    0    0    0  0.00000000000E+00  0.00000000000E+00  0.45593999997E+02  0.45594000000E+02  0.51100000000E-03 0. -1.
         11   -1    0    0    0    0 -0.00000000000E+00 -0.00000000000E+00 -0.45593999997E+02  0.45594000000E+02  0.51100000000E-03 0.  1.
    9900012    2    1    2    0    0  0.16008008216E+01  0.12280037690E+02 -0.14047031809E+02  0.72461521645E+02  0.69999936625E+02 0.  0.
         12    1    1    2    0    0 -0.16008008216E+01 -0.12280037690E+02  0.14047031809E+02  0.18726478355E+02  0.00000000000E+00 0. -1.
         11    1    3    3    0    0 -0.97650166337E+01  0.12910402536E+02  0.22857082604E+02  0.28008574918E+02  0.51100000000E-03 0. -1.
        -11    1    3    3    0    0 -0.40353624430E+01 -0.30005324874E+01 -0.75068646648E+00  0.50843756437E+01  0.51100000000E-03 0.  1.
        -12    1    3    3    0    0  0.15401179898E+02  0.23701676419E+01 -0.36153427946E+02  0.39368571084E+02  0.00000000000E+00 0.  1.
</event>
<event>
 7    1  0.3027254E-013  0.7246155E+02  0.7816164E-02  0.1226708E+00
        -11   -1    0    0    0    0  0.00000000000E+00  0.00000000000E+00  0.45593999997E+02  0.45594000000E+02  0.51100000000E-03 0.  1.
         11   -1    0    0    0    0 -0.00000000000E+00 -0.00000000000E+00 -0.45593999997E+02  0.45594000000E+02  0.51100000000E-03 0. -1.
    9900012    2    1    2    0    0  0.40795632007E-01  0.85678230531E+01  0.16651448979E+02  0.72461547873E+02  0.69999970793E+02 0.  0.
         12    1    1    2    0    0 -0.40795632007E-01 -0.85678230531E+01 -0.16651448979E+02  0.18726452127E+02  0.00000000000E+00 0. -1.
         11    1    3    3    0    0  0.91544786637E+01  0.43420827961E+01 -0.83880474887E+01  0.13153611806E+02  0.51100000000E-03 0. -1.
        -11    1    3    3    0    0  0.17556960609E+02 -0.74929348836E+01  0.23304671549E+02  0.30124718343E+02  0.51100000000E-03 0.  1.
        -12    1    3    3    0    0 -0.26670643640E+02  0.11718675141E+02  0.17348249189E+01  0.29183217724E+02  0.00000000000E+00 0.  1.
</event>
<event>
 7    1  0.3027254E-013  0.7246157E+02  0.7816164E-02  0.1226708E+00
        -11   -1    0    0    0    0  0.00000000000E+00  0.00000000000E+00  0.45593999997E+02  0.45594000000E+02  0.51100000000E-03 0.  1.
         11   -1    0    0    0    0 -0.00000000000E+00 -0.00000000000E+00 -0.45593999997E+02  0.45594000000E+02  0.51100000000E-03 0. -1.
    9900012    2    1    2    0    0  0.14493271148E+02  0.16195626297E+01  0.11747395345E+02  0.72461569772E+02  0.69999999320E+02 0.  0.
         12    1    1    2    0    0 -0.14493271148E+02 -0.16195626297E+01 -0.11747395345E+02  0.18726430228E+02  0.00000000000E+00 0. -1.
         11    1    3    3    0    0  0.10588251439E+01 -0.14088353978E+02  0.16556860619E+02  0.21765395983E+02  0.51100000000E-03 0. -1.
        -11    1    3    3    0    0 -0.74934088028E+01  0.13787071546E+02  0.15078197321E+02  0.21762043838E+02  0.51100000000E-03 0.  1.
         12    1    3    3    0    0  0.20927854806E+02  0.19208450617E+01 -0.19887662595E+02  0.28934129951E+02  0.00000000000E+00 0. -1.
</event>
<event>
 7    1  0.3027254E-013  0.7246167E+02  0.7816164E-02  0.1226708E+00
        -11   -1    0    0    0    0  0.00000000000E+00  0.00000000000E+00  0.45593999997E+02  0.45594000000E+02  0.51100000000E-03 0. -1.
         11   -1    0    0    0    0 -0.00000000000E+00 -0.00000000000E+00 -0.45593999997E+02  0.45594000000E+02  0.51100000000E-03 0.  1.
    9900012    2    1    2    0    0  0.79161436891E+01  0.12684091901E+02 -0.11274928343E+02  0.72461667540E+02  0.70000126681E+02 0.  0.
         12    1    1    2    0    0 -0.79161436891E+01 -0.12684091901E+02  0.11274928343E+02  0.18726332460E+02  0.00000000000E+00 0. -1.
         11    1    3    3    0    0  0.18211192845E+02  0.21561539395E+02  0.16648103813E+02  0.32767466895E+02  0.51100000000E-03 0. -1.
        -11    1    3    3    0    0  0.62630850864E+01 -0.47774973262E+01 -0.11672365276E+01  0.79632378385E+01  0.51100000000E-03 0.  1.
        -12    1    3    3    0    0 -0.16558134242E+02 -0.40999501676E+01 -0.26755795628E+02  0.31730962807E+02  0.00000000000E+00 0.  1.
</event>
<event>
 7    1  0.3027254E-013  0.7246158E+02  0.7816164E-02  0.1226708E+00
        -11   -1    0    0    0    0  0.00000000000E+00  0.00000000000E+00  0.45593999997E+02  0.45594000000E+02  0.51100000000E-03 0. -1.
         11   -1    0    0    0    0 -0.00000000000E+00 -0.00000000000E+00 -0.45593999997E+02  0.45594000000E+02  0.51100000000E-03 0.  1.
    9900012    2    1    2    0    0  0.15384133247E+02  0.10477745222E+02 -0.20553058055E+01  0.72461575283E+02  0.70000006499E+02 0.  0.
         12    1    1    2    0    0 -0.15384133247E+02 -0.10477745222E+02  0.20553058055E+01  0.18726424717E+02  0.00000000000E+00 0. -1.
         11    1    3    3    0    0  0.12489126144E+02 -0.11215374011E+01  0.29784925747E+02  0.32316836479E+02  0.51100000000E-03 0. -1.
        -11    1    3    3    0    0  0.21734393237E+01  0.90898149760E+01 -0.12338082168E+01  0.94271341227E+01  0.51100000000E-03 0.  1.
        -12    1    3    3    0    0  0.72156777959E+00  0.25094676476E+01 -0.30606423336E+02  0.30717604681E+02  0.00000000000E+00 0.  1.
</event>
<event>
 7    1  0.3027254E-013  0.7246167E+02  0.7816164E-02  0.1226708E+00
        -11   -1    0    0    0    0  0.00000000000E+00  0.00000000000E+00  0.45593999997E+02  0.45594000000E+02  0.51100000000E-03 0.  1.
         11   -1    0    0    0    0 -0.00000000000E+00 -0.00000000000E+00 -0.45593999997E+02  0.45594000000E+02  0.51100000000E-03 0. -1.
    9900012    2    1    2    0    0 -0.17524447087E+02  0.30325287379E+01 -0.58628502992E+01  0.72461668542E+02  0.70000127986E+02 0.  0.
         12    1    1    2    0    0  0.17524447087E+02 -0.30325287379E+01  0.58628502992E+01  0.18726331458E+02  0.00000000000E+00 0. -1.
         11    1    3    3    0    0 -0.15179002477E+02 -0.13252765273E+02 -0.28596293931E+02  0.34982651850E+02  0.51100000000E-03 0. -1.
        -11    1    3    3    0    0 -0.29719042751E+01 -0.31881905639E+01 -0.29342429615E+01  0.52541941447E+01  0.51100000000E-03 0.  1.
        -12    1    3    3    0    0  0.62645966579E+00  0.19473484575E+02  0.25667686593E+02  0.32224822548E+02  0.00000000000E+00 0.  1.
</event>
<event>
 7    1  0.3027254E-013  0.7246157E+02  0.7816164E-02  0.1226708E+00
        -11   -1    0    0    0    0  0.00000000000E+00  0.00000000000E+00  0.45593999997E+02  0.45594000000E+02  0.51100000000E-03 0.  1.
         11   -1    0    0    0    0 -0.00000000000E+00 -0.00000000000E+00 -0.45593999997E+02  0.45594000000E+02  0.51100000000E-03 0. -1.
    9900012    2    1    2    0    0 -0.12182227664E+01 -0.55242512027E+01  0.17851551881E+02  0.72461566207E+02  0.69999994675E+02 0.  0.
         12    1    1    2    0    0  0.12182227664E+01  0.55242512027E+01 -0.17851551881E+02  0.18726433793E+02  0.00000000000E+00 0. -1.
         11    1    3    3    0    0 -0.18759252334E+02  0.16728106678E+02  0.90825054379E+01  0.26725100682E+02  0.51100000000E-03 0. -1.
        -11    1    3    3    0    0 -0.94906963427E+01  0.57153545789E+00  0.20091383462E+01  0.97178499168E+01  0.51100000000E-03 0.  1.
        -12    1    3    3    0    0  0.27031725910E+02 -0.22823893339E+02  0.67599080968E+01  0.36018615608E+02  0.00000000000E+00 0.  1.
</event>
<event>
 7    1  0.3027254E-013  0.7246153E+02  0.7816164E-02  0.1226708E+00
        -11   -1    0    0    0    0  0.00000000000E+00  0.00000000000E+00  0.45593999997E+02  0.45594000000E+02  0.51100000000E-03 0. -1.
         11   -1    0    0    0    0 -0.00000000000E+00 -0.00000000000E+00 -0.45593999997E+02  0.45594000000E+02  0.51100000000E-03 0.  1.
    9900012    2    1    2    0    0 -0.18640444978E+02  0.16136772946E+01  0.78128875946E+00  0.72461533288E+02  0.69999951793E+02 0.  0.
         12    1    1    2    0    0  0.18640444978E+02 -0.16136772946E+01 -0.78128875946E+00  0.18726466712E+02  0.00000000000E+00 0. -1.
         11    1    3    3    0    0 -0.57092295637E+01  0.19784906291E+02  0.23154424931E+02  0.30986532773E+02  0.51100000000E-03 0. -1.
        -11    1    3    3    0    0 -0.15293974895E+01  0.20165036731E+01  0.49990797102E+01  0.56032260310E+01  0.51100000000E-03 0.  1.
        -12    1    3    3    0    0 -0.11401817924E+02 -0.20187732670E+02 -0.27372215882E+02  0.35871774484E+02  0.00000000000E+00 0.  1.
</event>
<event>
 7    1  0.3027254E-013  0.7246160E+02  0.7816164E-02  0.1226708E+00
        -11   -1    0    0    0    0  0.00000000000E+00  0.00000000000E+00  0.45593999997E+02  0.45594000000E+02  0.51100000000E-03 0.  1.
         11   -1    0    0    0    0 -0.00000000000E+00 -0.00000000000E+00 -0.45593999997E+02  0.45594000000E+02  0.51100000000E-03 0. -1.
    9900012    2    1    2    0    0 -0.13485331679E+02  0.29839159184E+01  0.12645951220E+02  0.72461601335E+02  0.70000040436E+02 0.  0.
         12    1    1    2    0    0  0.13485331679E+02 -0.29839159184E+01 -0.12645951220E+02  0.18726398665E+02  0.00000000000E+00 0. -1.
         11    1    3    3    0    0  0.42866880745E+01  0.78442036032E+01 -0.23319752735E+01  0.92382538260E+01  0.51100000000E-03 0. -1.
        -11    1    3    3    0    0 -0.17415125446E+02  0.25599234144E+02  0.74150006653E+01  0.31836922248E+02  0.51100000000E-03 0.  1.
         12    1    3    3    0    0 -0.35689430733E+00 -0.30459521829E+02  0.75629258282E+01  0.31386425261E+02  0.00000000000E+00 0. -1.
</event>
<event>
 7    1  0.3027254E-013  0.7246164E+02  0.7816164E-02  0.1226708E+00
        -11   -1    0    0    0    0  0.00000000000E+00  0.00000000000E+00  0.45593999997E+02  0.45594000000E+02  0.51100000000E-03 0.  1.
         11   -1    0    0    0    0 -0.00000000000E+00 -0.00000000000E+00 -0.45593999997E+02  0.45594000000E+02  0.51100000000E-03 0. -1.
    9900012    2    1    2    0    0 -0.10401692051E+02  0.12214882644E+02  0.96580547915E+01  0.72461639492E+02  0.70000090143E+02 0.  0.
         12    1    1    2    0    0  0.10401692051E+02 -0.12214882644E+02 -0.96580547915E+01  0.18726360508E+02  0.00000000000E+00 0. -1.
         11    1    3    3    0    0 -0.19357351777E+02  0.20316060979E+02  0.89121714295E+01  0.29442761443E+02  0.51100000000E-03 0. -1.
        -11    1    3    3    0    0 -0.13660306723E+02 -0.24183232143E+01  0.10843218179E+02  0.17607601985E+02  0.51100000000E-03 0.  1.
         12    1    3    3    0    0  0.22615966450E+02 -0.56828551213E+01 -0.10097334817E+02  0.25411276064E+02  0.00000000000E+00 0. -1.
</event>
<event>
 7    1  0.3027254E-013  0.7246158E+02  0.7816164E-02  0.1226708E+00
        -11   -1    0    0    0    0  0.00000000000E+00  0.00000000000E+00  0.45593999997E+02  0.45594000000E+02  0.51100000000E-03 0.  1.
         11   -1    0    0    0    0 -0.00000000000E+00 -0.00000000000E+00 -0.45593999997E+02  0.45594000000E+02  0.51100000000E-03 0. -1.
    9900012    2    1    2    0    0 -0.99551654183E+01  0.68751755570E+01  0.14293539762E+02  0.72461584530E+02  0.70000018544E+02 0.  0.
         12    1    1    2    0    0  0.99551654183E+01 -0.68751755570E+01 -0.14293539762E+02  0.18726415470E+02  0.00000000000E+00 0. -1.
         11    1    3    3    0    0 -0.80112678678E+01  0.36887663815E+01 -0.10777528074E+02  0.13926324781E+02  0.51100000000E-03 0. -1.
        -11    1    3    3    0    0 -0.26168941119E+02 -0.62006623289E+01  0.13570493888E+02  0.30123412775E+02  0.51100000000E-03 0.  1.
        -12    1    3    3    0    0  0.24225043568E+02  0.93870715044E+01  0.11500573947E+02  0.28411846973E+02  0.00000000000E+00 0.  1.
</event>
<event>
 7    1  0.3027254E-013  0.7246155E+02  0.7816164E-02  0.1226708E+00
        -11   -1    0    0    0    0  0.00000000000E+00  0.00000000000E+00  0.45593999997E+02  0.45594000000E+02  0.51100000000E-03 0. -1.
         11   -1    0    0    0    0 -0.00000000000E+00 -0.00000000000E+00 -0.45593999997E+02  0.45594000000E+02  0.51100000000E-03 0.  1.
    9900012    2    1    2    0    0  0.19321819035E+01 -0.13680967462E+02 -0.12640328842E+02  0.72461545161E+02  0.69999967259E+02 0.  0.
         12    1    1    2    0    0 -0.19321819035E+01  0.13680967462E+02  0.12640328842E+02  0.18726454839E+02  0.00000000000E+00 0. -1.
         11    1    3    3    0    0  0.13130734806E+02  0.28462072656E+01 -0.58389067143E+01  0.14649570787E+02  0.51100000000E-03 0. -1.
        -11    1    3    3    0    0  0.19476285626E+02  0.40811366355E+01  0.14336277495E+01  0.19950856292E+02  0.51100000000E-03 0.  1.
        -12    1    3    3    0    0 -0.30674838528E+02 -0.20608311363E+02 -0.82350498776E+01  0.37861118082E+02  0.00000000000E+00 0.  1.
</event>
<event>
 7    1  0.3027254E-013  0.7246159E+02  0.7816164E-02  0.1226708E+00
        -11   -1    0    0    0    0  0.00000000000E+00  0.00000000000E+00  0.45593999997E+02  0.45594000000E+02  0.51100000000E-03 0.  1.
         11   -1    0    0    0    0 -0.00000000000E+00 -0.00000000000E+00 -0.45593999997E+02  0.45594000000E+02  0.51100000000E-03 0. -1.
    9900012    2    1    2    0    0 -0.64081942880E+01 -0.31892347337E+01  0.17304399546E+02  0.72461590417E+02  0.70000026214E+02 0.  0.
         12    1    1    2    0    0  0.64081942880E+01  0.31892347337E+01 -0.17304399546E+02  0.18726409583E+02  0.00000000000E+00 0. -1.
         11    1    3    3    0    0 -0.71084685436E+00 -0.25948240124E+02 -0.62021236865E+01  0.26688626927E+02  0.51100000000E-03 0. -1.
        -11    1    3    3    0    0  0.51581072349E+01 -0.61168055672E+01  0.22565198175E+01  0.83134386713E+01  0.51100000000E-03 0.  1.
        -12    1    3    3    0    0 -0.10855454669E+02  0.28875810957E+02  0.21250003415E+02  0.37459524819E+02  0.00000000000E+00 0.  1.
</event>
<event>
 7    1  0.3027254E-013  0.7246158E+02  0.7816164E-02  0.1226708E+00
        -11   -1    0    0    0    0  0.00000000000E+00  0.00000000000E+00  0.45593999997E+02  0.45594000000E+02  0.51100000000E-03 0. -1.
         11   -1    0    0    0    0 -0.00000000000E+00 -0.00000000000E+00 -0.45593999997E+02  0.45594000000E+02  0.51100000000E-03 0.  1.
    9900012    2    1    2    0    0  0.89708949375E+01  0.44172097784E+01 -0.15833194179E+02  0.72461581866E+02  0.70000015075E+02 0.  0.
         12    1    1    2    0    0 -0.89708949375E+01 -0.44172097784E+01  0.15833194179E+02  0.18726418134E+02  0.00000000000E+00 0. -1.
         11    1    3    3    0    0 -0.67040525581E+01  0.11647855107E+01 -0.92399142501E+00  0.68669357360E+01  0.51100000000E-03 0. -1.
        -11    1    3    3    0    0 -0.10672422975E+02  0.21839157461E+02  0.84985962185E+01  0.25750253372E+02  0.51100000000E-03 0.  1.
        -12    1    3    3    0    0  0.26347370471E+02 -0.18586733194E+02 -0.23407798973E+02  0.39844392758E+02  0.00000000000E+00 0.  1.
</event>
<event>
 7    1  0.3027254E-013  0.7246157E+02  0.7816164E-02  0.1226708E+00
        -11   -1    0    0    0    0  0.00000000000E+00  0.00000000000E+00  0.45593999997E+02  0.45594000000E+02  0.51100000000E-03 0.  1.
         11   -1    0    0    0    0 -0.00000000000E+00 -0.00000000000E+00 -0.45593999997E+02  0.45594000000E+02  0.51100000000E-03 0. -1.
    9900012    2    1    2    0    0  0.18344811299E+02 -0.21203544272E+01 -0.31066345620E+01  0.72461569940E+02  0.69999999538E+02 0.  0.
         12    1    1    2    0    0 -0.18344811299E+02  0.21203544272E+01  0.31066345620E+01  0.18726430060E+02  0.00000000000E+00 0. -1.
         11    1    3    3    0    0 -0.67749431390E+01  0.58863737513E+01 -0.26721762533E+01  0.93642819621E+01  0.51100000000E-03 0. -1.
        -11    1    3    3    0    0  0.23593916277E+02 -0.11907122242E+02  0.25560723065E+02  0.36766873803E+02  0.51100000000E-03 0.  1.
         12    1    3    3    0    0  0.15258381609E+01  0.39003940632E+01 -0.25995181374E+02  0.26330414175E+02  0.00000000000E+00 0. -1.
</event>
<event>
 7    1  0.3027254E-013  0.7246158E+02  0.7816164E-02  0.1226708E+00
        -11   -1    0    0    0    0  0.00000000000E+00  0.00000000000E+00  0.45593999997E+02  0.45594000000E+02  0.51100000000E-03 0. -1.
         11   -1    0    0    0    0 -0.00000000000E+00 -0.00000000000E+00 -0.45593999997E+02  0.45594000000E+02  0.51100000000E-03 0.  1.
    9900012    2    1    2    0    0  0.41988144927E+01 -0.16765384585E+02 -0.72090549791E+01  0.72461584509E+02  0.70000018518E+02 0.  0.
         12    1    1    2    0    0 -0.41988144927E+01  0.16765384585E+02  0.72090549791E+01  0.18726415491E+02  0.00000000000E+00 0. -1.
         11    1    3    3    0    0  0.84000901315E+00  0.14037618623E+02 -0.16027180066E+02  0.21322074310E+02  0.51100000000E-03 0. -1.
        -11    1    3    3    0    0  0.50779308768E+01  0.69899759382E+01 -0.59894740014E+01  0.10512799089E+02  0.51100000000E-03 0.  1.
         12    1    3    3    0    0 -0.17191253973E+01 -0.37792979147E+02  0.14807599088E+02  0.40626711111E+02  0.00000000000E+00 0. -1.
</event>
<event>
 7    1  0.3027254E-013  0.7246155E+02  0.7816164E-02  0.1226708E+00
        -11   -1    0    0    0    0  0.00000000000E+00  0.00000000000E+00  0.45593999997E+02  0.45594000000E+02  0.51100000000E-03 0.  1.
         11   -1    0    0    0    0 -0.00000000000E+00 -0.00000000000E+00 -0.45593999997E+02  0.45594000000E+02  0.51100000000E-03 0. -1.
    9900012    2    1    2    0    0 -0.66955832111E+01  0.41309938524E+00  0.17483666302E+02  0.72461546172E+02  0.69999968576E+02 0.  0.
         12    1    1    2    0    0  0.66955832111E+01 -0.41309938524E+00 -0.17483666302E+02  0.18726453828E+02  0.00000000000E+00 0. -1.
         11    1    3    3    0    0  0.29749843240E+01  0.76888513889E+01 -0.14884802947E+02  0.17015473148E+02  0.51100000000E-03 0. -1.
        -11    1    3    3    0    0 -0.22913399563E+01  0.14770815446E+02  0.28072185168E+02  0.31803691737E+02  0.51100000000E-03 0.  1.
         12    1    3    3    0    0 -0.73792275788E+01 -0.22046567450E+02  0.42962840806E+01  0.23642381286E+02  0.00000000000E+00 0. -1.
</event>
<event>
 7    1  0.3027254E-013  0.7246153E+02  0.7816164E-02  0.1226708E+00
        -11   -1    0    0    0    0  0.00000000000E+00  0.00000000000E+00  0.45593999997E+02  0.45594000000E+02  0.51100000000E-03 0.  1.
         11   -1    0    0    0    0 -0.00000000000E+00 -0.00000000000E+00 -0.45593999997E+02  0.45594000000E+02  0.51100000000E-03 0. -1.
    9900012    2    1    2    0    0 -0.63541975316E+01 -0.13376445260E+02  0.11461913320E+02  0.72461532874E+02  0.69999951253E+02 0.  0.
         12    1    1    2    0    0  0.63541975316E+01  0.13376445260E+02 -0.11461913320E+02  0.18726467126E+02  0.00000000000E+00 0. -1.
         11    1    3    3    0    0 -0.16052960483E+02 -0.36221265692E+01  0.20023035629E+02  0.25917933892E+02  0.51100000000E-03 0. -1.
        -11    1    3    3    0    0  0.62869825510E+01  0.12274835849E+02  0.10404343575E+02  0.17275650789E+02  0.51100000000E-03 0.  1.
         12    1    3    3    0    0  0.34117804003E+01 -0.22029154540E+02 -0.18965465884E+02  0.29267948193E+02  0.00000000000E+00 0. -1.
</event>
<event>
 7    1  0.3027254E-013  0.7246169E+02  0.7816164E-02  0.1226708E+00
        -11   -1    0    0    0    0  0.00000000000E+00  0.00000000000E+00  0.45593999997E+02  0.45594000000E+02  0.51100000000E-03 0.  1.
         11   -1    0    0    0    0 -0.00000000000E+00 -0.00000000000E+00 -0.45593999997E+02  0.45594000000E+02  0.51100000000E-03 0. -1.
    9900012    2    1    2    0    0  0.14418949538E+02  0.68961104670E+01  0.97576811327E+01  0.72461687324E+02  0.70000152453E+02 0.  0.
         12    1    1    2    0    0 -0.14418949538E+02 -0.68961104670E+01 -0.97576811327E+01  0.18726312676E+02  0.00000000000E+00 0. -1.
         11    1    3    3    0    0  0.33554837931E+01  0.14048486131E+02  0.38611884885E+01  0.14950853182E+02  0.51100000000E-03 0. -1.
        -11    1    3    3    0    0  0.14284113633E+02  0.15843251989E+01  0.29129198454E+02  0.32481628522E+02  0.51100000000E-03 0.  1.
        -12    1    3    3    0    0 -0.32206478884E+01 -0.87367008628E+01 -0.23232705809E+02  0.25029205621E+02  0.00000000000E+00 0.  1.
</event>
<event>
 7    1  0.3027254E-013  0.7246150E+02  0.7816164E-02  0.1226708E+00
        -11   -1    0    0    0    0  0.00000000000E+00  0.00000000000E+00  0.45593999997E+02  0.45594000000E+02  0.51100000000E-03 0. -1.
         11   -1    0    0    0    0 -0.00000000000E+00 -0.00000000000E+00 -0.45593999997E+02  0.45594000000E+02  0.51100000000E-03 0.  1.
    9900012    2    1    2    0    0  0.45736034644E+01  0.13557091920E+01 -0.18108725251E+02  0.72461502028E+02  0.69999911071E+02 0.  0.
         12    1    1    2    0    0 -0.45736034644E+01 -0.13557091920E+01  0.18108725251E+02  0.18726497972E+02  0.00000000000E+00 0. -1.
         11    1    3    3    0    0 -0.93237670456E+01  0.18509523838E+02 -0.64433774365E+01  0.21703737413E+02  0.51100000000E-03 0. -1.
        -11    1    3    3    0    0  0.34859127213E+01 -0.65619731414E+01 -0.27830648382E+02  0.28805486780E+02  0.51100000000E-03 0.  1.
         12    1    3    3    0    0  0.10411457789E+02 -0.10591841505E+02  0.16165300567E+02  0.21952277836E+02  0.00000000000E+00 0. -1.
</event>
<event>
 7    1  0.3027254E-013  0.7246163E+02  0.7816164E-02  0.1226708E+00
        -11   -1    0    0    0    0  0.00000000000E+00  0.00000000000E+00  0.45593999997E+02  0.45594000000E+02  0.51100000000E-03 0. -1.
         11   -1    0    0    0    0 -0.00000000000E+00 -0.00000000000E+00 -0.45593999997E+02  0.45594000000E+02  0.51100000000E-03 0.  1.
    9900012    2    1    2    0    0 -0.79957773076E+01 -0.69792812861E+01 -0.15428351786E+02  0.72461631936E+02  0.70000080300E+02 0.  0.
         12    1    1    2    0    0  0.79957773076E+01  0.69792812861E+01  0.15428351786E+02  0.18726368064E+02  0.00000000000E+00 0. -1.
         11    1    3    3    0    0  0.16331016445E+01 -0.17312220958E+02 -0.12045242164E+02  0.21153436471E+02  0.51100000000E-03 0.  1.
        -11    1    3    3    0    0  0.34498764539E+01 -0.61953903229E+01  0.19169938791E+02  0.20439448680E+02  0.51100000000E-03 0. -1.
         12    1    3    3    0    0 -0.13078755406E+02  0.16528329994E+02 -0.22553048414E+02  0.30868746786E+02  0.00000000000E+00 0. -1.
</event>
<event>
 7    1  0.3027254E-013  0.7246147E+02  0.7816164E-02  0.1226708E+00
        -11   -1    0    0    0    0  0.00000000000E+00  0.00000000000E+00  0.45593999997E+02  0.45594000000E+02  0.51100000000E-03 0.  1.
         11   -1    0    0    0    0 -0.00000000000E+00 -0.00000000000E+00 -0.45593999997E+02  0.45594000000E+02  0.51100000000E-03 0. -1.
    9900012    2    1    2    0    0 -0.16680694434E+02  0.42239318116E+01  0.73888877131E+01  0.72461472602E+02  0.69999872738E+02 0.  0.
         12    1    1    2    0    0  0.16680694434E+02 -0.42239318116E+01 -0.73888877131E+01  0.18726527398E+02  0.00000000000E+00 0. -1.
         11    1    3    3    0    0 -0.15761595994E+02 -0.17145518768E+02  0.57149583470E+01  0.23980355945E+02  0.51100000000E-03 0. -1.
        -11    1    3    3    0    0 -0.52952943155E+00  0.12631292683E+02 -0.20813626390E+02  0.24352351016E+02  0.51100000000E-03 0.  1.
        -12    1    3    3    0    0 -0.38956900817E+00  0.87381578963E+01  0.22487555756E+02  0.24128765640E+02  0.00000000000E+00 0.  1.
</event>
<event>
 7    1  0.3027254E-013  0.7246158E+02  0.7816164E-02  0.1226708E+00
        -11   -1    0    0    0    0  0.00000000000E+00  0.00000000000E+00  0.45593999997E+02  0.45594000000E+02  0.51100000000E-03 0. -1.
         11   -1    0    0    0    0 -0.00000000000E+00 -0.00000000000E+00 -0.45593999997E+02  0.45594000000E+02  0.51100000000E-03 0.  1.
    9900012    2    1    2    0    0 -0.15683448721E+02 -0.90651174391E+01 -0.47467695842E+01  0.72461581777E+02  0.70000014958E+02 0.  0.
         12    1    1    2    0    0  0.15683448721E+02  0.90651174391E+01  0.47467695842E+01  0.18726418223E+02  0.00000000000E+00 0. -1.
         11    1    3    3    0    0  0.98590233469E+01 -0.15939893023E+02  0.95027800811E+01  0.21013884944E+02  0.51100000000E-03 0. -1.
        -11    1    3    3    0    0  0.38409196213E+00  0.19304559242E+02 -0.11714203289E+02  0.22583978683E+02  0.51100000000E-03 0.  1.
        -12    1    3    3    0    0 -0.25926564030E+02 -0.12429783659E+02 -0.25353463760E+01  0.28863718150E+02  0.00000000000E+00 0.  1.
</event>
<event>
 7    1  0.3027254E-013  0.7246159E+02  0.7816164E-02  0.1226708E+00
        -11   -1    0    0    0    0  0.00000000000E+00  0.00000000000E+00  0.45593999997E+02  0.45594000000E+02  0.51100000000E-03 0.  1.
         11   -1    0    0    0    0 -0.00000000000E+00 -0.00000000000E+00 -0.45593999997E+02  0.45594000000E+02  0.51100000000E-03 0. -1.
    9900012    2    1    2    0    0  0.85344927266E+01 -0.66205650416E+01  0.15297350495E+02  0.72461591382E+02  0.70000027470E+02 0.  0.
         12    1    1    2    0    0 -0.85344927266E+01  0.66205650416E+01 -0.15297350495E+02  0.18726408618E+02  0.00000000000E+00 0. -1.
         11    1    3    3    0    0 -0.84782844857E+01  0.11982684787E+02 -0.63968747242E+01  0.16012059487E+02  0.51100000000E-03 0. -1.
        -11    1    3    3    0    0  0.36650857711E-01  0.80674672127E+01  0.23436753826E+02  0.24786423717E+02  0.51100000000E-03 0.  1.
         12    1    3    3    0    0  0.16976126355E+02 -0.26670717041E+02 -0.17425286068E+01  0.31663108177E+02  0.00000000000E+00 0. -1.
</event>
<event>
 7    1  0.3027254E-013  0.7246160E+02  0.7816164E-02  0.1226708E+00
        -11   -1    0    0    0    0  0.00000000000E+00  0.00000000000E+00  0.45593999997E+02  0.45594000000E+02  0.51100000000E-03 0.  1.
         11   -1    0    0    0    0 -0.00000000000E+00 -0.00000000000E+00 -0.45593999997E+02  0.45594000000E+02  0.51100000000E-03 0. -1.
    9900012    2    1    2    0    0  0.12342877970E+02  0.13999711678E+02 -0.15294887532E+01  0.72461604205E+02  0.70000044175E+02 0.  0.
         12    1    1    2    0    0 -0.12342877970E+02 -0.13999711678E+02  0.15294887532E+01  0.18726395795E+02  0.00000000000E+00 0. -1.
         11    1    3    3    0    0  0.22646100589E+01  0.13910369130E+02  0.12569033892E+01  0.14149439369E+02  0.51100000000E-03 0. -1.
        -11    1    3    3    0    0  0.63439071153E+01  0.79956361363E+01  0.26156480819E+02  0.28077336837E+02  0.51100000000E-03 0.  1.
         12    1    3    3    0    0  0.37343607954E+01 -0.79062935891E+01 -0.28942872962E+02  0.30234828000E+02  0.00000000000E+00 0. -1.
</event>
<event>
 7    1  0.3027254E-013  0.7246159E+02  0.7816164E-02  0.1226708E+00
        -11   -1    0    0    0    0  0.00000000000E+00  0.00000000000E+00  0.45593999997E+02  0.45594000000E+02  0.51100000000E-03 0. -1.
         11   -1    0    0    0    0 -0.00000000000E+00 -0.00000000000E+00 -0.45593999997E+02  0.45594000000E+02  0.51100000000E-03 0.  1.
    9900012    2    1    2    0    0 -0.13736282036E+02 -0.12724772813E+02 -0.27072934771E+00  0.72461585989E+02  0.70000020446E+02 0.  0.
         12    1    1    2    0    0  0.13736282036E+02  0.12724772813E+02  0.27072934771E+00  0.18726414011E+02  0.00000000000E+00 0. -1.
         11    1    3    3    0    0 -0.65156523350E+01 -0.93418078346E+01 -0.86131859126E+01  0.14279708358E+02  0.51100000000E-03 0. -1.
        -11    1    3    3    0    0  0.80650561046E+01  0.38096636552E+00 -0.22308495382E+02  0.23724654514E+02  0.51100000000E-03 0.  1.
         12    1    3    3    0    0 -0.15285685806E+02 -0.37639313437E+01  0.30650951947E+02  0.34457223117E+02  0.00000000000E+00 0. -1.
</event>
<event>
 7    1  0.3027254E-013  0.7246155E+02  0.7816164E-02  0.1226708E+00
        -11   -1    0    0    0    0  0.00000000000E+00  0.00000000000E+00  0.45593999997E+02  0.45594000000E+02  0.51100000000E-03 0.  1.
         11   -1    0    0    0    0 -0.00000000000E+00 -0.00000000000E+00 -0.45593999997E+02  0.45594000000E+02  0.51100000000E-03 0. -1.
    9900012    2    1    2    0    0  0.17665891404E+02  0.18647187457E+01  0.59261294509E+01  0.72461550647E+02  0.69999974405E+02 0.  0.
         12    1    1    2    0    0 -0.17665891404E+02 -0.18647187457E+01 -0.59261294509E+01  0.18726449353E+02  0.00000000000E+00 0. -1.
         11    1    3    3    0    0 -0.11694810421E+02 -0.94118012716E+01 -0.31417073166E+01  0.15336913610E+02  0.51100000000E-03 0. -1.
        -11    1    3    3    0    0 -0.84087437304E+01  0.82686222738E+01  0.14671298283E+02  0.18823498054E+02  0.51100000000E-03 0.  1.
         12    1    3    3    0    0  0.37769445555E+02  0.30078977435E+01 -0.56034615156E+01  0.38301138982E+02  0.00000000000E+00 0. -1.
</event>
<event>
 7    1  0.3027254E-013  0.7246158E+02  0.7816164E-02  0.1226708E+00
        -11   -1    0    0    0    0  0.00000000000E+00  0.00000000000E+00  0.45593999997E+02  0.45594000000E+02  0.51100000000E-03 0.  1.
         11   -1    0    0    0    0 -0.00000000000E+00 -0.00000000000E+00 -0.45593999997E+02  0.45594000000E+02  0.51100000000E-03 0. -1.
    9900012    2    1    2    0    0 -0.29942297900E+01 -0.18339750466E+02  0.23166650433E+01  0.72461580264E+02  0.70000012988E+02 0.  0.
         12    1    1    2    0    0  0.29942297900E+01  0.18339750466E+02 -0.23166650433E+01  0.18726419736E+02  0.00000000000E+00 0. -1.
         11    1    3    3    0    0 -0.50045087039E+01  0.36364271480E+01 -0.76824147259E+01  0.98634783952E+01  0.51100000000E-03 0. -1.
        -11    1    3    3    0    0  0.22635994011E+02 -0.21628253460E+02 -0.10978754889E+02  0.33176838785E+02  0.51100000000E-03 0.  1.
        -12    1    3    3    0    0 -0.20625715097E+02 -0.34792415427E+00  0.20977834658E+02  0.29421263084E+02  0.00000000000E+00 0.  1.
</event>
<event>
 7    1  0.3027254E-013  0.7246156E+02  0.7816164E-02  0.1226708E+00
        -11   -1    0    0    0    0  0.00000000000E+00  0.00000000000E+00  0.45593999997E+02  0.45594000000E+02  0.51100000000E-03 0.  1.
         11   -1    0    0    0    0 -0.00000000000E+00 -0.00000000000E+00 -0.45593999997E+02  0.45594000000E+02  0.51100000000E-03 0. -1.
    9900012    2    1    2    0    0  0.12592314084E+01  0.12185073438E+02  0.14163957840E+02  0.72461564671E+02  0.69999992675E+02 0.  0.
         12    1    1    2    0    0 -0.12592314084E+01 -0.12185073438E+02 -0.14163957840E+02  0.18726435329E+02  0.00000000000E+00 0. -1.
         11    1    3    3    0    0  0.72259406443E+01  0.17578355031E+01  0.34105331572E+01  0.81814387811E+01  0.51100000000E-03 0. -1.
        -11    1    3    3    0    0  0.64354591948E+01  0.27034077241E+02  0.26384694722E+02  0.38319819717E+02  0.51100000000E-03 0.  1.
         12    1    3    3    0    0 -0.12402168431E+02 -0.16606839306E+02 -0.15631270039E+02  0.25960306172E+02  0.00000000000E+00 0. -1.
</event>
<event>
 7    1  0.3027254E-013  0.7246190E+02  0.7816164E-02  0.1226707E+00
        -11   -1    0    0    0    0  0.00000000000E+00  0.00000000000E+00  0.45593999997E+02  0.45594000000E+02  0.51100000000E-03 0. -1.
         11   -1    0    0    0    0 -0.00000000000E+00 -0.00000000000E+00 -0.45593999997E+02  0.45594000000E+02  0.51100000000E-03 0.  1.
    9900012    2    1    2    0    0  0.14081251331E+02 -0.12201437808E+02  0.18735003869E+01  0.72461902506E+02  0.70000432767E+02 0.  0.
         12    1    1    2    0    0 -0.14081251331E+02  0.12201437808E+02 -0.18735003869E+01  0.18726097494E+02  0.00000000000E+00 0. -1.
         11    1    3    3    0    0  0.10659536668E+02 -0.60838095771E+01  0.18366183509E+01  0.12410142149E+02  0.51100000000E-03 0. -1.
        -11    1    3    3    0    0  0.81813574803E+01 -0.31106881232E+02 -0.84125796832E+01  0.33246716641E+02  0.51100000000E-03 0.  1.
        -12    1    3    3    0    0 -0.47596428169E+01  0.24989253001E+02  0.84494617192E+01  0.26805043716E+02  0.00000000000E+00 0.  1.
</event>
<event>
 7    1  0.3027254E-013  0.7246155E+02  0.7816164E-02  0.1226708E+00
        -11   -1    0    0    0    0  0.00000000000E+00  0.00000000000E+00  0.45593999997E+02  0.45594000000E+02  0.51100000000E-03 0.  1.
         11   -1    0    0    0    0 -0.00000000000E+00 -0.00000000000E+00 -0.45593999997E+02  0.45594000000E+02  0.51100000000E-03 0. -1.
    9900012    2    1    2    0    0 -0.38948712548E+01  0.12764217415E+01  0.18272401165E+02  0.72461550286E+02  0.69999973936E+02 0.  0.
         12    1    1    2    0    0  0.38948712548E+01 -0.12764217415E+01 -0.18272401165E+02  0.18726449714E+02  0.00000000000E+00 0. -1.
         11    1    3    3    0    0 -0.16760866980E+02 -0.12875673182E+02  0.70355654123E+01  0.22275744718E+02  0.51100000000E-03 0. -1.
        -11    1    3    3    0    0 -0.18730468524E+01  0.24110281640E+02 -0.65257062598E+01  0.25047930608E+02  0.51100000000E-03 0.  1.
         12    1    3    3    0    0  0.14739042578E+02 -0.99581867168E+01  0.17762542012E+02  0.25137874961E+02  0.00000000000E+00 0. -1.
</event>
<event>
 7    1  0.3027254E-013  0.7246153E+02  0.7816164E-02  0.1226708E+00
        -11   -1    0    0    0    0  0.00000000000E+00  0.00000000000E+00  0.45593999997E+02  0.45594000000E+02  0.51100000000E-03 0.  1.
         11   -1    0    0    0    0 -0.00000000000E+00 -0.00000000000E+00 -0.45593999997E+02  0.45594000000E+02  0.51100000000E-03 0. -1.
    9900012    2    1    2    0    0  0.39123683611E+01  0.18044066704E+02 -0.31282214030E+01  0.72461528400E+02  0.69999945425E+02 0.  0.
         12    1    1    2    0    0 -0.39123683611E+01 -0.18044066704E+02  0.31282214030E+01  0.18726471600E+02  0.00000000000E+00 0. -1.
         11    1    3    3    0    0 -0.87409494867E+01 -0.88402187028E+01 -0.22993224372E+02  0.26138898828E+02  0.51100000000E-03 0. -1.
        -11    1    3    3    0    0  0.12130740263E+02 -0.14293870453E+01  0.91560390735E+00  0.12248932094E+02  0.51100000000E-03 0.  1.
        -12    1    3    3    0    0  0.52257758461E+00  0.28313672452E+02  0.18949399062E+02  0.34073697479E+02  0.00000000000E+00 0.  1.
</event>
<event>
 7    1  0.3027254E-013  0.7246157E+02  0.7816164E-02  0.1226708E+00
        -11   -1    0    0    0    0  0.00000000000E+00  0.00000000000E+00  0.45593999997E+02  0.45594000000E+02  0.51100000000E-03 0.  1.
         11   -1    0    0    0    0 -0.00000000000E+00 -0.00000000000E+00 -0.45593999997E+02  0.45594000000E+02  0.51100000000E-03 0. -1.
    9900012    2    1    2    0    0  0.27394038900E+01 -0.85477372550E+01  0.16435060230E+02  0.72461565459E+02  0.69999993701E+02 0.  0.
         12    1    1    2    0    0 -0.27394038900E+01  0.85477372550E+01 -0.16435060230E+02  0.18726434541E+02  0.00000000000E+00 0. -1.
         11    1    3    3    0    0 -0.81030480846E+01  0.10349345113E+01 -0.17364675463E+02  0.19190164979E+02  0.51100000000E-03 0. -1.
        -11    1    3    3    0    0 -0.39409682162E+01  0.65745245937E+01 -0.46909345485E+01  0.89866829984E+01  0.51100000000E-03 0.  1.
        -12    1    3    3    0    0  0.14783420191E+02 -0.16157196360E+02  0.38490670242E+02  0.44284717482E+02  0.00000000000E+00 0.  1.
</event>
<event>
 7    1  0.3027254E-013  0.7246162E+02  0.7816164E-02  0.1226708E+00
        -11   -1    0    0    0    0  0.00000000000E+00  0.00000000000E+00  0.45593999997E+02  0.45594000000E+02  0.51100000000E-03 0.  1.
         11   -1    0    0    0    0 -0.00000000000E+00 -0.00000000000E+00 -0.45593999997E+02  0.45594000000E+02  0.51100000000E-03 0. -1.
    9900012    2    1    2    0    0  0.10768985041E+02  0.13421571025E+02 -0.73869927585E+01  0.72461621022E+02  0.70000066083E+02 0.  0.
         12    1    1    2    0    0 -0.10768985041E+02 -0.13421571025E+02  0.73869927585E+01  0.18726378978E+02  0.00000000000E+00 0. -1.
         11    1    3    3    0    0 -0.10647576200E+02  0.10286812406E+02  0.11557711992E+02  0.18782174932E+02  0.51100000000E-03 0.  1.
        -11    1    3    3    0    0 -0.13495635126E+02 -0.90701900775E-03 -0.11754343323E+02  0.17896836466E+02  0.51100000000E-03 0. -1.
         12    1    3    3    0    0  0.34912196366E+02  0.31356656387E+01 -0.71903614280E+01  0.35782609625E+02  0.00000000000E+00 0. -1.
</event>
<event>
 7    1  0.3027254E-013  0.7246164E+02  0.7816164E-02  0.1226708E+00
        -11   -1    0    0    0    0  0.00000000000E+00  0.00000000000E+00  0.45593999997E+02  0.45594000000E+02  0.51100000000E-03 0.  1.
         11   -1    0    0    0    0 -0.00000000000E+00 -0.00000000000E+00 -0.45593999997E+02  0.45594000000E+02  0.51100000000E-03 0. -1.
    9900012    2    1    2    0    0  0.18109175062E+02  0.38693533772E+01  0.27860936632E+01  0.72461643310E+02  0.70000095117E+02 0.  0.
         12    1    1    2    0    0 -0.18109175062E+02 -0.38693533772E+01 -0.27860936632E+01  0.18726356690E+02  0.00000000000E+00 0. -1.
         11    1    3    3    0    0 -0.12124756234E+02  0.34728157263E+00 -0.65426511544E+01  0.13781748895E+02  0.51100000000E-03 0. -1.
        -11    1    3    3    0    0  0.15718675530E+02 -0.22675275777E+02  0.10664313673E+01  0.27611268861E+02  0.51100000000E-03 0.  1.
        -12    1    3    3    0    0  0.14515255766E+02  0.26197347582E+02  0.82623134502E+01  0.31068625554E+02  0.00000000000E+00 0.  1.
</event>
<event>
 7    1  0.3027254E-013  0.7246159E+02  0.7816164E-02  0.1226708E+00
        -11   -1    0    0    0    0  0.00000000000E+00  0.00000000000E+00  0.45593999997E+02  0.45594000000E+02  0.51100000000E-03 0. -1.
         11   -1    0    0    0    0 -0.00000000000E+00 -0.00000000000E+00 -0.45593999997E+02  0.45594000000E+02  0.51100000000E-03 0.  1.
    9900012    2    1    2    0    0  0.13775661636E+02 -0.12593177910E+02 -0.15236267861E+01  0.72461590254E+02  0.70000026001E+02 0.  0.
         12    1    1    2    0    0 -0.13775661636E+02  0.12593177910E+02  0.15236267861E+01  0.18726409746E+02  0.00000000000E+00 0. -1.
         11    1    3    3    0    0 -0.17026274933E+01  0.29632880004E+01 -0.88936221785E+01  0.95276719018E+01  0.51100000000E-03 0. -1.
        -11    1    3    3    0    0  0.53326096065E+01 -0.21807407971E+02 -0.21880600185E+02  0.31349010069E+02  0.51100000000E-03 0.  1.
         12    1    3    3    0    0  0.10145679523E+02  0.62509420605E+01  0.29250595577E+02  0.31584908283E+02  0.00000000000E+00 0. -1.
</event>
<event>
 7    1  0.3027254E-013  0.7246159E+02  0.7816164E-02  0.1226708E+00
        -11   -1    0    0    0    0  0.00000000000E+00  0.00000000000E+00  0.45593999997E+02  0.45594000000E+02  0.51100000000E-03 0. -1.
         11   -1    0    0    0    0 -0.00000000000E+00 -0.00000000000E+00 -0.45593999997E+02  0.45594000000E+02  0.51100000000E-03 0.  1.
    9900012    2    1    2    0    0  0.84592792256E+01  0.36066000231E+01 -0.16312919154E+02  0.72461593509E+02  0.70000030241E+02 0.  0.
         12    1    1    2    0    0 -0.84592792256E+01 -0.36066000231E+01  0.16312919154E+02  0.18726406491E+02  0.00000000000E+00 0. -1.
         11    1    3    3    0    0 -0.21712473702E+02  0.19126129193E+02 -0.83600819830E+01  0.30118620539E+02  0.51100000000E-03 0. -1.
        -11    1    3    3    0    0  0.17029210695E+01  0.53859002067E+01 -0.37350834331E+01  0.67719059148E+01  0.51100000000E-03 0.  1.
        -12    1    3    3    0    0  0.28468831858E+02 -0.20905429377E+02 -0.42177537383E+01  0.35571067054E+02  0.00000000000E+00 0.  1.
</event>
<event>
 7    1  0.3027254E-013  0.7246154E+02  0.7816164E-02  0.1226708E+00
        -11   -1    0    0    0    0  0.00000000000E+00  0.00000000000E+00  0.45593999997E+02  0.45594000000E+02  0.51100000000E-03 0. -1.
         11   -1    0    0    0    0 -0.00000000000E+00 -0.00000000000E+00 -0.45593999997E+02  0.45594000000E+02  0.51100000000E-03 0.  1.
    9900012    2    1    2    0    0  0.12002458797E+02 -0.13839884686E+02  0.38831466615E+01  0.72461541358E+02  0.69999962304E+02 0.  0.
         12    1    1    2    0    0 -0.12002458797E+02  0.13839884686E+02 -0.38831466615E+01  0.18726458642E+02  0.00000000000E+00 0. -1.
         11    1    3    3    0    0  0.23984089572E+01  0.20532613863E+02  0.62499098403E+01  0.21596341607E+02  0.51100000000E-03 0. -1.
        -11    1    3    3    0    0  0.70512359257E+01 -0.13895171946E+02 -0.18848464814E+02  0.24455272592E+02  0.51100000000E-03 0.  1.
         12    1    3    3    0    0  0.25528139138E+01 -0.20477326603E+02  0.16481701635E+02  0.26409927158E+02  0.00000000000E+00 0. -1.
</event>
<event>
 7    1  0.3027254E-013  0.7246160E+02  0.7816164E-02  0.1226708E+00
        -11   -1    0    0    0    0  0.00000000000E+00  0.00000000000E+00  0.45593999997E+02  0.45594000000E+02  0.51100000000E-03 0.  1.
         11   -1    0    0    0    0 -0.00000000000E+00 -0.00000000000E+00 -0.45593999997E+02  0.45594000000E+02  0.51100000000E-03 0. -1.
    9900012    2    1    2    0    0  0.11630365307E+02 -0.14633266226E+02  0.11313737765E+01  0.72461604611E+02  0.70000044704E+02 0.  0.
         12    1    1    2    0    0 -0.11630365307E+02  0.14633266226E+02 -0.11313737765E+01  0.18726395389E+02  0.00000000000E+00 0. -1.
         11    1    3    3    0    0 -0.19532379496E+02 -0.19225132095E+02  0.13273241272E+02  0.30451576100E+02  0.51100000000E-03 0. -1.
        -11    1    3    3    0    0  0.96826167039E+01 -0.24830463881E+01  0.71453652219E+01  0.12287181533E+02  0.51100000000E-03 0.  1.
         12    1    3    3    0    0  0.21480128100E+02  0.70749122563E+01 -0.19287232718E+02  0.29722846979E+02  0.00000000000E+00 0. -1.
</event>
<event>
 7    1  0.3027254E-013  0.7246157E+02  0.7816164E-02  0.1226708E+00
        -11   -1    0    0    0    0  0.00000000000E+00  0.00000000000E+00  0.45593999997E+02  0.45594000000E+02  0.51100000000E-03 0. -1.
         11   -1    0    0    0    0 -0.00000000000E+00 -0.00000000000E+00 -0.45593999997E+02  0.45594000000E+02  0.51100000000E-03 0.  1.
    9900012    2    1    2    0    0 -0.16624201254E+02  0.70388344803E+01 -0.49769289514E+01  0.72461572686E+02  0.70000003115E+02 0.  0.
         12    1    1    2    0    0  0.16624201254E+02 -0.70388344803E+01  0.49769289514E+01  0.18726427314E+02  0.00000000000E+00 0. -1.
         11    1    3    3    0    0 -0.22970212466E+02 -0.11641582903E+02 -0.98718830804E+01  0.27579180355E+02  0.51100000000E-03 0. -1.
        -11    1    3    3    0    0 -0.15361497478E+02  0.16811000410E+02  0.36084470601E+01  0.23056587562E+02  0.51100000000E-03 0.  1.
         12    1    3    3    0    0  0.21707508691E+02  0.18694169733E+01  0.12865070690E+01  0.21825804769E+02  0.00000000000E+00 0. -1.
</event>
<event>
 7    1  0.3027254E-013  0.7246158E+02  0.7816164E-02  0.1226708E+00
        -11   -1    0    0    0    0  0.00000000000E+00  0.00000000000E+00  0.45593999997E+02  0.45594000000E+02  0.51100000000E-03 0. -1.
         11   -1    0    0    0    0 -0.00000000000E+00 -0.00000000000E+00 -0.45593999997E+02  0.45594000000E+02  0.51100000000E-03 0.  1.
    9900012    2    1    2    0    0  0.68389708169E+01  0.91523749027E+01 -0.14837166195E+02  0.72461575117E+02  0.70000006283E+02 0.  0.
         12    1    1    2    0    0 -0.68389708169E+01 -0.91523749027E+01  0.14837166195E+02  0.18726424883E+02  0.00000000000E+00 0. -1.
         11    1    3    3    0    0  0.36791897954E+00 -0.10457503087E+02 -0.12747352058E+02  0.16492110840E+02  0.51100000000E-03 0. -1.
        -11    1    3    3    0    0  0.45386370743E+01  0.22232729224E+02 -0.24459343393E+02  0.33363946929E+02  0.51100000000E-03 0.  1.
         12    1    3    3    0    0  0.19324147630E+01 -0.26228512339E+01  0.22369529257E+02  0.22605517348E+02  0.00000000000E+00 0. -1.
</event>
<event>
 7    1  0.3027254E-013  0.7246159E+02  0.7816164E-02  0.1226708E+00
        -11   -1    0    0    0    0  0.00000000000E+00  0.00000000000E+00  0.45593999997E+02  0.45594000000E+02  0.51100000000E-03 0. -1.
         11   -1    0    0    0    0 -0.00000000000E+00 -0.00000000000E+00 -0.45593999997E+02  0.45594000000E+02  0.51100000000E-03 0.  1.
    9900012    2    1    2    0    0 -0.18073992780E+02 -0.32708236517E+01  0.36484371950E+01  0.72461585599E+02  0.70000019937E+02 0.  0.
         12    1    1    2    0    0  0.18073992780E+02  0.32708236517E+01 -0.36484371950E+01  0.18726414401E+02  0.00000000000E+00 0. -1.
         11    1    3    3    0    0 -0.61247536838E+01  0.41788465186E+01  0.22379580818E+02  0.23575856374E+02  0.51100000000E-03 0. -1.
        -11    1    3    3    0    0 -0.15771624529E+02  0.11931496116E+02  0.24438359016E+01  0.19926792868E+02  0.51100000000E-03 0.  1.
        -12    1    3    3    0    0  0.38223854329E+01 -0.19381166286E+02 -0.21174979525E+02  0.28958936356E+02  0.00000000000E+00 0.  1.
</event>
<event>
 7    1  0.3027254E-013  0.7246159E+02  0.7816164E-02  0.1226708E+00
        -11   -1    0    0    0    0  0.00000000000E+00  0.00000000000E+00  0.45593999997E+02  0.45594000000E+02  0.51100000000E-03 0. -1.
         11   -1    0    0    0    0 -0.00000000000E+00 -0.00000000000E+00 -0.45593999997E+02  0.45594000000E+02  0.51100000000E-03 0.  1.
    9900012    2    1    2    0    0  0.16468854163E+02  0.88580032957E+01  0.99555868376E+00  0.72461587719E+02  0.70000022699E+02 0.  0.
         12    1    1    2    0    0 -0.16468854163E+02 -0.88580032957E+01 -0.99555868376E+00  0.18726412281E+02  0.00000000000E+00 0. -1.
         11    1    3    3    0    0  0.79771734437E+01  0.20790903783E+02  0.24015614214E+02  0.32751285510E+02  0.51100000000E-03 0. -1.
        -11    1    3    3    0    0 -0.86320868711E+01  0.31061324629E+01 -0.39267255096E+01  0.99789857258E+01  0.51100000000E-03 0.  1.
        -12    1    3    3    0    0  0.17123767590E+02 -0.15039032950E+02 -0.19093330021E+02  0.29731316483E+02  0.00000000000E+00 0.  1.
</event>
<event>
 7    1  0.3027254E-013  0.7246160E+02  0.7816164E-02  0.1226708E+00
        -11   -1    0    0    0    0  0.00000000000E+00  0.00000000000E+00  0.45593999997E+02  0.45594000000E+02  0.51100000000E-03 0.  1.
         11   -1    0    0    0    0 -0.00000000000E+00 -0.00000000000E+00 -0.45593999997E+02  0.45594000000E+02  0.51100000000E-03 0. -1.
    9900012    2    1    2    0    0 -0.15039679877E+02  0.44949797527E+01  0.10211824945E+02  0.72461596649E+02  0.70000034332E+02 0.  0.
         12    1    1    2    0    0  0.15039679877E+02 -0.44949797527E+01 -0.10211824945E+02  0.18726403351E+02  0.00000000000E+00 0. -1.
         11    1    3    3    0    0 -0.86996093201E+01 -0.14295907424E+02  0.24925884397E+02  0.30022589572E+02  0.51100000000E-03 0. -1.
        -11    1    3    3    0    0 -0.58499976663E+01 -0.50914474301E+01  0.67828268595E+01  0.10303011700E+02  0.51100000000E-03 0.  1.
        -12    1    3    3    0    0 -0.49007289020E+00  0.23882334607E+02 -0.21496886312E+02  0.32135995376E+02  0.00000000000E+00 0.  1.
</event>
<event>
 7    1  0.3027254E-013  0.7246157E+02  0.7816164E-02  0.1226708E+00
        -11   -1    0    0    0    0  0.00000000000E+00  0.00000000000E+00  0.45593999997E+02  0.45594000000E+02  0.51100000000E-03 0.  1.
         11   -1    0    0    0    0 -0.00000000000E+00 -0.00000000000E+00 -0.45593999997E+02  0.45594000000E+02  0.51100000000E-03 0. -1.
    9900012    2    1    2    0    0  0.10004061158E+02 -0.13330541055E+02  0.85378402973E+01  0.72461567307E+02  0.69999996109E+02 0.  0.
         12    1    1    2    0    0 -0.10004061158E+02  0.13330541055E+02 -0.85378402973E+01  0.18726432693E+02  0.00000000000E+00 0. -1.
         11    1    3    3    0    0  0.13897176238E+01 -0.21433767314E+01 -0.40082770127E+01  0.47530688780E+01  0.51100000000E-03 0. -1.
        -11    1    3    3    0    0 -0.51044743622E+01 -0.32214878733E+02  0.23616526334E+02  0.40269025152E+02  0.51100000000E-03 0.  1.
         12    1    3    3    0    0  0.13718817896E+02  0.21027714410E+02 -0.11070409024E+02  0.27439473277E+02  0.00000000000E+00 0. -1.
</event>
<event>
 7    1  0.3027254E-013  0.7246158E+02  0.7816164E-02  0.1226708E+00
        -11   -1    0    0    0    0  0.00000000000E+00  0.00000000000E+00  0.45593999997E+02  0.45594000000E+02  0.51100000000E-03 0.  1.
         11   -1    0    0    0    0 -0.00000000000E+00 -0.00000000000E+00 -0.45593999997E+02  0.45594000000E+02  0.51100000000E-03 0. -1.
    9900012    2    1    2    0    0  0.78809090894E+01 -0.16303931391E+02  0.47699027055E+01  0.72461578060E+02  0.70000010116E+02 0.  0.
         12    1    1    2    0    0 -0.78809090894E+01  0.16303931391E+02 -0.47699027055E+01  0.18726421940E+02  0.00000000000E+00 0. -1.
         11    1    3    3    0    0 -0.25120132199E+01  0.94699263416E+01  0.58180114328E+01  0.11394690545E+02  0.51100000000E-03 0. -1.
        -11    1    3    3    0    0  0.27408938071E+02  0.17983330397E+01 -0.64614286027E+01  0.28217617684E+02  0.51100000000E-03 0.  1.
        -12    1    3    3    0    0 -0.17016015761E+02 -0.27572190772E+02  0.54133198754E+01  0.32849269831E+02  0.00000000000E+00 0.  1.
</event>
<event>
 7    1  0.3027254E-013  0.7246153E+02  0.7816164E-02  0.1226708E+00
        -11   -1    0    0    0    0  0.00000000000E+00  0.00000000000E+00  0.45593999997E+02  0.45594000000E+02  0.51100000000E-03 0. -1.
         11   -1    0    0    0    0 -0.00000000000E+00 -0.00000000000E+00 -0.45593999997E+02  0.45594000000E+02  0.51100000000E-03 0.  1.
    9900012    2    1    2    0    0 -0.10509255813E+02  0.13568993411E+02 -0.74912410957E+01  0.72461528547E+02  0.69999945617E+02 0.  0.
         12    1    1    2    0    0  0.10509255813E+02 -0.13568993411E+02  0.74912410957E+01  0.18726471453E+02  0.00000000000E+00 0. -1.
         11    1    3    3    0    0  0.24872255962E+02  0.37343321367E+01  0.38591279680E+01  0.25445377224E+02  0.51100000000E-03 0. -1.
        -11    1    3    3    0    0 -0.18316458189E+02 -0.48266173755E+00 -0.18302052200E+02  0.25897697155E+02  0.51100000000E-03 0.  1.
        -12    1    3    3    0    0 -0.17065053586E+02  0.10317323011E+02  0.69516831365E+01  0.21118454168E+02  0.00000000000E+00 0.  1.
</event>
<event>
 7    1  0.3027254E-013  0.7246155E+02  0.7816164E-02  0.1226708E+00
        -11   -1    0    0    0    0  0.00000000000E+00  0.00000000000E+00  0.45593999997E+02  0.45594000000E+02  0.51100000000E-03 0.  1.
         11   -1    0    0    0    0 -0.00000000000E+00 -0.00000000000E+00 -0.45593999997E+02  0.45594000000E+02  0.51100000000E-03 0. -1.
    9900012    2    1    2    0    0  0.54573455749E+01  0.10969391971E+02 -0.14162267724E+02  0.72461547906E+02  0.69999970835E+02 0.  0.
         12    1    1    2    0    0 -0.54573455749E+01 -0.10969391971E+02  0.14162267724E+02  0.18726452094E+02  0.00000000000E+00 0. -1.
         11    1    3    3    0    0 -0.16727358544E-01 -0.98539743683E+01  0.20123510529E+00  0.98560431454E+01  0.51100000000E-03 0. -1.
        -11    1    3    3    0    0  0.17393027521E+02  0.73714202848E+01  0.17675084708E+02  0.25870134578E+02  0.51100000000E-03 0.  1.
        -12    1    3    3    0    0 -0.11918954588E+02  0.13451946055E+02 -0.32038587537E+02  0.36735370183E+02  0.00000000000E+00 0.  1.
</event>
<event>
 7    1  0.3027254E-013  0.7246158E+02  0.7816164E-02  0.1226708E+00
        -11   -1    0    0    0    0  0.00000000000E+00  0.00000000000E+00  0.45593999997E+02  0.45594000000E+02  0.51100000000E-03 0.  1.
         11   -1    0    0    0    0 -0.00000000000E+00 -0.00000000000E+00 -0.45593999997E+02  0.45594000000E+02  0.51100000000E-03 0. -1.
    9900012    2    1    2    0    0 -0.50047654684E+01  0.17206997709E+02  0.54360197008E+01  0.72461581289E+02  0.70000014322E+02 0.  0.
         12    1    1    2    0    0  0.50047654684E+01 -0.17206997709E+02 -0.54360197008E+01  0.18726418711E+02  0.00000000000E+00 0. -1.
         11    1    3    3    0    0 -0.32866888142E+02  0.87565819869E+01 -0.85842894137E+01  0.35079910052E+02  0.51100000000E-03 0. -1.
        -11    1    3    3    0    0  0.11140604685E+02  0.67046920105E+01  0.15814845786E+02  0.20473771396E+02  0.51100000000E-03 0.  1.
        -12    1    3    3    0    0  0.16721517989E+02  0.17457237118E+01 -0.17945366716E+01  0.16907899840E+02  0.00000000000E+00 0.  1.
</event>
<event>
 7    1  0.3027254E-013  0.7246172E+02  0.7816164E-02  0.1226708E+00
        -11   -1    0    0    0    0  0.00000000000E+00  0.00000000000E+00  0.45593999997E+02  0.45594000000E+02  0.51100000000E-03 0.  1.
         11   -1    0    0    0    0 -0.00000000000E+00 -0.00000000000E+00 -0.45593999997E+02  0.45594000000E+02  0.51100000000E-03 0. -1.
    9900012    2    1    2    0    0 -0.19814378069E+01  0.15301501140E+02  0.10611851494E+02  0.72461723674E+02  0.70000199805E+02 0.  0.
         12    1    1    2    0    0  0.19814378069E+01 -0.15301501140E+02 -0.10611851494E+02  0.18726276326E+02  0.00000000000E+00 0. -1.
         11    1    3    3    0    0  0.22598842780E+02  0.87252948357E+01 -0.96823681082E+01  0.26088056988E+02  0.51100000000E-03 0. -1.
        -11    1    3    3    0    0 -0.14873860423E+02  0.79912657285E+01 -0.63049836028E+01  0.18023453341E+02  0.51100000000E-03 0.  1.
        -12    1    3    3    0    0 -0.97064201642E+01 -0.14150594247E+01  0.26599203205E+02  0.28350213345E+02  0.00000000000E+00 0.  1.
</event>
<event>
 7    1  0.3027254E-013  0.7246161E+02  0.7816164E-02  0.1226708E+00
        -11   -1    0    0    0    0  0.00000000000E+00  0.00000000000E+00  0.45593999997E+02  0.45594000000E+02  0.51100000000E-03 0.  1.
         11   -1    0    0    0    0 -0.00000000000E+00 -0.00000000000E+00 -0.45593999997E+02  0.45594000000E+02  0.51100000000E-03 0. -1.
    9900012    2    1    2    0    0 -0.10145348305E+02  0.96643296641E+01 -0.12423786852E+02  0.72461605797E+02  0.70000046249E+02 0.  0.
         12    1    1    2    0    0  0.10145348305E+02 -0.96643296641E+01  0.12423786852E+02  0.18726394203E+02  0.00000000000E+00 0. -1.
         11    1    3    3    0    0  0.49601939480E+01  0.60499225726E+01  0.18575103092E+02  0.20155384945E+02  0.51100000000E-03 0. -1.
        -11    1    3    3    0    0 -0.22711641870E+01  0.13296908286E+02  0.37647805241E+01  0.14004982306E+02  0.51100000000E-03 0.  1.
         12    1    3    3    0    0 -0.12834378066E+02 -0.96825011949E+01 -0.34763670468E+02  0.38301238546E+02  0.00000000000E+00 0. -1.
</event>
<event>
 7    1  0.3027254E-013  0.7246158E+02  0.7816164E-02  0.1226708E+00
        -11   -1    0    0    0    0  0.00000000000E+00  0.00000000000E+00  0.45593999997E+02  0.45594000000E+02  0.51100000000E-03 0.  1.
         11   -1    0    0    0    0 -0.00000000000E+00 -0.00000000000E+00 -0.45593999997E+02  0.45594000000E+02  0.51100000000E-03 0. -1.
    9900012    2    1    2    0    0 -0.80025250797E+01 -0.14343821141E+02  0.89940562216E+01  0.72461583901E+02  0.70000017725E+02 0.  0.
         12    1    1    2    0    0  0.80025250797E+01  0.14343821141E+02 -0.89940562216E+01  0.18726416099E+02  0.00000000000E+00 0. -1.
         11    1    3    3    0    0  0.10529018199E+02  0.62475539242E+01  0.67081566452E+01  0.13960355300E+02  0.51100000000E-03 0. -1.
        -11    1    3    3    0    0  0.29577977271E+01 -0.30416892278E+02 -0.96245517496E+01  0.32040098313E+02  0.51100000000E-03 0.  1.
         12    1    3    3    0    0 -0.21489341005E+02  0.98255172128E+01  0.11910451326E+02  0.26461130288E+02  0.00000000000E+00 0. -1.
</event>
<event>
 7    1  0.3027254E-013  0.7246161E+02  0.7816164E-02  0.1226708E+00
        -11   -1    0    0    0    0  0.00000000000E+00  0.00000000000E+00  0.45593999997E+02  0.45594000000E+02  0.51100000000E-03 0. -1.
         11   -1    0    0    0    0 -0.00000000000E+00 -0.00000000000E+00 -0.45593999997E+02  0.45594000000E+02  0.51100000000E-03 0.  1.
    9900012    2    1    2    0    0  0.16808943997E+02  0.77593357171E+01 -0.28159599383E+01  0.72461614352E+02  0.70000057393E+02 0.  0.
         12    1    1    2    0    0 -0.16808943997E+02 -0.77593357171E+01  0.28159599383E+01  0.18726385648E+02  0.00000000000E+00 0. -1.
         11    1    3    3    0    0  0.90210959257E+01  0.11825834224E+02  0.22267086005E+02  0.26777857386E+02  0.51100000000E-03 0. -1.
        -11    1    3    3    0    0  0.14254618646E+02  0.11482712109E+02 -0.40630354926E+01  0.18749802340E+02  0.51100000000E-03 0.  1.
        -12    1    3    3    0    0 -0.64667705740E+01 -0.15549210616E+02 -0.21020010451E+02  0.26933954626E+02  0.00000000000E+00 0.  1.
</event>
<event>
 7    1  0.3027254E-013  0.7246153E+02  0.7816164E-02  0.1226708E+00
        -11   -1    0    0    0    0  0.00000000000E+00  0.00000000000E+00  0.45593999997E+02  0.45594000000E+02  0.51100000000E-03 0. -1.
         11   -1    0    0    0    0 -0.00000000000E+00 -0.00000000000E+00 -0.45593999997E+02  0.45594000000E+02  0.51100000000E-03 0.  1.
    9900012    2    1    2    0    0 -0.17203814438E+02 -0.73965830369E+01 -0.11970035160E-01  0.72461526356E+02  0.69999942762E+02 0.  0.
         12    1    1    2    0    0  0.17203814438E+02  0.73965830369E+01  0.11970035160E-01  0.18726473644E+02  0.00000000000E+00 0. -1.
         11    1    3    3    0    0 -0.25454312552E+01 -0.36840081408E+01  0.20900450252E+01  0.49416014333E+01  0.51100000000E-03 0. -1.
        -11    1    3    3    0    0  0.30497559846E+01  0.20084846378E+01  0.30103642621E+02  0.30324318977E+02  0.51100000000E-03 0.  1.
        -12    1    3    3    0    0 -0.17708139168E+02 -0.57210595339E+01 -0.32205657681E+02  0.37195605946E+02  0.00000000000E+00 0.  1.
</event>
<event>
 7    1  0.3027254E-013  0.7246157E+02  0.7816164E-02  0.1226708E+00
        -11   -1    0    0    0    0  0.00000000000E+00  0.00000000000E+00  0.45593999997E+02  0.45594000000E+02  0.51100000000E-03 0. -1.
         11   -1    0    0    0    0 -0.00000000000E+00 -0.00000000000E+00 -0.45593999997E+02  0.45594000000E+02  0.51100000000E-03 0.  1.
    9900012    2    1    2    0    0 -0.53318812155E+01  0.12309819845E+02  0.13065933049E+02  0.72461568723E+02  0.69999997953E+02 0.  0.
         12    1    1    2    0    0  0.53318812155E+01 -0.12309819845E+02 -0.13065933049E+02  0.18726431277E+02  0.00000000000E+00 0. -1.
         11    1    3    3    0    0 -0.45310803782E+01  0.18713159508E+02  0.26480490712E+02  0.32740333181E+02  0.51100000000E-03 0. -1.
        -11    1    3    3    0    0  0.56298459830E+01  0.95578175270E+01  0.69266929071E+01  0.13077695384E+02  0.51100000000E-03 0.  1.
        -12    1    3    3    0    0 -0.64306468203E+01 -0.15961157190E+02 -0.20341250570E+02  0.26643540158E+02  0.00000000000E+00 0.  1.
</event>
<event>
 7    1  0.3027254E-013  0.7246156E+02  0.7816164E-02  0.1226708E+00
        -11   -1    0    0    0    0  0.00000000000E+00  0.00000000000E+00  0.45593999997E+02  0.45594000000E+02  0.51100000000E-03 0.  1.
         11   -1    0    0    0    0 -0.00000000000E+00 -0.00000000000E+00 -0.45593999997E+02  0.45594000000E+02  0.51100000000E-03 0. -1.
    9900012    2    1    2    0    0 -0.12245656003E+02 -0.12580682958E+02  0.65153539836E+01  0.72461561146E+02  0.69999988082E+02 0.  0.
         12    1    1    2    0    0  0.12245656003E+02  0.12580682958E+02 -0.65153539836E+01  0.18726438854E+02  0.00000000000E+00 0. -1.
         11    1    3    3    0    0 -0.98961742934E+01  0.33414167541E+01 -0.24265046505E+02  0.26417642092E+02  0.51100000000E-03 0. -1.
        -11    1    3    3    0    0  0.11949308631E+02 -0.12412966807E+02  0.81853576822E+01  0.19075319194E+02  0.51100000000E-03 0.  1.
        -12    1    3    3    0    0 -0.14298790341E+02 -0.35091329044E+01  0.22595042806E+02  0.26968599859E+02  0.00000000000E+00 0.  1.
</event>
<event>
 7    1  0.3027254E-013  0.7246158E+02  0.7816164E-02  0.1226708E+00
        -11   -1    0    0    0    0  0.00000000000E+00  0.00000000000E+00  0.45593999997E+02  0.45594000000E+02  0.51100000000E-03 0. -1.
         11   -1    0    0    0    0 -0.00000000000E+00 -0.00000000000E+00 -0.45593999997E+02  0.45594000000E+02  0.51100000000E-03 0.  1.
    9900012    2    1    2    0    0  0.87410112427E+01 -0.71331299105E+01 -0.14946297814E+02  0.72461584480E+02  0.70000018480E+02 0.  0.
         12    1    1    2    0    0 -0.87410112427E+01  0.71331299105E+01  0.14946297814E+02  0.18726415520E+02  0.00000000000E+00 0. -1.
         11    1    3    3    0    0 -0.70919248664E+01  0.15829956663E+02 -0.19357028303E+02  0.25991873177E+02  0.51100000000E-03 0. -1.
        -11    1    3    3    0    0 -0.68340378565E+01 -0.11981492367E+02 -0.10378303227E+02  0.17261790489E+02  0.51100000000E-03 0.  1.
         12    1    3    3    0    0  0.22666973966E+02 -0.10981594206E+02  0.14789033715E+02  0.29207920814E+02  0.00000000000E+00 0. -1.
</event>
<event>
 7    1  0.3027254E-013  0.7246166E+02  0.7816164E-02  0.1226708E+00
        -11   -1    0    0    0    0  0.00000000000E+00  0.00000000000E+00  0.45593999997E+02  0.45594000000E+02  0.51100000000E-03 0. -1.
         11   -1    0    0    0    0 -0.00000000000E+00 -0.00000000000E+00 -0.45593999997E+02  0.45594000000E+02  0.51100000000E-03 0.  1.
    9900012    2    1    2    0    0 -0.12733630839E+01 -0.17245483072E+02  0.71866306488E+01  0.72461660261E+02  0.70000117198E+02 0.  0.
         12    1    1    2    0    0  0.12733630839E+01  0.17245483072E+02 -0.71866306488E+01  0.18726339739E+02  0.00000000000E+00 0. -1.
         11    1    3    3    0    0  0.13464834577E+02 -0.16719050725E+02  0.20859416318E+02  0.29932318265E+02  0.51100000000E-03 0. -1.
        -11    1    3    3    0    0  0.43568606428E+01 -0.50050762200E+01  0.98661861988E+01  0.11890107359E+02  0.51100000000E-03 0.  1.
        -12    1    3    3    0    0 -0.19095058304E+02  0.44786438723E+01 -0.23538971868E+02  0.30639234637E+02  0.00000000000E+00 0.  1.
</event>
<event>
 7    1  0.3027254E-013  0.7246159E+02  0.7816164E-02  0.1226708E+00
        -11   -1    0    0    0    0  0.00000000000E+00  0.00000000000E+00  0.45593999997E+02  0.45594000000E+02  0.51100000000E-03 0.  1.
         11   -1    0    0    0    0 -0.00000000000E+00 -0.00000000000E+00 -0.45593999997E+02  0.45594000000E+02  0.51100000000E-03 0. -1.
    9900012    2    1    2    0    0  0.18165724269E+02 -0.43229929494E+01  0.14129547389E+01  0.72461594917E+02  0.70000032076E+02 0.  0.
         12    1    1    2    0    0 -0.18165724269E+02  0.43229929494E+01 -0.14129547389E+01  0.18726405083E+02  0.00000000000E+00 0. -1.
         11    1    3    3    0    0  0.92365045855E+01  0.16305181533E+02  0.91954179442E+01  0.20874090955E+02  0.51100000000E-03 0. -1.
        -11    1    3    3    0    0  0.17343248870E+02 -0.13601243474E+02 -0.23632857310E+02  0.32315538836E+02  0.51100000000E-03 0.  1.
         12    1    3    3    0    0 -0.84140291868E+01 -0.70269310085E+01  0.15850394104E+02  0.19271965126E+02  0.00000000000E+00 0. -1.
</event>
<event>
 7    1  0.3027254E-013  0.7246199E+02  0.7816164E-02  0.1226707E+00
        -11   -1    0    0    0    0  0.00000000000E+00  0.00000000000E+00  0.45593999997E+02  0.45594000000E+02  0.51100000000E-03 0. -1.
         11   -1    0    0    0    0 -0.00000000000E+00 -0.00000000000E+00 -0.45593999997E+02  0.45594000000E+02  0.51100000000E-03 0.  1.
    9900012    2    1    2    0    0  0.17172780522E+02  0.63252950535E-01 -0.74669341713E+01  0.72461988740E+02  0.70000545101E+02 0.  0.
         12    1    1    2    0    0 -0.17172780522E+02 -0.63252950535E-01  0.74669341713E+01  0.18726011260E+02  0.00000000000E+00 0. -1.
         11    1    3    3    0    0 -0.74831282460E+01  0.10016758213E+02  0.41461683339E+01  0.13172826787E+02  0.51100000000E-03 0. -1.
        -11    1    3    3    0    0 -0.68457117669E+00  0.12799776649E+02  0.12229405467E+02  0.17716130455E+02  0.51100000000E-03 0.  1.
         12    1    3    3    0    0  0.25340479945E+02 -0.22753281911E+02 -0.23842507972E+02  0.41573031498E+02  0.00000000000E+00 0. -1.
</event>
<event>
 7    1  0.3027254E-013  0.7246155E+02  0.7816164E-02  0.1226708E+00
        -11   -1    0    0    0    0  0.00000000000E+00  0.00000000000E+00  0.45593999997E+02  0.45594000000E+02  0.51100000000E-03 0.  1.
         11   -1    0    0    0    0 -0.00000000000E+00 -0.00000000000E+00 -0.45593999997E+02  0.45594000000E+02  0.51100000000E-03 0. -1.
    9900012    2    1    2    0    0 -0.12035356520E+02 -0.13726415530E+02  0.41732184908E+01  0.72461546987E+02  0.69999969638E+02 0.  0.
         12    1    1    2    0    0  0.12035356520E+02  0.13726415530E+02 -0.41732184908E+01  0.18726453013E+02  0.00000000000E+00 0. -1.
         11    1    3    3    0    0 -0.30280044848E+01  0.58245286066E+00  0.52935008679E+00  0.31286217845E+01  0.51100000000E-03 0. -1.
        -11    1    3    3    0    0  0.94055755565E-01 -0.15542581120E+02  0.34125071934E+02  0.37498016069E+02  0.51100000000E-03 0.  1.
         12    1    3    3    0    0 -0.91014077911E+01  0.12337127290E+01 -0.30481203530E+02  0.31834909133E+02  0.00000000000E+00 0. -1.
</event>
<event>
 7    1  0.3027254E-013  0.7246156E+02  0.7816164E-02  0.1226708E+00
        -11   -1    0    0    0    0  0.00000000000E+00  0.00000000000E+00  0.45593999997E+02  0.45594000000E+02  0.51100000000E-03 0. -1.
         11   -1    0    0    0    0 -0.00000000000E+00 -0.00000000000E+00 -0.45593999997E+02  0.45594000000E+02  0.51100000000E-03 0.  1.
    9900012    2    1    2    0    0 -0.17150196631E+02  0.66578263888E+01  0.34962443474E+01  0.72461558233E+02  0.69999984288E+02 0.  0.
         12    1    1    2    0    0  0.17150196631E+02 -0.66578263888E+01 -0.34962443474E+01  0.18726441767E+02  0.00000000000E+00 0. -1.
         11    1    3    3    0    0 -0.67508146876E+01  0.11999560941E+02  0.22445890451E+02  0.26332127907E+02  0.51100000000E-03 0. -1.
        -11    1    3    3    0    0 -0.53371640709E+00  0.17240648190E+02 -0.58047235771E+01  0.18199440082E+02  0.51100000000E-03 0.  1.
        -12    1    3    3    0    0 -0.98656655367E+01 -0.22582382742E+02 -0.13144922526E+02  0.27929990244E+02  0.00000000000E+00 0.  1.
</event>
<event>
 7    1  0.3027254E-013  0.7246155E+02  0.7816164E-02  0.1226708E+00
        -11   -1    0    0    0    0  0.00000000000E+00  0.00000000000E+00  0.45593999997E+02  0.45594000000E+02  0.51100000000E-03 0.  1.
         11   -1    0    0    0    0 -0.00000000000E+00 -0.00000000000E+00 -0.45593999997E+02  0.45594000000E+02  0.51100000000E-03 0. -1.
    9900012    2    1    2    0    0 -0.55455132724E+01  0.96560631416E+01  0.15056148375E+02  0.72461551412E+02  0.69999975402E+02 0.  0.
         12    1    1    2    0    0  0.55455132724E+01 -0.96560631416E+01 -0.15056148375E+02  0.18726448588E+02  0.00000000000E+00 0. -1.
         11    1    3    3    0    0  0.40237499915E+00 -0.13487063485E+01  0.80378456082E+00  0.16207974382E+01  0.51100000000E-03 0. -1.
        -11    1    3    3    0    0 -0.79423754374E+01  0.88676854088E+01  0.41634519215E+02  0.43303006392E+02  0.51100000000E-03 0.  1.
         12    1    3    3    0    0  0.19944871659E+01  0.21370840813E+01 -0.27382155401E+02  0.27537747581E+02  0.00000000000E+00 0. -1.
</event>
<event>
 7    1  0.3027254E-013  0.7246147E+02  0.7816164E-02  0.1226708E+00
        -11   -1    0    0    0    0  0.00000000000E+00  0.00000000000E+00  0.45593999997E+02  0.45594000000E+02  0.51100000000E-03 0. -1.
         11   -1    0    0    0    0 -0.00000000000E+00 -0.00000000000E+00 -0.45593999997E+02  0.45594000000E+02  0.51100000000E-03 0.  1.
    9900012    2    1    2    0    0  0.18120579754E+01 -0.11880530683E+02 -0.14361488486E+02  0.72461470291E+02  0.69999869727E+02 0.  0.
         12    1    1    2    0    0 -0.18120579754E+01  0.11880530683E+02  0.14361488486E+02  0.18726529709E+02  0.00000000000E+00 0. -1.
         11    1    3    3    0    0 -0.86386603957E+01  0.90090901537E+01  0.89861460068E+00  0.12513898964E+02  0.51100000000E-03 0. -1.
        -11    1    3    3    0    0  0.20444868022E+02  0.11840761634E+02 -0.43093393497E+01  0.24015966989E+02  0.51100000000E-03 0.  1.
         12    1    3    3    0    0 -0.99941496509E+01 -0.32730382470E+02 -0.10950763737E+02  0.35931604338E+02  0.00000000000E+00 0. -1.
</event>
<event>
 7    1  0.3027254E-013  0.7246156E+02  0.7816164E-02  0.1226708E+00
        -11   -1    0    0    0    0  0.00000000000E+00  0.00000000000E+00  0.45593999997E+02  0.45594000000E+02  0.51100000000E-03 0.  1.
         11   -1    0    0    0    0 -0.00000000000E+00 -0.00000000000E+00 -0.45593999997E+02  0.45594000000E+02  0.51100000000E-03 0. -1.
    9900012    2    1    2    0    0  0.10592381949E+02  0.90904677866E+01  0.12483769905E+02  0.72461556905E+02  0.69999982558E+02 0.  0.
         12    1    1    2    0    0 -0.10592381949E+02 -0.90904677866E+01 -0.12483769905E+02  0.18726443095E+02  0.00000000000E+00 0. -1.
         11    1    3    3    0    0  0.20771135460E+02  0.88262609261E+01  0.13524651475E+02  0.26310818080E+02  0.51100000000E-03 0. -1.
        -11    1    3    3    0    0 -0.12116734758E+01  0.18439414754E+02  0.12015740243E+02  0.22042190974E+02  0.51100000000E-03 0.  1.
         12    1    3    3    0    0 -0.89670800352E+01 -0.18175207893E+02 -0.13056621814E+02  0.24108547852E+02  0.00000000000E+00 0. -1.
</event>
<event>
 7    1  0.3027254E-013  0.7246157E+02  0.7816164E-02  0.1226708E+00
        -11   -1    0    0    0    0  0.00000000000E+00  0.00000000000E+00  0.45593999997E+02  0.45594000000E+02  0.51100000000E-03 0.  1.
         11   -1    0    0    0    0 -0.00000000000E+00 -0.00000000000E+00 -0.45593999997E+02  0.45594000000E+02  0.51100000000E-03 0. -1.
    9900012    2    1    2    0    0 -0.21385216313E+01 -0.18566341495E+02  0.11818761142E+01  0.72461571018E+02  0.70000000942E+02 0.  0.
         12    1    1    2    0    0  0.21385216313E+01  0.18566341495E+02 -0.11818761142E+01  0.18726428982E+02  0.00000000000E+00 0. -1.
         11    1    3    3    0    0 -0.14156367748E+02  0.13951974247E+02 -0.15925496601E+02  0.25469231937E+02  0.51100000000E-03 0. -1.
        -11    1    3    3    0    0  0.44964965866E+01  0.36775565668E+01  0.60909064622E+01  0.84167716880E+01  0.51100000000E-03 0.  1.
        -12    1    3    3    0    0  0.75213495305E+01 -0.36195872309E+02  0.11016466253E+02  0.38575567393E+02  0.00000000000E+00 0.  1.
</event>
<event>
 7    1  0.3027254E-013  0.7246159E+02  0.7816164E-02  0.1226708E+00
        -11   -1    0    0    0    0  0.00000000000E+00  0.00000000000E+00  0.45593999997E+02  0.45594000000E+02  0.51100000000E-03 0. -1.
         11   -1    0    0    0    0 -0.00000000000E+00 -0.00000000000E+00 -0.45593999997E+02  0.45594000000E+02  0.51100000000E-03 0.  1.
    9900012    2    1    2    0    0 -0.17144163342E+02 -0.50970293789E+01 -0.55476414905E+01  0.72461591607E+02  0.70000027764E+02 0.  0.
         12    1    1    2    0    0  0.17144163342E+02  0.50970293789E+01  0.55476414905E+01  0.18726408393E+02  0.00000000000E+00 0. -1.
         11    1    3    3    0    0  0.82445688790E+01  0.71828959115E+01 -0.78095416274E+01  0.13437107217E+02  0.51100000000E-03 0. -1.
        -11    1    3    3    0    0  0.11359372247E+02 -0.17985011103E+02  0.45967057826E+01  0.21762942506E+02  0.51100000000E-03 0.  1.
         12    1    3    3    0    0 -0.36748104469E+02  0.57050858121E+01 -0.23348056457E+01  0.37261541884E+02  0.00000000000E+00 0. -1.
</event>
<event>
 7    1  0.3027254E-013  0.7246158E+02  0.7816164E-02  0.1226708E+00
        -11   -1    0    0    0    0  0.00000000000E+00  0.00000000000E+00  0.45593999997E+02  0.45594000000E+02  0.51100000000E-03 0.  1.
         11   -1    0    0    0    0 -0.00000000000E+00 -0.00000000000E+00 -0.45593999997E+02  0.45594000000E+02  0.51100000000E-03 0. -1.
    9900012    2    1    2    0    0 -0.37464180345E+00  0.16491082098E+02  0.88646868420E+01  0.72461579679E+02  0.70000012225E+02 0.  0.
         12    1    1    2    0    0  0.37464180345E+00 -0.16491082098E+02 -0.88646868420E+01  0.18726420321E+02  0.00000000000E+00 0. -1.
         11    1    3    3    0    0 -0.64960183254E+01 -0.97280386170E+01  0.14298678898E+02  0.18473906136E+02  0.51100000000E-03 0. -1.
        -11    1    3    3    0    0  0.99147217019E+01 -0.11374600915E+02 -0.58961157693E+01  0.16200229438E+02  0.51100000000E-03 0.  1.
        -12    1    3    3    0    0 -0.37933451800E+01  0.37593721630E+02  0.46212371328E+00  0.37787444105E+02  0.00000000000E+00 0.  1.
</event>
<event>
 7    1  0.3027254E-013  0.7246150E+02  0.7816164E-02  0.1226708E+00
        -11   -1    0    0    0    0  0.00000000000E+00  0.00000000000E+00  0.45593999997E+02  0.45594000000E+02  0.51100000000E-03 0.  1.
         11   -1    0    0    0    0 -0.00000000000E+00 -0.00000000000E+00 -0.45593999997E+02  0.45594000000E+02  0.51100000000E-03 0. -1.
    9900012    2    1    2    0    0 -0.15286894292E+02 -0.10206375660E+02 -0.35808353021E+01  0.72461504795E+02  0.69999914675E+02 0.  0.
         12    1    1    2    0    0  0.15286894292E+02  0.10206375660E+02  0.35808353021E+01  0.18726495205E+02  0.00000000000E+00 0. -1.
         11    1    3    3    0    0 -0.17371874626E+02  0.14045502321E+02 -0.12306024062E+02  0.25504830757E+02  0.51100000000E-03 0. -1.
        -11    1    3    3    0    0 -0.15970093843E+02 -0.82519478964E-01  0.29942644634E+01  0.16248579222E+02  0.51100000000E-03 0.  1.
        -12    1    3    3    0    0  0.18055074176E+02 -0.24169358502E+02  0.57309242968E+01  0.30708094816E+02  0.00000000000E+00 0.  1.
</event>
<event>
 7    1  0.3027254E-013  0.7246161E+02  0.7816164E-02  0.1226708E+00
        -11   -1    0    0    0    0  0.00000000000E+00  0.00000000000E+00  0.45593999997E+02  0.45594000000E+02  0.51100000000E-03 0.  1.
         11   -1    0    0    0    0 -0.00000000000E+00 -0.00000000000E+00 -0.45593999997E+02  0.45594000000E+02  0.51100000000E-03 0. -1.
    9900012    2    1    2    0    0  0.11316064299E+02  0.13836480176E+02 -0.55835699027E+01  0.72461608256E+02  0.70000049452E+02 0.  0.
         12    1    1    2    0    0 -0.11316064299E+02 -0.13836480176E+02  0.55835699027E+01  0.18726391744E+02  0.00000000000E+00 0. -1.
         11    1    3    3    0    0  0.11166180510E+02  0.13208968127E+02  0.48938861554E+01  0.17975276023E+02  0.51100000000E-03 0. -1.
        -11    1    3    3    0    0 -0.89811164454E+01  0.24378896467E+02  0.21688797903E+01  0.26070962494E+02  0.51100000000E-03 0.  1.
         12    1    3    3    0    0  0.91310002351E+01 -0.23751384417E+02 -0.12646335848E+02  0.28415369739E+02  0.00000000000E+00 0. -1.
</event>
<event>
 7    1  0.3027254E-013  0.7246156E+02  0.7816164E-02  0.1226708E+00
        -11   -1    0    0    0    0  0.00000000000E+00  0.00000000000E+00  0.45593999997E+02  0.45594000000E+02  0.51100000000E-03 0.  1.
         11   -1    0    0    0    0 -0.00000000000E+00 -0.00000000000E+00 -0.45593999997E+02  0.45594000000E+02  0.51100000000E-03 0. -1.
    9900012    2    1    2    0    0 -0.13184341978E+02 -0.85309963961E+01 -0.10201713962E+02  0.72461555045E+02  0.69999980135E+02 0.  0.
         12    1    1    2    0    0  0.13184341978E+02  0.85309963961E+01  0.10201713962E+02  0.18726444955E+02  0.00000000000E+00 0. -1.
         11    1    3    3    0    0 -0.27636050614E+02 -0.15892385322E+01 -0.22922500936E+02  0.35940478880E+02  0.51100000000E-03 0. -1.
        -11    1    3    3    0    0  0.67645741038E+01 -0.18264460456E+02  0.29350840268E+01  0.19696819465E+02  0.51100000000E-03 0.  1.
        -12    1    3    3    0    0  0.76871345329E+01  0.11322702592E+02  0.97857029480E+01  0.16824256700E+02  0.00000000000E+00 0.  1.
</event>
<event>
 7    1  0.3027254E-013  0.7246158E+02  0.7816164E-02  0.1226708E+00
        -11   -1    0    0    0    0  0.00000000000E+00  0.00000000000E+00  0.45593999997E+02  0.45594000000E+02  0.51100000000E-03 0.  1.
         11   -1    0    0    0    0 -0.00000000000E+00 -0.00000000000E+00 -0.45593999997E+02  0.45594000000E+02  0.51100000000E-03 0. -1.
    9900012    2    1    2    0    0 -0.16150209863E+02 -0.35678960265E+01  0.87817780203E+01  0.72461580538E+02  0.70000013344E+02 0.  0.
         12    1    1    2    0    0  0.16150209863E+02  0.35678960265E+01 -0.87817780203E+01  0.18726419462E+02  0.00000000000E+00 0. -1.
         11    1    3    3    0    0  0.93631296192E+01 -0.20119871365E+02 -0.96204260164E+01  0.24187393762E+02  0.51100000000E-03 0. -1.
        -11    1    3    3    0    0 -0.71131012456E+01 -0.59649465586E+00 -0.87301399950E+01  0.11276850615E+02  0.51100000000E-03 0.  1.
        -12    1    3    3    0    0 -0.18400238237E+02  0.17148469994E+02  0.27132344032E+02  0.36997336160E+02  0.00000000000E+00 0.  1.
</event>
<event>
 7    1  0.3027254E-013  0.7246158E+02  0.7816164E-02  0.1226708E+00
        -11   -1    0    0    0    0  0.00000000000E+00  0.00000000000E+00  0.45593999997E+02  0.45594000000E+02  0.51100000000E-03 0.  1.
         11   -1    0    0    0    0 -0.00000000000E+00 -0.00000000000E+00 -0.45593999997E+02  0.45594000000E+02  0.51100000000E-03 0. -1.
    9900012    2    1    2    0    0  0.37457800311E+01 -0.17712470366E+02  0.47871195670E+01  0.72461575134E+02  0.70000006305E+02 0.  0.
         12    1    1    2    0    0 -0.37457800311E+01  0.17712470366E+02 -0.47871195670E+01  0.18726424866E+02  0.00000000000E+00 0. -1.
         11    1    3    3    0    0  0.48679361845E+01 -0.22168063347E+01  0.96304634256E+01  0.11016208925E+02  0.51100000000E-03 0. -1.
        -11    1    3    3    0    0  0.22035490470E+02 -0.19929846610E+01  0.16153262294E+02  0.27394574483E+02  0.51100000000E-03 0.  1.
         12    1    3    3    0    0 -0.23157646623E+02 -0.13502679370E+02 -0.20996606152E+02  0.34050791727E+02  0.00000000000E+00 0. -1.
</event>
<event>
 7    1  0.3027254E-013  0.7246147E+02  0.7816164E-02  0.1226708E+00
        -11   -1    0    0    0    0  0.00000000000E+00  0.00000000000E+00  0.45593999997E+02  0.45594000000E+02  0.51100000000E-03 0.  1.
         11   -1    0    0    0    0 -0.00000000000E+00 -0.00000000000E+00 -0.45593999997E+02  0.45594000000E+02  0.51100000000E-03 0. -1.
    9900012    2    1    2    0    0 -0.14005272130E+02  0.12388877845E+02  0.10251051374E+01  0.72461473834E+02  0.69999874343E+02 0.  0.
         12    1    1    2    0    0  0.14005272130E+02 -0.12388877845E+02 -0.10251051374E+01  0.18726526166E+02  0.00000000000E+00 0. -1.
         11    1    3    3    0    0 -0.18025554685E+01  0.28077832551E+02  0.13655738982E+02  0.31274479922E+02  0.51100000000E-03 0. -1.
        -11    1    3    3    0    0  0.83013237867E+00  0.65691857898E+01  0.63411857703E+01  0.91680946190E+01  0.51100000000E-03 0.  1.
        -12    1    3    3    0    0 -0.13032849040E+02 -0.22258140496E+02 -0.18971819615E+02  0.32018899293E+02  0.00000000000E+00 0.  1.
</event>
<event>
 7    1  0.4632234E-013  0.7246159E+02  0.7816164E-02  0.1226708E+00
        -11   -1    0    0    0    0  0.00000000000E+00  0.00000000000E+00  0.45593999997E+02  0.45594000000E+02  0.51100000000E-03 0. -1.
         11   -1    0    0    0    0 -0.00000000000E+00 -0.00000000000E+00 -0.45593999997E+02  0.45594000000E+02  0.51100000000E-03 0.  1.
    9900012    2    1    2    0    0 -0.84969693724E+01  0.38185108082E+01 -0.16244967126E+02  0.72461588966E+02  0.70000024323E+02 0.  0.
         12    1    1    2    0    0  0.84969693724E+01 -0.38185108082E+01  0.16244967126E+02  0.18726411034E+02  0.00000000000E+00 0. -1.
         11    1    3    3    0    0 -0.83410525110E+01  0.21634580238E+01  0.21667801472E+02  0.23318390350E+02  0.51100000000E-03 0. -1.
        -11    1    3    3    0    0  0.88251570812E+00 -0.29371872158E+01  0.50580517194E+01  0.59152168323E+01  0.51100000000E-03 0.  1.
        -12    1    3    3    0    0 -0.10384325695E+01  0.45922400002E+01 -0.42970820317E+02  0.43227981784E+02  0.00000000000E+00 0.  1.
</event>
<event>
 7    1  0.3027254E-013  0.7246159E+02  0.7816164E-02  0.1226708E+00
        -11   -1    0    0    0    0  0.00000000000E+00  0.00000000000E+00  0.45593999997E+02  0.45594000000E+02  0.51100000000E-03 0. -1.
         11   -1    0    0    0    0 -0.00000000000E+00 -0.00000000000E+00 -0.45593999997E+02  0.45594000000E+02  0.51100000000E-03 0.  1.
    9900012    2    1    2    0    0  0.13435206235E+02  0.12482041867E+02  0.37910743875E+01  0.72461591355E+02  0.70000027435E+02 0.  0.
         12    1    1    2    0    0 -0.13435206235E+02 -0.12482041867E+02 -0.37910743875E+01  0.18726408645E+02  0.00000000000E+00 0. -1.
         11    1    3    3    0    0  0.27030958767E+01 -0.10378861579E+02 -0.83527530986E+01  0.13593968500E+02  0.51100000000E-03 0. -1.
        -11    1    3    3    0    0 -0.20320911216E+02  0.57228607640E+01  0.99303463755E+01  0.23330288198E+02  0.51100000000E-03 0.  1.
         12    1    3    3    0    0  0.31053021574E+02  0.17138042682E+02  0.22134811106E+01  0.35537334657E+02  0.00000000000E+00 0. -1.
</event>
<event>
 7    1  0.3027254E-013  0.7246163E+02  0.7816164E-02  0.1226708E+00
        -11   -1    0    0    0    0  0.00000000000E+00  0.00000000000E+00  0.45593999997E+02  0.45594000000E+02  0.51100000000E-03 0.  1.
         11   -1    0    0    0    0 -0.00000000000E+00 -0.00000000000E+00 -0.45593999997E+02  0.45594000000E+02  0.51100000000E-03 0. -1.
    9900012    2    1    2    0    0 -0.44395498420E+01 -0.16024204794E+02  0.86134922425E+01  0.72461628470E+02  0.70000075785E+02 0.  0.
         12    1    1    2    0    0  0.44395498420E+01  0.16024204794E+02 -0.86134922425E+01  0.18726371530E+02  0.00000000000E+00 0. -1.
         11    1    3    3    0    0 -0.51473198975E+01 -0.14994486650E+01 -0.30524153478E+01  0.61693182883E+01  0.51100000000E-03 0. -1.
        -11    1    3    3    0    0 -0.19371389998E+02 -0.11074338197E+02  0.31006512517E+02  0.38200726900E+02  0.51100000000E-03 0.  1.
         12    1    3    3    0    0  0.20079160054E+02 -0.34504179313E+01 -0.19340604926E+02  0.28091583282E+02  0.00000000000E+00 0. -1.
</event>
<event>
 7    1  0.3027254E-013  0.7246162E+02  0.7816164E-02  0.1226708E+00
        -11   -1    0    0    0    0  0.00000000000E+00  0.00000000000E+00  0.45593999997E+02  0.45594000000E+02  0.51100000000E-03 0. -1.
         11   -1    0    0    0    0 -0.00000000000E+00 -0.00000000000E+00 -0.45593999997E+02  0.45594000000E+02  0.51100000000E-03 0.  1.
    9900012    2    1    2    0    0 -0.17884856355E+02 -0.52271723167E+01 -0.18670169688E+01  0.72461623692E+02  0.70000069561E+02 0.  0.
         12    1    1    2    0    0  0.17884856355E+02  0.52271723167E+01  0.18670169688E+01  0.18726376308E+02  0.00000000000E+00 0. -1.
         11    1    3    3    0    0 -0.36051689965E+01  0.86074385879E+01  0.28124676350E+02  0.29632459611E+02  0.51100000000E-03 0. -1.
        -11    1    3    3    0    0 -0.34488570404E+01 -0.71479909721E+01  0.21804035586E+01  0.82305862344E+01  0.51100000000E-03 0.  1.
        -12    1    3    3    0    0 -0.10830830318E+02 -0.66866199325E+01 -0.32172096878E+02  0.34598577847E+02  0.00000000000E+00 0.  1.
</event>
<event>
 7    1  0.3027254E-013  0.7246133E+02  0.7816164E-02  0.1226709E+00
        -11   -1    0    0    0    0  0.00000000000E+00  0.00000000000E+00  0.45593999997E+02  0.45594000000E+02  0.51100000000E-03 0. -1.
         11   -1    0    0    0    0 -0.00000000000E+00 -0.00000000000E+00 -0.45593999997E+02  0.45594000000E+02  0.51100000000E-03 0.  1.
    9900012    2    1    2    0    0 -0.14164138162E+02 -0.11851809527E+02 -0.30983913519E+01  0.72461328435E+02  0.69999684933E+02 0.  0.
         12    1    1    2    0    0  0.14164138162E+02  0.11851809527E+02  0.30983913519E+01  0.18726671565E+02  0.00000000000E+00 0. -1.
         11    1    3    3    0    0 -0.10679606879E+02 -0.27635803689E+02  0.58513931687E+00  0.29633326457E+02  0.51100000000E-03 0. -1.
        -11    1    3    3    0    0  0.47935209169E+01  0.32127205557E+01 -0.19889804723E+02  0.20709991510E+02  0.51100000000E-03 0.  1.
        -12    1    3    3    0    0 -0.82780521997E+01  0.12571273607E+02  0.16206274054E+02  0.22118010468E+02  0.00000000000E+00 0.  1.
</event>
<event>
 7    1  0.3027254E-013  0.7246159E+02  0.7816164E-02  0.1226708E+00
        -11   -1    0    0    0    0  0.00000000000E+00  0.00000000000E+00  0.45593999997E+02  0.45594000000E+02  0.51100000000E-03 0.  1.
         11   -1    0    0    0    0 -0.00000000000E+00 -0.00000000000E+00 -0.45593999997E+02  0.45594000000E+02  0.51100000000E-03 0. -1.
    9900012    2    1    2    0    0  0.36518268066E+01 -0.15971677253E+02  0.90690685091E+01  0.72461593059E+02  0.70000029655E+02 0.  0.
         12    1    1    2    0    0 -0.36518268066E+01  0.15971677253E+02 -0.90690685091E+01  0.18726406941E+02  0.00000000000E+00 0. -1.
         11    1    3    3    0    0  0.10076563835E+02 -0.70128063174E+01  0.11451978688E+02  0.16788817924E+02  0.51100000000E-03 0. -1.
        -11    1    3    3    0    0 -0.30307683793E+02 -0.54149809887E+01 -0.56707038099E+01  0.31305504276E+02  0.51100000000E-03 0.  1.
         12    1    3    3    0    0  0.23882946765E+02 -0.35438899469E+01  0.32877936309E+01  0.24367270858E+02  0.00000000000E+00 0. -1.
</event>
<event>
 7    1  0.3027254E-013  0.7246154E+02  0.7816164E-02  0.1226708E+00
        -11   -1    0    0    0    0  0.00000000000E+00  0.00000000000E+00  0.45593999997E+02  0.45594000000E+02  0.51100000000E-03 0.  1.
         11   -1    0    0    0    0 -0.00000000000E+00 -0.00000000000E+00 -0.45593999997E+02  0.45594000000E+02  0.51100000000E-03 0. -1.
    9900012    2    1    2    0    0 -0.13158045162E+02 -0.15404813954E+01  0.13235289656E+02  0.72461544711E+02  0.69999966672E+02 0.  0.
         12    1    1    2    0    0  0.13158045162E+02  0.15404813954E+01 -0.13235289656E+02  0.18726455289E+02  0.00000000000E+00 0. -1.
         11    1    3    3    0    0 -0.14102727106E+02  0.77617201526E+01 -0.15186058787E+02  0.22130241601E+02  0.51100000000E-03 0. -1.
        -11    1    3    3    0    0 -0.12023378325E+02 -0.20237472766E+02  0.21918910962E+02  0.32164508209E+02  0.51100000000E-03 0.  1.
         12    1    3    3    0    0  0.12968060269E+02  0.10935271218E+02  0.65024374814E+01  0.18166794901E+02  0.00000000000E+00 0. -1.
</event>
<event>
 7    1  0.3027254E-013  0.7246161E+02  0.7816164E-02  0.1226708E+00
        -11   -1    0    0    0    0  0.00000000000E+00  0.00000000000E+00  0.45593999997E+02  0.45594000000E+02  0.51100000000E-03 0.  1.
         11   -1    0    0    0    0 -0.00000000000E+00 -0.00000000000E+00 -0.45593999997E+02  0.45594000000E+02  0.51100000000E-03 0. -1.
    9900012    2    1    2    0    0  0.81365331978E+01  0.88410295357E+01  0.14363517995E+02  0.72461611536E+02  0.70000053724E+02 0.  0.
         12    1    1    2    0    0 -0.81365331978E+01 -0.88410295357E+01 -0.14363517995E+02  0.18726388464E+02  0.00000000000E+00 0. -1.
         11    1    3    3    0    0 -0.88327927061E+01  0.38637203192E+01 -0.18172387290E+02  0.20571393287E+02  0.51100000000E-03 0. -1.
        -11    1    3    3    0    0 -0.10565606326E+01  0.14900507680E+02  0.20039930578E+01  0.15071743029E+02  0.51100000000E-03 0.  1.
        -12    1    3    3    0    0  0.18025886537E+02 -0.99231984637E+01  0.30531912228E+02  0.36818475219E+02  0.00000000000E+00 0.  1.
</event>
<event>
 7    1  0.3027254E-013  0.7246154E+02  0.7816164E-02  0.1226708E+00
        -11   -1    0    0    0    0  0.00000000000E+00  0.00000000000E+00  0.45593999997E+02  0.45594000000E+02  0.51100000000E-03 0.  1.
         11   -1    0    0    0    0 -0.00000000000E+00 -0.00000000000E+00 -0.45593999997E+02  0.45594000000E+02  0.51100000000E-03 0. -1.
    9900012    2    1    2    0    0  0.90143693914E+01  0.33303463837E+01  0.16072654810E+02  0.72461540238E+02  0.69999960847E+02 0.  0.
         12    1    1    2    0    0 -0.90143693914E+01 -0.33303463837E+01 -0.16072654810E+02  0.18726459762E+02  0.00000000000E+00 0. -1.
         11    1    3    3    0    0  0.32974427440E+01 -0.77499119308E+01 -0.71821523446E+01  0.11068765792E+02  0.51100000000E-03 0. -1.
        -11    1    3    3    0    0 -0.19345084750E+02 -0.78019799035E+01  0.21513386547E+02  0.29965463376E+02  0.51100000000E-03 0.  1.
         12    1    3    3    0    0  0.25062011397E+02  0.18882238218E+02  0.17414206080E+01  0.31427311071E+02  0.00000000000E+00 0. -1.
</event>
<event>
 7    1  0.3027254E-013  0.7246159E+02  0.7816164E-02  0.1226708E+00
        -11   -1    0    0    0    0  0.00000000000E+00  0.00000000000E+00  0.45593999997E+02  0.45594000000E+02  0.51100000000E-03 0.  1.
         11   -1    0    0    0    0 -0.00000000000E+00 -0.00000000000E+00 -0.45593999997E+02  0.45594000000E+02  0.51100000000E-03 0. -1.
    9900012    2    1    2    0    0  0.36325941760E+01  0.11566016454E+02  0.14272696444E+02  0.72461592420E+02  0.70000028823E+02 0.  0.
         12    1    1    2    0    0 -0.36325941760E+01 -0.11566016454E+02 -0.14272696444E+02  0.18726407580E+02  0.00000000000E+00 0. -1.
         11    1    3    3    0    0 -0.10365466879E+02  0.14007778764E+02  0.23190991561E+02  0.29008323967E+02  0.51100000000E-03 0. -1.
        -11    1    3    3    0    0 -0.20540883091E+01  0.26520914846E+01  0.14346087065E+02  0.14733060862E+02  0.51100000000E-03 0.  1.
         12    1    3    3    0    0  0.16052149364E+02 -0.50938537946E+01 -0.23264382183E+02  0.28720207591E+02  0.00000000000E+00 0. -1.
</event>
<event>
 7    1  0.3027254E-013  0.7246158E+02  0.7816164E-02  0.1226708E+00
        -11   -1    0    0    0    0  0.00000000000E+00  0.00000000000E+00  0.45593999997E+02  0.45594000000E+02  0.51100000000E-03 0.  1.
         11   -1    0    0    0    0 -0.00000000000E+00 -0.00000000000E+00 -0.45593999997E+02  0.45594000000E+02  0.51100000000E-03 0. -1.
    9900012    2    1    2    0    0  0.53067056757E+01  0.19793386690E+01  0.17849371125E+02  0.72461575989E+02  0.70000007418E+02 0.  0.
         12    1    1    2    0    0 -0.53067056757E+01 -0.19793386690E+01 -0.17849371125E+02  0.18726424011E+02  0.00000000000E+00 0. -1.
         11    1    3    3    0    0  0.18264851029E+02  0.81637784845E+01  0.16042435706E+01  0.20070517182E+02  0.51100000000E-03 0. -1.
        -11    1    3    3    0    0  0.15947529953E+02  0.65692053110E+01  0.10747586296E+02  0.20322125417E+02  0.51100000000E-03 0.  1.
         12    1    3    3    0    0 -0.28905675306E+02 -0.12753645127E+02  0.54975412586E+01  0.32068933390E+02  0.00000000000E+00 0. -1.
</event>
<event>
 7    1  0.3027254E-013  0.7246160E+02  0.7816164E-02  0.1226708E+00
        -11   -1    0    0    0    0  0.00000000000E+00  0.00000000000E+00  0.45593999997E+02  0.45594000000E+02  0.51100000000E-03 0. -1.
         11   -1    0    0    0    0 -0.00000000000E+00 -0.00000000000E+00 -0.45593999997E+02  0.45594000000E+02  0.51100000000E-03 0.  1.
    9900012    2    1    2    0    0 -0.13562663974E+02  0.73890691499E+01 -0.10589329773E+02  0.72461598797E+02  0.70000037130E+02 0.  0.
         12    1    1    2    0    0  0.13562663974E+02 -0.73890691499E+01  0.10589329773E+02  0.18726401203E+02  0.00000000000E+00 0. -1.
         11    1    3    3    0    0 -0.77218214414E+01 -0.81242842247E+01 -0.20804305271E+01  0.11399943508E+02  0.51100000000E-03 0. -1.
        -11    1    3    3    0    0  0.16087411220E+02 -0.14242069997E+02 -0.10762025990E+02  0.24030450708E+02  0.51100000000E-03 0.  1.
         12    1    3    3    0    0 -0.21928253753E+02  0.29755423371E+02  0.22531267439E+01  0.37031204581E+02  0.00000000000E+00 0. -1.
</event>
<event>
 7    1  0.3027254E-013  0.7246155E+02  0.7816164E-02  0.1226708E+00
        -11   -1    0    0    0    0  0.00000000000E+00  0.00000000000E+00  0.45593999997E+02  0.45594000000E+02  0.51100000000E-03 0.  1.
         11   -1    0    0    0    0 -0.00000000000E+00 -0.00000000000E+00 -0.45593999997E+02  0.45594000000E+02  0.51100000000E-03 0. -1.
    9900012    2    1    2    0    0  0.10177561282E+02  0.52635798075E+01  0.14811880209E+02  0.72461552890E+02  0.69999977328E+02 0.  0.
         12    1    1    2    0    0 -0.10177561282E+02 -0.52635798075E+01 -0.14811880209E+02  0.18726447110E+02  0.00000000000E+00 0. -1.
         11    1    3    3    0    0  0.77511700327E+01 -0.39158589032E+01 -0.15259399861E+02  0.17557444922E+02  0.51100000000E-03 0. -1.
        -11    1    3    3    0    0  0.11144248042E+02 -0.15391733265E+02  0.75345692717E+01  0.20441855388E+02  0.51100000000E-03 0.  1.
        -12    1    3    3    0    0 -0.87178567927E+01  0.24571171975E+02  0.22536710798E+02  0.34462252580E+02  0.00000000000E+00 0.  1.
</event>
<event>
 7    1  0.3027254E-013  0.7246144E+02  0.7816164E-02  0.1226708E+00
        -11   -1    0    0    0    0  0.00000000000E+00  0.00000000000E+00  0.45593999997E+02  0.45594000000E+02  0.51100000000E-03 0.  1.
         11   -1    0    0    0    0 -0.00000000000E+00 -0.00000000000E+00 -0.45593999997E+02  0.45594000000E+02  0.51100000000E-03 0. -1.
    9900012    2    1    2    0    0 -0.13965115929E+02  0.28866989497E+01  0.12137815786E+02  0.72461439563E+02  0.69999829698E+02 0.  0.
         12    1    1    2    0    0  0.13965115929E+02 -0.28866989497E+01 -0.12137815786E+02  0.18726560437E+02  0.00000000000E+00 0. -1.
         11    1    3    3    0    0 -0.73158372048E+01  0.11219909844E+02 -0.16527645093E+02  0.21273713909E+02  0.51100000000E-03 0. -1.
        -11    1    3    3    0    0  0.11136481713E+02  0.80675826691E+01  0.97707320158E-01  0.13751969388E+02  0.51100000000E-03 0.  1.
        -12    1    3    3    0    0 -0.17785760437E+02 -0.16400793563E+02  0.28567753559E+02  0.37435756266E+02  0.00000000000E+00 0.  1.
</event>
<event>
 7    1  0.3027254E-013  0.7246161E+02  0.7816164E-02  0.1226708E+00
        -11   -1    0    0    0    0  0.00000000000E+00  0.00000000000E+00  0.45593999997E+02  0.45594000000E+02  0.51100000000E-03 0.  1.
         11   -1    0    0    0    0 -0.00000000000E+00 -0.00000000000E+00 -0.45593999997E+02  0.45594000000E+02  0.51100000000E-03 0. -1.
    9900012    2    1    2    0    0 -0.18310929452E+02  0.29779816807E+01 -0.25532307359E+01  0.72461614885E+02  0.70000058088E+02 0.  0.
         12    1    1    2    0    0  0.18310929452E+02 -0.29779816807E+01  0.25532307359E+01  0.18726385115E+02  0.00000000000E+00 0. -1.
         11    1    3    3    0    0 -0.40746870005E+01 -0.11987146901E+00  0.50481122048E+01  0.64885191234E+01  0.51100000000E-03 0. -1.
        -11    1    3    3    0    0 -0.17817342510E+02 -0.68565352015E+01  0.25138791471E+02  0.31566257396E+02  0.51100000000E-03 0.  1.
         12    1    3    3    0    0  0.35811000587E+01  0.99543883512E+01 -0.32740134411E+02  0.34406838366E+02  0.00000000000E+00 0. -1.
</event>
<event>
 7    1  0.3027254E-013  0.7246212E+02  0.7816164E-02  0.1226707E+00
        -11   -1    0    0    0    0  0.00000000000E+00  0.00000000000E+00  0.45593999997E+02  0.45594000000E+02  0.51100000000E-03 0.  1.
         11   -1    0    0    0    0 -0.00000000000E+00 -0.00000000000E+00 -0.45593999997E+02  0.45594000000E+02  0.51100000000E-03 0. -1.
    9900012    2    1    2    0    0  0.11454429464E+01 -0.13899233742E+02  0.12496312813E+02  0.72462120259E+02  0.70000716427E+02 0.  0.
         12    1    1    2    0    0 -0.11454429464E+01  0.13899233742E+02 -0.12496312813E+02  0.18725879741E+02  0.00000000000E+00 0. -1.
         11    1    3    3    0    0  0.12076812862E+02  0.63784463251E+00 -0.69816849310E+01  0.13964246468E+02  0.51100000000E-03 0. -1.
        -11    1    3    3    0    0  0.75274141378E+01 -0.26080144885E+02  0.24033796867E+02  0.36255472868E+02  0.51100000000E-03 0.  1.
        -12    1    3    3    0    0 -0.18458784053E+02  0.11543066510E+02 -0.45557991228E+01  0.22242400923E+02  0.00000000000E+00 0.  1.
</event>
<event>
 7    1  0.3027254E-013  0.7246163E+02  0.7816164E-02  0.1226708E+00
        -11   -1    0    0    0    0  0.00000000000E+00  0.00000000000E+00  0.45593999997E+02  0.45594000000E+02  0.51100000000E-03 0.  1.
         11   -1    0    0    0    0 -0.00000000000E+00 -0.00000000000E+00 -0.45593999997E+02  0.45594000000E+02  0.51100000000E-03 0. -1.
    9900012    2    1    2    0    0 -0.86504248494E+01  0.10792115355E+02  0.12624474202E+02  0.72461629482E+02  0.70000077103E+02 0.  0.
         12    1    1    2    0    0  0.86504248494E+01 -0.10792115355E+02 -0.12624474202E+02  0.18726370518E+02  0.00000000000E+00 0. -1.
         11    1    3    3    0    0  0.27770880478E+01  0.12931245690E+02 -0.95574943919E+01  0.16317935912E+02  0.51100000000E-03 0. -1.
        -11    1    3    3    0    0  0.12245894394E+01  0.22131925996E+02  0.22400758877E+01  0.22278682812E+02  0.51100000000E-03 0.  1.
         12    1    3    3    0    0 -0.12652102337E+02 -0.24271056331E+02  0.19941892706E+02  0.33865010758E+02  0.00000000000E+00 0. -1.
</event>
<event>
 7    1  0.3027254E-013  0.7246158E+02  0.7816164E-02  0.1226708E+00
        -11   -1    0    0    0    0  0.00000000000E+00  0.00000000000E+00  0.45593999997E+02  0.45594000000E+02  0.51100000000E-03 0. -1.
         11   -1    0    0    0    0 -0.00000000000E+00 -0.00000000000E+00 -0.45593999997E+02  0.45594000000E+02  0.51100000000E-03 0.  1.
    9900012    2    1    2    0    0  0.11416178041E+02  0.11301961946E+02  0.96236839818E+01  0.72461581275E+02  0.70000014304E+02 0.  0.
         12    1    1    2    0    0 -0.11416178041E+02 -0.11301961946E+02 -0.96236839818E+01  0.18726418725E+02  0.00000000000E+00 0. -1.
         11    1    3    3    0    0  0.15831941880E+02 -0.16895301791E+02  0.22655271369E+02  0.32393871757E+02  0.51100000000E-03 0. -1.
        -11    1    3    3    0    0  0.36083276534E+01 -0.35988675991E+01 -0.17754634422E+01  0.53966792702E+01  0.51100000000E-03 0.  1.
        -12    1    3    3    0    0 -0.80240914924E+01  0.31796131336E+02 -0.11256123946E+02  0.34671030248E+02  0.00000000000E+00 0.  1.
</event>
<event>
 8    1  0.3027254E-013  0.7246145E+02  0.7816164E-02  0.1226708E+00
        -11   -1    0    0    0    0  0.00000000000E+00  0.00000000000E+00  0.45593999997E+02  0.45594000000E+02  0.51100000000E-03 0. -1.
         11   -1    0    0    0    0 -0.00000000000E+00 -0.00000000000E+00 -0.45593999997E+02  0.45594000000E+02  0.51100000000E-03 0.  1.
    9900012    2    1    2    0    0  0.95589822384E+01  0.95124191552E+01 -0.12993210520E+02  0.72461447214E+02  0.69999839665E+02 0.  0.
         23    2    3    3    0    0 -0.14381761217E+01  0.57613705507E+01 -0.20391733010E+02  0.58686615358E+02  0.54708631000E+02 0.  0.
         12    1    1    2    0    0 -0.95589822384E+01 -0.95124191552E+01  0.12993210520E+02  0.18726552786E+02  0.00000000000E+00 0. -1.
         11    1    4    4    0    0 -0.67953021092E+01 -0.18967025727E+01  0.17916144234E+02  0.19255176860E+02  0.51100000000E-03 0. -1.
        -11    1    4    4    0    0  0.53571259876E+01  0.76580731234E+01 -0.38307877245E+02  0.39431438499E+02  0.51100000000E-03 0.  1.
         12    1    3    3    0    0  0.10997158360E+02  0.37510486045E+01  0.73985224903E+01  0.13774831856E+02  0.00000000000E+00 0. -1.
</event>
<event>
 7    1  0.3027254E-013  0.7246122E+02  0.7816164E-02  0.1226709E+00
        -11   -1    0    0    0    0  0.00000000000E+00  0.00000000000E+00  0.45593999997E+02  0.45594000000E+02  0.51100000000E-03 0.  1.
         11   -1    0    0    0    0 -0.00000000000E+00 -0.00000000000E+00 -0.45593999997E+02  0.45594000000E+02  0.51100000000E-03 0. -1.
    9900012    2    1    2    0    0 -0.29901223875E+01 -0.15486533208E+02  0.10095483979E+02  0.72461218657E+02  0.69999541926E+02 0.  0.
         12    1    1    2    0    0  0.29901223875E+01  0.15486533208E+02 -0.10095483979E+02  0.18726781343E+02  0.00000000000E+00 0. -1.
         11    1    3    3    0    0  0.18079856081E+02 -0.10039922640E+01  0.31028665362E+02  0.35925857968E+02  0.51100000000E-03 0.  1.
        -11    1    3    3    0    0 -0.11922629147E+02 -0.10222261667E+02 -0.30450650786E+01  0.15997379190E+02  0.51100000000E-03 0. -1.
        -12    1    3    3    0    0 -0.91473493214E+01 -0.42602792768E+01 -0.17888116304E+02  0.20537981499E+02  0.00000000000E+00 0.  1.
</event>
<event>
 7    1  0.3027254E-013  0.7246154E+02  0.7816164E-02  0.1226708E+00
        -11   -1    0    0    0    0  0.00000000000E+00  0.00000000000E+00  0.45593999997E+02  0.45594000000E+02  0.51100000000E-03 0. -1.
         11   -1    0    0    0    0 -0.00000000000E+00 -0.00000000000E+00 -0.45593999997E+02  0.45594000000E+02  0.51100000000E-03 0.  1.
    9900012    2    1    2    0    0  0.14901100182E+02  0.99228730457E+01 -0.54930960887E+01  0.72461540091E+02  0.69999960654E+02 0.  0.
         12    1    1    2    0    0 -0.14901100182E+02 -0.99228730457E+01  0.54930960887E+01  0.18726459909E+02  0.00000000000E+00 0. -1.
         11    1    3    3    0    0  0.20617149819E+01 -0.78988083226E+01  0.83891080481E+01  0.11705510484E+02  0.51100000000E-03 0. -1.
        -11    1    3    3    0    0  0.52280729441E+01 -0.99230789386E+01 -0.26925035607E+02  0.29167752485E+02  0.51100000000E-03 0.  1.
         12    1    3    3    0    0  0.76113122556E+01  0.27744760307E+02  0.13042831470E+02  0.31588277121E+02  0.00000000000E+00 0. -1.
</event>
<event>
 7    1  0.3408485E-013  0.7246158E+02  0.7816164E-02  0.1226708E+00
        -11   -1    0    0    0    0  0.00000000000E+00  0.00000000000E+00  0.45593999997E+02  0.45594000000E+02  0.51100000000E-03 0. -1.
         11   -1    0    0    0    0 -0.00000000000E+00 -0.00000000000E+00 -0.45593999997E+02  0.45594000000E+02  0.51100000000E-03 0.  1.
    9900012    2    1    2    0    0 -0.11377983815E+02  0.26246581193E+01 -0.14640068143E+02  0.72461576391E+02  0.70000007942E+02 0.  0.
         12    1    1    2    0    0  0.11377983815E+02 -0.26246581193E+01  0.14640068143E+02  0.18726423609E+02  0.00000000000E+00 0. -1.
         11    1    3    3    0    0  0.54166248011E+01 -0.26443838749E+02 -0.12601346094E+02  0.29789433624E+02  0.51100000000E-03 0. -1.
        -11    1    3    3    0    0 -0.12711088378E+02  0.18943711399E+02 -0.13770104005E+02  0.26646795941E+02  0.51100000000E-03 0.  1.
        -12    1    3    3    0    0 -0.40835202384E+01  0.10124785468E+02  0.11731381956E+02  0.16025346826E+02  0.00000000000E+00 0.  1.
</event>
<event>
 7    1  0.3027254E-013  0.7246140E+02  0.7816164E-02  0.1226708E+00
        -11   -1    0    0    0    0  0.00000000000E+00  0.00000000000E+00  0.45593999997E+02  0.45594000000E+02  0.51100000000E-03 0.  1.
         11   -1    0    0    0    0 -0.00000000000E+00 -0.00000000000E+00 -0.45593999997E+02  0.45594000000E+02  0.51100000000E-03 0. -1.
    9900012    2    1    2    0    0 -0.37060009173E+01 -0.50580054128E+01  0.17645616278E+02  0.72461397655E+02  0.69999775105E+02 0.  0.
         12    1    1    2    0    0  0.37060009173E+01  0.50580054128E+01 -0.17645616278E+02  0.18726602345E+02  0.00000000000E+00 0. -1.
         11    1    3    3    0    0 -0.32906909477E+01 -0.24425139350E+02  0.20454376482E+02  0.32028075133E+02  0.51100000000E-03 0. -1.
        -11    1    3    3    0    0  0.13743126142E+01 -0.73161721241E+01 -0.10255698073E+02  0.12672586671E+02  0.51100000000E-03 0.  1.
         12    1    3    3    0    0 -0.17896225839E+01  0.26683306062E+02  0.74469378687E+01  0.27760735851E+02  0.00000000000E+00 0. -1.
</event>
<event>
 7    1  0.3027254E-013  0.7246154E+02  0.7816164E-02  0.1226708E+00
        -11   -1    0    0    0    0  0.00000000000E+00  0.00000000000E+00  0.45593999997E+02  0.45594000000E+02  0.51100000000E-03 0. -1.
         11   -1    0    0    0    0 -0.00000000000E+00 -0.00000000000E+00 -0.45593999997E+02  0.45594000000E+02  0.51100000000E-03 0.  1.
    9900012    2    1    2    0    0  0.31014126516E+01 -0.16952564190E+02 -0.73261319283E+01  0.72461537385E+02  0.69999957129E+02 0.  0.
         12    1    1    2    0    0 -0.31014126516E+01  0.16952564190E+02  0.73261319283E+01  0.18726462615E+02  0.00000000000E+00 0. -1.
         11    1    3    3    0    0  0.16299495461E+02  0.15750818569E+02  0.13169739501E+02  0.26214573746E+02  0.51100000000E-03 0. -1.
        -11    1    3    3    0    0 -0.86330903888E+01 -0.21817329465E+01  0.50378699642E+00  0.89187448618E+01  0.51100000000E-03 0.  1.
        -12    1    3    3    0    0 -0.45649924204E+01 -0.30521649813E+02 -0.20999658426E+02  0.37328218777E+02  0.00000000000E+00 0.  1.
</event>
<event>
 7    1  0.3027254E-013  0.7246156E+02  0.7816164E-02  0.1226708E+00
        -11   -1    0    0    0    0  0.00000000000E+00  0.00000000000E+00  0.45593999997E+02  0.45594000000E+02  0.51100000000E-03 0. -1.
         11   -1    0    0    0    0 -0.00000000000E+00 -0.00000000000E+00 -0.45593999997E+02  0.45594000000E+02  0.51100000000E-03 0.  1.
    9900012    2    1    2    0    0  0.17231387721E+02 -0.71022611572E+01  0.18212207627E+01  0.72461556627E+02  0.69999982195E+02 0.  0.
         12    1    1    2    0    0 -0.17231387721E+02  0.71022611572E+01 -0.18212207627E+01  0.18726443373E+02  0.00000000000E+00 0. -1.
         11    1    3    3    0    0 -0.10581899656E+02  0.24006940439E+01  0.15132654206E+02  0.18620879566E+02  0.51100000000E-03 0. -1.
        -11    1    3    3    0    0 -0.70839933589E+01 -0.14434132717E+02  0.24168511416E+00  0.16080595796E+02  0.51100000000E-03 0.  1.
        -12    1    3    3    0    0  0.34897280736E+02  0.49311775158E+01 -0.13553118558E+02  0.37760081265E+02  0.00000000000E+00 0.  1.
</event>
<event>
 7    1  0.3027254E-013  0.7246152E+02  0.7816164E-02  0.1226708E+00
        -11   -1    0    0    0    0  0.00000000000E+00  0.00000000000E+00  0.45593999997E+02  0.45594000000E+02  0.51100000000E-03 0.  1.
         11   -1    0    0    0    0 -0.00000000000E+00 -0.00000000000E+00 -0.45593999997E+02  0.45594000000E+02  0.51100000000E-03 0. -1.
    9900012    2    1    2    0    0  0.16712271638E+02  0.83578999366E+01 -0.12355380347E+01  0.72461519581E+02  0.69999933936E+02 0.  0.
         12    1    1    2    0    0 -0.16712271638E+02 -0.83578999366E+01  0.12355380347E+01  0.18726480419E+02  0.00000000000E+00 0. -1.
         11    1    3    3    0    0 -0.17092159167E+02  0.21412765879E+02  0.43148709752E+01  0.27735655020E+02  0.51100000000E-03 0. -1.
        -11    1    3    3    0    0 -0.17764075058E+01 -0.36400538217E+01  0.50032984808E+01  0.64372829206E+01  0.51100000000E-03 0.  1.
         12    1    3    3    0    0  0.35580838311E+02 -0.94148121209E+01 -0.10553707491E+02  0.38288581640E+02  0.00000000000E+00 0. -1.
</event>
<event>
 7    1  0.3027254E-013  0.7246156E+02  0.7816164E-02  0.1226708E+00
        -11   -1    0    0    0    0  0.00000000000E+00  0.00000000000E+00  0.45593999997E+02  0.45594000000E+02  0.51100000000E-03 0.  1.
         11   -1    0    0    0    0 -0.00000000000E+00 -0.00000000000E+00 -0.45593999997E+02  0.45594000000E+02  0.51100000000E-03 0. -1.
    9900012    2    1    2    0    0  0.15453237392E+02  0.22001615366E+01  0.10345835524E+02  0.72461559618E+02  0.69999986092E+02 0.  0.
         12    1    1    2    0    0 -0.15453237392E+02 -0.22001615366E+01 -0.10345835524E+02  0.18726440382E+02  0.00000000000E+00 0. -1.
         11    1    3    3    0    0 -0.11448799202E+02  0.31635813841E+01  0.41908836006E+01  0.12595505387E+02  0.51100000000E-03 0. -1.
        -11    1    3    3    0    0 -0.16271550889E+02  0.12258765970E+01  0.14631402597E+01  0.16383129171E+02  0.51100000000E-03 0.  1.
         12    1    3    3    0    0  0.43173587483E+02 -0.21892964446E+01  0.46918116637E+01  0.43482925060E+02  0.00000000000E+00 0. -1.
</event>
<event>
 7    1  0.3027254E-013  0.7246166E+02  0.7816164E-02  0.1226708E+00
        -11   -1    0    0    0    0  0.00000000000E+00  0.00000000000E+00  0.45593999997E+02  0.45594000000E+02  0.51100000000E-03 0.  1.
         11   -1    0    0    0    0 -0.00000000000E+00 -0.00000000000E+00 -0.45593999997E+02  0.45594000000E+02  0.51100000000E-03 0. -1.
    9900012    2    1    2    0    0 -0.17349122774E+02  0.31996977449E+01  0.62805708356E+01  0.72461663020E+02  0.70000120792E+02 0.  0.
         12    1    1    2    0    0  0.17349122774E+02 -0.31996977449E+01 -0.62805708356E+01  0.18726336980E+02  0.00000000000E+00 0. -1.
         11    1    3    3    0    0 -0.34395920996E+02 -0.28922438760E+01 -0.73412894067E+01  0.35289360808E+02  0.51100000000E-03 0. -1.
        -11    1    3    3    0    0  0.90480932311E+01  0.10604943425E+02 -0.62526820124E+01  0.15278378474E+02  0.51100000000E-03 0.  1.
        -12    1    3    3    0    0  0.79987049913E+01 -0.45130018045E+01  0.19874542255E+02  0.21893923738E+02  0.00000000000E+00 0.  1.
</event>
<event>
 7    1  0.3027254E-013  0.7246154E+02  0.7816164E-02  0.1226708E+00
        -11   -1    0    0    0    0  0.00000000000E+00  0.00000000000E+00  0.45593999997E+02  0.45594000000E+02  0.51100000000E-03 0. -1.
         11   -1    0    0    0    0 -0.00000000000E+00 -0.00000000000E+00 -0.45593999997E+02  0.45594000000E+02  0.51100000000E-03 0.  1.
    9900012    2    1    2    0    0 -0.64539689188E+01 -0.22310617584E+01 -0.17437002317E+02  0.72461537409E+02  0.69999957161E+02 0.  0.
         12    1    1    2    0    0  0.64539689188E+01  0.22310617584E+01  0.17437002317E+02  0.18726462591E+02  0.00000000000E+00 0. -1.
         11    1    3    3    0    0 -0.22016096722E+02  0.28066953818E+01  0.66589657486E+01  0.23171704273E+02  0.51100000000E-03 0. -1.
        -11    1    3    3    0    0 -0.52606592746E+01 -0.17809878651E+02 -0.10337601956E+02  0.21253995578E+02  0.51100000000E-03 0.  1.
        -12    1    3    3    0    0  0.20822787078E+02  0.12772121510E+02 -0.13758366110E+02  0.28035837558E+02  0.00000000000E+00 0.  1.
</event>
<event>
 7    1  0.3027254E-013  0.7246162E+02  0.7816164E-02  0.1226708E+00
        -11   -1    0    0    0    0  0.00000000000E+00  0.00000000000E+00  0.45593999997E+02  0.45594000000E+02  0.51100000000E-03 0.  1.
         11   -1    0    0    0    0 -0.00000000000E+00 -0.00000000000E+00 -0.45593999997E+02  0.45594000000E+02  0.51100000000E-03 0. -1.
    9900012    2    1    2    0    0 -0.11246471784E+02 -0.10875638111E+02  0.10291482260E+02  0.72461621839E+02  0.70000067147E+02 0.  0.
         12    1    1    2    0    0  0.11246471784E+02  0.10875638111E+02 -0.10291482260E+02  0.18726378161E+02  0.00000000000E+00 0. -1.
         11    1    3    3    0    0  0.13469280537E+02 -0.16787750182E+02 -0.16371740801E+02  0.27042262691E+02  0.51100000000E-03 0. -1.
        -11    1    3    3    0    0 -0.30486586928E+01  0.83387274067E+00 -0.54787988415E+01  0.63251008355E+01  0.51100000000E-03 0.  1.
        -12    1    3    3    0    0 -0.21667093628E+02  0.50782393307E+01  0.32142021903E+02  0.39094258312E+02  0.00000000000E+00 0.  1.
</event>
<event>
 7    1  0.3027254E-013  0.7246160E+02  0.7816164E-02  0.1226708E+00
        -11   -1    0    0    0    0  0.00000000000E+00  0.00000000000E+00  0.45593999997E+02  0.45594000000E+02  0.51100000000E-03 0. -1.
         11   -1    0    0    0    0 -0.00000000000E+00 -0.00000000000E+00 -0.45593999997E+02  0.45594000000E+02  0.51100000000E-03 0.  1.
    9900012    2    1    2    0    0  0.52756123416E+01  0.17523205021E+02  0.39728075075E+01  0.72461601540E+02  0.70000040703E+02 0.  0.
         12    1    1    2    0    0 -0.52756123416E+01 -0.17523205021E+02 -0.39728075075E+01  0.18726398460E+02  0.00000000000E+00 0. -1.
         11    1    3    3    0    0 -0.23417388721E+02  0.57944099906E+01 -0.58236280441E+01  0.24816605842E+02  0.51100000000E-03 0. -1.
        -11    1    3    3    0    0 -0.48777380641E+01  0.30263404627E+01 -0.70483960763E+01  0.90901569143E+01  0.51100000000E-03 0.  1.
        -12    1    3    3    0    0  0.33570739127E+02  0.87024545677E+01  0.16844831628E+02  0.38554838784E+02  0.00000000000E+00 0.  1.
</event>
<event>
 7    1  0.3027254E-013  0.7246157E+02  0.7816164E-02  0.1226708E+00
        -11   -1    0    0    0    0  0.00000000000E+00  0.00000000000E+00  0.45593999997E+02  0.45594000000E+02  0.51100000000E-03 0.  1.
         11   -1    0    0    0    0 -0.00000000000E+00 -0.00000000000E+00 -0.45593999997E+02  0.45594000000E+02  0.51100000000E-03 0. -1.
    9900012    2    1    2    0    0  0.42572231404E+00  0.17164802960E+02  0.74744586846E+01  0.72461568606E+02  0.69999997800E+02 0.  0.
         12    1    1    2    0    0 -0.42572231404E+00 -0.17164802960E+02 -0.74744586846E+01  0.18726431394E+02  0.00000000000E+00 0. -1.
         11    1    3    3    0    0  0.60385709777E+01  0.12244685260E+02  0.24770837906E+01  0.13875611732E+02  0.51100000000E-03 0. -1.
        -11    1    3    3    0    0  0.70814095704E+01  0.29220920325E+02  0.76981554287E+01  0.31036593618E+02  0.51100000000E-03 0.  1.
         12    1    3    3    0    0 -0.12694258234E+02 -0.24300802625E+02 -0.27007805347E+01  0.27549363256E+02  0.00000000000E+00 0. -1.
</event>
<event>
 7    1  0.3027254E-013  0.7246156E+02  0.7816164E-02  0.1226708E+00
        -11   -1    0    0    0    0  0.00000000000E+00  0.00000000000E+00  0.45593999997E+02  0.45594000000E+02  0.51100000000E-03 0.  1.
         11   -1    0    0    0    0 -0.00000000000E+00 -0.00000000000E+00 -0.45593999997E+02  0.45594000000E+02  0.51100000000E-03 0. -1.
    9900012    2    1    2    0    0 -0.68909945379E+01 -0.16523958667E+02  0.54911361286E+01  0.72461559021E+02  0.69999985314E+02 0.  0.
         12    1    1    2    0    0  0.68909945379E+01  0.16523958667E+02 -0.54911361286E+01  0.18726440979E+02  0.00000000000E+00 0. -1.
         11    1    3    3    0    0  0.10511736978E+02 -0.43079170928E+01 -0.24745904572E+02  0.27228928685E+02  0.51100000000E-03 0. -1.
        -11    1    3    3    0    0 -0.16699254894E+02 -0.52779995568E+01  0.38394086764E+01  0.17929401903E+02  0.51100000000E-03 0.  1.
        -12    1    3    3    0    0 -0.70347662156E+00 -0.69380420176E+01  0.26397632024E+02  0.27303228434E+02  0.00000000000E+00 0.  1.
</event>
<event>
 7    1  0.3027254E-013  0.7246157E+02  0.7816164E-02  0.1226708E+00
        -11   -1    0    0    0    0  0.00000000000E+00  0.00000000000E+00  0.45593999997E+02  0.45594000000E+02  0.51100000000E-03 0. -1.
         11   -1    0    0    0    0 -0.00000000000E+00 -0.00000000000E+00 -0.45593999997E+02  0.45594000000E+02  0.51100000000E-03 0.  1.
    9900012    2    1    2    0    0  0.12251145752E+02  0.49672521007E+01 -0.13263298735E+02  0.72461567906E+02  0.69999996888E+02 0.  0.
         12    1    1    2    0    0 -0.12251145752E+02 -0.49672521007E+01  0.13263298735E+02  0.18726432094E+02  0.00000000000E+00 0. -1.
         11    1    3    3    0    0 -0.18528419466E+01  0.33293018917E+02 -0.10246053736E+02  0.34883230202E+02  0.51100000000E-03 0. -1.
        -11    1    3    3    0    0  0.79583234163E+00  0.30851717368E+01 -0.12376869460E+01  0.34181139535E+01  0.51100000000E-03 0.  1.
        -12    1    3    3    0    0  0.13308155357E+02 -0.31410938553E+02 -0.17795580529E+01  0.34160223750E+02  0.00000000000E+00 0.  1.
</event>
<event>
 7    1  0.3027254E-013  0.7246151E+02  0.7816164E-02  0.1226708E+00
        -11   -1    0    0    0    0  0.00000000000E+00  0.00000000000E+00  0.45593999997E+02  0.45594000000E+02  0.51100000000E-03 0. -1.
         11   -1    0    0    0    0 -0.00000000000E+00 -0.00000000000E+00 -0.45593999997E+02  0.45594000000E+02  0.51100000000E-03 0.  1.
    9900012    2    1    2    0    0 -0.10716346785E+01 -0.60603401119E+01 -0.17686303636E+02  0.72461509152E+02  0.69999920351E+02 0.  0.
         12    1    1    2    0    0  0.10716346785E+01  0.60603401119E+01  0.17686303636E+02  0.18726490848E+02  0.00000000000E+00 0. -1.
         11    1    3    3    0    0 -0.19617251786E+02  0.13986832429E+01 -0.25365750367E+02  0.32096949612E+02  0.51100000000E-03 0.  1.
        -11    1    3    3    0    0  0.20006996665E+02 -0.58503237572E+01 -0.95998290782E+01  0.22949137722E+02  0.51100000000E-03 0. -1.
        -12    1    3    3    0    0 -0.14613795569E+01 -0.16086995976E+01  0.17279275809E+02  0.17415421818E+02  0.00000000000E+00 0.  1.
</event>
<event>
 7    1  0.3027254E-013  0.7246149E+02  0.7816164E-02  0.1226708E+00
        -11   -1    0    0    0    0  0.00000000000E+00  0.00000000000E+00  0.45593999997E+02  0.45594000000E+02  0.51100000000E-03 0.  1.
         11   -1    0    0    0    0 -0.00000000000E+00 -0.00000000000E+00 -0.45593999997E+02  0.45594000000E+02  0.51100000000E-03 0. -1.
    9900012    2    1    2    0    0  0.41147941676E-01  0.10499475111E+02  0.15506177226E+02  0.72461489302E+02  0.69999894492E+02 0.  0.
         12    1    1    2    0    0 -0.41147941676E-01 -0.10499475111E+02 -0.15506177226E+02  0.18726510698E+02  0.00000000000E+00 0. -1.
         11    1    3    3    0    0  0.14095719159E+01 -0.63890646132E+01 -0.11015284422E+02  0.12811851185E+02  0.51100000000E-03 0. -1.
        -11    1    3    3    0    0 -0.57876238053E+01 -0.30291536292E+01 -0.13349423057E+02  0.14862013902E+02  0.51100000000E-03 0.  1.
        -12    1    3    3    0    0  0.44191998312E+01  0.19917693354E+02  0.39870884705E+02  0.44787624215E+02  0.00000000000E+00 0.  1.
</event>
<event>
 7    1  0.3027254E-013  0.7246155E+02  0.7816164E-02  0.1226708E+00
        -11   -1    0    0    0    0  0.00000000000E+00  0.00000000000E+00  0.45593999997E+02  0.45594000000E+02  0.51100000000E-03 0. -1.
         11   -1    0    0    0    0 -0.00000000000E+00 -0.00000000000E+00 -0.45593999997E+02  0.45594000000E+02  0.51100000000E-03 0.  1.
    9900012    2    1    2    0    0  0.64441495601E+01 -0.16475235618E+02 -0.61416074631E+01  0.72461553608E+02  0.69999978263E+02 0.  0.
         12    1    1    2    0    0 -0.64441495601E+01  0.16475235618E+02  0.61416074631E+01  0.18726446392E+02  0.00000000000E+00 0. -1.
         11    1    3    3    0    0  0.19347822405E+02  0.94816297261E+01  0.13658997530E+01  0.21589470037E+02  0.51100000000E-03 0. -1.
        -11    1    3    3    0    0  0.11323631243E+02  0.68105127874E+00  0.54742813920E+01  0.12595880771E+02  0.51100000000E-03 0.  1.
        -12    1    3    3    0    0 -0.24227304088E+02 -0.26637916623E+02 -0.12981788608E+02  0.38276202801E+02  0.00000000000E+00 0.  1.
</event>
<event>
 7    1  0.3027254E-013  0.7246159E+02  0.7816164E-02  0.1226708E+00
        -11   -1    0    0    0    0  0.00000000000E+00  0.00000000000E+00  0.45593999997E+02  0.45594000000E+02  0.51100000000E-03 0.  1.
         11   -1    0    0    0    0 -0.00000000000E+00 -0.00000000000E+00 -0.45593999997E+02  0.45594000000E+02  0.51100000000E-03 0. -1.
    9900012    2    1    2    0    0 -0.67465386054E+01  0.44365362181E+01  0.16896152842E+02  0.72461585030E+02  0.70000019196E+02 0.  0.
         12    1    1    2    0    0  0.67465386054E+01 -0.44365362181E+01 -0.16896152842E+02  0.18726414970E+02  0.00000000000E+00 0. -1.
         11    1    3    3    0    0 -0.45031821430E+01 -0.40987901261E+00 -0.15025257561E+02  0.15690921428E+02  0.51100000000E-03 0. -1.
        -11    1    3    3    0    0 -0.11797915867E+02 -0.17453667276E+02  0.75409549628E+01  0.22376043489E+02  0.51100000000E-03 0.  1.
        -12    1    3    3    0    0  0.95545594050E+01  0.22300082507E+02  0.24380455440E+02  0.34394620113E+02  0.00000000000E+00 0.  1.
</event>
<event>
 7    1  0.3027254E-013  0.7246159E+02  0.7816164E-02  0.1226708E+00
        -11   -1    0    0    0    0  0.00000000000E+00  0.00000000000E+00  0.45593999997E+02  0.45594000000E+02  0.51100000000E-03 0.  1.
         11   -1    0    0    0    0 -0.00000000000E+00 -0.00000000000E+00 -0.45593999997E+02  0.45594000000E+02  0.51100000000E-03 0. -1.
    9900012    2    1    2    0    0  0.93940986489E+01  0.60738337554E+01  0.15017917958E+02  0.72461590689E+02  0.70000026567E+02 0.  0.
         12    1    1    2    0    0 -0.93940986489E+01 -0.60738337554E+01 -0.15017917958E+02  0.18726409311E+02  0.00000000000E+00 0. -1.
         11    1    3    3    0    0  0.28498873721E+02 -0.57425846563E+01 -0.71099819470E+01  0.29928496879E+02  0.51100000000E-03 0. -1.
        -11    1    3    3    0    0  0.39097617014E+01 -0.60264546383E+01  0.38354858288E+01  0.81434233509E+01  0.51100000000E-03 0.  1.
        -12    1    3    3    0    0 -0.23014536773E+02  0.17842873050E+02  0.18292414076E+02  0.34389670459E+02  0.00000000000E+00 0.  1.
</event>
<event>
 7    1  0.3027254E-013  0.7246173E+02  0.7816164E-02  0.1226708E+00
        -11   -1    0    0    0    0  0.00000000000E+00  0.00000000000E+00  0.45593999997E+02  0.45594000000E+02  0.51100000000E-03 0.  1.
         11   -1    0    0    0    0 -0.00000000000E+00 -0.00000000000E+00 -0.45593999997E+02  0.45594000000E+02  0.51100000000E-03 0. -1.
    9900012    2    1    2    0    0  0.71157586694E+01 -0.15862264689E+02  0.69589937649E+01  0.72461733508E+02  0.70000212616E+02 0.  0.
         12    1    1    2    0    0 -0.71157586694E+01  0.15862264689E+02 -0.69589937649E+01  0.18726266492E+02  0.00000000000E+00 0. -1.
         11    1    3    3    0    0  0.14835877789E+02 -0.12909587667E+02 -0.11242671918E+02  0.22652999704E+02  0.51100000000E-03 0. -1.
        -11    1    3    3    0    0  0.16891388150E+02  0.33165917829E+01 -0.20364517367E+01  0.17333952540E+02  0.51100000000E-03 0.  1.
        -12    1    3    3    0    0 -0.24611507270E+02 -0.62692688056E+01  0.20238117420E+02  0.32474781264E+02  0.00000000000E+00 0.  1.
</event>
<event>
 7    1  0.3027254E-013  0.7246154E+02  0.7816164E-02  0.1226708E+00
        -11   -1    0    0    0    0  0.00000000000E+00  0.00000000000E+00  0.45593999997E+02  0.45594000000E+02  0.51100000000E-03 0.  1.
         11   -1    0    0    0    0 -0.00000000000E+00 -0.00000000000E+00 -0.45593999997E+02  0.45594000000E+02  0.51100000000E-03 0. -1.
    9900012    2    1    2    0    0  0.13049060259E+02 -0.21235482340E+01  0.13262459763E+02  0.72461540920E+02  0.69999961734E+02 0.  0.
         12    1    1    2    0    0 -0.13049060259E+02  0.21235482340E+01 -0.13262459763E+02  0.18726459080E+02  0.00000000000E+00 0. -1.
         11    1    3    3    0    0 -0.32157990590E+01  0.35146808548E+00 -0.12845478923E+02  0.13246555115E+02  0.51100000000E-03 0. -1.
        -11    1    3    3    0    0  0.25438887909E+02 -0.20618217743E+02  0.17605496207E+02  0.37177969524E+02  0.51100000000E-03 0.  1.
        -12    1    3    3    0    0 -0.91740285915E+01  0.18143201423E+02  0.85024424778E+01  0.22037016281E+02  0.00000000000E+00 0.  1.
</event>
<event>
 7    1  0.3027254E-013  0.7246158E+02  0.7816164E-02  0.1226708E+00
        -11   -1    0    0    0    0  0.00000000000E+00  0.00000000000E+00  0.45593999997E+02  0.45594000000E+02  0.51100000000E-03 0. -1.
         11   -1    0    0    0    0 -0.00000000000E+00 -0.00000000000E+00 -0.45593999997E+02  0.45594000000E+02  0.51100000000E-03 0.  1.
    9900012    2    1    2    0    0  0.13099323916E+02 -0.13301213409E+02 -0.14711482540E+01  0.72461579029E+02  0.70000011378E+02 0.  0.
         12    1    1    2    0    0 -0.13099323916E+02  0.13301213409E+02  0.14711482540E+01  0.18726420971E+02  0.00000000000E+00 0. -1.
         11    1    3    3    0    0  0.16500837620E+02  0.22772672804E+01 -0.15290395748E+02  0.22611054615E+02  0.51100000000E-03 0. -1.
        -11    1    3    3    0    0  0.13741998431E+02  0.39671283964E+01 -0.75710728158E+01  0.16183379512E+02  0.51100000000E-03 0.  1.
        -12    1    3    3    0    0 -0.17143512135E+02 -0.19545609085E+02  0.21390320310E+02  0.33667144901E+02  0.00000000000E+00 0.  1.
</event>
<event>
 7    1  0.3027254E-013  0.7246142E+02  0.7816164E-02  0.1226708E+00
        -11   -1    0    0    0    0  0.00000000000E+00  0.00000000000E+00  0.45593999997E+02  0.45594000000E+02  0.51100000000E-03 0. -1.
         11   -1    0    0    0    0 -0.00000000000E+00 -0.00000000000E+00 -0.45593999997E+02  0.45594000000E+02  0.51100000000E-03 0.  1.
    9900012    2    1    2    0    0 -0.78340772684E+01 -0.95009387361E+01 -0.14108307396E+02  0.72461416193E+02  0.69999799254E+02 0.  0.
         12    1    1    2    0    0  0.78340772684E+01  0.95009387361E+01  0.14108307396E+02  0.18726583807E+02  0.00000000000E+00 0. -1.
         11    1    3    3    0    0  0.10588627248E+02 -0.24098364340E+02 -0.21970495027E+02  0.34286336096E+02  0.51100000000E-03 0. -1.
        -11    1    3    3    0    0  0.50657934525E+00  0.35051685720E+01 -0.95371007596E+01  0.10173451750E+02  0.51100000000E-03 0.  1.
        -12    1    3    3    0    0 -0.18929283862E+02  0.11092257032E+02  0.17399288391E+02  0.28001628347E+02  0.00000000000E+00 0.  1.
</event>
<event>
 7    1  0.3027254E-013  0.7246157E+02  0.7816164E-02  0.1226708E+00
        -11   -1    0    0    0    0  0.00000000000E+00  0.00000000000E+00  0.45593999997E+02  0.45594000000E+02  0.51100000000E-03 0. -1.
         11   -1    0    0    0    0 -0.00000000000E+00 -0.00000000000E+00 -0.45593999997E+02  0.45594000000E+02  0.51100000000E-03 0.  1.
    9900012    2    1    2    0    0  0.14222422369E+02  0.12109175407E+02  0.13303507145E+01  0.72461567876E+02  0.69999996850E+02 0.  0.
         12    1    1    2    0    0 -0.14222422369E+02 -0.12109175407E+02 -0.13303507145E+01  0.18726432124E+02  0.00000000000E+00 0. -1.
         11    1    3    3    0    0  0.43370047970E+00  0.68091516196E+01  0.13125448344E+02  0.14792904934E+02  0.51100000000E-03 0. -1.
        -11    1    3    3    0    0 -0.20322807640E+02  0.73052908083E+01 -0.89598534658E+01  0.23380820314E+02  0.51100000000E-03 0.  1.
         12    1    3    3    0    0  0.34111529529E+02 -0.20052670211E+01 -0.28352441636E+01  0.34287842628E+02  0.00000000000E+00 0. -1.
</event>
<event>
 7    1  0.3027254E-013  0.7246153E+02  0.7816164E-02  0.1226708E+00
        -11   -1    0    0    0    0  0.00000000000E+00  0.00000000000E+00  0.45593999997E+02  0.45594000000E+02  0.51100000000E-03 0.  1.
         11   -1    0    0    0    0 -0.00000000000E+00 -0.00000000000E+00 -0.45593999997E+02  0.45594000000E+02  0.51100000000E-03 0. -1.
    9900012    2    1    2    0    0  0.12718605114E+02  0.11378207529E+02 -0.77106570386E+01  0.72461527973E+02  0.69999944869E+02 0.  0.
         12    1    1    2    0    0 -0.12718605114E+02 -0.11378207529E+02  0.77106570386E+01  0.18726472027E+02  0.00000000000E+00 0. -1.
         11    1    3    3    0    0  0.40149928855E+01  0.46689450966E+01 -0.94571511660E+01  0.11285252528E+02  0.51100000000E-03 0. -1.
        -11    1    3    3    0    0  0.17350065724E+02 -0.19528137859E+02 -0.13730326178E+02  0.29510926893E+02  0.51100000000E-03 0.  1.
        -12    1    3    3    0    0 -0.86464534962E+01  0.26237400292E+02  0.15476820305E+02  0.31665348552E+02  0.00000000000E+00 0.  1.
</event>
<event>
 7    1  0.3027254E-013  0.7246158E+02  0.7816164E-02  0.1226708E+00
        -11   -1    0    0    0    0  0.00000000000E+00  0.00000000000E+00  0.45593999997E+02  0.45594000000E+02  0.51100000000E-03 0. -1.
         11   -1    0    0    0    0 -0.00000000000E+00 -0.00000000000E+00 -0.45593999997E+02  0.45594000000E+02  0.51100000000E-03 0.  1.
    9900012    2    1    2    0    0 -0.79190806093E+01  0.16968225090E+02  0.21482239724E+00  0.72461584191E+02  0.70000018103E+02 0.  0.
         12    1    1    2    0    0  0.79190806093E+01 -0.16968225090E+02 -0.21482239724E+00  0.18726415809E+02  0.00000000000E+00 0. -1.
         11    1    3    3    0    0 -0.17508780362E+02  0.36360169360E+02 -0.27909815616E+01  0.40452551019E+02  0.51100000000E-03 0. -1.
        -11    1    3    3    0    0  0.44282709464E+01  0.44153988705E+01 -0.29752258833E+01  0.69251209432E+01  0.51100000000E-03 0.  1.
        -12    1    3    3    0    0  0.51614288060E+01 -0.23807343140E+02  0.59810298421E+01  0.25083912228E+02  0.00000000000E+00 0.  1.
</event>
<event>
 7    1  0.3027254E-013  0.7246150E+02  0.7816164E-02  0.1226708E+00
        -11   -1    0    0    0    0  0.00000000000E+00  0.00000000000E+00  0.45593999997E+02  0.45594000000E+02  0.51100000000E-03 0.  1.
         11   -1    0    0    0    0 -0.00000000000E+00 -0.00000000000E+00 -0.45593999997E+02  0.45594000000E+02  0.51100000000E-03 0. -1.
    9900012    2    1    2    0    0  0.72668999816E+00 -0.18381778128E+02 -0.35019882932E+01  0.72461500928E+02  0.69999909637E+02 0.  0.
         12    1    1    2    0    0 -0.72668999816E+00  0.18381778128E+02  0.35019882932E+01  0.18726499072E+02  0.00000000000E+00 0. -1.
         11    1    3    3    0    0 -0.79686578225E+01 -0.74186005672E+01 -0.93689690639E+01  0.14363590201E+02  0.51100000000E-03 0. -1.
        -11    1    3    3    0    0  0.12216064639E+02  0.16210674532E+02  0.18918309134E+02  0.27747443573E+02  0.51100000000E-03 0.  1.
         12    1    3    3    0    0 -0.35207168185E+01 -0.27173852093E+02 -0.13051328363E+02  0.30350467155E+02  0.00000000000E+00 0. -1.
</event>
<event>
 7    1  0.3027254E-013  0.7246153E+02  0.7816164E-02  0.1226708E+00
        -11   -1    0    0    0    0  0.00000000000E+00  0.00000000000E+00  0.45593999997E+02  0.45594000000E+02  0.51100000000E-03 0.  1.
         11   -1    0    0    0    0 -0.00000000000E+00 -0.00000000000E+00 -0.45593999997E+02  0.45594000000E+02  0.51100000000E-03 0. -1.
    9900012    2    1    2    0    0  0.14263751172E+02 -0.28110155347E+00  0.12130411290E+02  0.72461534940E+02  0.69999953944E+02 0.  0.
         12    1    1    2    0    0 -0.14263751172E+02  0.28110155347E+00 -0.12130411290E+02  0.18726465060E+02  0.00000000000E+00 0. -1.
         11    1    3    3    0    0  0.15517953970E+02 -0.12489386673E+02  0.45704715511E+01  0.20437242606E+02  0.51100000000E-03 0. -1.
        -11    1    3    3    0    0 -0.86340001696E+01  0.52278753621E+01  0.27692279296E+02  0.29474378239E+02  0.51100000000E-03 0.  1.
         12    1    3    3    0    0  0.73797973712E+01  0.69804097575E+01 -0.20132339557E+02  0.22549914094E+02  0.00000000000E+00 0. -1.
</event>
<event>
 7    1  0.3027254E-013  0.7246152E+02  0.7816164E-02  0.1226708E+00
        -11   -1    0    0    0    0  0.00000000000E+00  0.00000000000E+00  0.45593999997E+02  0.45594000000E+02  0.51100000000E-03 0.  1.
         11   -1    0    0    0    0 -0.00000000000E+00 -0.00000000000E+00 -0.45593999997E+02  0.45594000000E+02  0.51100000000E-03 0. -1.
    9900012    2    1    2    0    0 -0.87719849347E+01 -0.46451723883E+01  0.15879412050E+02  0.72461519464E+02  0.69999933784E+02 0.  0.
         12    1    1    2    0    0  0.87719849347E+01  0.46451723883E+01 -0.15879412050E+02  0.18726480536E+02  0.00000000000E+00 0. -1.
         11    1    3    3    0    0  0.32464508524E+01 -0.16261451607E+02 -0.95460321985E+01  0.19133765508E+02  0.51100000000E-03 0. -1.
        -11    1    3    3    0    0 -0.26096216658E+01 -0.68249220480E+01 -0.99469526161E+01  0.12342266923E+02  0.51100000000E-03 0.  1.
        -12    1    3    3    0    0 -0.94088141214E+01  0.18441201267E+02  0.35372396865E+02  0.40985487033E+02  0.00000000000E+00 0.  1.
</event>
<event>
 7    1  0.3027254E-013  0.7246159E+02  0.7816164E-02  0.1226708E+00
        -11   -1    0    0    0    0  0.00000000000E+00  0.00000000000E+00  0.45593999997E+02  0.45594000000E+02  0.51100000000E-03 0. -1.
         11   -1    0    0    0    0 -0.00000000000E+00 -0.00000000000E+00 -0.45593999997E+02  0.45594000000E+02  0.51100000000E-03 0.  1.
    9900012    2    1    2    0    0  0.34534914782E+01 -0.13538800379E+02 -0.12468074070E+02  0.72461585765E+02  0.70000020153E+02 0.  0.
         12    1    1    2    0    0 -0.34534914782E+01  0.13538800379E+02  0.12468074070E+02  0.18726414235E+02  0.00000000000E+00 0. -1.
         11    1    3    3    0    0 -0.11303463616E+02 -0.24925083559E+02 -0.95825037936E+01  0.28997456084E+02  0.51100000000E-03 0. -1.
        -11    1    3    3    0    0  0.18458554201E+02 -0.83153805924E+01 -0.94884436227E+01  0.22358317026E+02  0.51100000000E-03 0.  1.
         12    1    3    3    0    0 -0.37015991076E+01  0.19701663773E+02  0.66028733462E+01  0.21105812654E+02  0.00000000000E+00 0. -1.
</event>
<event>
 7    1  0.3027254E-013  0.7246164E+02  0.7816164E-02  0.1226708E+00
        -11   -1    0    0    0    0  0.00000000000E+00  0.00000000000E+00  0.45593999997E+02  0.45594000000E+02  0.51100000000E-03 0. -1.
         11   -1    0    0    0    0 -0.00000000000E+00 -0.00000000000E+00 -0.45593999997E+02  0.45594000000E+02  0.51100000000E-03 0.  1.
    9900012    2    1    2    0    0  0.16841712738E+02  0.27505307603E+01  0.77115376192E+01  0.72461641041E+02  0.70000092160E+02 0.  0.
         12    1    1    2    0    0 -0.16841712738E+02 -0.27505307603E+01 -0.77115376192E+01  0.18726358959E+02  0.00000000000E+00 0. -1.
         11    1    3    3    0    0 -0.34730057447E+01 -0.26667807884E+00  0.18101565643E+02  0.18433653059E+02  0.51100000000E-03 0. -1.
        -11    1    3    3    0    0  0.46983906512E+01 -0.19029464256E+02  0.81852357811E+01  0.21241315157E+02  0.51100000000E-03 0.  1.
        -12    1    3    3    0    0  0.15616327832E+02  0.22046673095E+02 -0.18575263805E+02  0.32786672825E+02  0.00000000000E+00 0.  1.
</event>
<event>
 7    1  0.3027254E-013  0.7246157E+02  0.7816164E-02  0.1226708E+00
        -11   -1    0    0    0    0  0.00000000000E+00  0.00000000000E+00  0.45593999997E+02  0.45594000000E+02  0.51100000000E-03 0.  1.
         11   -1    0    0    0    0 -0.00000000000E+00 -0.00000000000E+00 -0.45593999997E+02  0.45594000000E+02  0.51100000000E-03 0. -1.
    9900012    2    1    2    0    0  0.88605005707E+01 -0.10474656445E+02 -0.12745679907E+02  0.72461568031E+02  0.69999997051E+02 0.  0.
         12    1    1    2    0    0 -0.88605005707E+01  0.10474656445E+02  0.12745679907E+02  0.18726431969E+02  0.00000000000E+00 0. -1.
         11    1    3    3    0    0  0.74391838009E+01 -0.12759567264E+02 -0.12711241809E+02  0.19486499967E+02  0.51100000000E-03 0. -1.
        -11    1    3    3    0    0  0.17299282761E+02  0.21769328367E+02  0.93591736433E+00  0.27821660323E+02  0.51100000000E-03 0.  1.
         12    1    3    3    0    0 -0.15877965991E+02 -0.19484417548E+02 -0.97035546152E+00  0.25153407740E+02  0.00000000000E+00 0. -1.
</event>
<event>
 7    1  0.3027254E-013  0.7246156E+02  0.7816164E-02  0.1226708E+00
        -11   -1    0    0    0    0  0.00000000000E+00  0.00000000000E+00  0.45593999997E+02  0.45594000000E+02  0.51100000000E-03 0. -1.
         11   -1    0    0    0    0 -0.00000000000E+00 -0.00000000000E+00 -0.45593999997E+02  0.45594000000E+02  0.51100000000E-03 0.  1.
    9900012    2    1    2    0    0 -0.17641413418E+02  0.10375854620E+01 -0.61954340142E+01  0.72461562710E+02  0.69999990120E+02 0.  0.
         12    1    1    2    0    0  0.17641413418E+02 -0.10375854620E+01  0.61954340142E+01  0.18726437290E+02  0.00000000000E+00 0. -1.
         11    1    3    3    0    0  0.43752509900E-01 -0.80571715048E+01  0.63002404660E+01  0.10228047572E+02  0.51100000000E-03 0. -1.
        -11    1    3    3    0    0 -0.37408684996E+02  0.15020784266E+02 -0.95711877908E+01  0.41432370305E+02  0.51100000000E-03 0.  1.
         12    1    3    3    0    0  0.19723519068E+02 -0.59260272993E+01 -0.29244866894E+01  0.20801144833E+02  0.00000000000E+00 0. -1.
</event>
<event>
 7    1  0.3027254E-013  0.7246159E+02  0.7816164E-02  0.1226708E+00
        -11   -1    0    0    0    0  0.00000000000E+00  0.00000000000E+00  0.45593999997E+02  0.45594000000E+02  0.51100000000E-03 0. -1.
         11   -1    0    0    0    0 -0.00000000000E+00 -0.00000000000E+00 -0.45593999997E+02  0.45594000000E+02  0.51100000000E-03 0.  1.
    9900012    2    1    2    0    0  0.21226029730E+01 -0.17836269508E+01 -0.18520034851E+02  0.72461589256E+02  0.70000024701E+02 0.  0.
         12    1    1    2    0    0 -0.21226029730E+01  0.17836269508E+01  0.18520034851E+02  0.18726410744E+02  0.00000000000E+00 0. -1.
         11    1    3    3    0    0  0.71048136606E+01 -0.22574424621E+02  0.20464689010E+01  0.23754390317E+02  0.51100000000E-03 0. -1.
        -11    1    3    3    0    0  0.12577008953E+02 -0.11182653008E+01  0.18728624190E+01  0.12764767346E+02  0.51100000000E-03 0.  1.
        -12    1    3    3    0    0 -0.17559219641E+02  0.21909062971E+02 -0.22439366171E+02  0.35942431593E+02  0.00000000000E+00 0.  1.
</event>
<event>
 7    1  0.3027254E-013  0.7246159E+02  0.7816164E-02  0.1226708E+00
        -11   -1    0    0    0    0  0.00000000000E+00  0.00000000000E+00  0.45593999997E+02  0.45594000000E+02  0.51100000000E-03 0.  1.
         11   -1    0    0    0    0 -0.00000000000E+00 -0.00000000000E+00 -0.45593999997E+02  0.45594000000E+02  0.51100000000E-03 0. -1.
    9900012    2    1    2    0    0 -0.84637840628E+01 -0.33514250231E+00  0.16701206547E+02  0.72461594544E+02  0.70000031590E+02 0.  0.
         12    1    1    2    0    0  0.84637840628E+01  0.33514250231E+00 -0.16701206547E+02  0.18726405456E+02  0.00000000000E+00 0. -1.
         11    1    3    3    0    0  0.24203981596E+02  0.82603202273E+01  0.87739164171E+01  0.27037884993E+02  0.51100000000E-03 0. -1.
        -11    1    3    3    0    0 -0.15485909404E+01  0.88269212668E+01  0.38129968994E+00  0.89698418417E+01  0.51100000000E-03 0.  1.
        -12    1    3    3    0    0 -0.31119174718E+02 -0.17422383996E+02  0.75459904400E+01  0.36453867710E+02  0.00000000000E+00 0.  1.
</event>
<event>
 7    1  0.3027254E-013  0.7246158E+02  0.7816164E-02  0.1226708E+00
        -11   -1    0    0    0    0  0.00000000000E+00  0.00000000000E+00  0.45593999997E+02  0.45594000000E+02  0.51100000000E-03 0.  1.
         11   -1    0    0    0    0 -0.00000000000E+00 -0.00000000000E+00 -0.45593999997E+02  0.45594000000E+02  0.51100000000E-03 0. -1.
    9900012    2    1    2    0    0  0.86670520196E+01  0.56876488244E+01  0.15595239442E+02  0.72461584616E+02  0.70000018657E+02 0.  0.
         12    1    1    2    0    0 -0.86670520196E+01 -0.56876488244E+01 -0.15595239442E+02  0.18726415384E+02  0.00000000000E+00 0. -1.
         11    1    3    3    0    0  0.10792407833E+01 -0.56428495855E+01  0.23655933518E+02  0.24343576216E+02  0.51100000000E-03 0. -1.
        -11    1    3    3    0    0  0.28794350368E+01  0.42183532578E+01  0.19036685031E+02  0.19709922059E+02  0.51100000000E-03 0.  1.
         12    1    3    3    0    0  0.47083761995E+01  0.71121451521E+01 -0.27097379107E+02  0.28408086341E+02  0.00000000000E+00 0. -1.
</event>
<event>
 7    1  0.3027254E-013  0.7246167E+02  0.7816164E-02  0.1226708E+00
        -11   -1    0    0    0    0  0.00000000000E+00  0.00000000000E+00  0.45593999997E+02  0.45594000000E+02  0.51100000000E-03 0. -1.
         11   -1    0    0    0    0 -0.00000000000E+00 -0.00000000000E+00 -0.45593999997E+02  0.45594000000E+02  0.51100000000E-03 0.  1.
    9900012    2    1    2    0    0 -0.74553074002E+00 -0.17831765341E+02 -0.56699117308E+01  0.72461666395E+02  0.70000125189E+02 0.  0.
         12    1    1    2    0    0  0.74553074002E+00  0.17831765341E+02  0.56699117308E+01  0.18726333605E+02  0.00000000000E+00 0. -1.
         11    1    3    3    0    0  0.22663475202E+02  0.71712970911E+01  0.11022123046E+02  0.26202057303E+02  0.51100000000E-03 0. -1.
        -11    1    3    3    0    0 -0.68233550791E+01 -0.67747248050E+01  0.71401690211E+01  0.11976522226E+02  0.51100000000E-03 0.  1.
        -12    1    3    3    0    0 -0.16585650863E+02 -0.18228337627E+02 -0.23832203798E+02  0.34283086866E+02  0.00000000000E+00 0.  1.
</event>
<event>
 7    1  0.3269132E-013  0.7246157E+02  0.7816164E-02  0.1226708E+00
        -11   -1    0    0    0    0  0.00000000000E+00  0.00000000000E+00  0.45593999997E+02  0.45594000000E+02  0.51100000000E-03 0. -1.
         11   -1    0    0    0    0 -0.00000000000E+00 -0.00000000000E+00 -0.45593999997E+02  0.45594000000E+02  0.51100000000E-03 0.  1.
    9900012    2    1    2    0    0 -0.10497468100E+01  0.13062640755E+02 -0.13377014783E+02  0.72461572781E+02  0.70000003240E+02 0.  0.
         12    1    1    2    0    0  0.10497468100E+01 -0.13062640755E+02  0.13377014783E+02  0.18726427219E+02  0.00000000000E+00 0. -1.
         11    1    3    3    0    0 -0.12409908381E+02 -0.44640438901E+01  0.16957729560E+02  0.21482506976E+02  0.51100000000E-03 0. -1.
        -11    1    3    3    0    0 -0.11747819371E+02 -0.30750465270E+00 -0.78336637380E+01  0.14123459453E+02  0.51100000000E-03 0.  1.
        -12    1    3    3    0    0  0.23107980943E+02  0.17834189298E+02 -0.22501080606E+02  0.36855606352E+02  0.00000000000E+00 0.  1.
</event>
<event>
 7    1  0.3027254E-013  0.7246157E+02  0.7816164E-02  0.1226708E+00
        -11   -1    0    0    0    0  0.00000000000E+00  0.00000000000E+00  0.45593999997E+02  0.45594000000E+02  0.51100000000E-03 0. -1.
         11   -1    0    0    0    0 -0.00000000000E+00 -0.00000000000E+00 -0.45593999997E+02  0.45594000000E+02  0.51100000000E-03 0.  1.
    9900012    2    1    2    0    0  0.85168000890E+01  0.15254765366E+02  0.67405879602E+01  0.72461567446E+02  0.69999996290E+02 0.  0.
         12    1    1    2    0    0 -0.85168000890E+01 -0.15254765366E+02 -0.67405879602E+01  0.18726432554E+02  0.00000000000E+00 0. -1.
         11    1    3    3    0    0 -0.14937874673E+02  0.29841292083E+02  0.21469598533E+02  0.39681059390E+02  0.51100000000E-03 0. -1.
        -11    1    3    3    0    0  0.16474196211E+02 -0.64985650607E+01 -0.51808367138E+01  0.18451871395E+02  0.51100000000E-03 0.  1.
        -12    1    3    3    0    0  0.69804785509E+01 -0.80879616555E+01 -0.95481738590E+01  0.14328636662E+02  0.00000000000E+00 0.  1.
</event>
<event>
 7    1  0.3027254E-013  0.7246167E+02  0.7816164E-02  0.1226708E+00
        -11   -1    0    0    0    0  0.00000000000E+00  0.00000000000E+00  0.45593999997E+02  0.45594000000E+02  0.51100000000E-03 0.  1.
         11   -1    0    0    0    0 -0.00000000000E+00 -0.00000000000E+00 -0.45593999997E+02  0.45594000000E+02  0.51100000000E-03 0. -1.
    9900012    2    1    2    0    0  0.55618780262E+01 -0.15723469827E+02  0.85154876026E+01  0.72461667746E+02  0.70000126949E+02 0.  0.
         12    1    1    2    0    0 -0.55618780262E+01  0.15723469827E+02 -0.85154876026E+01  0.18726332254E+02  0.00000000000E+00 0. -1.
         11    1    3    3    0    0 -0.21243679986E+02 -0.24069279289E+02 -0.87936041891E+01  0.33285907224E+02  0.51100000000E-03 0. -1.
        -11    1    3    3    0    0  0.51520849678E+01  0.38437268468E+00 -0.49229981193E+01  0.71363598998E+01  0.51100000000E-03 0.  1.
        -12    1    3    3    0    0  0.21653473044E+02  0.79614367773E+01  0.22232089911E+02  0.32039400622E+02  0.00000000000E+00 0.  1.
</event>
<event>
 7    1  0.3027254E-013  0.7246148E+02  0.7816164E-02  0.1226708E+00
        -11   -1    0    0    0    0  0.00000000000E+00  0.00000000000E+00  0.45593999997E+02  0.45594000000E+02  0.51100000000E-03 0.  1.
         11   -1    0    0    0    0 -0.00000000000E+00 -0.00000000000E+00 -0.45593999997E+02  0.45594000000E+02  0.51100000000E-03 0. -1.
    9900012    2    1    2    0    0 -0.70159800542E+01  0.58364429724E+01  0.16352204996E+02  0.72461477341E+02  0.69999878910E+02 0.  0.
         12    1    1    2    0    0  0.70159800542E+01 -0.58364429724E+01 -0.16352204996E+02  0.18726522659E+02  0.00000000000E+00 0. -1.
         11    1    3    3    0    0 -0.86597155886E+01 -0.15358130086E+01  0.20464228984E+02  0.22274067070E+02  0.51100000000E-03 0. -1.
        -11    1    3    3    0    0 -0.11879442579E+02  0.20558592270E+01  0.19227299493E+02  0.22694421323E+02  0.51100000000E-03 0.  1.
         12    1    3    3    0    0  0.13523178113E+02  0.53163967540E+01 -0.23339323481E+02  0.27492988948E+02  0.00000000000E+00 0. -1.
</event>
<event>
 7    1  0.3027254E-013  0.7246148E+02  0.7816164E-02  0.1226708E+00
        -11   -1    0    0    0    0  0.00000000000E+00  0.00000000000E+00  0.45593999997E+02  0.45594000000E+02  0.51100000000E-03 0. -1.
         11   -1    0    0    0    0 -0.00000000000E+00 -0.00000000000E+00 -0.45593999997E+02  0.45594000000E+02  0.51100000000E-03 0.  1.
    9900012    2    1    2    0    0 -0.18552916565E+02 -0.23898110323E+01 -0.87221548797E+00  0.72461476839E+02  0.69999878257E+02 0.  0.
         12    1    1    2    0    0  0.18552916565E+02  0.23898110323E+01  0.87221548797E+00  0.18726523161E+02  0.00000000000E+00 0. -1.
         11    1    3    3    0    0 -0.37015589451E+01  0.21078378143E+02  0.14892511077E+02  0.26072714669E+02  0.51100000000E-03 0. -1.
        -11    1    3    3    0    0  0.59069576219E+01  0.20800591249E+01 -0.11633688150E+02  0.13212172211E+02  0.51100000000E-03 0.  1.
        -12    1    3    3    0    0 -0.20758315242E+02 -0.25548248301E+02 -0.41310384148E+01  0.33176589959E+02  0.00000000000E+00 0.  1.
</event>
<event>
 7    1  0.3027254E-013  0.7246160E+02  0.7816164E-02  0.1226708E+00
        -11   -1    0    0    0    0  0.00000000000E+00  0.00000000000E+00  0.45593999997E+02  0.45594000000E+02  0.51100000000E-03 0.  1.
         11   -1    0    0    0    0 -0.00000000000E+00 -0.00000000000E+00 -0.45593999997E+02  0.45594000000E+02  0.51100000000E-03 0. -1.
    9900012    2    1    2    0    0  0.79602183127E+01  0.11724108659E+02  0.12241657527E+02  0.72461602097E+02  0.70000041429E+02 0.  0.
         12    1    1    2    0    0 -0.79602183127E+01 -0.11724108659E+02 -0.12241657527E+02  0.18726397903E+02  0.00000000000E+00 0. -1.
         11    1    3    3    0    0 -0.82778088322E+01  0.23156106154E+01  0.39111885550E+01  0.94435993010E+01  0.51100000000E-03 0. -1.
        -11    1    3    3    0    0 -0.19891986999E+02  0.10216834765E+02  0.14078081724E+02  0.26424746824E+02  0.51100000000E-03 0.  1.
        -12    1    3    3    0    0  0.36130014144E+02 -0.80833672188E+00 -0.57476127526E+01  0.36593255972E+02  0.00000000000E+00 0.  1.
</event>
<event>
 7    1  0.3027254E-013  0.7246144E+02  0.7816164E-02  0.1226708E+00
        -11   -1    0    0    0    0  0.00000000000E+00  0.00000000000E+00  0.45593999997E+02  0.45594000000E+02  0.51100000000E-03 0.  1.
         11   -1    0    0    0    0 -0.00000000000E+00 -0.00000000000E+00 -0.45593999997E+02  0.45594000000E+02  0.51100000000E-03 0. -1.
    9900012    2    1    2    0    0 -0.14286186194E+02 -0.11638688655E+02  0.33361501067E+01  0.72461438994E+02  0.69999828957E+02 0.  0.
         12    1    1    2    0    0  0.14286186194E+02  0.11638688655E+02 -0.33361501067E+01  0.18726561006E+02  0.00000000000E+00 0. -1.
         11    1    3    3    0    0 -0.13122536638E+02  0.93425758193E+01 -0.24186374464E+02  0.29059686866E+02  0.51100000000E-03 0. -1.
        -11    1    3    3    0    0  0.62381025084E+01  0.22950309734E+01  0.13965796793E+02  0.15466886254E+02  0.51100000000E-03 0.  1.
        -12    1    3    3    0    0 -0.74017520644E+01 -0.23276295447E+02  0.13556727778E+02  0.27934865874E+02  0.00000000000E+00 0.  1.
</event>
<event>
 7    1  0.3027254E-013  0.7246132E+02  0.7816164E-02  0.1226709E+00
        -11   -1    0    0    0    0  0.00000000000E+00  0.00000000000E+00  0.45593999997E+02  0.45594000000E+02  0.51100000000E-03 0. -1.
         11   -1    0    0    0    0 -0.00000000000E+00 -0.00000000000E+00 -0.45593999997E+02  0.45594000000E+02  0.51100000000E-03 0.  1.
    9900012    2    1    2    0    0 -0.14191741816E+02  0.11905720838E+02 -0.27453362688E+01  0.72461318616E+02  0.69999672141E+02 0.  0.
         12    1    1    2    0    0  0.14191741816E+02 -0.11905720838E+02  0.27453362688E+01  0.18726681384E+02  0.00000000000E+00 0. -1.
         11    1    3    3    0    0  0.80497221115E+01 -0.12508099909E+01 -0.13490141057E+02  0.15759011952E+02  0.51100000000E-03 0. -1.
        -11    1    3    3    0    0 -0.41373201172E+01 -0.13552405790E+01 -0.18708086495E+02  0.19207982594E+02  0.51100000000E-03 0.  1.
         12    1    3    3    0    0 -0.18104143810E+02  0.14511771408E+02  0.29452891283E+02  0.37494324069E+02  0.00000000000E+00 0. -1.
</event>
<event>
 7    1  0.3027254E-013  0.7246166E+02  0.7816164E-02  0.1226708E+00
        -11   -1    0    0    0    0  0.00000000000E+00  0.00000000000E+00  0.45593999997E+02  0.45594000000E+02  0.51100000000E-03 0. -1.
         11   -1    0    0    0    0 -0.00000000000E+00 -0.00000000000E+00 -0.45593999997E+02  0.45594000000E+02  0.51100000000E-03 0.  1.
    9900012    2    1    2    0    0  0.12799728812E+02  0.13469181683E+02 -0.23288961654E+01  0.72461663726E+02  0.70000121713E+02 0.  0.
         12    1    1    2    0    0 -0.12799728812E+02 -0.13469181683E+02  0.23288961654E+01  0.18726336274E+02  0.00000000000E+00 0. -1.
         11    1    3    3    0    0 -0.58388928544E+01  0.10391400756E+02  0.50841959702E+01  0.12958507953E+02  0.51100000000E-03 0. -1.
        -11    1    3    3    0    0  0.30668692568E+02  0.21124920066E+02 -0.64337050709E+01  0.37791844528E+02  0.51100000000E-03 0.  1.
         12    1    3    3    0    0 -0.12030070901E+02 -0.18047139139E+02 -0.97938706467E+00  0.21711311246E+02  0.00000000000E+00 0. -1.
</event>
<event>
 7    1  0.3027254E-013  0.7246154E+02  0.7816164E-02  0.1226708E+00
        -11   -1    0    0    0    0  0.00000000000E+00  0.00000000000E+00  0.45593999997E+02  0.45594000000E+02  0.51100000000E-03 0.  1.
         11   -1    0    0    0    0 -0.00000000000E+00 -0.00000000000E+00 -0.45593999997E+02  0.45594000000E+02  0.51100000000E-03 0. -1.
    9900012    2    1    2    0    0  0.13988238197E+02 -0.78987924539E+01  0.96238454036E+01  0.72461544638E+02  0.69999966578E+02 0.  0.
         12    1    1    2    0    0 -0.13988238197E+02  0.78987924539E+01 -0.96238454036E+01  0.18726455362E+02  0.00000000000E+00 0. -1.
         11    1    3    3    0    0 -0.17871993618E+02 -0.13654370382E+02  0.62607576451E+01  0.23346243230E+02  0.51100000000E-03 0. -1.
        -11    1    3    3    0    0 -0.82628241727E+01  0.92234602917E+00  0.25412038363E+01  0.86938313018E+01  0.51100000000E-03 0.  1.
         12    1    3    3    0    0  0.40123055987E+02  0.48332318991E+01  0.82188392214E+00  0.40421470106E+02  0.00000000000E+00 0. -1.
</event>
<event>
 7    1  0.3027254E-013  0.7246152E+02  0.7816164E-02  0.1226708E+00
        -11   -1    0    0    0    0  0.00000000000E+00  0.00000000000E+00  0.45593999997E+02  0.45594000000E+02  0.51100000000E-03 0.  1.
         11   -1    0    0    0    0 -0.00000000000E+00 -0.00000000000E+00 -0.45593999997E+02  0.45594000000E+02  0.51100000000E-03 0. -1.
    9900012    2    1    2    0    0  0.13442820871E+02 -0.65637167927E+01  0.11264511651E+02  0.72461520516E+02  0.69999935155E+02 0.  0.
         12    1    1    2    0    0 -0.13442820871E+02  0.65637167927E+01 -0.11264511651E+02  0.18726479484E+02  0.00000000000E+00 0. -1.
         11    1    3    3    0    0 -0.19890767851E+01 -0.16429421814E+02 -0.11277365860E+02  0.20026515139E+02  0.51100000000E-03 0. -1.
        -11    1    3    3    0    0 -0.18367015342E+01 -0.15943198330E+02  0.10219644878E+02  0.19026302510E+02  0.51100000000E-03 0.  1.
        -12    1    3    3    0    0  0.17268599191E+02  0.25808903352E+02  0.12322232633E+02  0.33408702867E+02  0.00000000000E+00 0.  1.
</event>
<event>
 7    1  0.3027254E-013  0.7246184E+02  0.7816164E-02  0.1226707E+00
        -11   -1    0    0    0    0  0.00000000000E+00  0.00000000000E+00  0.45593999997E+02  0.45594000000E+02  0.51100000000E-03 0.  1.
         11   -1    0    0    0    0 -0.00000000000E+00 -0.00000000000E+00 -0.45593999997E+02  0.45594000000E+02  0.51100000000E-03 0. -1.
    9900012    2    1    2    0    0  0.26915495704E+01 -0.18047237059E+02 -0.42097137141E+01  0.72461844652E+02  0.70000357401E+02 0.  0.
         12    1    1    2    0    0 -0.26915495704E+01  0.18047237059E+02  0.42097137141E+01  0.18726155348E+02  0.00000000000E+00 0. -1.
         11    1    3    3    0    0 -0.75725553212E+01  0.30376570984E+01 -0.26204810310E+01  0.85695901790E+01  0.51100000000E-03 0. -1.
        -11    1    3    3    0    0  0.36836598305E+01 -0.33053228520E+02 -0.21605919917E+02  0.39659816453E+02  0.51100000000E-03 0.  1.
        -12    1    3    3    0    0  0.65804450611E+01  0.11968334363E+02  0.20016687234E+02  0.24232438021E+02  0.00000000000E+00 0.  1.
</event>
<event>
 7    1  0.3027254E-013  0.7246162E+02  0.7816164E-02  0.1226708E+00
        -11   -1    0    0    0    0  0.00000000000E+00  0.00000000000E+00  0.45593999997E+02  0.45594000000E+02  0.51100000000E-03 0.  1.
         11   -1    0    0    0    0 -0.00000000000E+00 -0.00000000000E+00 -0.45593999997E+02  0.45594000000E+02  0.51100000000E-03 0. -1.
    9900012    2    1    2    0    0 -0.14493237394E+02 -0.80180555152E+01  0.87369496205E+01  0.72461616658E+02  0.70000060397E+02 0.  0.
         12    1    1    2    0    0  0.14493237394E+02  0.80180555152E+01 -0.87369496205E+01  0.18726383342E+02  0.00000000000E+00 0. -1.
         11    1    3    3    0    0  0.13010798110E+02 -0.82466545072E+01 -0.12749870597E+02  0.19996184099E+02  0.51100000000E-03 0. -1.
        -11    1    3    3    0    0  0.39154517457E+01 -0.13134763701E+02  0.67418262416E+01  0.15274324901E+02  0.51100000000E-03 0.  1.
        -12    1    3    3    0    0 -0.31419487249E+02  0.13363362693E+02  0.14744993976E+02  0.37191107658E+02  0.00000000000E+00 0.  1.
</event>
<event>
 7    1  0.3027254E-013  0.7246151E+02  0.7816164E-02  0.1226708E+00
        -11   -1    0    0    0    0  0.00000000000E+00  0.00000000000E+00  0.45593999997E+02  0.45594000000E+02  0.51100000000E-03 0. -1.
         11   -1    0    0    0    0 -0.00000000000E+00 -0.00000000000E+00 -0.45593999997E+02  0.45594000000E+02  0.51100000000E-03 0.  1.
    9900012    2    1    2    0    0  0.13010856907E+02  0.12706970762E+02  0.44645084289E+01  0.72461512371E+02  0.69999924544E+02 0.  0.
         12    1    1    2    0    0 -0.13010856907E+02 -0.12706970762E+02 -0.44645084289E+01  0.18726487629E+02  0.00000000000E+00 0. -1.
         11    1    3    3    0    0 -0.32264475322E+01 -0.18688124195E+02  0.10570882404E+01  0.18994035522E+02  0.51100000000E-03 0. -1.
        -11    1    3    3    0    0 -0.93415743043E+01  0.11972693103E+02 -0.10506356860E+02  0.18466020832E+02  0.51100000000E-03 0.  1.
         12    1    3    3    0    0  0.25578878743E+02  0.19422401855E+02  0.13913777049E+02  0.35001456017E+02  0.00000000000E+00 0. -1.
</event>
<event>
 7    1  0.3027254E-013  0.7246157E+02  0.7816164E-02  0.1226708E+00
        -11   -1    0    0    0    0  0.00000000000E+00  0.00000000000E+00  0.45593999997E+02  0.45594000000E+02  0.51100000000E-03 0.  1.
         11   -1    0    0    0    0 -0.00000000000E+00 -0.00000000000E+00 -0.45593999997E+02  0.45594000000E+02  0.51100000000E-03 0. -1.
    9900012    2    1    2    0    0  0.71860963490E+01 -0.14246034374E+02  0.98025298463E+01  0.72461573018E+02  0.70000003548E+02 0.  0.
         12    1    1    2    0    0 -0.71860963490E+01  0.14246034374E+02 -0.98025298463E+01  0.18726426982E+02  0.00000000000E+00 0. -1.
         11    1    3    3    0    0 -0.10841412330E+02 -0.41781084240E+01  0.22506073100E+01  0.11834612154E+02  0.51100000000E-03 0. -1.
        -11    1    3    3    0    0 -0.15522113621E+02 -0.18707849075E+02 -0.27989481665E+01  0.24469445015E+02  0.51100000000E-03 0.  1.
         12    1    3    3    0    0  0.33549622300E+02  0.86399231241E+01  0.10350870703E+02  0.36157515849E+02  0.00000000000E+00 0. -1.
</event>
<event>
 7    1  0.3027254E-013  0.7246159E+02  0.7816164E-02  0.1226708E+00
        -11   -1    0    0    0    0  0.00000000000E+00  0.00000000000E+00  0.45593999997E+02  0.45594000000E+02  0.51100000000E-03 0.  1.
         11   -1    0    0    0    0 -0.00000000000E+00 -0.00000000000E+00 -0.45593999997E+02  0.45594000000E+02  0.51100000000E-03 0. -1.
    9900012    2    1    2    0    0 -0.18058513909E+02  0.48318557098E+01 -0.11053187814E+01  0.72461588603E+02  0.70000023850E+02 0.  0.
         12    1    1    2    0    0  0.18058513909E+02 -0.48318557098E+01  0.11053187814E+01  0.18726411397E+02  0.00000000000E+00 0. -1.
         11    1    3    3    0    0 -0.17801232983E+02  0.26206125899E+02 -0.16458145164E+02  0.35700356761E+02  0.51100000000E-03 0. -1.
        -11    1    3    3    0    0 -0.89640687456E+01 -0.10380092071E+02 -0.26212805587E+01  0.13963235725E+02  0.51100000000E-03 0.  1.
        -12    1    3    3    0    0  0.87067878191E+01 -0.10994178118E+02  0.17974106942E+02  0.22797996117E+02  0.00000000000E+00 0.  1.
</event>
<event>
 7    1  0.3027254E-013  0.7246159E+02  0.7816164E-02  0.1226708E+00
        -11   -1    0    0    0    0  0.00000000000E+00  0.00000000000E+00  0.45593999997E+02  0.45594000000E+02  0.51100000000E-03 0.  1.
         11   -1    0    0    0    0 -0.00000000000E+00 -0.00000000000E+00 -0.45593999997E+02  0.45594000000E+02  0.51100000000E-03 0. -1.
    9900012    2    1    2    0    0  0.10308559187E+02 -0.44064308957E+01  0.14999851082E+02  0.72461586616E+02  0.70000021261E+02 0.  0.
         12    1    1    2    0    0 -0.10308559187E+02  0.44064308957E+01 -0.14999851082E+02  0.18726413384E+02  0.00000000000E+00 0. -1.
         11    1    3    3    0    0  0.34639383204E+00 -0.10627733675E+02 -0.12890417566E+02  0.16710223728E+02  0.51100000000E-03 0. -1.
        -11    1    3    3    0    0  0.20204957832E+02  0.15205574686E+02  0.65220436880E+00  0.25295754453E+02  0.51100000000E-03 0.  1.
         12    1    3    3    0    0 -0.10242792477E+02 -0.89842719070E+01  0.27238064280E+02  0.30455608435E+02  0.00000000000E+00 0. -1.
</event>
<event>
 7    1  0.3027254E-013  0.7246163E+02  0.7816164E-02  0.1226708E+00
        -11   -1    0    0    0    0  0.00000000000E+00  0.00000000000E+00  0.45593999997E+02  0.45594000000E+02  0.51100000000E-03 0.  1.
         11   -1    0    0    0    0 -0.00000000000E+00 -0.00000000000E+00 -0.45593999997E+02  0.45594000000E+02  0.51100000000E-03 0. -1.
    9900012    2    1    2    0    0 -0.18137961117E+02  0.46464100855E+01  0.31938578321E+00  0.72461634430E+02  0.70000083549E+02 0.  0.
         12    1    1    2    0    0  0.18137961117E+02 -0.46464100855E+01 -0.31938578321E+00  0.18726365570E+02  0.00000000000E+00 0. -1.
         11    1    3    3    0    0  0.37478950930E+01  0.59532099347E+01 -0.27925539802E+02  0.28797972145E+02  0.51100000000E-03 0. -1.
        -11    1    3    3    0    0 -0.28901789442E+01  0.23700815233E+01 -0.43645082828E+01  0.57462469115E+01  0.51100000000E-03 0.  1.
        -12    1    3    3    0    0 -0.18995677266E+02 -0.36768813725E+01  0.32609433868E+02  0.37917415374E+02  0.00000000000E+00 0.  1.
</event>
<event>
 7    1  0.3027254E-013  0.7246155E+02  0.7816164E-02  0.1226708E+00
        -11   -1    0    0    0    0  0.00000000000E+00  0.00000000000E+00  0.45593999997E+02  0.45594000000E+02  0.51100000000E-03 0.  1.
         11   -1    0    0    0    0 -0.00000000000E+00 -0.00000000000E+00 -0.45593999997E+02  0.45594000000E+02  0.51100000000E-03 0. -1.
    9900012    2    1    2    0    0  0.11323845714E+01  0.11907068228E+02  0.14409005641E+02  0.72461547795E+02  0.69999970691E+02 0.  0.
         12    1    1    2    0    0 -0.11323845714E+01 -0.11907068228E+02 -0.14409005641E+02  0.18726452205E+02  0.00000000000E+00 0. -1.
         11    1    3    3    0    0 -0.14938014918E+01 -0.10743313085E+02  0.11635444891E+02  0.15907036085E+02  0.51100000000E-03 0. -1.
        -11    1    3    3    0    0 -0.13845986165E+02 -0.11411190092E+02 -0.32745726440E+01  0.18238679186E+02  0.51100000000E-03 0.  1.
         12    1    3    3    0    0  0.16472172228E+02  0.34061571405E+02  0.60481333937E+01  0.38315832524E+02  0.00000000000E+00 0. -1.
</event>
<event>
 7    1  0.3027254E-013  0.7246156E+02  0.7816164E-02  0.1226708E+00
        -11   -1    0    0    0    0  0.00000000000E+00  0.00000000000E+00  0.45593999997E+02  0.45594000000E+02  0.51100000000E-03 0.  1.
         11   -1    0    0    0    0 -0.00000000000E+00 -0.00000000000E+00 -0.45593999997E+02  0.45594000000E+02  0.51100000000E-03 0. -1.
    9900012    2    1    2    0    0 -0.17226131095E+02 -0.15139850376E+01  0.71866451954E+01  0.72461558470E+02  0.69999984597E+02 0.  0.
         12    1    1    2    0    0  0.17226131095E+02  0.15139850376E+01 -0.71866451954E+01  0.18726441530E+02  0.00000000000E+00 0. -1.
         11    1    3    3    0    0 -0.19084784039E+02  0.76706581636E+01 -0.58715660254E+01  0.21390261016E+02  0.51100000000E-03 0. -1.
        -11    1    3    3    0    0  0.10389630167E+02  0.15160328873E+02 -0.56244160332E+01  0.19220146788E+02  0.51100000000E-03 0.  1.
         12    1    3    3    0    0 -0.85309772229E+01 -0.24344972075E+02  0.18682627254E+02  0.31851150667E+02  0.00000000000E+00 0. -1.
</event>
<event>
 7    1  0.3027254E-013  0.7246157E+02  0.7816164E-02  0.1226708E+00
        -11   -1    0    0    0    0  0.00000000000E+00  0.00000000000E+00  0.45593999997E+02  0.45594000000E+02  0.51100000000E-03 0.  1.
         11   -1    0    0    0    0 -0.00000000000E+00 -0.00000000000E+00 -0.45593999997E+02  0.45594000000E+02  0.51100000000E-03 0. -1.
    9900012    2    1    2    0    0 -0.12776506377E+02 -0.13119935897E+02 -0.39124634948E+01  0.72461569381E+02  0.69999998810E+02 0.  0.
         12    1    1    2    0    0  0.12776506377E+02  0.13119935897E+02  0.39124634948E+01  0.18726430619E+02  0.00000000000E+00 0. -1.
         11    1    3    3    0    0 -0.17023865099E+02  0.60593265403E+01  0.13615893023E+02  0.22625648369E+02  0.51100000000E-03 0. -1.
        -11    1    3    3    0    0  0.16255749206E+02 -0.21973716364E+02  0.12615789611E+01  0.27362112032E+02  0.51100000000E-03 0.  1.
         12    1    3    3    0    0 -0.12008390485E+02  0.27944539269E+01 -0.18789935479E+02  0.22473808981E+02  0.00000000000E+00 0. -1.
</event>
<event>
 7    1  0.3027254E-013  0.7246231E+02  0.7816164E-02  0.1226706E+00
        -11   -1    0    0    0    0  0.00000000000E+00  0.00000000000E+00  0.45593999997E+02  0.45594000000E+02  0.51100000000E-03 0. -1.
         11   -1    0    0    0    0 -0.00000000000E+00 -0.00000000000E+00 -0.45593999997E+02  0.45594000000E+02  0.51100000000E-03 0.  1.
    9900012    2    1    2    0    0 -0.38675622446E+01 -0.17358672313E+02 -0.58625714469E+01  0.72462314802E+02  0.70000969852E+02 0.  0.
         12    1    1    2    0    0  0.38675622446E+01  0.17358672313E+02  0.58625714469E+01  0.18725685198E+02  0.00000000000E+00 0. -1.
         11    1    3    3    0    0  0.42963648780E+01 -0.81510808431E+01 -0.13972453450E+02  0.16737034557E+02  0.51100000000E-03 0. -1.
        -11    1    3    3    0    0  0.21029990700E+02  0.61975363045E+01  0.55576005678E+01  0.22617623425E+02  0.51100000000E-03 0.  1.
         12    1    3    3    0    0 -0.29193917823E+02 -0.15405127774E+02  0.25522814352E+01  0.33107656820E+02  0.00000000000E+00 0. -1.
</event>
<event>
 7    1  0.3027254E-013  0.7246154E+02  0.7816164E-02  0.1226708E+00
        -11   -1    0    0    0    0  0.00000000000E+00  0.00000000000E+00  0.45593999997E+02  0.45594000000E+02  0.51100000000E-03 0.  1.
         11   -1    0    0    0    0 -0.00000000000E+00 -0.00000000000E+00 -0.45593999997E+02  0.45594000000E+02  0.51100000000E-03 0. -1.
    9900012    2    1    2    0    0 -0.86050301213E+01 -0.10962707511E+02  0.12508110401E+02  0.72461539438E+02  0.69999959804E+02 0.  0.
         12    1    1    2    0    0  0.86050301213E+01  0.10962707511E+02 -0.12508110401E+02  0.18726460562E+02  0.00000000000E+00 0. -1.
         11    1    3    3    0    0  0.25296531933E+02 -0.88747899735E+01  0.15296363665E+02  0.30865112450E+02  0.51100000000E-03 0. -1.
        -11    1    3    3    0    0  0.17198336053E+01  0.48254421156E+01  0.57449964039E+00  0.51548782080E+01  0.51100000000E-03 0.  1.
         12    1    3    3    0    0 -0.35621395660E+02 -0.69133596536E+01 -0.33627529048E+01  0.36441548781E+02  0.00000000000E+00 0. -1.
</event>
<event>
 7    1  0.3027254E-013  0.7246145E+02  0.7816164E-02  0.1226708E+00
        -11   -1    0    0    0    0  0.00000000000E+00  0.00000000000E+00  0.45593999997E+02  0.45594000000E+02  0.51100000000E-03 0. -1.
         11   -1    0    0    0    0 -0.00000000000E+00 -0.00000000000E+00 -0.45593999997E+02  0.45594000000E+02  0.51100000000E-03 0.  1.
    9900012    2    1    2    0    0  0.26646919492E+01  0.17870752778E+02 -0.49213102526E+01  0.72461449793E+02  0.69999843025E+02 0.  0.
         12    1    1    2    0    0 -0.26646919492E+01 -0.17870752778E+02  0.49213102526E+01  0.18726550207E+02  0.00000000000E+00 0. -1.
         11    1    3    3    0    0 -0.10391065178E+01  0.34241938892E+02  0.24046102050E+01  0.34341989924E+02  0.51100000000E-03 0. -1.
        -11    1    3    3    0    0 -0.11520446773E+02  0.37200291877E+01 -0.11126393146E+01  0.12157190362E+02  0.51100000000E-03 0.  1.
        -12    1    3    3    0    0  0.15224245240E+02 -0.20091215301E+02 -0.62132811431E+01  0.25962269507E+02  0.00000000000E+00 0.  1.
</event>
<event>
 7    1  0.3027254E-013  0.7246153E+02  0.7816164E-02  0.1226708E+00
        -11   -1    0    0    0    0  0.00000000000E+00  0.00000000000E+00  0.45593999997E+02  0.45594000000E+02  0.51100000000E-03 0.  1.
         11   -1    0    0    0    0 -0.00000000000E+00 -0.00000000000E+00 -0.45593999997E+02  0.45594000000E+02  0.51100000000E-03 0. -1.
    9900012    2    1    2    0    0  0.96738096893E+00 -0.43161270841E+01  0.18196594810E+02  0.72461525649E+02  0.69999941841E+02 0.  0.
         12    1    1    2    0    0 -0.96738096893E+00  0.43161270841E+01 -0.18196594810E+02  0.18726474351E+02  0.00000000000E+00 0. -1.
         11    1    3    3    0    0 -0.32322836808E+02 -0.54327556432E+01  0.15388300127E+02  0.36208844144E+02  0.51100000000E-03 0. -1.
        -11    1    3    3    0    0 -0.64750293415E+00  0.78868747071E-01  0.21989221860E+01  0.22936301730E+01  0.51100000000E-03 0.  1.
        -12    1    3    3    0    0  0.33937720711E+02  0.10377598121E+01  0.60937249739E+00  0.33959051332E+02  0.00000000000E+00 0.  1.
</event>
<event>
 7    1  0.3027254E-013  0.7246156E+02  0.7816164E-02  0.1226708E+00
        -11   -1    0    0    0    0  0.00000000000E+00  0.00000000000E+00  0.45593999997E+02  0.45594000000E+02  0.51100000000E-03 0.  1.
         11   -1    0    0    0    0 -0.00000000000E+00 -0.00000000000E+00 -0.45593999997E+02  0.45594000000E+02  0.51100000000E-03 0. -1.
    9900012    2    1    2    0    0  0.18708386572E+02 -0.71139623964E+00  0.41180506425E+00  0.72461564243E+02  0.69999992118E+02 0.  0.
         12    1    1    2    0    0 -0.18708386572E+02  0.71139623964E+00 -0.41180506425E+00  0.18726435757E+02  0.00000000000E+00 0. -1.
         11    1    3    3    0    0  0.97786759786E+01  0.14888838905E+02  0.53478655407E+01  0.18598378799E+02  0.51100000000E-03 0. -1.
        -11    1    3    3    0    0 -0.34024966086E+01 -0.68159218813E+01  0.21824710384E+02  0.23116049789E+02  0.51100000000E-03 0.  1.
        -12    1    3    3    0    0  0.12332207202E+02 -0.87843132633E+01 -0.26760770860E+02  0.30747135656E+02  0.00000000000E+00 0.  1.
</event>
<event>
 7    1  0.3027254E-013  0.7246158E+02  0.7816164E-02  0.1226708E+00
        -11   -1    0    0    0    0  0.00000000000E+00  0.00000000000E+00  0.45593999997E+02  0.45594000000E+02  0.51100000000E-03 0.  1.
         11   -1    0    0    0    0 -0.00000000000E+00 -0.00000000000E+00 -0.45593999997E+02  0.45594000000E+02  0.51100000000E-03 0. -1.
    9900012    2    1    2    0    0  0.54241547664E+01 -0.44910643918E+01  0.17351873783E+02  0.72461584484E+02  0.70000018485E+02 0.  0.
         12    1    1    2    0    0 -0.54241547664E+01  0.44910643918E+01 -0.17351873783E+02  0.18726415516E+02  0.00000000000E+00 0. -1.
         11    1    3    3    0    0  0.11299126420E+02  0.23016738461E+02  0.15259869382E+02  0.29837964425E+02  0.51100000000E-03 0. -1.
        -11    1    3    3    0    0 -0.11114516801E+02  0.21530229783E+01 -0.37819962257E+01  0.11936142064E+02  0.51100000000E-03 0.  1.
        -12    1    3    3    0    0  0.52395451469E+01 -0.29660825831E+02  0.58740006263E+01  0.30687477995E+02  0.00000000000E+00 0.  1.
</event>
<event>
 7    1  0.3027254E-013  0.7246157E+02  0.7816164E-02  0.1226708E+00
        -11   -1    0    0    0    0  0.00000000000E+00  0.00000000000E+00  0.45593999997E+02  0.45594000000E+02  0.51100000000E-03 0. -1.
         11   -1    0    0    0    0 -0.00000000000E+00 -0.00000000000E+00 -0.45593999997E+02  0.45594000000E+02  0.51100000000E-03 0.  1.
    9900012    2    1    2    0    0  0.12714507606E+02 -0.12014676710E+02  0.66834143571E+01  0.72461569812E+02  0.69999999372E+02 0.  0.
         12    1    1    2    0    0 -0.12714507606E+02  0.12014676710E+02 -0.66834143571E+01  0.18726430188E+02  0.00000000000E+00 0. -1.
         11    1    3    3    0    0 -0.16387092343E+02 -0.18415029669E+02 -0.41871734142E+01  0.25003650426E+02  0.51100000000E-03 0. -1.
        -11    1    3    3    0    0  0.23787817847E+02 -0.14920213934E+01 -0.89599142670E+01  0.25463041250E+02  0.51100000000E-03 0.  1.
        -12    1    3    3    0    0  0.53137821015E+01  0.78923743521E+01  0.19830502038E+02  0.21994878136E+02  0.00000000000E+00 0.  1.
</event>
<event>
 7    1  0.3027254E-013  0.7246156E+02  0.7816164E-02  0.1226708E+00
        -11   -1    0    0    0    0  0.00000000000E+00  0.00000000000E+00  0.45593999997E+02  0.45594000000E+02  0.51100000000E-03 0. -1.
         11   -1    0    0    0    0 -0.00000000000E+00 -0.00000000000E+00 -0.45593999997E+02  0.45594000000E+02  0.51100000000E-03 0.  1.
    9900012    2    1    2    0    0  0.28017337917E+01 -0.17766868554E+02 -0.52122993266E+01  0.72461564281E+02  0.69999992167E+02 0.  0.
         12    1    1    2    0    0 -0.28017337917E+01  0.17766868554E+02  0.52122993266E+01  0.18726435719E+02  0.00000000000E+00 0. -1.
         11    1    3    3    0    0 -0.13247181876E+02  0.16149236184E+02  0.51252745378E+01  0.21507070845E+02  0.51100000000E-03 0. -1.
        -11    1    3    3    0    0 -0.95466521743E+01 -0.14371172611E+02 -0.42306532523E+00  0.17258277854E+02  0.51100000000E-03 0.  1.
        -12    1    3    3    0    0  0.25595567842E+02 -0.19544932127E+02 -0.99145085391E+01  0.33696215582E+02  0.00000000000E+00 0.  1.
</event>
<event>
 7    1  0.3027254E-013  0.7246161E+02  0.7816164E-02  0.1226708E+00
        -11   -1    0    0    0    0  0.00000000000E+00  0.00000000000E+00  0.45593999997E+02  0.45594000000E+02  0.51100000000E-03 0.  1.
         11   -1    0    0    0    0 -0.00000000000E+00 -0.00000000000E+00 -0.45593999997E+02  0.45594000000E+02  0.51100000000E-03 0. -1.
    9900012    2    1    2    0    0  0.10532637125E+02 -0.15465957318E+02  0.73849874243E+00  0.72461610573E+02  0.70000052471E+02 0.  0.
         12    1    1    2    0    0 -0.10532637125E+02  0.15465957318E+02 -0.73849874243E+00  0.18726389427E+02  0.00000000000E+00 0. -1.
         11    1    3    3    0    0 -0.10901272096E+02 -0.40021383112E+01  0.17431239410E+02  0.20945236977E+02  0.51100000000E-03 0. -1.
        -11    1    3    3    0    0  0.88027768815E+01  0.91853537429E+01  0.94800298603E+01  0.15866019369E+02  0.51100000000E-03 0.  1.
        -12    1    3    3    0    0  0.12631132340E+02 -0.20649172750E+02 -0.26172770528E+02  0.35650354227E+02  0.00000000000E+00 0.  1.
</event>
<event>
 7    1  0.3027254E-013  0.7246157E+02  0.7816164E-02  0.1226708E+00
        -11   -1    0    0    0    0  0.00000000000E+00  0.00000000000E+00  0.45593999997E+02  0.45594000000E+02  0.51100000000E-03 0.  1.
         11   -1    0    0    0    0 -0.00000000000E+00 -0.00000000000E+00 -0.45593999997E+02  0.45594000000E+02  0.51100000000E-03 0. -1.
    9900012    2    1    2    0    0  0.10962765812E+02  0.14132103332E+02  0.55480268310E+01  0.72461570000E+02  0.69999999616E+02 0.  0.
         12    1    1    2    0    0 -0.10962765812E+02 -0.14132103332E+02 -0.55480268310E+01  0.18726430000E+02  0.00000000000E+00 0. -1.
         11    1    3    3    0    0 -0.51567183121E+01 -0.25831245551E+02  0.23789256135E+00  0.26342011760E+02  0.51100000000E-03 0. -1.
        -11    1    3    3    0    0 -0.29597482786E+01  0.38532838631E+01 -0.42896719381E+00  0.48776961280E+01  0.51100000000E-03 0.  1.
        -12    1    3    3    0    0  0.19079232403E+02  0.36110065020E+02  0.57391014635E+01  0.41241862111E+02  0.00000000000E+00 0.  1.
</event>
<event>
 7    1  0.3027254E-013  0.7246162E+02  0.7816164E-02  0.1226708E+00
        -11   -1    0    0    0    0  0.00000000000E+00  0.00000000000E+00  0.45593999997E+02  0.45594000000E+02  0.51100000000E-03 0.  1.
         11   -1    0    0    0    0 -0.00000000000E+00 -0.00000000000E+00 -0.45593999997E+02  0.45594000000E+02  0.51100000000E-03 0. -1.
    9900012    2    1    2    0    0 -0.11531895998E+02  0.79335806163E+01  0.12439891185E+02  0.72461622363E+02  0.70000067830E+02 0.  0.
         12    1    1    2    0    0  0.11531895998E+02 -0.79335806163E+01 -0.12439891185E+02  0.18726377637E+02  0.00000000000E+00 0. -1.
         11    1    3    3    0    0 -0.40277248062E+01  0.65541222222E+01  0.13074415766E+02  0.15169687970E+02  0.51100000000E-03 0. -1.
        -11    1    3    3    0    0 -0.75118089101E+01 -0.14756154206E+02  0.23203912456E+02  0.28506015393E+02  0.51100000000E-03 0.  1.
         12    1    3    3    0    0  0.76377185341E-02  0.16135612600E+02 -0.23838437037E+02  0.28785919001E+02  0.00000000000E+00 0. -1.
</event>
<event>
 7    1  0.3027254E-013  0.7246102E+02  0.7816164E-02  0.1226709E+00
        -11   -1    0    0    0    0  0.00000000000E+00  0.00000000000E+00  0.45593999997E+02  0.45594000000E+02  0.51100000000E-03 0. -1.
         11   -1    0    0    0    0 -0.00000000000E+00 -0.00000000000E+00 -0.45593999997E+02  0.45594000000E+02  0.51100000000E-03 0.  1.
    9900012    2    1    2    0    0 -0.29980294531E+00 -0.81819754763E+01 -0.16842367419E+02  0.72461015598E+02  0.69999277401E+02 0.  0.
         12    1    1    2    0    0  0.29980294531E+00  0.81819754763E+01  0.16842367419E+02  0.18726984402E+02  0.00000000000E+00 0. -1.
         11    1    3    3    0    0 -0.63054628660E+01  0.92379386334E+01  0.10848906104E+02  0.15581949045E+02  0.51100000000E-03 0. -1.
        -11    1    3    3    0    0 -0.54507861278E+01  0.95320383771E+01  0.57764682242E+01  0.12407191884E+02  0.51100000000E-03 0.  1.
        -12    1    3    3    0    0  0.11456446049E+02 -0.26951952487E+02 -0.33467741747E+02  0.44471874669E+02  0.00000000000E+00 0.  1.
</event>
<event>
 7    1  0.3027254E-013  0.7246156E+02  0.7816164E-02  0.1226708E+00
        -11   -1    0    0    0    0  0.00000000000E+00  0.00000000000E+00  0.45593999997E+02  0.45594000000E+02  0.51100000000E-03 0. -1.
         11   -1    0    0    0    0 -0.00000000000E+00 -0.00000000000E+00 -0.45593999997E+02  0.45594000000E+02  0.51100000000E-03 0.  1.
    9900012    2    1    2    0    0 -0.15613023761E+01  0.18209090993E+02  0.40829882847E+01  0.72461562720E+02  0.69999990132E+02 0.  0.
         12    1    1    2    0    0  0.15613023761E+01 -0.18209090993E+02 -0.40829882847E+01  0.18726437280E+02  0.00000000000E+00 0. -1.
         11    1    3    3    0    0  0.19900780191E+01 -0.82041347245E+01  0.37386650866E+01  0.92328681345E+01  0.51100000000E-03 0. -1.
        -11    1    3    3    0    0 -0.64428711026E+01 -0.13046652394E+02 -0.14901415399E+02  0.20827335593E+02  0.51100000000E-03 0.  1.
         12    1    3    3    0    0  0.28914907074E+01  0.39459878111E+02  0.15245738597E+02  0.42401358992E+02  0.00000000000E+00 0. -1.
</event>
<event>
 7    1  0.3027254E-013  0.7246159E+02  0.7816164E-02  0.1226708E+00
        -11   -1    0    0    0    0  0.00000000000E+00  0.00000000000E+00  0.45593999997E+02  0.45594000000E+02  0.51100000000E-03 0.  1.
         11   -1    0    0    0    0 -0.00000000000E+00 -0.00000000000E+00 -0.45593999997E+02  0.45594000000E+02  0.51100000000E-03 0. -1.
    9900012    2    1    2    0    0 -0.16381642113E+02  0.82083451606E+01  0.38656798371E+01  0.72461585255E+02  0.70000019489E+02 0.  0.
         12    1    1    2    0    0  0.16381642113E+02 -0.82083451606E+01 -0.38656798371E+01  0.18726414745E+02  0.00000000000E+00 0. -1.
         11    1    3    3    0    0 -0.43555066031E+01  0.61053881058E+01  0.27545742895E+01  0.79896108460E+01  0.51100000000E-03 0. -1.
        -11    1    3    3    0    0 -0.23322129955E+02 -0.62303361341E+01  0.26260665670E+02  0.35670175156E+02  0.51100000000E-03 0.  1.
         12    1    3    3    0    0  0.11295994445E+02  0.83332931889E+01 -0.25149560122E+02  0.28801799253E+02  0.00000000000E+00 0. -1.
</event>
<event>
 7    1  0.3027254E-013  0.7246159E+02  0.7816164E-02  0.1226708E+00
        -11   -1    0    0    0    0  0.00000000000E+00  0.00000000000E+00  0.45593999997E+02  0.45594000000E+02  0.51100000000E-03 0.  1.
         11   -1    0    0    0    0 -0.00000000000E+00 -0.00000000000E+00 -0.45593999997E+02  0.45594000000E+02  0.51100000000E-03 0. -1.
    9900012    2    1    2    0    0 -0.93179256960E+01 -0.72725518586E+01  0.14524622305E+02  0.72461590763E+02  0.70000026664E+02 0.  0.
         12    1    1    2    0    0  0.93179256960E+01  0.72725518586E+01 -0.14524622305E+02  0.18726409237E+02  0.00000000000E+00 0. -1.
         11    1    3    3    0    0  0.57719722003E+01 -0.54492158172E+00  0.11750283252E+02  0.13102738621E+02  0.51100000000E-03 0. -1.
        -11    1    3    3    0    0 -0.16819963356E+02 -0.18262248784E+02  0.24385895974E+02  0.34800758910E+02  0.51100000000E-03 0.  1.
         12    1    3    3    0    0  0.17300654601E+01  0.11534618507E+02 -0.21611556921E+02  0.24558093232E+02  0.00000000000E+00 0. -1.
</event>
<event>
 7    1  0.3027254E-013  0.7246156E+02  0.7816164E-02  0.1226708E+00
        -11   -1    0    0    0    0  0.00000000000E+00  0.00000000000E+00  0.45593999997E+02  0.45594000000E+02  0.51100000000E-03 0.  1.
         11   -1    0    0    0    0 -0.00000000000E+00 -0.00000000000E+00 -0.45593999997E+02  0.45594000000E+02  0.51100000000E-03 0. -1.
    9900012    2    1    2    0    0  0.23800592188E+01 -0.18340805867E+02 -0.29376188832E+01  0.72461562901E+02  0.69999990369E+02 0.  0.
         12    1    1    2    0    0 -0.23800592188E+01  0.18340805867E+02  0.29376188832E+01  0.18726437099E+02  0.00000000000E+00 0. -1.
         11    1    3    3    0    0  0.67446523675E+01 -0.93312910660E+01 -0.33838577573E+01  0.12000575907E+02  0.51100000000E-03 0. -1.
        -11    1    3    3    0    0  0.23405145760E+02 -0.17104066843E+02 -0.84555342296E+01  0.30196788074E+02  0.51100000000E-03 0.  1.
         12    1    3    3    0    0 -0.27769738909E+02  0.80945520426E+01  0.89017731036E+01  0.30264198920E+02  0.00000000000E+00 0. -1.
</event>
<event>
 7    1  0.3027254E-013  0.7246154E+02  0.7816164E-02  0.1226708E+00
        -11   -1    0    0    0    0  0.00000000000E+00  0.00000000000E+00  0.45593999997E+02  0.45594000000E+02  0.51100000000E-03 0. -1.
         11   -1    0    0    0    0 -0.00000000000E+00 -0.00000000000E+00 -0.45593999997E+02  0.45594000000E+02  0.51100000000E-03 0.  1.
    9900012    2    1    2    0    0  0.13441821106E+02  0.12704647879E+02 -0.29308395981E+01  0.72461536022E+02  0.69999955354E+02 0.  0.
         12    1    1    2    0    0 -0.13441821106E+02 -0.12704647879E+02  0.29308395981E+01  0.18726463978E+02  0.00000000000E+00 0. -1.
         11    1    3    3    0    0  0.27451411650E+02 -0.80179968660E+01  0.10963156581E+01  0.28619402223E+02  0.51100000000E-03 0. -1.
        -11    1    3    3    0    0  0.53714589828E+00  0.37037307075E+01 -0.17377040967E+02  0.17775480300E+02  0.51100000000E-03 0.  1.
        -12    1    3    3    0    0 -0.14546736443E+02  0.17018914037E+02  0.13349885711E+02  0.26066653499E+02  0.00000000000E+00 0.  1.
</event>
<event>
 7    1  0.3027254E-013  0.7246159E+02  0.7816164E-02  0.1226708E+00
        -11   -1    0    0    0    0  0.00000000000E+00  0.00000000000E+00  0.45593999997E+02  0.45594000000E+02  0.51100000000E-03 0. -1.
         11   -1    0    0    0    0 -0.00000000000E+00 -0.00000000000E+00 -0.45593999997E+02  0.45594000000E+02  0.51100000000E-03 0.  1.
    9900012    2    1    2    0    0  0.16194690004E+02 -0.85246021242E+01 -0.39675846615E+01  0.72461586736E+02  0.70000021418E+02 0.  0.
         12    1    1    2    0    0 -0.16194690004E+02  0.85246021242E+01  0.39675846615E+01  0.18726413264E+02  0.00000000000E+00 0. -1.
         11    1    3    3    0    0  0.81522087304E+01 -0.10494464191E+02 -0.94812603116E+01  0.16324416780E+02  0.51100000000E-03 0. -1.
        -11    1    3    3    0    0  0.13063788353E+02 -0.17649986345E+02 -0.15557533348E+02  0.26911362437E+02  0.51100000000E-03 0.  1.
         12    1    3    3    0    0 -0.50213070795E+01  0.19619848412E+02  0.21071208998E+02  0.29225807518E+02  0.00000000000E+00 0. -1.
</event>
<event>
 7    1  0.3027254E-013  0.7246153E+02  0.7816164E-02  0.1226708E+00
        -11   -1    0    0    0    0  0.00000000000E+00  0.00000000000E+00  0.45593999997E+02  0.45594000000E+02  0.51100000000E-03 0. -1.
         11   -1    0    0    0    0 -0.00000000000E+00 -0.00000000000E+00 -0.45593999997E+02  0.45594000000E+02  0.51100000000E-03 0.  1.
    9900012    2    1    2    0    0  0.16907130392E+02 -0.59621638618E+01 -0.54113015226E+01  0.72461531028E+02  0.69999948848E+02 0.  0.
         12    1    1    2    0    0 -0.16907130392E+02  0.59621638618E+01  0.54113015226E+01  0.18726468972E+02  0.00000000000E+00 0. -1.
         11    1    3    3    0    0  0.16675631000E+02  0.14973312948E+02  0.74034269090E+01  0.23602701119E+02  0.51100000000E-03 0. -1.
        -11    1    3    3    0    0  0.20208609715E+02 -0.17351084854E+02 -0.49462800219E+01  0.27090842337E+02  0.51100000000E-03 0.  1.
        -12    1    3    3    0    0 -0.19977110322E+02 -0.35843919552E+01 -0.78684484097E+01  0.21767987571E+02  0.00000000000E+00 0.  1.
</event>
<event>
 7    1  0.3027254E-013  0.7246159E+02  0.7816164E-02  0.1226708E+00
        -11   -1    0    0    0    0  0.00000000000E+00  0.00000000000E+00  0.45593999997E+02  0.45594000000E+02  0.51100000000E-03 0. -1.
         11   -1    0    0    0    0 -0.00000000000E+00 -0.00000000000E+00 -0.45593999997E+02  0.45594000000E+02  0.51100000000E-03 0.  1.
    9900012    2    1    2    0    0 -0.96295525617E+01  0.29047094322E+01 -0.15795977747E+02  0.72461587306E+02  0.70000022160E+02 0.  0.
         12    1    1    2    0    0  0.96295525617E+01 -0.29047094322E+01  0.15795977747E+02  0.18726412694E+02  0.00000000000E+00 0. -1.
         11    1    3    3    0    0 -0.17354474320E+02  0.12818495396E+02 -0.11767715547E+01  0.21607322710E+02  0.51100000000E-03 0. -1.
        -11    1    3    3    0    0 -0.30095604900E+01 -0.10491998207E+02  0.15452552636E+02  0.18918796577E+02  0.51100000000E-03 0.  1.
        -12    1    3    3    0    0  0.10734482248E+02  0.57821224303E+00 -0.30071758828E+02  0.31935468018E+02  0.00000000000E+00 0.  1.
</event>
<event>
 7    1  0.3027254E-013  0.7246163E+02  0.7816164E-02  0.1226708E+00
        -11   -1    0    0    0    0  0.00000000000E+00  0.00000000000E+00  0.45593999997E+02  0.45594000000E+02  0.51100000000E-03 0.  1.
         11   -1    0    0    0    0 -0.00000000000E+00 -0.00000000000E+00 -0.45593999997E+02  0.45594000000E+02  0.51100000000E-03 0. -1.
    9900012    2    1    2    0    0  0.91737281466E+01 -0.14897278485E+02 -0.66776238173E+01  0.72461632114E+02  0.70000080531E+02 0.  0.
         12    1    1    2    0    0 -0.91737281466E+01  0.14897278485E+02  0.66776238173E+01  0.18726367886E+02  0.00000000000E+00 0. -1.
         11    1    3    3    0    0  0.18058408917E+01  0.56072634499E+01 -0.23936687739E+02  0.24650912456E+02  0.51100000000E-03 0. -1.
        -11    1    3    3    0    0 -0.60413954255E+01  0.67608737412E+01 -0.48039698317E+01  0.10260896590E+02  0.51100000000E-03 0.  1.
        -12    1    3    3    0    0  0.13409282681E+02 -0.27265415676E+02  0.22063033753E+02  0.37549823068E+02  0.00000000000E+00 0.  1.
</event>
<event>
 7    1  0.3027254E-013  0.7246177E+02  0.7816164E-02  0.1226707E+00
        -11   -1    0    0    0    0  0.00000000000E+00  0.00000000000E+00  0.45593999997E+02  0.45594000000E+02  0.51100000000E-03 0.  1.
         11   -1    0    0    0    0 -0.00000000000E+00 -0.00000000000E+00 -0.45593999997E+02  0.45594000000E+02  0.51100000000E-03 0. -1.
    9900012    2    1    2    0    0 -0.13810281710E+02  0.22159057333E+01  0.12451406977E+02  0.72461770939E+02  0.70000261377E+02 0.  0.
         12    1    1    2    0    0  0.13810281710E+02 -0.22159057333E+01 -0.12451406977E+02  0.18726229061E+02  0.00000000000E+00 0. -1.
         11    1    3    3    0    0 -0.23960015077E+02  0.54627495227E+01 -0.13754447256E+02  0.28162186961E+02  0.51100000000E-03 0. -1.
        -11    1    3    3    0    0  0.69741218115E+00  0.14710770760E+02  0.15400008134E+02  0.21308529065E+02  0.51100000000E-03 0.  1.
        -12    1    3    3    0    0  0.94523211861E+01 -0.17957614550E+02  0.10805846099E+02  0.22991054914E+02  0.00000000000E+00 0.  1.
</event>
<event>
 7    1  0.3027254E-013  0.7246168E+02  0.7816164E-02  0.1226708E+00
        -11   -1    0    0    0    0  0.00000000000E+00  0.00000000000E+00  0.45593999997E+02  0.45594000000E+02  0.51100000000E-03 0. -1.
         11   -1    0    0    0    0 -0.00000000000E+00 -0.00000000000E+00 -0.45593999997E+02  0.45594000000E+02  0.51100000000E-03 0.  1.
    9900012    2    1    2    0    0 -0.54306479418E+01 -0.36152842134E+01 -0.17553140317E+02  0.72461682904E+02  0.70000146695E+02 0.  0.
         12    1    1    2    0    0  0.54306479418E+01  0.36152842134E+01  0.17553140317E+02  0.18726317096E+02  0.00000000000E+00 0. -1.
         11    1    3    3    0    0 -0.23656802312E+02 -0.15505124189E+02  0.53380690229E+01  0.28784512379E+02  0.51100000000E-03 0. -1.
        -11    1    3    3    0    0  0.28439858425E+01 -0.40357667511E+01  0.56833081974E+01  0.75283239217E+01  0.51100000000E-03 0.  1.
        -12    1    3    3    0    0  0.15382168528E+02  0.15925606727E+02 -0.28574517537E+02  0.36148846603E+02  0.00000000000E+00 0.  1.
</event>
<event>
 7    1  0.3027254E-013  0.7246154E+02  0.7816164E-02  0.1226708E+00
        -11   -1    0    0    0    0  0.00000000000E+00  0.00000000000E+00  0.45593999997E+02  0.45594000000E+02  0.51100000000E-03 0. -1.
         11   -1    0    0    0    0 -0.00000000000E+00 -0.00000000000E+00 -0.45593999997E+02  0.45594000000E+02  0.51100000000E-03 0.  1.
    9900012    2    1    2    0    0  0.89458591787E+01 -0.12440456712E+02 -0.10765074013E+02  0.72461543364E+02  0.69999964918E+02 0.  0.
         12    1    1    2    0    0 -0.89458591787E+01  0.12440456712E+02  0.10765074013E+02  0.18726456636E+02  0.00000000000E+00 0. -1.
         11    1    3    3    0    0 -0.19277137516E+02 -0.10721437164E+01  0.33442072587E+01  0.19594418731E+02  0.51100000000E-03 0. -1.
        -11    1    3    3    0    0 -0.87258571499E+01  0.33325731620E+01 -0.86454144197E+01  0.12727522054E+02  0.51100000000E-03 0.  1.
         12    1    3    3    0    0  0.36948853844E+02 -0.14700886158E+02 -0.54638668519E+01  0.40139602579E+02  0.00000000000E+00 0. -1.
</event>
<event>
 7    1  0.3027254E-013  0.7246158E+02  0.7816164E-02  0.1226708E+00
        -11   -1    0    0    0    0  0.00000000000E+00  0.00000000000E+00  0.45593999997E+02  0.45594000000E+02  0.51100000000E-03 0.  1.
         11   -1    0    0    0    0 -0.00000000000E+00 -0.00000000000E+00 -0.45593999997E+02  0.45594000000E+02  0.51100000000E-03 0. -1.
    9900012    2    1    2    0    0 -0.30032059544E+01  0.14799244332E+02  0.11074386562E+02  0.72461577049E+02  0.70000008799E+02 0.  0.
         12    1    1    2    0    0  0.30032059544E+01 -0.14799244332E+02 -0.11074386562E+02  0.18726422951E+02  0.00000000000E+00 0. -1.
         11    1    3    3    0    0 -0.18881575600E+02  0.59848569224E+01 -0.21795004754E+02  0.29450885250E+02  0.51100000000E-03 0. -1.
        -11    1    3    3    0    0  0.90935854515E+00 -0.30781255129E+01  0.19303444648E+02  0.19568463537E+02  0.51100000000E-03 0.  1.
        -12    1    3    3    0    0  0.14969011100E+02  0.11892512923E+02  0.13565946668E+02  0.23442228263E+02  0.00000000000E+00 0.  1.
</event>
<event>
 7    1  0.3027254E-013  0.7246159E+02  0.7816164E-02  0.1226708E+00
        -11   -1    0    0    0    0  0.00000000000E+00  0.00000000000E+00  0.45593999997E+02  0.45594000000E+02  0.51100000000E-03 0. -1.
         11   -1    0    0    0    0 -0.00000000000E+00 -0.00000000000E+00 -0.45593999997E+02  0.45594000000E+02  0.51100000000E-03 0.  1.
    9900012    2    1    2    0    0 -0.16794997909E+02 -0.62355603240E+01 -0.54519803626E+01  0.72461594654E+02  0.70000031733E+02 0.  0.
         12    1    1    2    0    0  0.16794997909E+02  0.62355603240E+01  0.54519803626E+01  0.18726405346E+02  0.00000000000E+00 0. -1.
         11    1    3    3    0    0 -0.34262218846E+02 -0.87405074519E+01  0.71567528493E+01  0.36076518989E+02  0.51100000000E-03 0. -1.
        -11    1    3    3    0    0 -0.75612563277E+01  0.13963602370E+01  0.11942476332E+01  0.77813011017E+01  0.51100000000E-03 0.  1.
        -12    1    3    3    0    0  0.25028477264E+02  0.11085868909E+01 -0.13802980845E+02  0.28603774563E+02  0.00000000000E+00 0.  1.
</event>
<event>
 7    1  0.3027254E-013  0.7246179E+02  0.7816164E-02  0.1226707E+00
        -11   -1    0    0    0    0  0.00000000000E+00  0.00000000000E+00  0.45593999997E+02  0.45594000000E+02  0.51100000000E-03 0. -1.
         11   -1    0    0    0    0 -0.00000000000E+00 -0.00000000000E+00 -0.45593999997E+02  0.45594000000E+02  0.51100000000E-03 0.  1.
    9900012    2    1    2    0    0 -0.76284068055E+01 -0.81133025994E+01 -0.15054989866E+02  0.72461788708E+02  0.70000284524E+02 0.  0.
         12    1    1    2    0    0  0.76284068055E+01  0.81133025994E+01  0.15054989866E+02  0.18726211292E+02  0.00000000000E+00 0. -1.
         11    1    3    3    0    0  0.20518503053E+02  0.11456434049E+02  0.30354151313E+01  0.23695412930E+02  0.51100000000E-03 0. -1.
        -11    1    3    3    0    0 -0.46877778214E+01  0.66424646941E+01  0.18401992978E+01  0.83357022398E+01  0.51100000000E-03 0.  1.
        -12    1    3    3    0    0 -0.23459132038E+02 -0.26212201342E+02 -0.19930604296E+02  0.40430673538E+02  0.00000000000E+00 0.  1.
</event>
<event>
 7    1  0.3027254E-013  0.7246210E+02  0.7816164E-02  0.1226707E+00
        -11   -1    0    0    0    0  0.00000000000E+00  0.00000000000E+00  0.45593999997E+02  0.45594000000E+02  0.51100000000E-03 0.  1.
         11   -1    0    0    0    0 -0.00000000000E+00 -0.00000000000E+00 -0.45593999997E+02  0.45594000000E+02  0.51100000000E-03 0. -1.
    9900012    2    1    2    0    0 -0.14783764090E+02 -0.64299616899E+01  0.95265592268E+01  0.72462097654E+02  0.70000686980E+02 0.  0.
         12    1    1    2    0    0  0.14783764090E+02  0.64299616899E+01 -0.95265592268E+01  0.18725902346E+02  0.00000000000E+00 0. -1.
         11    1    3    3    0    0  0.90888042479E+01  0.67106444827E+01 -0.40749890236E+01  0.12010189334E+02  0.51100000000E-03 0. -1.
        -11    1    3    3    0    0  0.14930772425E+02 -0.47332913683E-01 -0.46185623793E+01  0.15628861901E+02  0.51100000000E-03 0.  1.
        -12    1    3    3    0    0 -0.38803340762E+02 -0.13093273259E+02  0.18220110630E+02  0.44823046419E+02  0.00000000000E+00 0.  1.
</event>
<event>
 7    1  0.3027254E-013  0.7246152E+02  0.7816164E-02  0.1226708E+00
        -11   -1    0    0    0    0  0.00000000000E+00  0.00000000000E+00  0.45593999997E+02  0.45594000000E+02  0.51100000000E-03 0.  1.
         11   -1    0    0    0    0 -0.00000000000E+00 -0.00000000000E+00 -0.45593999997E+02  0.45594000000E+02  0.51100000000E-03 0. -1.
    9900012    2    1    2    0    0 -0.15587604742E+02  0.53838769874E+01  0.88725033534E+01  0.72461524924E+02  0.69999940897E+02 0.  0.
         12    1    1    2    0    0  0.15587604742E+02 -0.53838769874E+01 -0.88725033534E+01  0.18726475076E+02  0.00000000000E+00 0. -1.
         11    1    3    3    0    0 -0.28647853271E+01  0.12842227568E+02  0.11956126279E+02  0.17778603987E+02  0.51100000000E-03 0. -1.
        -11    1    3    3    0    0 -0.31742034392E+02  0.34032126280E+01  0.26766350632E+01  0.32035963839E+02  0.51100000000E-03 0.  1.
         12    1    3    3    0    0  0.19019214977E+02 -0.10861563209E+02 -0.57602579885E+01  0.22646957098E+02  0.00000000000E+00 0. -1.
</event>
<event>
 7    1  0.3027254E-013  0.7246157E+02  0.7816164E-02  0.1226708E+00
        -11   -1    0    0    0    0  0.00000000000E+00  0.00000000000E+00  0.45593999997E+02  0.45594000000E+02  0.51100000000E-03 0. -1.
         11   -1    0    0    0    0 -0.00000000000E+00 -0.00000000000E+00 -0.45593999997E+02  0.45594000000E+02  0.51100000000E-03 0.  1.
    9900012    2    1    2    0    0 -0.41677421455E+01  0.14009006744E+02 -0.11707130299E+02  0.72461568296E+02  0.69999997396E+02 0.  0.
         12    1    1    2    0    0  0.41677421455E+01 -0.14009006744E+02  0.11707130299E+02  0.18726431704E+02  0.00000000000E+00 0. -1.
         11    1    3    3    0    0 -0.27082585862E+02  0.13027798712E+02 -0.85961095143E+00  0.30065410816E+02  0.51100000000E-03 0. -1.
        -11    1    3    3    0    0 -0.74396898460E+01  0.42707833167E+01  0.26999962560E+01  0.89932505351E+01  0.51100000000E-03 0.  1.
        -12    1    3    3    0    0  0.30354533563E+02 -0.32895752851E+01 -0.13547515603E+02  0.33402906945E+02  0.00000000000E+00 0.  1.
</event>
<event>
 7    1  0.3027254E-013  0.7246157E+02  0.7816164E-02  0.1226708E+00
        -11   -1    0    0    0    0  0.00000000000E+00  0.00000000000E+00  0.45593999997E+02  0.45594000000E+02  0.51100000000E-03 0.  1.
         11   -1    0    0    0    0 -0.00000000000E+00 -0.00000000000E+00 -0.45593999997E+02  0.45594000000E+02  0.51100000000E-03 0. -1.
    9900012    2    1    2    0    0 -0.15421025248E+01 -0.16161541467E+02  0.93330454012E+01  0.72461568432E+02  0.69999997574E+02 0.  0.
         12    1    1    2    0    0  0.15421025248E+01  0.16161541467E+02 -0.93330454012E+01  0.18726431568E+02  0.00000000000E+00 0. -1.
         11    1    3    3    0    0 -0.15545688908E+02  0.10777595075E+02  0.15541224493E+02  0.24481720900E+02  0.51100000000E-03 0. -1.
        -11    1    3    3    0    0 -0.11885925915E+02 -0.11934673123E+02 -0.65020774427E+01  0.18055156293E+02  0.51100000000E-03 0.  1.
         12    1    3    3    0    0  0.25889512299E+02 -0.15004463419E+02  0.29389835131E+00  0.29924691240E+02  0.00000000000E+00 0. -1.
</event>
<event>
 7    1  0.3027254E-013  0.7246155E+02  0.7816164E-02  0.1226708E+00
        -11   -1    0    0    0    0  0.00000000000E+00  0.00000000000E+00  0.45593999997E+02  0.45594000000E+02  0.51100000000E-03 0.  1.
         11   -1    0    0    0    0 -0.00000000000E+00 -0.00000000000E+00 -0.45593999997E+02  0.45594000000E+02  0.51100000000E-03 0. -1.
    9900012    2    1    2    0    0 -0.79323782489E+01 -0.11245365032E+02 -0.12700361016E+02  0.72461547337E+02  0.69999970094E+02 0.  0.
         12    1    1    2    0    0  0.79323782489E+01  0.11245365032E+02  0.12700361016E+02  0.18726452663E+02  0.00000000000E+00 0. -1.
         11    1    3    3    0    0  0.21502882027E+02 -0.11091006333E+02 -0.13641262971E+02  0.27775320208E+02  0.51100000000E-03 0. -1.
        -11    1    3    3    0    0 -0.12155306456E+02 -0.13730362280E+02 -0.91629496771E+01  0.20499609031E+02  0.51100000000E-03 0.  1.
        -12    1    3    3    0    0 -0.17279953819E+02  0.13576003581E+02  0.10103851632E+02  0.24186618098E+02  0.00000000000E+00 0.  1.
</event>
<event>
 7    1  0.3027254E-013  0.7246157E+02  0.7816164E-02  0.1226708E+00
        -11   -1    0    0    0    0  0.00000000000E+00  0.00000000000E+00  0.45593999997E+02  0.45594000000E+02  0.51100000000E-03 0.  1.
         11   -1    0    0    0    0 -0.00000000000E+00 -0.00000000000E+00 -0.45593999997E+02  0.45594000000E+02  0.51100000000E-03 0. -1.
    9900012    2    1    2    0    0 -0.16907922461E+02 -0.17351379028E+01  0.78606934376E+01  0.72461573571E+02  0.70000004269E+02 0.  0.
         12    1    1    2    0    0  0.16907922461E+02  0.17351379028E+01 -0.78606934376E+01  0.18726426429E+02  0.00000000000E+00 0. -1.
         11    1    3    3    0    0  0.65734620226E+01 -0.14287100372E+02 -0.68174015243E+01  0.17140846065E+02  0.51100000000E-03 0. -1.
        -11    1    3    3    0    0  0.57538437392E+01  0.19974502072E+02  0.14163858007E+02  0.25153574790E+02  0.51100000000E-03 0.  1.
         12    1    3    3    0    0 -0.29235228222E+02 -0.74225396030E+01  0.51423695479E+00  0.30167152716E+02  0.00000000000E+00 0. -1.
</event>
<event>
 7    1  0.3027254E-013  0.7246153E+02  0.7816164E-02  0.1226708E+00
        -11   -1    0    0    0    0  0.00000000000E+00  0.00000000000E+00  0.45593999997E+02  0.45594000000E+02  0.51100000000E-03 0.  1.
         11   -1    0    0    0    0 -0.00000000000E+00 -0.00000000000E+00 -0.45593999997E+02  0.45594000000E+02  0.51100000000E-03 0. -1.
    9900012    2    1    2    0    0  0.18006228394E+01 -0.11335309708E+02  0.14796934995E+02  0.72461527453E+02  0.69999944192E+02 0.  0.
         12    1    1    2    0    0 -0.18006228394E+01  0.11335309708E+02 -0.14796934995E+02  0.18726472547E+02  0.00000000000E+00 0. -1.
         11    1    3    3    0    0 -0.26063981720E+01  0.33794443227E+01  0.18331161306E+01  0.46448111232E+01  0.51100000000E-03 0. -1.
        -11    1    3    3    0    0 -0.22999768506E+02  0.13427535178E+02  0.99068415118E+01  0.28415375438E+02  0.51100000000E-03 0.  1.
         12    1    3    3    0    0  0.27406789517E+02 -0.28142289209E+02  0.30569773526E+01  0.39401340892E+02  0.00000000000E+00 0. -1.
</event>
<event>
 7    1  0.3027254E-013  0.7246157E+02  0.7816164E-02  0.1226708E+00
        -11   -1    0    0    0    0  0.00000000000E+00  0.00000000000E+00  0.45593999997E+02  0.45594000000E+02  0.51100000000E-03 0.  1.
         11   -1    0    0    0    0 -0.00000000000E+00 -0.00000000000E+00 -0.45593999997E+02  0.45594000000E+02  0.51100000000E-03 0. -1.
    9900012    2    1    2    0    0  0.18272190096E+02  0.29856355518E+01  0.28093440226E+01  0.72461565091E+02  0.69999993222E+02 0.  0.
         12    1    1    2    0    0 -0.18272190096E+02 -0.29856355518E+01 -0.28093440226E+01  0.18726434909E+02  0.00000000000E+00 0. -1.
         11    1    3    3    0    0 -0.17685177080E+00  0.67667710539E+01 -0.29022668962E+02  0.29801607020E+02  0.51100000000E-03 0. -1.
        -11    1    3    3    0    0  0.38135603951E+01  0.36252939824E+01  0.23839949875E+02  0.24413709461E+02  0.51100000000E-03 0.  1.
        -12    1    3    3    0    0  0.14635481472E+02 -0.74064294845E+01  0.79920631097E+01  0.18246248611E+02  0.00000000000E+00 0.  1.
</event>
<event>
 7    1  0.3027254E-013  0.7246161E+02  0.7816164E-02  0.1226708E+00
        -11   -1    0    0    0    0  0.00000000000E+00  0.00000000000E+00  0.45593999997E+02  0.45594000000E+02  0.51100000000E-03 0.  1.
         11   -1    0    0    0    0 -0.00000000000E+00 -0.00000000000E+00 -0.45593999997E+02  0.45594000000E+02  0.51100000000E-03 0. -1.
    9900012    2    1    2    0    0 -0.98566062071E+01  0.36937340328E+01  0.15488105139E+02  0.72461607987E+02  0.70000049102E+02 0.  0.
         12    1    1    2    0    0  0.98566062071E+01 -0.36937340328E+01 -0.15488105139E+02  0.18726392013E+02  0.00000000000E+00 0. -1.
         11    1    3    3    0    0 -0.30099317635E+02  0.21959024387E+02 -0.43435911366E+01  0.37510457987E+02  0.51100000000E-03 0. -1.
        -11    1    3    3    0    0  0.25259851184E+01 -0.47825602887E+01  0.44000931844E+00  0.54265175016E+01  0.51100000000E-03 0.  1.
        -12    1    3    3    0    0  0.17716726310E+02 -0.13482730065E+02  0.19391686957E+02  0.29524632499E+02  0.00000000000E+00 0.  1.
</event>
<event>
 7    1  0.3027254E-013  0.7246160E+02  0.7816164E-02  0.1226708E+00
        -11   -1    0    0    0    0  0.00000000000E+00  0.00000000000E+00  0.45593999997E+02  0.45594000000E+02  0.51100000000E-03 0.  1.
         11   -1    0    0    0    0 -0.00000000000E+00 -0.00000000000E+00 -0.45593999997E+02  0.45594000000E+02  0.51100000000E-03 0. -1.
    9900012    2    1    2    0    0  0.18303497777E+02  0.33509139059E+01  0.21051320626E+01  0.72461595223E+02  0.70000032474E+02 0.  0.
         12    1    1    2    0    0 -0.18303497777E+02 -0.33509139059E+01 -0.21051320626E+01  0.18726404777E+02  0.00000000000E+00 0. -1.
         11    1    3    3    0    0  0.13344865949E+02 -0.97359415021E+01  0.44347868407E+01  0.17103839882E+02  0.51100000000E-03 0. -1.
        -11    1    3    3    0    0  0.24556463958E+02 -0.74805144924E+01  0.46864736937E+01  0.26094847290E+02  0.51100000000E-03 0.  1.
        -12    1    3    3    0    0 -0.19597832130E+02  0.20567369900E+02 -0.70161284718E+01  0.29262908050E+02  0.00000000000E+00 0.  1.
</event>
<event>
 7    1  0.3027254E-013  0.7246160E+02  0.7816164E-02  0.1226708E+00
        -11   -1    0    0    0    0  0.00000000000E+00  0.00000000000E+00  0.45593999997E+02  0.45594000000E+02  0.51100000000E-03 0.  1.
         11   -1    0    0    0    0 -0.00000000000E+00 -0.00000000000E+00 -0.45593999997E+02  0.45594000000E+02  0.51100000000E-03 0. -1.
    9900012    2    1    2    0    0 -0.18685100723E+02  0.44509068634E+00 -0.11606148928E+01  0.72461598272E+02  0.70000036446E+02 0.  0.
         12    1    1    2    0    0  0.18685100723E+02 -0.44509068634E+00  0.11606148928E+01  0.18726401728E+02  0.00000000000E+00 0. -1.
         11    1    3    3    0    0  0.67025071072E+01 -0.93846045472E+01  0.14901246667E+02  0.18842546445E+02  0.51100000000E-03 0. -1.
        -11    1    3    3    0    0 -0.20322352516E+02 -0.12857556901E+01  0.11560921104E+02  0.23415936379E+02  0.51100000000E-03 0.  1.
         12    1    3    3    0    0 -0.50652553144E+01  0.11115450924E+02 -0.27622782665E+02  0.30203115448E+02  0.00000000000E+00 0. -1.
</event>
<event>
 7    1  0.3027254E-013  0.7246158E+02  0.7816164E-02  0.1226708E+00
        -11   -1    0    0    0    0  0.00000000000E+00  0.00000000000E+00  0.45593999997E+02  0.45594000000E+02  0.51100000000E-03 0. -1.
         11   -1    0    0    0    0 -0.00000000000E+00 -0.00000000000E+00 -0.45593999997E+02  0.45594000000E+02  0.51100000000E-03 0.  1.
    9900012    2    1    2    0    0 -0.15485019054E+02 -0.20004116080E+01  0.10338822910E+02  0.72461582273E+02  0.70000015605E+02 0.  0.
         12    1    1    2    0    0  0.15485019054E+02  0.20004116080E+01 -0.10338822910E+02  0.18726417727E+02  0.00000000000E+00 0. -1.
         11    1    3    3    0    0  0.27617966764E+01  0.38611461361E+01  0.31780474625E+02  0.32133075453E+02  0.51100000000E-03 0. -1.
        -11    1    3    3    0    0 -0.16983742971E+02 -0.16162634641E+02 -0.12188205613E+02  0.26424054196E+02  0.51100000000E-03 0.  1.
        -12    1    3    3    0    0 -0.12630727595E+01  0.10301076896E+02 -0.92534461028E+01  0.13904452625E+02  0.00000000000E+00 0.  1.
</event>
<event>
 7    1  0.3027254E-013  0.7246173E+02  0.7816164E-02  0.1226708E+00
        -11   -1    0    0    0    0  0.00000000000E+00  0.00000000000E+00  0.45593999997E+02  0.45594000000E+02  0.51100000000E-03 0.  1.
         11   -1    0    0    0    0 -0.00000000000E+00 -0.00000000000E+00 -0.45593999997E+02  0.45594000000E+02  0.51100000000E-03 0. -1.
    9900012    2    1    2    0    0 -0.12190004662E+02 -0.51961664201E+01  0.13231654642E+02  0.72461733857E+02  0.70000213070E+02 0.  0.
         12    1    1    2    0    0  0.12190004662E+02  0.51961664201E+01 -0.13231654642E+02  0.18726266143E+02  0.00000000000E+00 0. -1.
         11    1    3    3    0    0  0.19649354366E+02  0.22450604676E+01  0.18939942394E+02  0.27383550567E+02  0.51100000000E-03 0. -1.
        -11    1    3    3    0    0  0.22498786067E+01 -0.96022675997E+01 -0.46513871824E+01  0.10904168918E+02  0.51100000000E-03 0.  1.
        -12    1    3    3    0    0 -0.34089237635E+02  0.21610407120E+01 -0.10569005697E+01  0.34174014372E+02  0.00000000000E+00 0.  1.
</event>
<event>
 7    1  0.3027254E-013  0.7246156E+02  0.7816164E-02  0.1226708E+00
        -11   -1    0    0    0    0  0.00000000000E+00  0.00000000000E+00  0.45593999997E+02  0.45594000000E+02  0.51100000000E-03 0.  1.
         11   -1    0    0    0    0 -0.00000000000E+00 -0.00000000000E+00 -0.45593999997E+02  0.45594000000E+02  0.51100000000E-03 0. -1.
    9900012    2    1    2    0    0 -0.45321707417E+01  0.40117922555E+01  0.17721304467E+02  0.72461556645E+02  0.69999982219E+02 0.  0.
         12    1    1    2    0    0  0.45321707417E+01 -0.40117922555E+01 -0.17721304467E+02  0.18726443355E+02  0.00000000000E+00 0. -1.
         11    1    3    3    0    0  0.97767728374E+01 -0.35841595433E+01 -0.50208672416E+01  0.11560302542E+02  0.51100000000E-03 0. -1.
        -11    1    3    3    0    0 -0.34904439482E+01 -0.17375245965E+02 -0.83419733759E+01  0.19587518765E+02  0.51100000000E-03 0.  1.
        -12    1    3    3    0    0 -0.10818499631E+02  0.24971197763E+02  0.31084145084E+02  0.41313735338E+02  0.00000000000E+00 0.  1.
</event>
<event>
 7    1  0.3027254E-013  0.7246155E+02  0.7816164E-02  0.1226708E+00
        -11   -1    0    0    0    0  0.00000000000E+00  0.00000000000E+00  0.45593999997E+02  0.45594000000E+02  0.51100000000E-03 0. -1.
         11   -1    0    0    0    0 -0.00000000000E+00 -0.00000000000E+00 -0.45593999997E+02  0.45594000000E+02  0.51100000000E-03 0.  1.
    9900012    2    1    2    0    0 -0.50535522204E+00  0.17283406600E+02 -0.71908466876E+01  0.72461553362E+02  0.69999977942E+02 0.  0.
         12    1    1    2    0    0  0.50535522204E+00 -0.17283406600E+02  0.71908466876E+01  0.18726446638E+02  0.00000000000E+00 0. -1.
         11    1    3    3    0    0  0.16170494511E+02 -0.56749662473E+01 -0.55766884199E+01  0.18021919671E+02  0.51100000000E-03 0.  1.
        -11    1    3    3    0    0  0.11079650793E+02  0.13890066527E+02 -0.14100120733E+02  0.22682725030E+02  0.51100000000E-03 0. -1.
         12    1    3    3    0    0 -0.27755500526E+02  0.90683063203E+01  0.12485962466E+02  0.31756908660E+02  0.00000000000E+00 0. -1.
</event>
<event>
 7    1  0.3027254E-013  0.7246157E+02  0.7816164E-02  0.1226708E+00
        -11   -1    0    0    0    0  0.00000000000E+00  0.00000000000E+00  0.45593999997E+02  0.45594000000E+02  0.51100000000E-03 0.  1.
         11   -1    0    0    0    0 -0.00000000000E+00 -0.00000000000E+00 -0.45593999997E+02  0.45594000000E+02  0.51100000000E-03 0. -1.
    9900012    2    1    2    0    0 -0.12403014771E+02 -0.76220884120E+01  0.11779139810E+02  0.72461571033E+02  0.70000000962E+02 0.  0.
         12    1    1    2    0    0  0.12403014771E+02  0.76220884120E+01 -0.11779139810E+02  0.18726428967E+02  0.00000000000E+00 0. -1.
         11    1    3    3    0    0 -0.43217700779E+01 -0.26437888903E+01  0.14771422302E+02  0.15616088927E+02  0.51100000000E-03 0.  1.
        -11    1    3    3    0    0 -0.20968064565E+02  0.17432537394E+02 -0.11550888138E+02  0.29613782410E+02  0.51100000000E-03 0. -1.
         12    1    3    3    0    0  0.12886819872E+02 -0.22410836916E+02  0.85586056465E+01  0.27231699695E+02  0.00000000000E+00 0. -1.
</event>
<event>
 7    1  0.3027254E-013  0.7246162E+02  0.7816164E-02  0.1226708E+00
        -11   -1    0    0    0    0  0.00000000000E+00  0.00000000000E+00  0.45593999997E+02  0.45594000000E+02  0.51100000000E-03 0.  1.
         11   -1    0    0    0    0 -0.00000000000E+00 -0.00000000000E+00 -0.45593999997E+02  0.45594000000E+02  0.51100000000E-03 0. -1.
    9900012    2    1    2    0    0 -0.15031956864E+02 -0.10575875239E+02  0.35872639072E+01  0.72461619502E+02  0.70000064102E+02 0.  0.
         12    1    1    2    0    0  0.15031956864E+02  0.10575875239E+02 -0.35872639072E+01  0.18726380498E+02  0.00000000000E+00 0. -1.
         11    1    3    3    0    0 -0.13421845698E+02  0.63339620384E+01 -0.53253541379E+01  0.15767828449E+02  0.51100000000E-03 0. -1.
        -11    1    3    3    0    0  0.26114310240E+01 -0.22370887871E+02  0.28268525158E+02  0.36143958153E+02  0.51100000000E-03 0.  1.
         12    1    3    3    0    0 -0.42215421902E+01  0.54610505939E+01 -0.19355907113E+02  0.20549832900E+02  0.00000000000E+00 0. -1.
</event>
<event>
 7    1  0.3027254E-013  0.7246176E+02  0.7816164E-02  0.1226708E+00
        -11   -1    0    0    0    0  0.00000000000E+00  0.00000000000E+00  0.45593999997E+02  0.45594000000E+02  0.51100000000E-03 0. -1.
         11   -1    0    0    0    0 -0.00000000000E+00 -0.00000000000E+00 -0.45593999997E+02  0.45594000000E+02  0.51100000000E-03 0.  1.
    9900012    2    1    2    0    0  0.10158575980E+02 -0.11201691097E+02 -0.11045243851E+02  0.72461762761E+02  0.70000250724E+02 0.  0.
         12    1    1    2    0    0 -0.10158575980E+02  0.11201691097E+02  0.11045243851E+02  0.18726237239E+02  0.00000000000E+00 0. -1.
         11    1    3    3    0    0 -0.39347603872E+00  0.18353326161E+02 -0.23721245169E+01  0.18510169625E+02  0.51100000000E-03 0. -1.
        -11    1    3    3    0    0 -0.60691451016E+01  0.48256062751E+01 -0.13390832105E+02  0.15473699716E+02  0.51100000000E-03 0.  1.
        -12    1    3    3    0    0  0.16621197120E+02 -0.34380623534E+02  0.47177127706E+01  0.38477893420E+02  0.00000000000E+00 0.  1.
</event>
<event>
 7    1  0.3027254E-013  0.7246157E+02  0.7816164E-02  0.1226708E+00
        -11   -1    0    0    0    0  0.00000000000E+00  0.00000000000E+00  0.45593999997E+02  0.45594000000E+02  0.51100000000E-03 0. -1.
         11   -1    0    0    0    0 -0.00000000000E+00 -0.00000000000E+00 -0.45593999997E+02  0.45594000000E+02  0.51100000000E-03 0.  1.
    9900012    2    1    2    0    0 -0.30588140393E+01  0.15222626969E+02 -0.10468743922E+02  0.72461566425E+02  0.69999994959E+02 0.  0.
         12    1    1    2    0    0  0.30588140393E+01 -0.15222626969E+02  0.10468743922E+02  0.18726433575E+02  0.00000000000E+00 0. -1.
         11    1    3    3    0    0  0.12036107045E+02  0.22504478672E+02  0.51254574935E+01  0.26030554122E+02  0.51100000000E-03 0. -1.
        -11    1    3    3    0    0  0.99187687620E+01  0.66367940641E+01 -0.13063169345E+02  0.17693936894E+02  0.51100000000E-03 0.  1.
        -12    1    3    3    0    0 -0.25013689846E+02 -0.13918645767E+02 -0.25310320703E+01  0.28737075409E+02  0.00000000000E+00 0.  1.
</event>
<event>
 7    1  0.3027254E-013  0.7246160E+02  0.7816164E-02  0.1226708E+00
        -11   -1    0    0    0    0  0.00000000000E+00  0.00000000000E+00  0.45593999997E+02  0.45594000000E+02  0.51100000000E-03 0. -1.
         11   -1    0    0    0    0 -0.00000000000E+00 -0.00000000000E+00 -0.45593999997E+02  0.45594000000E+02  0.51100000000E-03 0.  1.
    9900012    2    1    2    0    0  0.67315893597E+01  0.43757452007E+01 -0.16917935235E+02  0.72461602216E+02  0.70000041584E+02 0.  0.
         12    1    1    2    0    0 -0.67315893597E+01 -0.43757452007E+01  0.16917935235E+02  0.18726397784E+02  0.00000000000E+00 0. -1.
         11    1    3    3    0    0  0.16588230060E+02 -0.12946979231E+02 -0.14971740277E+02  0.25825310354E+02  0.51100000000E-03 0. -1.
        -11    1    3    3    0    0  0.21320256894E+01 -0.13371083975E+02 -0.19815075351E+01  0.13684216915E+02  0.51100000000E-03 0.  1.
        -12    1    3    3    0    0 -0.11988666390E+02  0.30693808406E+02  0.35312577421E-01  0.32952074946E+02  0.00000000000E+00 0.  1.
</event>
<event>
 7    1  0.3027254E-013  0.7246156E+02  0.7816164E-02  0.1226708E+00
        -11   -1    0    0    0    0  0.00000000000E+00  0.00000000000E+00  0.45593999997E+02  0.45594000000E+02  0.51100000000E-03 0.  1.
         11   -1    0    0    0    0 -0.00000000000E+00 -0.00000000000E+00 -0.45593999997E+02  0.45594000000E+02  0.51100000000E-03 0. -1.
    9900012    2    1    2    0    0  0.72677067499E+01  0.98431331547E+01  0.14176487565E+02  0.72461557962E+02  0.69999983935E+02 0.  0.
         12    1    1    2    0    0 -0.72677067499E+01 -0.98431331547E+01 -0.14176487565E+02  0.18726442038E+02  0.00000000000E+00 0. -1.
         11    1    3    3    0    0  0.10933042103E+02  0.34476739079E+01  0.65919586317E+01  0.13223909553E+02  0.51100000000E-03 0. -1.
        -11    1    3    3    0    0  0.73059177465E+01  0.30059942448E+02  0.11208685423E+02  0.32903057659E+02  0.51100000000E-03 0.  1.
         12    1    3    3    0    0 -0.10971253099E+02 -0.23664483201E+02 -0.36241564894E+01  0.26334590751E+02  0.00000000000E+00 0. -1.
</event>
<event>
 7    1  0.3027254E-013  0.7246165E+02  0.7816164E-02  0.1226708E+00
        -11   -1    0    0    0    0  0.00000000000E+00  0.00000000000E+00  0.45593999997E+02  0.45594000000E+02  0.51100000000E-03 0.  1.
         11   -1    0    0    0    0 -0.00000000000E+00 -0.00000000000E+00 -0.45593999997E+02  0.45594000000E+02  0.51100000000E-03 0. -1.
    9900012    2    1    2    0    0 -0.39556682948E+00  0.98299250794E+01  0.15934003300E+02  0.72461645273E+02  0.70000097674E+02 0.  0.
         12    1    1    2    0    0  0.39556682948E+00 -0.98299250794E+01 -0.15934003300E+02  0.18726354727E+02  0.00000000000E+00 0. -1.
         11    1    3    3    0    0  0.15175351091E+02  0.15776031285E+02 -0.11596849586E+02  0.24772189334E+02  0.51100000000E-03 0.  1.
        -11    1    3    3    0    0 -0.92444465806E+00 -0.50057719069E+01 -0.78666173443E+01  0.93699529888E+01  0.51100000000E-03 0. -1.
        -12    1    3    3    0    0 -0.14646473262E+02 -0.94033429911E+00  0.35397470230E+02  0.38319502950E+02  0.00000000000E+00 0.  1.
</event>
<event>
 7    1  0.3027254E-013  0.7246155E+02  0.7816164E-02  0.1226708E+00
        -11   -1    0    0    0    0  0.00000000000E+00  0.00000000000E+00  0.45593999997E+02  0.45594000000E+02  0.51100000000E-03 0. -1.
         11   -1    0    0    0    0 -0.00000000000E+00 -0.00000000000E+00 -0.45593999997E+02  0.45594000000E+02  0.51100000000E-03 0.  1.
    9900012    2    1    2    0    0 -0.15575480082E+02  0.40372688351E+01 -0.95804348065E+01  0.72461552112E+02  0.69999976314E+02 0.  0.
         12    1    1    2    0    0  0.15575480082E+02 -0.40372688351E+01  0.95804348065E+01  0.18726447888E+02  0.00000000000E+00 0. -1.
         11    1    3    3    0    0 -0.28440314914E+02 -0.72153142987E+01 -0.18764692455E+02  0.34828522163E+02  0.51100000000E-03 0.  1.
        -11    1    3    3    0    0 -0.29872588682E+01  0.11261170075E+02  0.16480202376E+02  0.20182535461E+02  0.51100000000E-03 0. -1.
        -12    1    3    3    0    0  0.15852093700E+02 -0.85869409405E-02 -0.72959447272E+01  0.17450494488E+02  0.00000000000E+00 0.  1.
</event>
<event>
 7    1  0.3027254E-013  0.7246157E+02  0.7816164E-02  0.1226708E+00
        -11   -1    0    0    0    0  0.00000000000E+00  0.00000000000E+00  0.45593999997E+02  0.45594000000E+02  0.51100000000E-03 0. -1.
         11   -1    0    0    0    0 -0.00000000000E+00 -0.00000000000E+00 -0.45593999997E+02  0.45594000000E+02  0.51100000000E-03 0.  1.
    9900012    2    1    2    0    0 -0.62831381662E+01  0.15748022831E+02 -0.79499067289E+01  0.72461573077E+02  0.70000003625E+02 0.  0.
         12    1    1    2    0    0  0.62831381662E+01 -0.15748022831E+02  0.79499067289E+01  0.18726426923E+02  0.00000000000E+00 0. -1.
         11    1    3    3    0    0 -0.11712834499E+02 -0.12153403941E+02  0.87177850075E+01  0.18997249671E+02  0.51100000000E-03 0. -1.
        -11    1    3    3    0    0  0.72769751360E+01  0.12193707842E+02  0.13378533773E+02  0.19509639778E+02  0.51100000000E-03 0.  1.
        -12    1    3    3    0    0 -0.18472788037E+01  0.15707718930E+02 -0.30046225510E+02  0.33954683629E+02  0.00000000000E+00 0.  1.
</event>
<event>
 7    1  0.3027254E-013  0.7246157E+02  0.7816164E-02  0.1226708E+00
        -11   -1    0    0    0    0  0.00000000000E+00  0.00000000000E+00  0.45593999997E+02  0.45594000000E+02  0.51100000000E-03 0. -1.
         11   -1    0    0    0    0 -0.00000000000E+00 -0.00000000000E+00 -0.45593999997E+02  0.45594000000E+02  0.51100000000E-03 0.  1.
    9900012    2    1    2    0    0 -0.13718841760E+01  0.17844377304E+02 -0.55113668050E+01  0.72461573977E+02  0.70000004797E+02 0.  0.
         12    1    1    2    0    0  0.13718841760E+01 -0.17844377304E+02  0.55113668050E+01  0.18726426023E+02  0.00000000000E+00 0. -1.
         11    1    3    3    0    0  0.28126430656E+02  0.42375406998E+01 -0.43896143625E+01  0.28780576212E+02  0.51100000000E-03 0. -1.
        -11    1    3    3    0    0 -0.64216220227E+00 -0.53513387129E+01 -0.68143695927E+01  0.86882007067E+01  0.51100000000E-03 0.  1.
         12    1    3    3    0    0 -0.28856152629E+02  0.18958175317E+02  0.56926171501E+01  0.34992797058E+02  0.00000000000E+00 0. -1.
</event>
<event>
 7    1  0.3027254E-013  0.7246185E+02  0.7816164E-02  0.1226707E+00
        -11   -1    0    0    0    0  0.00000000000E+00  0.00000000000E+00  0.45593999997E+02  0.45594000000E+02  0.51100000000E-03 0.  1.
         11   -1    0    0    0    0 -0.00000000000E+00 -0.00000000000E+00 -0.45593999997E+02  0.45594000000E+02  0.51100000000E-03 0. -1.
    9900012    2    1    2    0    0  0.18547173828E+02 -0.62512687093E+00  0.25060458347E+01  0.72461849666E+02  0.70000363933E+02 0.  0.
         12    1    1    2    0    0 -0.18547173828E+02  0.62512687093E+00 -0.25060458347E+01  0.18726150334E+02  0.00000000000E+00 0. -1.
         11    1    3    3    0    0 -0.37459644037E+01  0.14486122722E+01 -0.42292256025E+01  0.58324159905E+01  0.51100000000E-03 0. -1.
        -11    1    3    3    0    0  0.29351587504E+02  0.19830593164E+02 -0.11526233810E+02  0.37250801069E+02  0.51100000000E-03 0.  1.
        -12    1    3    3    0    0 -0.70584492723E+01 -0.21904332307E+02  0.18261505247E+02  0.29378632606E+02  0.00000000000E+00 0.  1.
</event>
<event>
 7    1  0.3027254E-013  0.7246152E+02  0.7816164E-02  0.1226708E+00
        -11   -1    0    0    0    0  0.00000000000E+00  0.00000000000E+00  0.45593999997E+02  0.45594000000E+02  0.51100000000E-03 0. -1.
         11   -1    0    0    0    0 -0.00000000000E+00 -0.00000000000E+00 -0.45593999997E+02  0.45594000000E+02  0.51100000000E-03 0.  1.
    9900012    2    1    2    0    0 -0.11115813922E+02 -0.13845230943E+02  0.59522513143E+01  0.72461520493E+02  0.69999935125E+02 0.  0.
         12    1    1    2    0    0  0.11115813922E+02  0.13845230943E+02 -0.59522513143E+01  0.18726479507E+02  0.00000000000E+00 0. -1.
         11    1    3    3    0    0 -0.12391601254E+02 -0.87171281008E+01  0.14071898986E+02  0.20677486435E+02  0.51100000000E-03 0. -1.
        -11    1    3    3    0    0  0.10914082597E+00 -0.21400874919E+02  0.13043259897E+02  0.25062641282E+02  0.51100000000E-03 0.  1.
         12    1    3    3    0    0  0.11666465065E+01  0.16272772077E+02 -0.21162907569E+02  0.26721392776E+02  0.00000000000E+00 0. -1.
</event>
<event>
 7    1  0.3027254E-013  0.7246173E+02  0.7816164E-02  0.1226708E+00
        -11   -1    0    0    0    0  0.00000000000E+00  0.00000000000E+00  0.45593999997E+02  0.45594000000E+02  0.51100000000E-03 0. -1.
         11   -1    0    0    0    0 -0.00000000000E+00 -0.00000000000E+00 -0.45593999997E+02  0.45594000000E+02  0.51100000000E-03 0.  1.
    9900012    2    1    2    0    0 -0.16697002197E+02 -0.50157551614E+01 -0.68356190279E+01  0.72461725152E+02  0.70000201730E+02 0.  0.
         12    1    1    2    0    0  0.16697002197E+02  0.50157551614E+01  0.68356190279E+01  0.18726274848E+02  0.00000000000E+00 0. -1.
         11    1    3    3    0    0 -0.12444595532E+02 -0.15858998192E+02 -0.12011272138E+02  0.23465856904E+02  0.51100000000E-03 0. -1.
        -11    1    3    3    0    0 -0.41677829891E+01 -0.16287410099E+02 -0.82473304895E+01  0.18726147582E+02  0.51100000000E-03 0.  1.
         12    1    3    3    0    0 -0.84623675928E-01  0.27130653130E+02  0.13422983600E+02  0.30269720666E+02  0.00000000000E+00 0. -1.
</event>
<event>
 7    1  0.3027254E-013  0.7246162E+02  0.7816164E-02  0.1226708E+00
        -11   -1    0    0    0    0  0.00000000000E+00  0.00000000000E+00  0.45593999997E+02  0.45594000000E+02  0.51100000000E-03 0.  1.
         11   -1    0    0    0    0 -0.00000000000E+00 -0.00000000000E+00 -0.45593999997E+02  0.45594000000E+02  0.51100000000E-03 0. -1.
    9900012    2    1    2    0    0 -0.12199698241E+02  0.68110965732E+01  0.12468108080E+02  0.72461617733E+02  0.70000061798E+02 0.  0.
         12    1    1    2    0    0  0.12199698241E+02 -0.68110965732E+01 -0.12468108080E+02  0.18726382267E+02  0.00000000000E+00 0. -1.
         11    1    3    3    0    0 -0.97144014179E+01  0.16303735757E+02  0.48899171337E+01  0.19598282690E+02  0.51100000000E-03 0. -1.
        -11    1    3    3    0    0  0.23070515855E+02 -0.32369376393E+01  0.11965551411E+02  0.26189709581E+02  0.51100000000E-03 0.  1.
         12    1    3    3    0    0 -0.25555812679E+02 -0.62557015450E+01 -0.43873604644E+01  0.26673625463E+02  0.00000000000E+00 0. -1.
</event>
<event>
 7    1  0.3027254E-013  0.7246163E+02  0.7816164E-02  0.1226708E+00
        -11   -1    0    0    0    0  0.00000000000E+00  0.00000000000E+00  0.45593999997E+02  0.45594000000E+02  0.51100000000E-03 0.  1.
         11   -1    0    0    0    0 -0.00000000000E+00 -0.00000000000E+00 -0.45593999997E+02  0.45594000000E+02  0.51100000000E-03 0. -1.
    9900012    2    1    2    0    0 -0.13148055671E+02  0.13119863805E+02  0.23821359973E+01  0.72461634466E+02  0.70000083596E+02 0.  0.
         12    1    1    2    0    0  0.13148055671E+02 -0.13119863805E+02 -0.23821359973E+01  0.18726365534E+02  0.00000000000E+00 0. -1.
         11    1    3    3    0    0  0.61722419123E+01  0.10200060029E+02  0.11698492446E+01  0.11979413272E+02  0.51100000000E-03 0. -1.
        -11    1    3    3    0    0 -0.58957651994E+01  0.16458034827E+02  0.24680881451E+02  0.30245212301E+02  0.51100000000E-03 0.  1.
         12    1    3    3    0    0 -0.13424532384E+02 -0.13538231051E+02 -0.23468594699E+02  0.30237008894E+02  0.00000000000E+00 0. -1.
</event>
<event>
 7    1  0.3027254E-013  0.7246158E+02  0.7816164E-02  0.1226708E+00
        -11   -1    0    0    0    0  0.00000000000E+00  0.00000000000E+00  0.45593999997E+02  0.45594000000E+02  0.51100000000E-03 0.  1.
         11   -1    0    0    0    0 -0.00000000000E+00 -0.00000000000E+00 -0.45593999997E+02  0.45594000000E+02  0.51100000000E-03 0. -1.
    9900012    2    1    2    0    0 -0.14322834776E+01 -0.57714879052E+01  0.17757171731E+02  0.72461583993E+02  0.70000017845E+02 0.  0.
         12    1    1    2    0    0  0.14322834776E+01  0.57714879052E+01 -0.17757171731E+02  0.18726416007E+02  0.00000000000E+00 0. -1.
         11    1    3    3    0    0 -0.11666954846E+02 -0.63603285263E+01  0.16529617507E+01  0.13390440513E+02  0.51100000000E-03 0. -1.
        -11    1    3    3    0    0  0.17493320005E+02 -0.12909007116E+02  0.30891281608E+02  0.37774726858E+02  0.51100000000E-03 0.  1.
         12    1    3    3    0    0 -0.72586486370E+01  0.13497847738E+02 -0.14787071628E+02  0.21296416622E+02  0.00000000000E+00 0. -1.
</event>
<event>
 7    1  0.3027254E-013  0.7246163E+02  0.7816164E-02  0.1226708E+00
        -11   -1    0    0    0    0  0.00000000000E+00  0.00000000000E+00  0.45593999997E+02  0.45594000000E+02  0.51100000000E-03 0.  1.
         11   -1    0    0    0    0 -0.00000000000E+00 -0.00000000000E+00 -0.45593999997E+02  0.45594000000E+02  0.51100000000E-03 0. -1.
    9900012    2    1    2    0    0  0.18091769884E+02 -0.32523531987E+01 -0.35758852559E+01  0.72461631046E+02  0.70000079140E+02 0.  0.
         12    1    1    2    0    0 -0.18091769884E+02  0.32523531987E+01  0.35758852559E+01  0.18726368954E+02  0.00000000000E+00 0. -1.
         11    1    3    3    0    0 -0.48532920538E+01  0.12588991141E+02 -0.11258574344E+02  0.17572496641E+02  0.51100000000E-03 0. -1.
        -11    1    3    3    0    0 -0.14344489240E+02 -0.70677928510E+01  0.11939477679E+01  0.16035697019E+02  0.51100000000E-03 0.  1.
        -12    1    3    3    0    0  0.37289551178E+02 -0.87735514882E+01  0.64887413198E+01  0.38853437385E+02  0.00000000000E+00 0.  1.
</event>
<event>
 7    1  0.3027254E-013  0.7246158E+02  0.7816164E-02  0.1226708E+00
        -11   -1    0    0    0    0  0.00000000000E+00  0.00000000000E+00  0.45593999997E+02  0.45594000000E+02  0.51100000000E-03 0. -1.
         11   -1    0    0    0    0 -0.00000000000E+00 -0.00000000000E+00 -0.45593999997E+02  0.45594000000E+02  0.51100000000E-03 0.  1.
    9900012    2    1    2    0    0  0.23854664834E+01 -0.10198088253E+02 -0.15523771910E+02  0.72461576191E+02  0.70000007681E+02 0.  0.
         12    1    1    2    0    0 -0.23854664834E+01  0.10198088253E+02  0.15523771910E+02  0.18726423809E+02  0.00000000000E+00 0. -1.
         11    1    3    3    0    0  0.44363915128E+01 -0.72665035346E+01  0.15745708120E+02  0.17900027032E+02  0.51100000000E-03 0. -1.
        -11    1    3    3    0    0  0.15918501606E+02 -0.60039377424E+01  0.14827226859E+01  0.17077600201E+02  0.51100000000E-03 0.  1.
         12    1    3    3    0    0 -0.17969426635E+02  0.30723530243E+01 -0.32752202717E+02  0.37483948958E+02  0.00000000000E+00 0. -1.
</event>
<event>
 7    1  0.3027254E-013  0.7246156E+02  0.7816164E-02  0.1226708E+00
        -11   -1    0    0    0    0  0.00000000000E+00  0.00000000000E+00  0.45593999997E+02  0.45594000000E+02  0.51100000000E-03 0.  1.
         11   -1    0    0    0    0 -0.00000000000E+00 -0.00000000000E+00 -0.45593999997E+02  0.45594000000E+02  0.51100000000E-03 0. -1.
    9900012    2    1    2    0    0 -0.86735077489E+01 -0.11114793630E+02  0.12325227518E+02  0.72461558601E+02  0.69999984767E+02 0.  0.
         12    1    1    2    0    0  0.86735077489E+01  0.11114793630E+02 -0.12325227518E+02  0.18726441399E+02  0.00000000000E+00 0. -1.
         11    1    3    3    0    0 -0.20517097432E+01  0.13021691066E+02 -0.28478714708E+01  0.13486449616E+02  0.51100000000E-03 0. -1.
        -11    1    3    3    0    0 -0.79345988577E+01 -0.21508385107E+02  0.33401177922E+02  0.40511815261E+02  0.51100000000E-03 0.  1.
         12    1    3    3    0    0  0.13128008521E+01 -0.26280995888E+01 -0.18228078933E+02  0.18463293723E+02  0.00000000000E+00 0. -1.
</event>
<event>
 7    1  0.3027254E-013  0.7246178E+02  0.7816164E-02  0.1226707E+00
        -11   -1    0    0    0    0  0.00000000000E+00  0.00000000000E+00  0.45593999997E+02  0.45594000000E+02  0.51100000000E-03 0.  1.
         11   -1    0    0    0    0 -0.00000000000E+00 -0.00000000000E+00 -0.45593999997E+02  0.45594000000E+02  0.51100000000E-03 0. -1.
    9900012    2    1    2    0    0 -0.77071450701E+01 -0.17066368663E+02 -0.10143578104E+00  0.72461780048E+02  0.70000273242E+02 0.  0.
         12    1    1    2    0    0  0.77071450701E+01  0.17066368663E+02  0.10143578104E+00  0.18726219952E+02  0.00000000000E+00 0. -1.
         11    1    3    3    0    0 -0.20778958276E+02  0.72759212929E+01  0.13757949901E+02  0.25961227310E+02  0.51100000000E-03 0. -1.
        -11    1    3    3    0    0  0.57735819274E+00 -0.36012692038E+01  0.11125241710E+02  0.11707838645E+02  0.51100000000E-03 0.  1.
        -12    1    3    3    0    0  0.12494455014E+02 -0.20741020752E+02 -0.24984627393E+02  0.34792714092E+02  0.00000000000E+00 0.  1.
</event>
<event>
 7    1  0.3027254E-013  0.7246154E+02  0.7816164E-02  0.1226708E+00
        -11   -1    0    0    0    0  0.00000000000E+00  0.00000000000E+00  0.45593999997E+02  0.45594000000E+02  0.51100000000E-03 0. -1.
         11   -1    0    0    0    0 -0.00000000000E+00 -0.00000000000E+00 -0.45593999997E+02  0.45594000000E+02  0.51100000000E-03 0.  1.
    9900012    2    1    2    0    0 -0.82041157920E+01  0.29939381171E+01 -0.16565300284E+02  0.72461538645E+02  0.69999958771E+02 0.  0.
         12    1    1    2    0    0  0.82041157920E+01 -0.29939381171E+01  0.16565300284E+02  0.18726461355E+02  0.00000000000E+00 0. -1.
         11    1    3    3    0    0 -0.11166246296E+02 -0.96403493753E-01 -0.28473024376E+01  0.11523952508E+02  0.51100000000E-03 0. -1.
        -11    1    3    3    0    0 -0.11384265734E+02 -0.23459365279E+02 -0.16133404253E+02  0.30663171047E+02  0.51100000000E-03 0.  1.
        -12    1    3    3    0    0  0.14346396238E+02  0.26549706890E+02  0.24154064067E+01  0.30274415090E+02  0.00000000000E+00 0.  1.
</event>
<event>
 7    1  0.3027254E-013  0.7246156E+02  0.7816164E-02  0.1226708E+00
        -11   -1    0    0    0    0  0.00000000000E+00  0.00000000000E+00  0.45593999997E+02  0.45594000000E+02  0.51100000000E-03 0.  1.
         11   -1    0    0    0    0 -0.00000000000E+00 -0.00000000000E+00 -0.45593999997E+02  0.45594000000E+02  0.51100000000E-03 0. -1.
    9900012    2    1    2    0    0  0.85179094952E+00  0.87163625698E+01  0.16552316646E+02  0.72461555847E+02  0.69999981179E+02 0.  0.
         12    1    1    2    0    0 -0.85179094952E+00 -0.87163625698E+01 -0.16552316646E+02  0.18726444153E+02  0.00000000000E+00 0. -1.
         11    1    3    3    0    0  0.39310093599E+01 -0.12200522013E+02 -0.11048647997E+02  0.16922712395E+02  0.51100000000E-03 0. -1.
        -11    1    3    3    0    0 -0.11514981035E+02 -0.10525373595E+02  0.78896786304E+01  0.17482142509E+02  0.51100000000E-03 0.  1.
         12    1    3    3    0    0  0.84357626251E+01  0.31442258178E+02  0.19711286013E+02  0.38056700943E+02  0.00000000000E+00 0. -1.
</event>
<event>
 7    1  0.3027254E-013  0.7246146E+02  0.7816164E-02  0.1226708E+00
        -11   -1    0    0    0    0  0.00000000000E+00  0.00000000000E+00  0.45593999997E+02  0.45594000000E+02  0.51100000000E-03 0.  1.
         11   -1    0    0    0    0 -0.00000000000E+00 -0.00000000000E+00 -0.45593999997E+02  0.45594000000E+02  0.51100000000E-03 0. -1.
    9900012    2    1    2    0    0  0.82863707173E+01  0.12656373158E+01  0.16745666787E+02  0.72461464452E+02  0.69999862121E+02 0.  0.
         12    1    1    2    0    0 -0.82863707173E+01 -0.12656373158E+01 -0.16745666787E+02  0.18726535548E+02  0.00000000000E+00 0. -1.
         11    1    3    3    0    0  0.11711481588E+02  0.20936220103E+02 -0.26522116377E+01  0.24135416716E+02  0.51100000000E-03 0. -1.
        -11    1    3    3    0    0  0.63294602303E+01 -0.11560035661E+02  0.29368935488E+02  0.32190539965E+02  0.51100000000E-03 0.  1.
        -12    1    3    3    0    0 -0.97545711015E+01 -0.81105471270E+01 -0.99710570634E+01  0.16135507771E+02  0.00000000000E+00 0.  1.
</event>
<event>
 7    1  0.3027254E-013  0.7246155E+02  0.7816164E-02  0.1226708E+00
        -11   -1    0    0    0    0  0.00000000000E+00  0.00000000000E+00  0.45593999997E+02  0.45594000000E+02  0.51100000000E-03 0.  1.
         11   -1    0    0    0    0 -0.00000000000E+00 -0.00000000000E+00 -0.45593999997E+02  0.45594000000E+02  0.51100000000E-03 0. -1.
    9900012    2    1    2    0    0  0.13696971463E+02  0.12635551245E+02  0.18481249760E+01  0.72461554837E+02  0.69999979864E+02 0.  0.
         12    1    1    2    0    0 -0.13696971463E+02 -0.12635551245E+02 -0.18481249760E+01  0.18726445163E+02  0.00000000000E+00 0. -1.
         11    1    3    3    0    0 -0.10644113952E+02  0.89925679562E+01 -0.12873045886E+02  0.18970470498E+02  0.51100000000E-03 0. -1.
        -11    1    3    3    0    0 -0.18298321887E+01  0.18988692569E+02 -0.14140616341E+01  0.19128991136E+02  0.51100000000E-03 0.  1.
        -12    1    3    3    0    0  0.26170917604E+02 -0.15345709281E+02  0.16135232496E+02  0.34362093203E+02  0.00000000000E+00 0.  1.
</event>
<event>
 7    1  0.3027254E-013  0.7246143E+02  0.7816164E-02  0.1226708E+00
        -11   -1    0    0    0    0  0.00000000000E+00  0.00000000000E+00  0.45593999997E+02  0.45594000000E+02  0.51100000000E-03 0. -1.
         11   -1    0    0    0    0 -0.00000000000E+00 -0.00000000000E+00 -0.45593999997E+02  0.45594000000E+02  0.51100000000E-03 0.  1.
    9900012    2    1    2    0    0 -0.18951737646E+01 -0.17874511231E+02 -0.52530625119E+01  0.72461427940E+02  0.69999814557E+02 0.  0.
         12    1    1    2    0    0  0.18951737646E+01  0.17874511231E+02  0.52530625119E+01  0.18726572060E+02  0.00000000000E+00 0. -1.
         11    1    3    3    0    0  0.79164917078E+00 -0.33689711906E+01  0.20140212097E+01  0.40041175042E+01  0.51100000000E-03 0. -1.
        -11    1    3    3    0    0 -0.27190196426E+02 -0.93673247732E+01 -0.24732591852E+02  0.37930919513E+02  0.51100000000E-03 0.  1.
         12    1    3    3    0    0  0.24503373491E+02 -0.51382152675E+01  0.17465508130E+02  0.30526390923E+02  0.00000000000E+00 0. -1.
</event>
<event>
 7    1  0.3027254E-013  0.7246156E+02  0.7816164E-02  0.1226708E+00
        -11   -1    0    0    0    0  0.00000000000E+00  0.00000000000E+00  0.45593999997E+02  0.45594000000E+02  0.51100000000E-03 0.  1.
         11   -1    0    0    0    0 -0.00000000000E+00 -0.00000000000E+00 -0.45593999997E+02  0.45594000000E+02  0.51100000000E-03 0. -1.
    9900012    2    1    2    0    0  0.11436172135E+01 -0.14217051151E+02  0.12134541207E+02  0.72461561629E+02  0.69999988712E+02 0.  0.
         12    1    1    2    0    0 -0.11436172135E+01  0.14217051151E+02 -0.12134541207E+02  0.18726438371E+02  0.00000000000E+00 0. -1.
         11    1    3    3    0    0  0.16060265484E+00 -0.17978079589E+02  0.40665864778E+00  0.17983395409E+02  0.51100000000E-03 0. -1.
        -11    1    3    3    0    0  0.14394624425E+02 -0.13991252599E+02 -0.10817560372E+02  0.22803069406E+02  0.51100000000E-03 0.  1.
        -12    1    3    3    0    0 -0.13411609867E+02  0.17752281037E+02  0.22545442932E+02  0.31675096815E+02  0.00000000000E+00 0.  1.
</event>
<event>
 7    1  0.3027254E-013  0.7246149E+02  0.7816164E-02  0.1226708E+00
        -11   -1    0    0    0    0  0.00000000000E+00  0.00000000000E+00  0.45593999997E+02  0.45594000000E+02  0.51100000000E-03 0.  1.
         11   -1    0    0    0    0 -0.00000000000E+00 -0.00000000000E+00 -0.45593999997E+02  0.45594000000E+02  0.51100000000E-03 0. -1.
    9900012    2    1    2    0    0 -0.13612914096E+02  0.12291254917E+02  0.37809596974E+01  0.72461493816E+02  0.69999900373E+02 0.  0.
         12    1    1    2    0    0  0.13612914096E+02 -0.12291254917E+02 -0.37809596974E+01  0.18726506184E+02  0.00000000000E+00 0. -1.
         11    1    3    3    0    0  0.62936548369E+00 -0.24953792638E+02 -0.18710279402E+01  0.25031752111E+02  0.51100000000E-03 0. -1.
        -11    1    3    3    0    0 -0.10983262103E+01 -0.13200270303E+01 -0.50251956877E+01  0.53104975083E+01  0.51100000000E-03 0.  1.
        -12    1    3    3    0    0 -0.13143953369E+02  0.38565074585E+02  0.10677183325E+02  0.42119244197E+02  0.00000000000E+00 0.  1.
</event>
<event>
 7    1  0.3027254E-013  0.7246155E+02  0.7816164E-02  0.1226708E+00
        -11   -1    0    0    0    0  0.00000000000E+00  0.00000000000E+00  0.45593999997E+02  0.45594000000E+02  0.51100000000E-03 0.  1.
         11   -1    0    0    0    0 -0.00000000000E+00 -0.00000000000E+00 -0.45593999997E+02  0.45594000000E+02  0.51100000000E-03 0. -1.
    9900012    2    1    2    0    0 -0.18920258726E+01  0.18615608976E+02 -0.74794110195E+00  0.72461546109E+02  0.69999968494E+02 0.  0.
         12    1    1    2    0    0  0.18920258726E+01 -0.18615608976E+02  0.74794110195E+00  0.18726453891E+02  0.00000000000E+00 0. -1.
         11    1    3    3    0    0  0.26912712440E+00  0.21452865436E+01  0.98224704615E+01  0.10057614528E+02  0.51100000000E-03 0. -1.
        -11    1    3    3    0    0 -0.28177045308E+01 -0.80910573674E+01  0.20835829925E+02  0.22528570240E+02  0.51100000000E-03 0.  1.
         12    1    3    3    0    0  0.65655153381E+00  0.24561379800E+02 -0.31406241489E+02  0.39875361340E+02  0.00000000000E+00 0. -1.
</event>
<event>
 7    1  0.3027254E-013  0.7246168E+02  0.7816164E-02  0.1226708E+00
        -11   -1    0    0    0    0  0.00000000000E+00  0.00000000000E+00  0.45593999997E+02  0.45594000000E+02  0.51100000000E-03 0.  1.
         11   -1    0    0    0    0 -0.00000000000E+00 -0.00000000000E+00 -0.45593999997E+02  0.45594000000E+02  0.51100000000E-03 0. -1.
    9900012    2    1    2    0    0 -0.12673146586E+01  0.15446963500E+02  0.10510015249E+02  0.72461676593E+02  0.70000138474E+02 0.  0.
         12    1    1    2    0    0  0.12673146586E+01 -0.15446963500E+02 -0.10510015249E+02  0.18726323407E+02  0.00000000000E+00 0. -1.
         11    1    3    3    0    0 -0.11920018517E+02 -0.22226699198E+02  0.39363311189E+01  0.25526607719E+02  0.51100000000E-03 0. -1.
        -11    1    3    3    0    0  0.10982906163E+02  0.35867421492E+01 -0.21405120259E+01  0.11750350591E+02  0.51100000000E-03 0.  1.
         12    1    3    3    0    0 -0.33020230430E+00  0.34086920549E+02  0.87141961557E+01  0.35184718284E+02  0.00000000000E+00 0. -1.
</event>
<event>
 7    1  0.3027254E-013  0.7246157E+02  0.7816164E-02  0.1226708E+00
        -11   -1    0    0    0    0  0.00000000000E+00  0.00000000000E+00  0.45593999997E+02  0.45594000000E+02  0.51100000000E-03 0.  1.
         11   -1    0    0    0    0 -0.00000000000E+00 -0.00000000000E+00 -0.45593999997E+02  0.45594000000E+02  0.51100000000E-03 0. -1.
    9900012    2    1    2    0    0 -0.56282881378E+01 -0.41256762097E+01  0.17377583927E+02  0.72461568020E+02  0.69999997037E+02 0.  0.
         12    1    1    2    0    0  0.56282881378E+01  0.41256762097E+01 -0.17377583927E+02  0.18726431980E+02  0.00000000000E+00 0. -1.
         11    1    3    3    0    0  0.61641263643E+00  0.25645248364E+02 -0.92301945743E+01  0.27262707502E+02  0.51100000000E-03 0. -1.
        -11    1    3    3    0    0  0.49379177157E+01 -0.42762892316E+00  0.21807082240E+01  0.54149225740E+01  0.51100000000E-03 0.  1.
        -12    1    3    3    0    0 -0.11182618490E+02 -0.29343295651E+02  0.24427070278E+02  0.39783937944E+02  0.00000000000E+00 0.  1.
</event>
<event>
 7    1  0.3027254E-013  0.7246153E+02  0.7816164E-02  0.1226708E+00
        -11   -1    0    0    0    0  0.00000000000E+00  0.00000000000E+00  0.45593999997E+02  0.45594000000E+02  0.51100000000E-03 0.  1.
         11   -1    0    0    0    0 -0.00000000000E+00 -0.00000000000E+00 -0.45593999997E+02  0.45594000000E+02  0.51100000000E-03 0. -1.
    9900012    2    1    2    0    0 -0.82143153087E+01  0.12610098073E+02  0.11144111045E+02  0.72461527818E+02  0.69999944666E+02 0.  0.
         12    1    1    2    0    0  0.82143153087E+01 -0.12610098073E+02 -0.11144111045E+02  0.18726472182E+02  0.00000000000E+00 0. -1.
         11    1    3    3    0    0  0.10212832112E+02  0.42410646145E+01 -0.77190106796E+00  0.11085323646E+02  0.51100000000E-03 0. -1.
        -11    1    3    3    0    0  0.56032941468E+01  0.28101490830E+02  0.95005934045E+01  0.30188606583E+02  0.51100000000E-03 0.  1.
         12    1    3    3    0    0 -0.24030441567E+02 -0.19732457371E+02  0.24154187083E+01  0.31187597589E+02  0.00000000000E+00 0. -1.
</event>
<event>
 7    1  0.3027254E-013  0.7246162E+02  0.7816164E-02  0.1226708E+00
        -11   -1    0    0    0    0  0.00000000000E+00  0.00000000000E+00  0.45593999997E+02  0.45594000000E+02  0.51100000000E-03 0.  1.
         11   -1    0    0    0    0 -0.00000000000E+00 -0.00000000000E+00 -0.45593999997E+02  0.45594000000E+02  0.51100000000E-03 0. -1.
    9900012    2    1    2    0    0  0.13079601912E+02  0.12867701909E+02  0.37448196934E+01  0.72461617190E+02  0.70000061090E+02 0.  0.
         12    1    1    2    0    0 -0.13079601912E+02 -0.12867701909E+02 -0.37448196934E+01  0.18726382810E+02  0.00000000000E+00 0. -1.
         11    1    3    3    0    0 -0.19573990646E+01  0.26599311796E+01  0.60859132609E+01  0.69242317595E+01  0.51100000000E-03 0. -1.
        -11    1    3    3    0    0 -0.16157055028E+02  0.17936322872E+02  0.15589352940E+02  0.28736562611E+02  0.51100000000E-03 0.  1.
         12    1    3    3    0    0  0.31194056005E+02 -0.77285521427E+01 -0.17930446508E+02  0.36800822820E+02  0.00000000000E+00 0. -1.
</event>
<event>
 7    1  0.3027254E-013  0.7246160E+02  0.7816164E-02  0.1226708E+00
        -11   -1    0    0    0    0  0.00000000000E+00  0.00000000000E+00  0.45593999997E+02  0.45594000000E+02  0.51100000000E-03 0. -1.
         11   -1    0    0    0    0 -0.00000000000E+00 -0.00000000000E+00 -0.45593999997E+02  0.45594000000E+02  0.51100000000E-03 0.  1.
    9900012    2    1    2    0    0 -0.13271093650E+02  0.94666384162E+00 -0.13178011266E+02  0.72461599384E+02  0.70000037895E+02 0.  0.
         12    1    1    2    0    0  0.13271093650E+02 -0.94666384162E+00  0.13178011266E+02  0.18726400616E+02  0.00000000000E+00 0. -1.
         11    1    3    3    0    0  0.11915916370E+02 -0.44134920018E+01  0.94771589848E+01  0.15851956260E+02  0.51100000000E-03 0. -1.
        -11    1    3    3    0    0  0.61627548046E+01 -0.13723436313E+02 -0.84555240044E+01  0.17257118458E+02  0.51100000000E-03 0.  1.
        -12    1    3    3    0    0 -0.31349764824E+02  0.19083592156E+02 -0.14199646246E+02  0.39352524667E+02  0.00000000000E+00 0.  1.
</event>
<event>
 7    1  0.3027254E-013  0.7246164E+02  0.7816164E-02  0.1226708E+00
        -11   -1    0    0    0    0  0.00000000000E+00  0.00000000000E+00  0.45593999997E+02  0.45594000000E+02  0.51100000000E-03 0.  1.
         11   -1    0    0    0    0 -0.00000000000E+00 -0.00000000000E+00 -0.45593999997E+02  0.45594000000E+02  0.51100000000E-03 0. -1.
    9900012    2    1    2    0    0 -0.11854032941E+02 -0.11347935379E+02 -0.90212387135E+01  0.72461642045E+02  0.70000093469E+02 0.  0.
         12    1    1    2    0    0  0.11854032941E+02  0.11347935379E+02  0.90212387135E+01  0.18726357955E+02  0.00000000000E+00 0. -1.
         11    1    3    3    0    0 -0.20358397117E+02 -0.17211343684E+02 -0.34468651868E+01  0.26880765697E+02  0.51100000000E-03 0. -1.
        -11    1    3    3    0    0 -0.17107201132E+02  0.77223008147E+01 -0.65607571559E+01  0.19883002670E+02  0.51100000000E-03 0.  1.
         12    1    3    3    0    0  0.25611565308E+02 -0.18588925095E+01  0.98638362926E+00  0.25697873678E+02  0.00000000000E+00 0. -1.
</event>
<event>
 7    1  0.3027254E-013  0.7246160E+02  0.7816164E-02  0.1226708E+00
        -11   -1    0    0    0    0  0.00000000000E+00  0.00000000000E+00  0.45593999997E+02  0.45594000000E+02  0.51100000000E-03 0. -1.
         11   -1    0    0    0    0 -0.00000000000E+00 -0.00000000000E+00 -0.45593999997E+02  0.45594000000E+02  0.51100000000E-03 0.  1.
    9900012    2    1    2    0    0 -0.16003036345E+02  0.75655268492E+01 -0.61109441537E+01  0.72461601329E+02  0.70000040428E+02 0.  0.
         12    1    1    2    0    0  0.16003036345E+02 -0.75655268492E+01  0.61109441537E+01  0.18726398671E+02  0.00000000000E+00 0. -1.
         11    1    3    3    0    0 -0.29081413738E+01 -0.59808111976E+01  0.15606437833E+02  0.16964324063E+02  0.51100000000E-03 0. -1.
        -11    1    3    3    0    0 -0.20334657839E+02  0.16323189457E+02  0.59650847888E+01  0.26749337567E+02  0.51100000000E-03 0.  1.
        -12    1    3    3    0    0  0.72397628679E+01 -0.27768514104E+01 -0.27682466775E+02  0.28747939698E+02  0.00000000000E+00 0.  1.
</event>
<event>
 7    1  0.3027254E-013  0.7246159E+02  0.7816164E-02  0.1226708E+00
        -11   -1    0    0    0    0  0.00000000000E+00  0.00000000000E+00  0.45593999997E+02  0.45594000000E+02  0.51100000000E-03 0. -1.
         11   -1    0    0    0    0 -0.00000000000E+00 -0.00000000000E+00 -0.45593999997E+02  0.45594000000E+02  0.51100000000E-03 0.  1.
    9900012    2    1    2    0    0  0.10533092642E+01  0.17841932136E+01 -0.18611436556E+02  0.72461591468E+02  0.70000027583E+02 0.  0.
         12    1    1    2    0    0 -0.10533092642E+01 -0.17841932136E+01  0.18611436556E+02  0.18726408532E+02  0.00000000000E+00 0. -1.
         11    1    3    3    0    0  0.31970294307E+01 -0.10325391870E+01  0.40287775025E+01  0.52457776143E+01  0.51100000000E-03 0. -1.
        -11    1    3    3    0    0  0.24699606426E+02 -0.13725306075E+02 -0.21773909745E+02  0.35672927134E+02  0.51100000000E-03 0.  1.
         12    1    3    3    0    0 -0.26843326592E+02  0.16542038476E+02 -0.86630431352E+00  0.31542886720E+02  0.00000000000E+00 0. -1.
</event>
<event>
 7    1  0.3027254E-013  0.7246154E+02  0.7816164E-02  0.1226708E+00
        -11   -1    0    0    0    0  0.00000000000E+00  0.00000000000E+00  0.45593999997E+02  0.45594000000E+02  0.51100000000E-03 0.  1.
         11   -1    0    0    0    0 -0.00000000000E+00 -0.00000000000E+00 -0.45593999997E+02  0.45594000000E+02  0.51100000000E-03 0. -1.
    9900012    2    1    2    0    0 -0.68396944930E+01 -0.15837945133E+02  0.72841259783E+01  0.72461536958E+02  0.69999956574E+02 0.  0.
         12    1    1    2    0    0  0.68396944930E+01  0.15837945133E+02 -0.72841259783E+01  0.18726463042E+02  0.00000000000E+00 0. -1.
         11    1    3    3    0    0  0.14355288999E+02 -0.54109535180E+01 -0.90129744301E+01  0.17792876343E+02  0.51100000000E-03 0. -1.
        -11    1    3    3    0    0 -0.14296286625E+02  0.14397877559E+02 -0.53868271858E+01  0.20992870144E+02  0.51100000000E-03 0.  1.
        -12    1    3    3    0    0 -0.68986968669E+01 -0.24824869174E+02  0.21683927594E+02  0.33675790471E+02  0.00000000000E+00 0.  1.
</event>
<event>
 7    1  0.3027254E-013  0.7246155E+02  0.7816164E-02  0.1226708E+00
        -11   -1    0    0    0    0  0.00000000000E+00  0.00000000000E+00  0.45593999997E+02  0.45594000000E+02  0.51100000000E-03 0.  1.
         11   -1    0    0    0    0 -0.00000000000E+00 -0.00000000000E+00 -0.45593999997E+02  0.45594000000E+02  0.51100000000E-03 0. -1.
    9900012    2    1    2    0    0 -0.40532016218E+01  0.11568625299E+02  0.14156918684E+02  0.72461551289E+02  0.69999975242E+02 0.  0.
         12    1    1    2    0    0  0.40532016218E+01 -0.11568625299E+02 -0.14156918684E+02  0.18726448711E+02  0.00000000000E+00 0. -1.
         11    1    3    3    0    0  0.20964648604E+02  0.21401314240E+02  0.18984756209E+02  0.35467643154E+02  0.51100000000E-03 0. -1.
        -11    1    3    3    0    0  0.34476902446E-01  0.43255859105E+01 -0.68992006496E+01  0.81431475481E+01  0.51100000000E-03 0.  1.
        -12    1    3    3    0    0 -0.25052327128E+02 -0.14158274852E+02  0.20713631241E+01  0.28850760588E+02  0.00000000000E+00 0.  1.
</event>
<event>
 7    1  0.3027254E-013  0.7246155E+02  0.7816164E-02  0.1226708E+00
        -11   -1    0    0    0    0  0.00000000000E+00  0.00000000000E+00  0.45593999997E+02  0.45594000000E+02  0.51100000000E-03 0.  1.
         11   -1    0    0    0    0 -0.00000000000E+00 -0.00000000000E+00 -0.45593999997E+02  0.45594000000E+02  0.51100000000E-03 0. -1.
    9900012    2    1    2    0    0  0.11837435374E+02 -0.14507893908E+02 -0.27547223104E+00  0.72461554880E+02  0.69999979920E+02 0.  0.
         12    1    1    2    0    0 -0.11837435374E+02  0.14507893908E+02  0.27547223104E+00  0.18726445120E+02  0.00000000000E+00 0. -1.
         11    1    3    3    0    0  0.19619900672E+01  0.12001822898E+02  0.58854490592E+01  0.13510428150E+02  0.51100000000E-03 0. -1.
        -11    1    3    3    0    0  0.25423742016E+02 -0.30408235398E+02  0.42099892287E+01  0.39859145095E+02  0.51100000000E-03 0.  1.
         12    1    3    3    0    0 -0.15548296710E+02  0.38985185915E+01 -0.10370910519E+02  0.19091981636E+02  0.00000000000E+00 0. -1.
</event>
<event>
 7    1  0.3027254E-013  0.7246159E+02  0.7816164E-02  0.1226708E+00
        -11   -1    0    0    0    0  0.00000000000E+00  0.00000000000E+00  0.45593999997E+02  0.45594000000E+02  0.51100000000E-03 0.  1.
         11   -1    0    0    0    0 -0.00000000000E+00 -0.00000000000E+00 -0.45593999997E+02  0.45594000000E+02  0.51100000000E-03 0. -1.
    9900012    2    1    2    0    0  0.94030156260E+01  0.16153441831E+02  0.11524859867E+01  0.72461585239E+02  0.70000019468E+02 0.  0.
         12    1    1    2    0    0 -0.94030156260E+01 -0.16153441831E+02 -0.11524859867E+01  0.18726414761E+02  0.00000000000E+00 0. -1.
         11    1    3    3    0    0 -0.50730319936E+01 -0.10092056258E+02 -0.11782227889E-01  0.11295370388E+02  0.51100000000E-03 0. -1.
        -11    1    3    3    0    0  0.74252587677E+01 -0.14246500735E+02 -0.95523880232E+01  0.18690782973E+02  0.51100000000E-03 0.  1.
        -12    1    3    3    0    0  0.70507888518E+01  0.40491998824E+02  0.10716656238E+02  0.42475431877E+02  0.00000000000E+00 0.  1.
</event>
<event>
 7    1  0.3027254E-013  0.7246156E+02  0.7816164E-02  0.1226708E+00
        -11   -1    0    0    0    0  0.00000000000E+00  0.00000000000E+00  0.45593999997E+02  0.45594000000E+02  0.51100000000E-03 0. -1.
         11   -1    0    0    0    0 -0.00000000000E+00 -0.00000000000E+00 -0.45593999997E+02  0.45594000000E+02  0.51100000000E-03 0.  1.
    9900012    2    1    2    0    0  0.78916518075E+01  0.16339731423E+02 -0.46275904492E+01  0.72461559212E+02  0.69999985563E+02 0.  0.
         12    1    1    2    0    0 -0.78916518075E+01 -0.16339731423E+02  0.46275904492E+01  0.18726440788E+02  0.00000000000E+00 0. -1.
         11    1    3    3    0    0  0.11848412507E+02 -0.12499485136E+02  0.98940876514E+01  0.19862401122E+02  0.51100000000E-03 0. -1.
        -11    1    3    3    0    0  0.14207675842E+02  0.35639670740E+00  0.30273225218E+01  0.14530992855E+02  0.51100000000E-03 0.  1.
        -12    1    3    3    0    0 -0.18164436541E+02  0.28482819852E+02 -0.17549000622E+02  0.38068165236E+02  0.00000000000E+00 0.  1.
</event>
<event>
 7    1  0.3027254E-013  0.7246156E+02  0.7816164E-02  0.1226708E+00
        -11   -1    0    0    0    0  0.00000000000E+00  0.00000000000E+00  0.45593999997E+02  0.45594000000E+02  0.51100000000E-03 0.  1.
         11   -1    0    0    0    0 -0.00000000000E+00 -0.00000000000E+00 -0.45593999997E+02  0.45594000000E+02  0.51100000000E-03 0. -1.
    9900012    2    1    2    0    0  0.15233094677E+02 -0.35768679539E+01  0.10287777029E+02  0.72461561097E+02  0.69999988019E+02 0.  0.
         12    1    1    2    0    0 -0.15233094677E+02  0.35768679539E+01 -0.10287777029E+02  0.18726438903E+02  0.00000000000E+00 0. -1.
         11    1    3    3    0    0 -0.74169593033E+01  0.40757213565E+01  0.13571027798E-01  0.84630357624E+01  0.51100000000E-03 0. -1.
        -11    1    3    3    0    0  0.27040013511E+01  0.23925441033E+02 -0.32063544701E+01  0.24290307968E+02  0.51100000000E-03 0.  1.
         12    1    3    3    0    0  0.19946052629E+02 -0.31578030343E+02  0.13480560471E+02  0.39708217367E+02  0.00000000000E+00 0. -1.
</event>
<event>
 7    1  0.3027254E-013  0.7246157E+02  0.7816164E-02  0.1226708E+00
        -11   -1    0    0    0    0  0.00000000000E+00  0.00000000000E+00  0.45593999997E+02  0.45594000000E+02  0.51100000000E-03 0. -1.
         11   -1    0    0    0    0 -0.00000000000E+00 -0.00000000000E+00 -0.45593999997E+02  0.45594000000E+02  0.51100000000E-03 0.  1.
    9900012    2    1    2    0    0 -0.41004025661E+01  0.34251051534E+01 -0.17948110333E+02  0.72461566515E+02  0.69999995077E+02 0.  0.
         12    1    1    2    0    0  0.41004025661E+01 -0.34251051534E+01  0.17948110333E+02  0.18726433485E+02  0.00000000000E+00 0. -1.
         11    1    3    3    0    0  0.30120725204E+01 -0.11731155130E+02 -0.28144309523E+01  0.12434371853E+02  0.51100000000E-03 0. -1.
        -11    1    3    3    0    0  0.82684529759E+01  0.16187376983E+02 -0.32233024176E+02  0.37004950155E+02  0.51100000000E-03 0.  1.
         12    1    3    3    0    0 -0.15380928062E+02 -0.10311167001E+01  0.17099344795E+02  0.23022244507E+02  0.00000000000E+00 0. -1.
</event>
<event>
 7    1  0.3027254E-013  0.7246155E+02  0.7816164E-02  0.1226708E+00
        -11   -1    0    0    0    0  0.00000000000E+00  0.00000000000E+00  0.45593999997E+02  0.45594000000E+02  0.51100000000E-03 0. -1.
         11   -1    0    0    0    0 -0.00000000000E+00 -0.00000000000E+00 -0.45593999997E+02  0.45594000000E+02  0.51100000000E-03 0.  1.
    9900012    2    1    2    0    0  0.52505432523E+01  0.94561221360E+01 -0.15287036843E+02  0.72461549569E+02  0.69999973001E+02 0.  0.
         12    1    1    2    0    0 -0.52505432523E+01 -0.94561221360E+01  0.15287036843E+02  0.18726450431E+02  0.00000000000E+00 0. -1.
         11    1    3    3    0    0  0.25846295010E+02  0.13870485982E+02  0.11703169764E+02  0.31581411145E+02  0.51100000000E-03 0. -1.
        -11    1    3    3    0    0 -0.25396293794E+01 -0.87226126497E+01 -0.18199287236E+02  0.20340790176E+02  0.51100000000E-03 0.  1.
        -12    1    3    3    0    0 -0.18056122378E+02  0.43082488034E+01 -0.87909193716E+01  0.20539348249E+02  0.00000000000E+00 0.  1.
</event>
<event>
 7    1  0.3027254E-013  0.7246153E+02  0.7816164E-02  0.1226708E+00
        -11   -1    0    0    0    0  0.00000000000E+00  0.00000000000E+00  0.45593999997E+02  0.45594000000E+02  0.51100000000E-03 0. -1.
         11   -1    0    0    0    0 -0.00000000000E+00 -0.00000000000E+00 -0.45593999997E+02  0.45594000000E+02  0.51100000000E-03 0.  1.
    9900012    2    1    2    0    0  0.89824389271E+01 -0.93051214305E+01 -0.13542938042E+02  0.72461530372E+02  0.69999947994E+02 0.  0.
         12    1    1    2    0    0 -0.89824389271E+01  0.93051214305E+01  0.13542938042E+02  0.18726469628E+02  0.00000000000E+00 0. -1.
         11    1    3    3    0    0  0.23863628208E+02 -0.71885723657E+01 -0.47650252713E+01  0.25374274177E+02  0.51100000000E-03 0. -1.
        -11    1    3    3    0    0  0.70831059438E+01 -0.10181590869E+02  0.10901914762E+02  0.16513234940E+02  0.51100000000E-03 0.  1.
        -12    1    3    3    0    0 -0.21964295225E+02  0.80650418039E+01 -0.19679827533E+02  0.30574021256E+02  0.00000000000E+00 0.  1.
</event>
<event>
 7    1  0.3027254E-013  0.7246148E+02  0.7816164E-02  0.1226708E+00
        -11   -1    0    0    0    0  0.00000000000E+00  0.00000000000E+00  0.45593999997E+02  0.45594000000E+02  0.51100000000E-03 0.  1.
         11   -1    0    0    0    0 -0.00000000000E+00 -0.00000000000E+00 -0.45593999997E+02  0.45594000000E+02  0.51100000000E-03 0. -1.
    9900012    2    1    2    0    0 -0.76834764135E+01 -0.16754254952E+02 -0.33078395640E+01  0.72461476795E+02  0.69999878199E+02 0.  0.
         12    1    1    2    0    0  0.76834764135E+01  0.16754254952E+02  0.33078395640E+01  0.18726523205E+02  0.00000000000E+00 0. -1.
         11    1    3    3    0    0 -0.63949241933E+01  0.82985049178E+01 -0.29144600716E+02  0.30970437363E+02  0.51100000000E-03 0. -1.
        -11    1    3    3    0    0 -0.32498650623E+01  0.17029562550E+00 -0.20438917438E+01  0.38429308145E+01  0.51100000000E-03 0.  1.
        -12    1    3    3    0    0  0.19613128421E+01 -0.25223055495E+02  0.27880652896E+02  0.37648108617E+02  0.00000000000E+00 0.  1.
</event>
<event>
 7    1  0.3027254E-013  0.7246158E+02  0.7816164E-02  0.1226708E+00
        -11   -1    0    0    0    0  0.00000000000E+00  0.00000000000E+00  0.45593999997E+02  0.45594000000E+02  0.51100000000E-03 0.  1.
         11   -1    0    0    0    0 -0.00000000000E+00 -0.00000000000E+00 -0.45593999997E+02  0.45594000000E+02  0.51100000000E-03 0. -1.
    9900012    2    1    2    0    0 -0.20463813744E+01  0.16043812974E+02 -0.94386091457E+01  0.72461576046E+02  0.70000007493E+02 0.  0.
         12    1    1    2    0    0  0.20463813744E+01 -0.16043812974E+02  0.94386091457E+01  0.18726423954E+02  0.00000000000E+00 0. -1.
         11    1    3    3    0    0 -0.27521872182E+02  0.14009449749E+02 -0.16390076594E+02  0.34962161571E+02  0.51100000000E-03 0. -1.
        -11    1    3    3    0    0 -0.53198052884E+01  0.20365395656E+01 -0.77726232480E+00  0.57490832914E+01  0.51100000000E-03 0.  1.
        -12    1    3    3    0    0  0.30795296096E+02 -0.21763403558E-02  0.77287297727E+01  0.31750331184E+02  0.00000000000E+00 0.  1.
</event>
<event>
 7    1  0.3027254E-013  0.7246174E+02  0.7816164E-02  0.1226708E+00
        -11   -1    0    0    0    0  0.00000000000E+00  0.00000000000E+00  0.45593999997E+02  0.45594000000E+02  0.51100000000E-03 0. -1.
         11   -1    0    0    0    0 -0.00000000000E+00 -0.00000000000E+00 -0.45593999997E+02  0.45594000000E+02  0.51100000000E-03 0.  1.
    9900012    2    1    2    0    0 -0.39335162660E+01 -0.15951192297E+01 -0.18238854655E+02  0.72461741038E+02  0.70000222426E+02 0.  0.
         12    1    1    2    0    0  0.39335162660E+01  0.15951192297E+01  0.18238854655E+02  0.18726258962E+02  0.00000000000E+00 0. -1.
         11    1    3    3    0    0  0.60086387775E+01  0.24534708971E+02 -0.81906530409E+01  0.26554519046E+02  0.51100000000E-03 0. -1.
        -11    1    3    3    0    0  0.40315262489E+01 -0.15060331473E+02 -0.20103145337E+02  0.25440189478E+02  0.51100000000E-03 0.  1.
         12    1    3    3    0    0 -0.13973681292E+02 -0.11069496728E+02  0.10054943723E+02  0.20467032514E+02  0.00000000000E+00 0. -1.
</event>
<event>
 7    1  0.3027254E-013  0.7246149E+02  0.7816164E-02  0.1226708E+00
        -11   -1    0    0    0    0  0.00000000000E+00  0.00000000000E+00  0.45593999997E+02  0.45594000000E+02  0.51100000000E-03 0.  1.
         11   -1    0    0    0    0 -0.00000000000E+00 -0.00000000000E+00 -0.45593999997E+02  0.45594000000E+02  0.51100000000E-03 0. -1.
    9900012    2    1    2    0    0 -0.16755002725E+02 -0.68422594300E+01 -0.48099571426E+01  0.72461486226E+02  0.69999890485E+02 0.  0.
         12    1    1    2    0    0  0.16755002725E+02  0.68422594300E+01  0.48099571426E+01  0.18726513774E+02  0.00000000000E+00 0. -1.
         11    1    3    3    0    0  0.84553790465E+01  0.14661123154E+02  0.12489450066E+01  0.16970616690E+02  0.51100000000E-03 0. -1.
        -11    1    3    3    0    0  0.29051016170E+01  0.27218557036E+01  0.13123482777E+02  0.13714004314E+02  0.51100000000E-03 0.  1.
         12    1    3    3    0    0 -0.28115483389E+02 -0.24225238287E+02 -0.19182384926E+02  0.41776865221E+02  0.00000000000E+00 0. -1.
</event>
<event>
 7    1  0.3027254E-013  0.7246154E+02  0.7816164E-02  0.1226708E+00
        -11   -1    0    0    0    0  0.00000000000E+00  0.00000000000E+00  0.45593999997E+02  0.45594000000E+02  0.51100000000E-03 0. -1.
         11   -1    0    0    0    0 -0.00000000000E+00 -0.00000000000E+00 -0.45593999997E+02  0.45594000000E+02  0.51100000000E-03 0.  1.
    9900012    2    1    2    0    0  0.13299482197E+02 -0.11299266219E+02 -0.67919441242E+01  0.72461544148E+02  0.69999965940E+02 0.  0.
         12    1    1    2    0    0 -0.13299482197E+02  0.11299266219E+02  0.67919441242E+01  0.18726455852E+02  0.00000000000E+00 0. -1.
         11    1    3    3    0    0  0.86247701278E+01  0.60827203404E+01  0.51146641339E+01  0.11727997952E+02  0.51100000000E-03 0. -1.
        -11    1    3    3    0    0  0.12434681678E+02 -0.35147034908E+02 -0.16564247653E+02  0.40795951660E+02  0.51100000000E-03 0.  1.
         12    1    3    3    0    0 -0.77599696091E+01  0.17765048349E+02  0.46576393946E+01  0.19937594537E+02  0.00000000000E+00 0. -1.
</event>
<event>
 7    1  0.3027254E-013  0.7246154E+02  0.7816164E-02  0.1226708E+00
        -11   -1    0    0    0    0  0.00000000000E+00  0.00000000000E+00  0.45593999997E+02  0.45594000000E+02  0.51100000000E-03 0. -1.
         11   -1    0    0    0    0 -0.00000000000E+00 -0.00000000000E+00 -0.45593999997E+02  0.45594000000E+02  0.51100000000E-03 0.  1.
    9900012    2    1    2    0    0 -0.41278741117E+01 -0.14809316383E+02 -0.10692300129E+02  0.72461535346E+02  0.69999954473E+02 0.  0.
         12    1    1    2    0    0  0.41278741117E+01  0.14809316383E+02  0.10692300129E+02  0.18726464654E+02  0.00000000000E+00 0. -1.
         11    1    3    3    0    0 -0.15470214750E+02 -0.17299932872E+02  0.13892677340E+02  0.27048506534E+02  0.51100000000E-03 0. -1.
        -11    1    3    3    0    0 -0.11761549686E+02 -0.62632684941E+01 -0.10567258066E+02  0.17006749441E+02  0.51100000000E-03 0.  1.
        -12    1    3    3    0    0  0.23103890324E+02  0.87538849838E+01 -0.14017719403E+02  0.28406279371E+02  0.00000000000E+00 0.  1.
</event>
<event>
 7    1  0.3027254E-013  0.7246157E+02  0.7816164E-02  0.1226708E+00
        -11   -1    0    0    0    0  0.00000000000E+00  0.00000000000E+00  0.45593999997E+02  0.45594000000E+02  0.51100000000E-03 0.  1.
         11   -1    0    0    0    0 -0.00000000000E+00 -0.00000000000E+00 -0.45593999997E+02  0.45594000000E+02  0.51100000000E-03 0. -1.
    9900012    2    1    2    0    0  0.50283959075E+01 -0.80848564603E+01  0.16125429209E+02  0.72461571174E+02  0.70000001146E+02 0.  0.
         12    1    1    2    0    0 -0.50283959075E+01  0.80848564603E+01 -0.16125429209E+02  0.18726428826E+02  0.00000000000E+00 0. -1.
         11    1    3    3    0    0  0.31508396664E+01  0.20824690918E+02 -0.93432386130E+01  0.23041086139E+02  0.51100000000E-03 0. -1.
        -11    1    3    3    0    0  0.68838484977E+01  0.47186003237E+01  0.46428231286E+01  0.95503071164E+01  0.51100000000E-03 0.  1.
        -12    1    3    3    0    0 -0.50062922566E+01 -0.33628147702E+02  0.20825844694E+02  0.39870177918E+02  0.00000000000E+00 0.  1.
</event>
<event>
 7    1  0.3027254E-013  0.7246156E+02  0.7816164E-02  0.1226708E+00
        -11   -1    0    0    0    0  0.00000000000E+00  0.00000000000E+00  0.45593999997E+02  0.45594000000E+02  0.51100000000E-03 0.  1.
         11   -1    0    0    0    0 -0.00000000000E+00 -0.00000000000E+00 -0.45593999997E+02  0.45594000000E+02  0.51100000000E-03 0. -1.
    9900012    2    1    2    0    0 -0.98143039670E+01  0.92342560347E+01  0.13003358578E+02  0.72461564643E+02  0.69999992638E+02 0.  0.
         12    1    1    2    0    0  0.98143039670E+01 -0.92342560347E+01 -0.13003358578E+02  0.18726435357E+02  0.00000000000E+00 0. -1.
         11    1    3    3    0    0  0.86489801757E+01  0.98025652685E+00 -0.38320632267E+01  0.95105451879E+01  0.51100000000E-03 0. -1.
        -11    1    3    3    0    0 -0.14387190573E+02 -0.23939816441E+02  0.47978453985E+01  0.28339466906E+02  0.51100000000E-03 0.  1.
         12    1    3    3    0    0 -0.40760935695E+01  0.32193815948E+02  0.12037576406E+02  0.34611552549E+02  0.00000000000E+00 0. -1.
</event>
<event>
 7    1  0.3027254E-013  0.7246161E+02  0.7816164E-02  0.1226708E+00
        -11   -1    0    0    0    0  0.00000000000E+00  0.00000000000E+00  0.45593999997E+02  0.45594000000E+02  0.51100000000E-03 0.  1.
         11   -1    0    0    0    0 -0.00000000000E+00 -0.00000000000E+00 -0.45593999997E+02  0.45594000000E+02  0.51100000000E-03 0. -1.
    9900012    2    1    2    0    0  0.13078470508E+02 -0.31156796423E+01  0.13035476743E+02  0.72461614754E+02  0.70000057917E+02 0.  0.
         12    1    1    2    0    0 -0.13078470508E+02  0.31156796423E+01 -0.13035476743E+02  0.18726385246E+02  0.00000000000E+00 0. -1.
         11    1    3    3    0    0 -0.88430496513E+01  0.13464477843E+02  0.13294957176E+02  0.20886540577E+02  0.51100000000E-03 0. -1.
        -11    1    3    3    0    0 -0.59007022390E+01 -0.29575352194E+01  0.15479443132E+02  0.16827907220E+02  0.51100000000E-03 0.  1.
         12    1    3    3    0    0  0.27822222398E+02 -0.13622622266E+02 -0.15738923565E+02  0.34747166957E+02  0.00000000000E+00 0. -1.
</event>
<event>
 7    1  0.3027254E-013  0.7246154E+02  0.7816164E-02  0.1226708E+00
        -11   -1    0    0    0    0  0.00000000000E+00  0.00000000000E+00  0.45593999997E+02  0.45594000000E+02  0.51100000000E-03 0.  1.
         11   -1    0    0    0    0 -0.00000000000E+00 -0.00000000000E+00 -0.45593999997E+02  0.45594000000E+02  0.51100000000E-03 0. -1.
    9900012    2    1    2    0    0 -0.26052720775E+00 -0.57064833799E+01  0.17833909130E+02  0.72461544333E+02  0.69999966180E+02 0.  0.
         12    1    1    2    0    0  0.26052720775E+00  0.57064833799E+01 -0.17833909130E+02  0.18726455667E+02  0.00000000000E+00 0. -1.
         11    1    3    3    0    0 -0.15256232242E+02  0.70885782152E+01 -0.40687823294E+01  0.17307673248E+02  0.51100000000E-03 0. -1.
        -11    1    3    3    0    0  0.11688765778E+02 -0.12431402252E+02  0.36441828188E+02  0.40238959347E+02  0.51100000000E-03 0.  1.
         12    1    3    3    0    0  0.33069392560E+01 -0.36365934357E+00 -0.14539136728E+02  0.14914911738E+02  0.00000000000E+00 0. -1.
</event>
<event>
 7    1  0.3027254E-013  0.7246156E+02  0.7816164E-02  0.1226708E+00
        -11   -1    0    0    0    0  0.00000000000E+00  0.00000000000E+00  0.45593999997E+02  0.45594000000E+02  0.51100000000E-03 0.  1.
         11   -1    0    0    0    0 -0.00000000000E+00 -0.00000000000E+00 -0.45593999997E+02  0.45594000000E+02  0.51100000000E-03 0. -1.
    9900012    2    1    2    0    0 -0.14155302146E+02 -0.10946138903E+02 -0.55217017520E+01  0.72461555437E+02  0.69999980646E+02 0.  0.
         12    1    1    2    0    0  0.14155302146E+02  0.10946138903E+02  0.55217017520E+01  0.18726444563E+02  0.00000000000E+00 0. -1.
         11    1    3    3    0    0 -0.16986826248E+01 -0.20965414140E+02 -0.32992192969E+02  0.39126958863E+02  0.51100000000E-03 0. -1.
        -11    1    3    3    0    0  0.67969088570E+00 -0.55862387102E+00  0.58400647138E+01  0.59059627879E+01  0.51100000000E-03 0.  1.
        -12    1    3    3    0    0 -0.13136310407E+02  0.10577899108E+02  0.21630426503E+02  0.27428633786E+02  0.00000000000E+00 0.  1.
</event>
<event>
 7    1  0.3027254E-013  0.7246130E+02  0.7816164E-02  0.1226709E+00
        -11   -1    0    0    0    0  0.00000000000E+00  0.00000000000E+00  0.45593999997E+02  0.45594000000E+02  0.51100000000E-03 0.  1.
         11   -1    0    0    0    0 -0.00000000000E+00 -0.00000000000E+00 -0.45593999997E+02  0.45594000000E+02  0.51100000000E-03 0. -1.
    9900012    2    1    2    0    0 -0.85240143770E+01  0.59273882695E+01  0.15585137337E+02  0.72461300915E+02  0.69999649083E+02 0.  0.
         12    1    1    2    0    0  0.85240143770E+01 -0.59273882695E+01 -0.15585137337E+02  0.18726699085E+02  0.00000000000E+00 0. -1.
         11    1    3    3    0    0 -0.82504619259E+01  0.21644848648E+02  0.37453466467E+01  0.23464808049E+02  0.51100000000E-03 0. -1.
        -11    1    3    3    0    0 -0.14189166464E+02  0.54694918781E+01 -0.76491736114E+01  0.17022269048E+02  0.51100000000E-03 0.  1.
        -12    1    3    3    0    0  0.13915614013E+02 -0.21186952257E+02  0.19488964301E+02  0.31974223819E+02  0.00000000000E+00 0.  1.
</event>
<event>
 7    1  0.3027254E-013  0.7246157E+02  0.7816164E-02  0.1226708E+00
        -11   -1    0    0    0    0  0.00000000000E+00  0.00000000000E+00  0.45593999997E+02  0.45594000000E+02  0.51100000000E-03 0.  1.
         11   -1    0    0    0    0 -0.00000000000E+00 -0.00000000000E+00 -0.45593999997E+02  0.45594000000E+02  0.51100000000E-03 0. -1.
    9900012    2    1    2    0    0  0.27474253263E+01  0.19929378604E+01  0.18416272314E+02  0.72461568594E+02  0.69999997786E+02 0.  0.
         12    1    1    2    0    0 -0.27474253263E+01 -0.19929378604E+01 -0.18416272314E+02  0.18726431406E+02  0.00000000000E+00 0. -1.
         11    1    3    3    0    0 -0.88145349818E+00 -0.29256364046E+01  0.16530253535E+02  0.16810282295E+02  0.51100000000E-03 0.  1.
        -11    1    3    3    0    0 -0.11724370580E+02  0.16893529583E+02  0.20268850139E+02  0.28873491190E+02  0.51100000000E-03 0. -1.
         12    1    3    3    0    0  0.15353249404E+02 -0.11974955318E+02 -0.18382831360E+02  0.26777795110E+02  0.00000000000E+00 0. -1.
</event>
<event>
 8    1  0.3027254E-013  0.7246159E+02  0.7816164E-02  0.1226708E+00
        -11   -1    0    0    0    0  0.00000000000E+00  0.00000000000E+00  0.45593999997E+02  0.45594000000E+02  0.51100000000E-03 0. -1.
         11   -1    0    0    0    0 -0.00000000000E+00 -0.00000000000E+00 -0.45593999997E+02  0.45594000000E+02  0.51100000000E-03 0.  1.
    9900012    2    1    2    0    0 -0.12446422169E+02  0.47779449165E+00 -0.13983438397E+02  0.72461594531E+02  0.70000031573E+02 0.  0.
         23    2    3    3    0    0 -0.11645934001E+02 -0.92386897416E+01 -0.61734544879E+01  0.59969729345E+02  0.57769158991E+02 0.  0.
         12    1    1    2    0    0  0.12446422169E+02 -0.47779449165E+00  0.13983438397E+02  0.18726405469E+02  0.00000000000E+00 0. -1.
         11    1    4    4    0    0  0.16937655034E+02 -0.19652716015E+02  0.69178975603E+01  0.26850897783E+02  0.51100000000E-03 0. -1.
        -11    1    4    4    0    0 -0.28583589035E+02  0.10414026273E+02 -0.13091352048E+02  0.33118831562E+02  0.51100000000E-03 0.  1.
        -12    1    3    3    0    0 -0.80048816809E+00  0.97164842332E+01 -0.78099839094E+01  0.12491865186E+02  0.00000000000E+00 0.  1.
</event>
<event>
 7    1  0.3027254E-013  0.7246174E+02  0.7816164E-02  0.1226708E+00
        -11   -1    0    0    0    0  0.00000000000E+00  0.00000000000E+00  0.45593999997E+02  0.45594000000E+02  0.51100000000E-03 0.  1.
         11   -1    0    0    0    0 -0.00000000000E+00 -0.00000000000E+00 -0.45593999997E+02  0.45594000000E+02  0.51100000000E-03 0. -1.
    9900012    2    1    2    0    0 -0.15456147246E+02  0.41770168910E+01  0.97125022640E+01  0.72461744153E+02  0.70000226483E+02 0.  0.
         12    1    1    2    0    0  0.15456147246E+02 -0.41770168910E+01 -0.97125022640E+01  0.18726255847E+02  0.00000000000E+00 0. -1.
         11    1    3    3    0    0 -0.19442438024E+02  0.80030800305E+01 -0.70197627778E+01  0.22166072183E+02  0.51100000000E-03 0. -1.
        -11    1    3    3    0    0 -0.14789441370E+02  0.10155190552E+02 -0.47120518724E+01  0.18548824877E+02  0.51100000000E-03 0.  1.
        -12    1    3    3    0    0  0.18775732148E+02 -0.13981253691E+02  0.21444316914E+02  0.31746847094E+02  0.00000000000E+00 0.  1.
</event>
<event>
 7    1  0.3027254E-013  0.7246161E+02  0.7816164E-02  0.1226708E+00
        -11   -1    0    0    0    0  0.00000000000E+00  0.00000000000E+00  0.45593999997E+02  0.45594000000E+02  0.51100000000E-03 0.  1.
         11   -1    0    0    0    0 -0.00000000000E+00 -0.00000000000E+00 -0.45593999997E+02  0.45594000000E+02  0.51100000000E-03 0. -1.
    9900012    2    1    2    0    0 -0.67990227822E+00  0.31179372348E+01  0.18452477974E+02  0.72461608380E+02  0.70000049614E+02 0.  0.
         12    1    1    2    0    0  0.67990227822E+00 -0.31179372348E+01 -0.18452477974E+02  0.18726391620E+02  0.00000000000E+00 0. -1.
         11    1    3    3    0    0  0.34264499291E+01  0.18009438272E+02  0.11874393512E+01  0.18370912837E+02  0.51100000000E-03 0. -1.
        -11    1    3    3    0    0  0.42635060361E+01  0.17340309763E+02  0.43971463900E+01  0.18390180071E+02  0.51100000000E-03 0.  1.
        -12    1    3    3    0    0 -0.83698582434E+01 -0.32231810800E+02  0.12867892233E+02  0.35700515472E+02  0.00000000000E+00 0.  1.
</event>
<event>
 7    1  0.3027254E-013  0.7246149E+02  0.7816164E-02  0.1226708E+00
        -11   -1    0    0    0    0  0.00000000000E+00  0.00000000000E+00  0.45593999997E+02  0.45594000000E+02  0.51100000000E-03 0. -1.
         11   -1    0    0    0    0 -0.00000000000E+00 -0.00000000000E+00 -0.45593999997E+02  0.45594000000E+02  0.51100000000E-03 0.  1.
    9900012    2    1    2    0    0  0.16641969140E+02  0.42406026396E+01 -0.74662043659E+01  0.72461493245E+02  0.69999899629E+02 0.  0.
         12    1    1    2    0    0 -0.16641969140E+02 -0.42406026396E+01  0.74662043659E+01  0.18726506755E+02  0.00000000000E+00 0. -1.
         11    1    3    3    0    0  0.21916853528E+02  0.10942907319E+02  0.43178761773E+01  0.24874479776E+02  0.51100000000E-03 0. -1.
        -11    1    3    3    0    0 -0.49082581840E+01  0.61349449022E+01 -0.26742038271E+02  0.27872300918E+02  0.51100000000E-03 0.  1.
        -12    1    3    3    0    0 -0.36662620412E+00 -0.12837249582E+02  0.14957957727E+02  0.19714712551E+02  0.00000000000E+00 0.  1.
</event>
<event>
 7    1  0.3027254E-013  0.7246152E+02  0.7816164E-02  0.1226708E+00
        -11   -1    0    0    0    0  0.00000000000E+00  0.00000000000E+00  0.45593999997E+02  0.45594000000E+02  0.51100000000E-03 0.  1.
         11   -1    0    0    0    0 -0.00000000000E+00 -0.00000000000E+00 -0.45593999997E+02  0.45594000000E+02  0.51100000000E-03 0. -1.
    9900012    2    1    2    0    0  0.18493113747E+02 -0.25629018331E+01  0.14551333788E+01  0.72461517815E+02  0.69999931636E+02 0.  0.
         12    1    1    2    0    0 -0.18493113747E+02  0.25629018331E+01 -0.14551333788E+01  0.18726482185E+02  0.00000000000E+00 0. -1.
         11    1    3    3    0    0  0.28558891564E+02 -0.61162953499E+01  0.20451434396E+02  0.35655021039E+02  0.51100000000E-03 0.  1.
        -11    1    3    3    0    0  0.76831394671E+00 -0.11463363762E+02 -0.12985158638E+02  0.17338205218E+02  0.51100000000E-03 0. -1.
        -12    1    3    3    0    0 -0.10834091764E+02  0.15016757279E+02 -0.60111423789E+01  0.19468291559E+02  0.00000000000E+00 0.  1.
</event>
<event>
 7    1  0.3027254E-013  0.7246158E+02  0.7816164E-02  0.1226708E+00
        -11   -1    0    0    0    0  0.00000000000E+00  0.00000000000E+00  0.45593999997E+02  0.45594000000E+02  0.51100000000E-03 0. -1.
         11   -1    0    0    0    0 -0.00000000000E+00 -0.00000000000E+00 -0.45593999997E+02  0.45594000000E+02  0.51100000000E-03 0.  1.
    9900012    2    1    2    0    0 -0.36997640789E+01  0.17869414801E+02 -0.42041267285E+01  0.72461576927E+02  0.70000008640E+02 0.  0.
         12    1    1    2    0    0  0.36997640789E+01 -0.17869414801E+02  0.42041267285E+01  0.18726423073E+02  0.00000000000E+00 0. -1.
         11    1    3    3    0    0 -0.76627810354E+01 -0.52945953665E+01  0.89651648740E+01  0.12927688686E+02  0.51100000000E-03 0. -1.
        -11    1    3    3    0    0 -0.10884845202E+02  0.35646767504E+02 -0.14722346034E+02  0.40073923711E+02  0.51100000000E-03 0.  1.
         12    1    3    3    0    0  0.14847862159E+02 -0.12482757337E+02  0.15530544319E+01  0.19459964530E+02  0.00000000000E+00 0. -1.
</event>
<event>
 7    1  0.3027254E-013  0.7246154E+02  0.7816164E-02  0.1226708E+00
        -11   -1    0    0    0    0  0.00000000000E+00  0.00000000000E+00  0.45593999997E+02  0.45594000000E+02  0.51100000000E-03 0.  1.
         11   -1    0    0    0    0 -0.00000000000E+00 -0.00000000000E+00 -0.45593999997E+02  0.45594000000E+02  0.51100000000E-03 0. -1.
    9900012    2    1    2    0    0  0.46561258798E+01 -0.74218977612E+01  0.16550409941E+02  0.72461544281E+02  0.69999966112E+02 0.  0.
         12    1    1    2    0    0 -0.46561258798E+01  0.74218977612E+01 -0.16550409941E+02  0.18726455719E+02  0.00000000000E+00 0. -1.
         11    1    3    3    0    0 -0.12601748327E+01 -0.63748056555E+01  0.19445581299E+02  0.20502605202E+02  0.51100000000E-03 0. -1.
        -11    1    3    3    0    0  0.80856512626E+01  0.16808486640E+02  0.16930259693E+02  0.25190011373E+02  0.51100000000E-03 0.  1.
         12    1    3    3    0    0 -0.21693505501E+01 -0.17855578746E+02 -0.19825431050E+02  0.26768927705E+02  0.00000000000E+00 0. -1.
</event>
<event>
 7    1  0.3027254E-013  0.7246151E+02  0.7816164E-02  0.1226708E+00
        -11   -1    0    0    0    0  0.00000000000E+00  0.00000000000E+00  0.45593999997E+02  0.45594000000E+02  0.51100000000E-03 0. -1.
         11   -1    0    0    0    0 -0.00000000000E+00 -0.00000000000E+00 -0.45593999997E+02  0.45594000000E+02  0.51100000000E-03 0.  1.
    9900012    2    1    2    0    0 -0.41396668216E+01 -0.96349045393E+01 -0.15514939551E+02  0.72461506037E+02  0.69999916293E+02 0.  0.
         12    1    1    2    0    0  0.41396668216E+01  0.96349045393E+01  0.15514939551E+02  0.18726493963E+02  0.00000000000E+00 0. -1.
         11    1    3    3    0    0  0.19455582539E+02 -0.40230123007E+01  0.16824260165E+02  0.26033825118E+02  0.51100000000E-03 0. -1.
        -11    1    3    3    0    0 -0.39860996845E+01  0.13905758763E+01  0.31594340006E+01  0.52730176775E+01  0.51100000000E-03 0.  1.
        -12    1    3    3    0    0 -0.19609149676E+02 -0.70024681149E+01 -0.35498633717E+02  0.41154663241E+02  0.00000000000E+00 0.  1.
</event>
<event>
 7    1  0.3027254E-013  0.7246156E+02  0.7816164E-02  0.1226708E+00
        -11   -1    0    0    0    0  0.00000000000E+00  0.00000000000E+00  0.45593999997E+02  0.45594000000E+02  0.51100000000E-03 0. -1.
         11   -1    0    0    0    0 -0.00000000000E+00 -0.00000000000E+00 -0.45593999997E+02  0.45594000000E+02  0.51100000000E-03 0.  1.
    9900012    2    1    2    0    0  0.97494071291E+01 -0.10006508429E+02 -0.12469905733E+02  0.72461556149E+02  0.69999981574E+02 0.  0.
         12    1    1    2    0    0 -0.97494071291E+01  0.10006508429E+02  0.12469905733E+02  0.18726443851E+02  0.00000000000E+00 0. -1.
         11    1    3    3    0    0 -0.48831859841E+00 -0.20264294246E+02 -0.67393730246E+01  0.21361161611E+02  0.51100000000E-03 0. -1.
        -11    1    3    3    0    0 -0.16388234433E+02 -0.82309055961E+01 -0.28155360760E+01  0.18553955870E+02  0.51100000000E-03 0.  1.
        -12    1    3    3    0    0  0.26625960161E+02  0.18488691413E+02 -0.29149966321E+01  0.32546438669E+02  0.00000000000E+00 0.  1.
</event>
<event>
 7    1  0.3027254E-013  0.7246155E+02  0.7816164E-02  0.1226708E+00
        -11   -1    0    0    0    0  0.00000000000E+00  0.00000000000E+00  0.45593999997E+02  0.45594000000E+02  0.51100000000E-03 0.  1.
         11   -1    0    0    0    0 -0.00000000000E+00 -0.00000000000E+00 -0.45593999997E+02  0.45594000000E+02  0.51100000000E-03 0. -1.
    9900012    2    1    2    0    0 -0.59703623870E+01  0.14163144769E+02  0.10697667202E+02  0.72461548645E+02  0.69999971798E+02 0.  0.
         12    1    1    2    0    0  0.59703623870E+01 -0.14163144769E+02 -0.10697667202E+02  0.18726451355E+02  0.00000000000E+00 0. -1.
         11    1    3    3    0    0 -0.11968052558E+01 -0.10258477729E+01  0.34690482422E+02  0.34726276469E+02  0.51100000000E-03 0.  1.
        -11    1    3    3    0    0  0.93051955793E+01  0.54957092626E+01 -0.14804204362E+02  0.18329046678E+02  0.51100000000E-03 0. -1.
        -12    1    3    3    0    0 -0.14078752711E+02  0.96932832790E+01 -0.91886108583E+01  0.19406225499E+02  0.00000000000E+00 0.  1.
</event>
<event>
 7    1  0.3027254E-013  0.7246156E+02  0.7816164E-02  0.1226708E+00
        -11   -1    0    0    0    0  0.00000000000E+00  0.00000000000E+00  0.45593999997E+02  0.45594000000E+02  0.51100000000E-03 0.  1.
         11   -1    0    0    0    0 -0.00000000000E+00 -0.00000000000E+00 -0.45593999997E+02  0.45594000000E+02  0.51100000000E-03 0. -1.
    9900012    2    1    2    0    0  0.27037719969E+01 -0.13127519430E+02  0.13078125953E+02  0.72461560727E+02  0.69999987537E+02 0.  0.
         12    1    1    2    0    0 -0.27037719969E+01  0.13127519430E+02 -0.13078125953E+02  0.18726439273E+02  0.00000000000E+00 0. -1.
         11    1    3    3    0    0 -0.99108191148E+01 -0.15573849912E+02 -0.10705610306E+02  0.21339616419E+02  0.51100000000E-03 0. -1.
        -11    1    3    3    0    0  0.58283585811E+01  0.37413770311E+01 -0.12443904736E+02  0.14241433607E+02  0.51100000000E-03 0.  1.
        -12    1    3    3    0    0  0.67862325305E+01 -0.12950465488E+01  0.36227640995E+02  0.36880510702E+02  0.00000000000E+00 0.  1.
</event>
<event>
 7    1  0.3027254E-013  0.7246157E+02  0.7816164E-02  0.1226708E+00
        -11   -1    0    0    0    0  0.00000000000E+00  0.00000000000E+00  0.45593999997E+02  0.45594000000E+02  0.51100000000E-03 0. -1.
         11   -1    0    0    0    0 -0.00000000000E+00 -0.00000000000E+00 -0.45593999997E+02  0.45594000000E+02  0.51100000000E-03 0.  1.
    9900012    2    1    2    0    0 -0.17422204482E+02  0.21380734137E+01 -0.65249258212E+01  0.72461568842E+02  0.69999998108E+02 0.  0.
         12    1    1    2    0    0  0.17422204482E+02 -0.21380734137E+01  0.65249258212E+01  0.18726431158E+02  0.00000000000E+00 0. -1.
         11    1    3    3    0    0  0.10792077369E+02  0.64340226707E+01 -0.16324017185E+02  0.20599493174E+02  0.51100000000E-03 0. -1.
        -11    1    3    3    0    0 -0.21601039461E+02  0.17701884613E+02  0.44947103754E+01  0.28287171054E+02  0.51100000000E-03 0.  1.
         12    1    3    3    0    0 -0.66132423911E+01 -0.21997833870E+02  0.53043809888E+01  0.23574904614E+02  0.00000000000E+00 0. -1.
</event>
<event>
 7    1  0.3027254E-013  0.7246159E+02  0.7816164E-02  0.1226708E+00
        -11   -1    0    0    0    0  0.00000000000E+00  0.00000000000E+00  0.45593999997E+02  0.45594000000E+02  0.51100000000E-03 0.  1.
         11   -1    0    0    0    0 -0.00000000000E+00 -0.00000000000E+00 -0.45593999997E+02  0.45594000000E+02  0.51100000000E-03 0. -1.
    9900012    2    1    2    0    0  0.16967845354E+02 -0.70849730767E+01 -0.35459730486E+01  0.72461586987E+02  0.70000021746E+02 0.  0.
         12    1    1    2    0    0 -0.16967845354E+02  0.70849730767E+01  0.35459730486E+01  0.18726413013E+02  0.00000000000E+00 0. -1.
         11    1    3    3    0    0 -0.36772249646E+01 -0.13734259056E+02 -0.19141732857E+02  0.23844449926E+02  0.51100000000E-03 0. -1.
        -11    1    3    3    0    0  0.14928212651E+02  0.50832037630E+01 -0.12362138717E+02  0.20037788485E+02  0.51100000000E-03 0.  1.
        -12    1    3    3    0    0  0.57168576678E+01  0.15660822166E+01  0.27957898525E+02  0.28579348576E+02  0.00000000000E+00 0.  1.
</event>
<event>
 7    1  0.3027254E-013  0.7246157E+02  0.7816164E-02  0.1226708E+00
        -11   -1    0    0    0    0  0.00000000000E+00  0.00000000000E+00  0.45593999997E+02  0.45594000000E+02  0.51100000000E-03 0.  1.
         11   -1    0    0    0    0 -0.00000000000E+00 -0.00000000000E+00 -0.45593999997E+02  0.45594000000E+02  0.51100000000E-03 0. -1.
    9900012    2    1    2    0    0 -0.13183445666E+02  0.75563894109E+01  0.10944262678E+02  0.72461570919E+02  0.70000000814E+02 0.  0.
         12    1    1    2    0    0  0.13183445666E+02 -0.75563894109E+01 -0.10944262678E+02  0.18726429081E+02  0.00000000000E+00 0. -1.
         11    1    3    3    0    0  0.11552911805E+02  0.10127212388E+02  0.23265147958E+00  0.15365035922E+02  0.51100000000E-03 0. -1.
        -11    1    3    3    0    0  0.13267478195E+02  0.93193012638E+01  0.41844753366E+01  0.16744706262E+02  0.51100000000E-03 0.  1.
        -12    1    3    3    0    0 -0.38003835665E+02 -0.11890124240E+02  0.65271358616E+01  0.40351828735E+02  0.00000000000E+00 0.  1.
</event>
<event>
 7    1  0.3027254E-013  0.7246158E+02  0.7816164E-02  0.1226708E+00
        -11   -1    0    0    0    0  0.00000000000E+00  0.00000000000E+00  0.45593999997E+02  0.45594000000E+02  0.51100000000E-03 0.  1.
         11   -1    0    0    0    0 -0.00000000000E+00 -0.00000000000E+00 -0.45593999997E+02  0.45594000000E+02  0.51100000000E-03 0. -1.
    9900012    2    1    2    0    0  0.12668428501E+01  0.11365059571E+02  0.14829334298E+02  0.72461584817E+02  0.70000018919E+02 0.  0.
         12    1    1    2    0    0 -0.12668428501E+01 -0.11365059571E+02 -0.14829334298E+02  0.18726415183E+02  0.00000000000E+00 0. -1.
         11    1    3    3    0    0 -0.38977016184E+01 -0.38650667548E+01  0.53016371369E+01  0.76313940743E+01  0.51100000000E-03 0.  1.
        -11    1    3    3    0    0 -0.91354936044E+01 -0.22185890036E+02  0.20293214907E+01  0.24078810313E+02  0.51100000000E-03 0. -1.
        -12    1    3    3    0    0  0.14300038073E+02  0.37416016362E+02  0.74983756707E+01  0.40751380431E+02  0.00000000000E+00 0.  1.
</event>
<event>
 7    1  0.3027254E-013  0.7246155E+02  0.7816164E-02  0.1226708E+00
        -11   -1    0    0    0    0  0.00000000000E+00  0.00000000000E+00  0.45593999997E+02  0.45594000000E+02  0.51100000000E-03 0.  1.
         11   -1    0    0    0    0 -0.00000000000E+00 -0.00000000000E+00 -0.45593999997E+02  0.45594000000E+02  0.51100000000E-03 0. -1.
    9900012    2    1    2    0    0  0.18390024337E+02  0.54087215421E+00  0.34920238779E+01  0.72461554300E+02  0.69999979164E+02 0.  0.
         12    1    1    2    0    0 -0.18390024337E+02 -0.54087215421E+00 -0.34920238779E+01  0.18726445700E+02  0.00000000000E+00 0. -1.
         11    1    3    3    0    0  0.94832672237E+01 -0.65026631192E+01 -0.51448652193E+01  0.12597087888E+02  0.51100000000E-03 0. -1.
        -11    1    3    3    0    0  0.74054637245E+00 -0.25335223713E+02 -0.10583182760E+00  0.25346265408E+02  0.51100000000E-03 0.  1.
         12    1    3    3    0    0  0.81662107405E+01  0.32378758986E+02  0.87427209248E+01  0.34518201003E+02  0.00000000000E+00 0. -1.
</event>
<event>
 7    1  0.3027254E-013  0.7246159E+02  0.7816164E-02  0.1226708E+00
        -11   -1    0    0    0    0  0.00000000000E+00  0.00000000000E+00  0.45593999997E+02  0.45594000000E+02  0.51100000000E-03 0. -1.
         11   -1    0    0    0    0 -0.00000000000E+00 -0.00000000000E+00 -0.45593999997E+02  0.45594000000E+02  0.51100000000E-03 0.  1.
    9900012    2    1    2    0    0 -0.81773279786E+01  0.15788923855E+02  0.58753498500E+01  0.72461586964E+02  0.70000021715E+02 0.  0.
         12    1    1    2    0    0  0.81773279786E+01 -0.15788923855E+02 -0.58753498500E+01  0.18726413036E+02  0.00000000000E+00 0. -1.
         11    1    3    3    0    0  0.11579850432E+02  0.71186366569E+01  0.15216772356E+02  0.20403874267E+02  0.51100000000E-03 0. -1.
        -11    1    3    3    0    0 -0.27056328115E+02  0.15658798889E+02  0.77456147768E+01  0.32206170561E+02  0.51100000000E-03 0.  1.
         12    1    3    3    0    0  0.72991497041E+01 -0.69885116909E+01 -0.17087037283E+02  0.19851542136E+02  0.00000000000E+00 0. -1.
</event>
<event>
 7    1  0.3027254E-013  0.7246157E+02  0.7816164E-02  0.1226708E+00
        -11   -1    0    0    0    0  0.00000000000E+00  0.00000000000E+00  0.45593999997E+02  0.45594000000E+02  0.51100000000E-03 0.  1.
         11   -1    0    0    0    0 -0.00000000000E+00 -0.00000000000E+00 -0.45593999997E+02  0.45594000000E+02  0.51100000000E-03 0. -1.
    9900012    2    1    2    0    0 -0.43241722920E+01  0.89160687421E+01  0.15889757996E+02  0.72461570628E+02  0.70000000435E+02 0.  0.
         12    1    1    2    0    0  0.43241722920E+01 -0.89160687421E+01 -0.15889757996E+02  0.18726429372E+02  0.00000000000E+00 0. -1.
         11    1    3    3    0    0 -0.10745156701E+02 -0.24770529119E+02  0.15724893611E+02  0.31245956293E+02  0.51100000000E-03 0. -1.
        -11    1    3    3    0    0 -0.33834975190E+01 -0.13190885684E+01  0.30584193050E+01  0.47478394053E+01  0.51100000000E-03 0.  1.
        -12    1    3    3    0    0  0.98044819276E+01  0.35005686429E+02 -0.28935549195E+01  0.36467774930E+02  0.00000000000E+00 0.  1.
</event>
<event>
 7    1  0.3027254E-013  0.7246157E+02  0.7816164E-02  0.1226708E+00
        -11   -1    0    0    0    0  0.00000000000E+00  0.00000000000E+00  0.45593999997E+02  0.45594000000E+02  0.51100000000E-03 0.  1.
         11   -1    0    0    0    0 -0.00000000000E+00 -0.00000000000E+00 -0.45593999997E+02  0.45594000000E+02  0.51100000000E-03 0. -1.
    9900012    2    1    2    0    0 -0.10895533848E+02  0.94263547297E+01  0.11962875166E+02  0.72461569386E+02  0.69999998816E+02 0.  0.
         12    1    1    2    0    0  0.10895533848E+02 -0.94263547297E+01 -0.11962875166E+02  0.18726430614E+02  0.00000000000E+00 0. -1.
         11    1    3    3    0    0  0.14687098841E+02 -0.21642961005E+02  0.12641480169E+02  0.29050570641E+02  0.51100000000E-03 0. -1.
        -11    1    3    3    0    0 -0.88548747317E+00 -0.17027854431E+01  0.13149729372E+01  0.23265253958E+01  0.51100000000E-03 0.  1.
         12    1    3    3    0    0 -0.24697145215E+02  0.32772101178E+02 -0.19935779397E+01  0.41084473349E+02  0.00000000000E+00 0. -1.
</event>
<event>
 7    1  0.3027254E-013  0.7246153E+02  0.7816164E-02  0.1226708E+00
        -11   -1    0    0    0    0  0.00000000000E+00  0.00000000000E+00  0.45593999997E+02  0.45594000000E+02  0.51100000000E-03 0.  1.
         11   -1    0    0    0    0 -0.00000000000E+00 -0.00000000000E+00 -0.45593999997E+02  0.45594000000E+02  0.51100000000E-03 0. -1.
    9900012    2    1    2    0    0 -0.11724701340E+02 -0.10651044848E+02  0.99883590413E+01  0.72461529585E+02  0.69999946969E+02 0.  0.
         12    1    1    2    0    0  0.11724701340E+02  0.10651044848E+02 -0.99883590413E+01  0.18726470415E+02  0.00000000000E+00 0. -1.
         11    1    3    3    0    0  0.23800242379E+01  0.78730879140E+00  0.16903079648E+01  0.30234933079E+01  0.51100000000E-03 0. -1.
        -11    1    3    3    0    0  0.18555520387E+02 -0.17967530368E+02  0.21504062855E+02  0.33608989927E+02  0.51100000000E-03 0.  1.
         12    1    3    3    0    0 -0.32660245965E+02  0.65291767291E+01 -0.13206011779E+02  0.35829046350E+02  0.00000000000E+00 0. -1.
</event>
<event>
 7    1  0.3027254E-013  0.7246121E+02  0.7816164E-02  0.1226709E+00
        -11   -1    0    0    0    0  0.00000000000E+00  0.00000000000E+00  0.45593999997E+02  0.45594000000E+02  0.51100000000E-03 0.  1.
         11   -1    0    0    0    0 -0.00000000000E+00 -0.00000000000E+00 -0.45593999997E+02  0.45594000000E+02  0.51100000000E-03 0. -1.
    9900012    2    1    2    0    0  0.79725820676E+01 -0.64761895382E+01  0.15658526836E+02  0.72461212811E+02  0.69999534309E+02 0.  0.
         12    1    1    2    0    0 -0.79725820676E+01  0.64761895382E+01 -0.15658526836E+02  0.18726787189E+02  0.00000000000E+00 0. -1.
         11    1    3    3    0    0  0.96984943618E+01  0.98377292215E+01 -0.76982446583E+00  0.13835979875E+02  0.51100000000E-03 0. -1.
        -11    1    3    3    0    0 -0.23699055172E+02 -0.44414025838E+00  0.20347214396E+02  0.31238623698E+02  0.51100000000E-03 0.  1.
         12    1    3    3    0    0  0.21973142878E+02 -0.15869778501E+02 -0.39188630939E+01  0.27386609238E+02  0.00000000000E+00 0. -1.
</event>
<event>
 7    1  0.3027254E-013  0.7246160E+02  0.7816164E-02  0.1226708E+00
        -11   -1    0    0    0    0  0.00000000000E+00  0.00000000000E+00  0.45593999997E+02  0.45594000000E+02  0.51100000000E-03 0.  1.
         11   -1    0    0    0    0 -0.00000000000E+00 -0.00000000000E+00 -0.45593999997E+02  0.45594000000E+02  0.51100000000E-03 0. -1.
    9900012    2    1    2    0    0  0.14320215605E+02  0.11609649532E+02  0.32902334652E+01  0.72461596888E+02  0.70000034644E+02 0.  0.
         12    1    1    2    0    0 -0.14320215605E+02 -0.11609649532E+02 -0.32902334652E+01  0.18726403112E+02  0.00000000000E+00 0. -1.
         11    1    3    3    0    0  0.72149642616E+01 -0.10451831831E+02 -0.87661488415E+01  0.15431845765E+02  0.51100000000E-03 0. -1.
        -11    1    3    3    0    0  0.11087667505E+02 -0.92576202851E+01 -0.10815038799E+02  0.18044527385E+02  0.51100000000E-03 0.  1.
        -12    1    3    3    0    0 -0.39824161618E+01  0.31319101649E+02  0.22871421106E+02  0.38985223739E+02  0.00000000000E+00 0.  1.
</event>
<event>
 7    1  0.3027254E-013  0.7246155E+02  0.7816164E-02  0.1226708E+00
        -11   -1    0    0    0    0  0.00000000000E+00  0.00000000000E+00  0.45593999997E+02  0.45594000000E+02  0.51100000000E-03 0.  1.
         11   -1    0    0    0    0 -0.00000000000E+00 -0.00000000000E+00 -0.45593999997E+02  0.45594000000E+02  0.51100000000E-03 0. -1.
    9900012    2    1    2    0    0  0.22018295551E+01  0.47943026554E+01  0.17967931954E+02  0.72461548920E+02  0.69999972156E+02 0.  0.
         12    1    1    2    0    0 -0.22018295551E+01 -0.47943026554E+01 -0.17967931954E+02  0.18726451080E+02  0.00000000000E+00 0. -1.
         11    1    3    3    0    0 -0.32600735375E+01  0.11624620563E+02 -0.20356025969E+02  0.23667016631E+02  0.51100000000E-03 0. -1.
        -11    1    3    3    0    0 -0.60188572725E+01 -0.49230375172E+01 -0.94895823398E+00  0.78334834686E+01  0.51100000000E-03 0.  1.
        -12    1    3    3    0    0  0.11480760365E+02 -0.19072803904E+01  0.39272916157E+02  0.40961048821E+02  0.00000000000E+00 0.  1.
</event>
<event>
 7    1  0.3027254E-013  0.7246155E+02  0.7816164E-02  0.1226708E+00
        -11   -1    0    0    0    0  0.00000000000E+00  0.00000000000E+00  0.45593999997E+02  0.45594000000E+02  0.51100000000E-03 0. -1.
         11   -1    0    0    0    0 -0.00000000000E+00 -0.00000000000E+00 -0.45593999997E+02  0.45594000000E+02  0.51100000000E-03 0.  1.
    9900012    2    1    2    0    0 -0.14108838982E+02 -0.55469350824E+01 -0.10993273397E+02  0.72461551159E+02  0.69999975073E+02 0.  0.
         12    1    1    2    0    0  0.14108838982E+02  0.55469350824E+01  0.10993273397E+02  0.18726448841E+02  0.00000000000E+00 0. -1.
         11    1    3    3    0    0  0.17703656315E+01 -0.28460401599E+01  0.54543187294E+01  0.64018538037E+01  0.51100000000E-03 0. -1.
        -11    1    3    3    0    0 -0.31715404745E+02 -0.22088640995E+02 -0.13069904690E+02  0.40799477546E+02  0.51100000000E-03 0.  1.
        -12    1    3    3    0    0  0.15836200132E+02  0.19387746073E+02 -0.33776874364E+01  0.25260219809E+02  0.00000000000E+00 0.  1.
</event>
<event>
 7    1  0.3027254E-013  0.7246159E+02  0.7816164E-02  0.1226708E+00
        -11   -1    0    0    0    0  0.00000000000E+00  0.00000000000E+00  0.45593999997E+02  0.45594000000E+02  0.51100000000E-03 0.  1.
         11   -1    0    0    0    0 -0.00000000000E+00 -0.00000000000E+00 -0.45593999997E+02  0.45594000000E+02  0.51100000000E-03 0. -1.
    9900012    2    1    2    0    0 -0.15596117045E+02 -0.82133456766E+01  0.63230156016E+01  0.72461589762E+02  0.70000025361E+02 0.  0.
         12    1    1    2    0    0  0.15596117045E+02  0.82133456766E+01 -0.63230156016E+01  0.18726410238E+02  0.00000000000E+00 0. -1.
         11    1    3    3    0    0 -0.33048328854E+00  0.11630392550E+02  0.74484481739E+01  0.13815014677E+02  0.51100000000E-03 0. -1.
        -11    1    3    3    0    0  0.12694260395E+02 -0.26799869244E+02 -0.27970455298E+01  0.29785914497E+02  0.51100000000E-03 0.  1.
         12    1    3    3    0    0 -0.27959894152E+02  0.69561310171E+01  0.16716129574E+01  0.28860660588E+02  0.00000000000E+00 0. -1.
</event>
<event>
 7    1  0.3027254E-013  0.7246150E+02  0.7816164E-02  0.1226708E+00
        -11   -1    0    0    0    0  0.00000000000E+00  0.00000000000E+00  0.45593999997E+02  0.45594000000E+02  0.51100000000E-03 0.  1.
         11   -1    0    0    0    0 -0.00000000000E+00 -0.00000000000E+00 -0.45593999997E+02  0.45594000000E+02  0.51100000000E-03 0. -1.
    9900012    2    1    2    0    0 -0.49427557446E+01  0.17103148128E+02 -0.58080250859E+01  0.72461503648E+02  0.69999913180E+02 0.  0.
         12    1    1    2    0    0  0.49427557446E+01 -0.17103148128E+02  0.58080250859E+01  0.18726496352E+02  0.00000000000E+00 0. -1.
         11    1    3    3    0    0  0.94640459565E+01  0.92234670823E+01 -0.10158036054E+02  0.16668119499E+02  0.51100000000E-03 0. -1.
        -11    1    3    3    0    0 -0.26736465210E+02  0.20810327006E+02  0.12555594385E+02  0.36132412494E+02  0.51100000000E-03 0.  1.
         12    1    3    3    0    0  0.12329663509E+02 -0.12930645960E+02 -0.82055834167E+01  0.19660971655E+02  0.00000000000E+00 0. -1.
</event>
<event>
 7    1  0.3027254E-013  0.7246156E+02  0.7816164E-02  0.1226708E+00
        -11   -1    0    0    0    0  0.00000000000E+00  0.00000000000E+00  0.45593999997E+02  0.45594000000E+02  0.51100000000E-03 0. -1.
         11   -1    0    0    0    0 -0.00000000000E+00 -0.00000000000E+00 -0.45593999997E+02  0.45594000000E+02  0.51100000000E-03 0.  1.
    9900012    2    1    2    0    0  0.44909681055E+01  0.21756741710E+01 -0.18049296692E+02  0.72461562440E+02  0.69999989768E+02 0.  0.
         12    1    1    2    0    0 -0.44909681055E+01 -0.21756741710E+01  0.18049296692E+02  0.18726437560E+02  0.00000000000E+00 0. -1.
         11    1    3    3    0    0 -0.13017637956E+02  0.10259035785E+02  0.94114641317E+01  0.19059967748E+02  0.51100000000E-03 0. -1.
        -11    1    3    3    0    0 -0.12758500690E+02 -0.19291312521E+01 -0.15770850707E+02  0.20376962962E+02  0.51100000000E-03 0.  1.
        -12    1    3    3    0    0  0.30267106751E+02 -0.61542303615E+01 -0.11689910116E+02  0.33024631731E+02  0.00000000000E+00 0.  1.
</event>
<event>
 7    1  0.3027254E-013  0.7246158E+02  0.7816164E-02  0.1226708E+00
        -11   -1    0    0    0    0  0.00000000000E+00  0.00000000000E+00  0.45593999997E+02  0.45594000000E+02  0.51100000000E-03 0.  1.
         11   -1    0    0    0    0 -0.00000000000E+00 -0.00000000000E+00 -0.45593999997E+02  0.45594000000E+02  0.51100000000E-03 0. -1.
    9900012    2    1    2    0    0  0.14469938160E+02  0.11808269780E+02 -0.13655019800E+01  0.72461576390E+02  0.70000007941E+02 0.  0.
         12    1    1    2    0    0 -0.14469938160E+02 -0.11808269780E+02  0.13655019800E+01  0.18726423610E+02  0.00000000000E+00 0. -1.
         11    1    3    3    0    0  0.11491972040E+02  0.79557868665E+01 -0.67300625246E+01  0.15513017369E+02  0.51100000000E-03 0. -1.
        -11    1    3    3    0    0  0.35674987154E+01  0.91208745438E+01  0.30099055761E+02  0.31652338895E+02  0.51100000000E-03 0.  1.
         12    1    3    3    0    0 -0.58953259536E+00 -0.52683916305E+01 -0.24734495217E+02  0.25296220126E+02  0.00000000000E+00 0. -1.
</event>
<event>
 7    1  0.3027254E-013  0.7246159E+02  0.7816164E-02  0.1226708E+00
        -11   -1    0    0    0    0  0.00000000000E+00  0.00000000000E+00  0.45593999997E+02  0.45594000000E+02  0.51100000000E-03 0.  1.
         11   -1    0    0    0    0 -0.00000000000E+00 -0.00000000000E+00 -0.45593999997E+02  0.45594000000E+02  0.51100000000E-03 0. -1.
    9900012    2    1    2    0    0 -0.12275958129E+02 -0.98737067004E+01 -0.10123686871E+02  0.72461594369E+02  0.70000031362E+02 0.  0.
         12    1    1    2    0    0  0.12275958129E+02  0.98737067004E+01  0.10123686871E+02  0.18726405631E+02  0.00000000000E+00 0. -1.
         11    1    3    3    0    0 -0.75458814219E+01 -0.11134649000E+02 -0.59999630593E+01  0.14728214140E+02  0.51100000000E-03 0. -1.
        -11    1    3    3    0    0 -0.24900340459E+02 -0.26565202904E-01  0.15688920188E+02  0.29430764136E+02  0.51100000000E-03 0.  1.
         12    1    3    3    0    0  0.20170263752E+02  0.12875075025E+01 -0.19812644000E+02  0.28302616093E+02  0.00000000000E+00 0. -1.
</event>
<event>
 7    1  0.3027254E-013  0.7246154E+02  0.7816164E-02  0.1226708E+00
        -11   -1    0    0    0    0  0.00000000000E+00  0.00000000000E+00  0.45593999997E+02  0.45594000000E+02  0.51100000000E-03 0.  1.
         11   -1    0    0    0    0 -0.00000000000E+00 -0.00000000000E+00 -0.45593999997E+02  0.45594000000E+02  0.51100000000E-03 0. -1.
    9900012    2    1    2    0    0  0.15929015004E+02  0.69619063053E+01 -0.69626614519E+01  0.72461539766E+02  0.69999960231E+02 0.  0.
         12    1    1    2    0    0 -0.15929015004E+02 -0.69619063053E+01  0.69626614519E+01  0.18726460234E+02  0.00000000000E+00 0. -1.
         11    1    3    3    0    0 -0.59729212585E+01 -0.91890580131E+01  0.10120303250E+02  0.14917610856E+02  0.51100000000E-03 0. -1.
        -11    1    3    3    0    0 -0.61352843484E+01  0.20350313527E+02  0.47281711738E+01  0.21774585590E+02  0.51100000000E-03 0.  1.
         12    1    3    3    0    0  0.28037220611E+02 -0.41993492088E+01 -0.21811135876E+02  0.35769343320E+02  0.00000000000E+00 0. -1.
</event>
<event>
 7    1  0.3027254E-013  0.7246158E+02  0.7816164E-02  0.1226708E+00
        -11   -1    0    0    0    0  0.00000000000E+00  0.00000000000E+00  0.45593999997E+02  0.45594000000E+02  0.51100000000E-03 0.  1.
         11   -1    0    0    0    0 -0.00000000000E+00 -0.00000000000E+00 -0.45593999997E+02  0.45594000000E+02  0.51100000000E-03 0. -1.
    9900012    2    1    2    0    0 -0.72737859612E+01 -0.55338760533E+01  0.16344635757E+02  0.72461578441E+02  0.70000010613E+02 0.  0.
         12    1    1    2    0    0  0.72737859612E+01  0.55338760533E+01 -0.16344635757E+02  0.18726421559E+02  0.00000000000E+00 0. -1.
         11    1    3    3    0    0  0.46768226910E+01 -0.23227454430E+02  0.89210821013E+01  0.25317444893E+02  0.51100000000E-03 0. -1.
        -11    1    3    3    0    0 -0.36577359651E+00 -0.11414208210E+02  0.10694013506E+02  0.15645442292E+02  0.51100000000E-03 0.  1.
         12    1    3    3    0    0 -0.11584835056E+02  0.29107786586E+02 -0.32704598510E+01  0.31498691256E+02  0.00000000000E+00 0. -1.
</event>
<event>
 7    1  0.3027254E-013  0.7246158E+02  0.7816164E-02  0.1226708E+00
        -11   -1    0    0    0    0  0.00000000000E+00  0.00000000000E+00  0.45593999997E+02  0.45594000000E+02  0.51100000000E-03 0. -1.
         11   -1    0    0    0    0 -0.00000000000E+00 -0.00000000000E+00 -0.45593999997E+02  0.45594000000E+02  0.51100000000E-03 0.  1.
    9900012    2    1    2    0    0  0.90208794877E+01 -0.15172247640E+02 -0.62534447988E+01  0.72461576502E+02  0.70000008087E+02 0.  0.
         12    1    1    2    0    0 -0.90208794877E+01  0.15172247640E+02  0.62534447988E+01  0.18726423498E+02  0.00000000000E+00 0. -1.
         11    1    3    3    0    0  0.29934882291E+02 -0.75762620219E+01  0.10320175183E+01  0.30895986543E+02  0.51100000000E-03 0. -1.
        -11    1    3    3    0    0  0.49629028885E+01 -0.50180524836E+01 -0.13134783469E+02  0.14910861573E+02  0.51100000000E-03 0.  1.
        -12    1    3    3    0    0 -0.25876905692E+02 -0.25779331341E+01  0.58493211515E+01  0.26654728387E+02  0.00000000000E+00 0.  1.
</event>
<event>
 7    1  0.3027254E-013  0.7246145E+02  0.7816164E-02  0.1226708E+00
        -11   -1    0    0    0    0  0.00000000000E+00  0.00000000000E+00  0.45593999997E+02  0.45594000000E+02  0.51100000000E-03 0.  1.
         11   -1    0    0    0    0 -0.00000000000E+00 -0.00000000000E+00 -0.45593999997E+02  0.45594000000E+02  0.51100000000E-03 0. -1.
    9900012    2    1    2    0    0 -0.90062406526E+01  0.73330457724E+01  0.14690059411E+02  0.72461447287E+02  0.69999839760E+02 0.  0.
         12    1    1    2    0    0  0.90062406526E+01 -0.73330457724E+01 -0.14690059411E+02  0.18726552713E+02  0.00000000000E+00 0. -1.
         11    1    3    3    0    0  0.12617637946E+02  0.22387528616E+01 -0.40785427669E+01  0.13448097005E+02  0.51100000000E-03 0. -1.
        -11    1    3    3    0    0  0.58913723582E+01 -0.82470078843E+01 -0.11950025742E+02  0.15669222151E+02  0.51100000000E-03 0.  1.
        -12    1    3    3    0    0 -0.27515250956E+02  0.13341300795E+02  0.30718627921E+02  0.43344128131E+02  0.00000000000E+00 0.  1.
</event>
<event>
 7    1  0.3027254E-013  0.7246158E+02  0.7816164E-02  0.1226708E+00
        -11   -1    0    0    0    0  0.00000000000E+00  0.00000000000E+00  0.45593999997E+02  0.45594000000E+02  0.51100000000E-03 0.  1.
         11   -1    0    0    0    0 -0.00000000000E+00 -0.00000000000E+00 -0.45593999997E+02  0.45594000000E+02  0.51100000000E-03 0. -1.
    9900012    2    1    2    0    0  0.25925036064E+01 -0.94954153821E+01  0.15930941818E+02  0.72461577613E+02  0.70000009533E+02 0.  0.
         12    1    1    2    0    0 -0.25925036064E+01  0.94954153821E+01 -0.15930941818E+02  0.18726422387E+02  0.00000000000E+00 0. -1.
         11    1    3    3    0    0  0.16661641623E+02 -0.16694428175E+02  0.11186198076E+02  0.26104506533E+02  0.51100000000E-03 0. -1.
        -11    1    3    3    0    0 -0.79768937927E+00 -0.17233805055E+02 -0.29609151475E+01  0.17504495531E+02  0.51100000000E-03 0.  1.
        -12    1    3    3    0    0 -0.13271448637E+02  0.24432817848E+02  0.77056588890E+01  0.28852575549E+02  0.00000000000E+00 0.  1.
</event>
<event>
 7    1  0.3027254E-013  0.7246161E+02  0.7816164E-02  0.1226708E+00
        -11   -1    0    0    0    0  0.00000000000E+00  0.00000000000E+00  0.45593999997E+02  0.45594000000E+02  0.51100000000E-03 0.  1.
         11   -1    0    0    0    0 -0.00000000000E+00 -0.00000000000E+00 -0.45593999997E+02  0.45594000000E+02  0.51100000000E-03 0. -1.
    9900012    2    1    2    0    0  0.10819328866E+02 -0.13535247320E+02  0.71004965490E+01  0.72461605570E+02  0.70000045952E+02 0.  0.
         12    1    1    2    0    0 -0.10819328866E+02  0.13535247320E+02 -0.71004965490E+01  0.18726394430E+02  0.00000000000E+00 0. -1.
         11    1    3    3    0    0 -0.92434714804E+01 -0.18086422335E+01  0.11382073175E+02  0.14773778858E+02  0.51100000000E-03 0. -1.
        -11    1    3    3    0    0 -0.92433009004E+01  0.66680292008E+01  0.14400999157E+02  0.18365456758E+02  0.51100000000E-03 0.  1.
         12    1    3    3    0    0  0.29306101246E+02 -0.18394634288E+02 -0.18682575783E+02  0.39322369953E+02  0.00000000000E+00 0. -1.
</event>
<event>
 7    1  0.3027254E-013  0.7246157E+02  0.7816164E-02  0.1226708E+00
        -11   -1    0    0    0    0  0.00000000000E+00  0.00000000000E+00  0.45593999997E+02  0.45594000000E+02  0.51100000000E-03 0. -1.
         11   -1    0    0    0    0 -0.00000000000E+00 -0.00000000000E+00 -0.45593999997E+02  0.45594000000E+02  0.51100000000E-03 0.  1.
    9900012    2    1    2    0    0 -0.18460654253E+02  0.14888637640E+00 -0.31402736173E+01  0.72461568386E+02  0.69999997514E+02 0.  0.
         12    1    1    2    0    0  0.18460654253E+02 -0.14888637640E+00  0.31402736173E+01  0.18726431614E+02  0.00000000000E+00 0. -1.
         11    1    3    3    0    0  0.16167223651E+02  0.12303317836E+02  0.20619837335E+01  0.20420639743E+02  0.51100000000E-03 0. -1.
        -11    1    3    3    0    0 -0.10278269846E+01  0.30844907331E+01 -0.13783562568E+02  0.14161818694E+02  0.51100000000E-03 0.  1.
         12    1    3    3    0    0 -0.33600050919E+02 -0.15238922192E+02  0.85813052168E+01  0.37879109950E+02  0.00000000000E+00 0. -1.
</event>
<event>
 7    1  0.3027254E-013  0.7246166E+02  0.7816164E-02  0.1226708E+00
        -11   -1    0    0    0    0  0.00000000000E+00  0.00000000000E+00  0.45593999997E+02  0.45594000000E+02  0.51100000000E-03 0.  1.
         11   -1    0    0    0    0 -0.00000000000E+00 -0.00000000000E+00 -0.45593999997E+02  0.45594000000E+02  0.51100000000E-03 0. -1.
    9900012    2    1    2    0    0  0.37007221253E+01  0.10436550596E+02  0.15101618156E+02  0.72461660168E+02  0.70000117077E+02 0.  0.
         12    1    1    2    0    0 -0.37007221253E+01 -0.10436550596E+02 -0.15101618156E+02  0.18726339832E+02  0.00000000000E+00 0. -1.
         11    1    3    3    0    0 -0.17909187071E+01  0.49237445803E+01  0.12689253350E+02  0.13728357562E+02  0.51100000000E-03 0. -1.
        -11    1    3    3    0    0  0.17309245920E+01 -0.24914838905E+02  0.10395220638E+02  0.27051911392E+02  0.51100000000E-03 0.  1.
         12    1    3    3    0    0  0.37607162405E+01  0.30427644920E+02 -0.79828558317E+01  0.31681391214E+02  0.00000000000E+00 0. -1.
</event>
<event>
 7    1  0.3027254E-013  0.7246160E+02  0.7816164E-02  0.1226708E+00
        -11   -1    0    0    0    0  0.00000000000E+00  0.00000000000E+00  0.45593999997E+02  0.45594000000E+02  0.51100000000E-03 0.  1.
         11   -1    0    0    0    0 -0.00000000000E+00 -0.00000000000E+00 -0.45593999997E+02  0.45594000000E+02  0.51100000000E-03 0. -1.
    9900012    2    1    2    0    0  0.14497820904E+02 -0.10961249105E+02 -0.45102530843E+01  0.72461596827E+02  0.70000034564E+02 0.  0.
         12    1    1    2    0    0 -0.14497820904E+02  0.10961249105E+02  0.45102530843E+01  0.18726403173E+02  0.00000000000E+00 0. -1.
         11    1    3    3    0    0  0.29082277572E+02 -0.23150620996E+01  0.78583504969E+01  0.30214103562E+02  0.51100000000E-03 0. -1.
        -11    1    3    3    0    0 -0.48635232250E+01 -0.22676423606E+02 -0.88271391485E+01  0.24815165354E+02  0.51100000000E-03 0.  1.
         12    1    3    3    0    0 -0.97209334424E+01  0.14030236601E+02 -0.35414644327E+01  0.17432327911E+02  0.00000000000E+00 0. -1.
</event>
<event>
 7    1  0.3027254E-013  0.7246169E+02  0.7816164E-02  0.1226708E+00
        -11   -1    0    0    0    0  0.00000000000E+00  0.00000000000E+00  0.45593999997E+02  0.45594000000E+02  0.51100000000E-03 0. -1.
         11   -1    0    0    0    0 -0.00000000000E+00 -0.00000000000E+00 -0.45593999997E+02  0.45594000000E+02  0.51100000000E-03 0.  1.
    9900012    2    1    2    0    0  0.69665901690E-01 -0.12273412167E+02 -0.14143302974E+02  0.72461694477E+02  0.70000161770E+02 0.  0.
         12    1    1    2    0    0 -0.69665901690E-01  0.12273412167E+02  0.14143302974E+02  0.18726305523E+02  0.00000000000E+00 0. -1.
         11    1    3    3    0    0  0.51823481837E+00 -0.21216064924E+02  0.70659963854E+01  0.22367795675E+02  0.51100000000E-03 0. -1.
        -11    1    3    3    0    0 -0.12091299609E+02  0.41465004193E+00  0.10008465980E+02  0.15701619420E+02  0.51100000000E-03 0.  1.
        -12    1    3    3    0    0  0.11642730692E+02  0.85280027156E+01 -0.31217765339E+02  0.34392279381E+02  0.00000000000E+00 0.  1.
</event>
<event>
 7    1  0.3027254E-013  0.7246156E+02  0.7816164E-02  0.1226708E+00
        -11   -1    0    0    0    0  0.00000000000E+00  0.00000000000E+00  0.45593999997E+02  0.45594000000E+02  0.51100000000E-03 0. -1.
         11   -1    0    0    0    0 -0.00000000000E+00 -0.00000000000E+00 -0.45593999997E+02  0.45594000000E+02  0.51100000000E-03 0.  1.
    9900012    2    1    2    0    0 -0.40274772307E+01 -0.17902761158E+02 -0.37349661866E+01  0.72461564078E+02  0.69999991902E+02 0.  0.
         12    1    1    2    0    0  0.40274772307E+01  0.17902761158E+02  0.37349661866E+01  0.18726435922E+02  0.00000000000E+00 0. -1.
         11    1    3    3    0    0 -0.59969238999E+01  0.75142949209E+01  0.61010741587E+01  0.11386431863E+02  0.51100000000E-03 0. -1.
        -11    1    3    3    0    0 -0.25415302518E+02 -0.15452275606E+02  0.15593713889E+01  0.29784930130E+02  0.51100000000E-03 0.  1.
         12    1    3    3    0    0  0.27384749187E+02 -0.99647804733E+01 -0.11395411734E+02  0.31290202085E+02  0.00000000000E+00 0. -1.
</event>
<event>
 7    1  0.3027254E-013  0.7246155E+02  0.7816164E-02  0.1226708E+00
        -11   -1    0    0    0    0  0.00000000000E+00  0.00000000000E+00  0.45593999997E+02  0.45594000000E+02  0.51100000000E-03 0.  1.
         11   -1    0    0    0    0 -0.00000000000E+00 -0.00000000000E+00 -0.45593999997E+02  0.45594000000E+02  0.51100000000E-03 0. -1.
    9900012    2    1    2    0    0 -0.10694344836E+02 -0.70145500854E+01  0.13678708999E+02  0.72461548007E+02  0.69999970967E+02 0.  0.
         12    1    1    2    0    0  0.10694344836E+02  0.70145500854E+01 -0.13678708999E+02  0.18726451993E+02  0.00000000000E+00 0. -1.
         11    1    3    3    0    0 -0.40547460933E+01  0.76345977129E+01  0.43906336464E+01  0.96956542944E+01  0.51100000000E-03 0. -1.
        -11    1    3    3    0    0 -0.32039179181E+02  0.91103695613E+00  0.75442073181E+01  0.32928013229E+02  0.51100000000E-03 0.  1.
         12    1    3    3    0    0  0.25399580438E+02 -0.15560184754E+02  0.17438680343E+01  0.29837880483E+02  0.00000000000E+00 0. -1.
</event>
<event>
 7    1  0.3027254E-013  0.7246165E+02  0.7816164E-02  0.1226708E+00
        -11   -1    0    0    0    0  0.00000000000E+00  0.00000000000E+00  0.45593999997E+02  0.45594000000E+02  0.51100000000E-03 0. -1.
         11   -1    0    0    0    0 -0.00000000000E+00 -0.00000000000E+00 -0.45593999997E+02  0.45594000000E+02  0.51100000000E-03 0.  1.
    9900012    2    1    2    0    0  0.14324274526E+02 -0.60430092381E+01  0.10439025303E+02  0.72461653570E+02  0.70000108482E+02 0.  0.
         12    1    1    2    0    0 -0.14324274526E+02  0.60430092381E+01 -0.10439025303E+02  0.18726346430E+02  0.00000000000E+00 0. -1.
         11    1    3    3    0    0  0.16922871846E+02  0.43179045493E+01 -0.10609731703E+02  0.20435124132E+02  0.51100000000E-03 0. -1.
        -11    1    3    3    0    0 -0.65966864845E+01 -0.11929834997E+02 -0.12324859990E+02  0.18377687822E+02  0.51100000000E-03 0.  1.
         12    1    3    3    0    0  0.39980891648E+01  0.15689212098E+01  0.33373616996E+02  0.33648841616E+02  0.00000000000E+00 0. -1.
</event>
<event>
 7    1  0.3027254E-013  0.7246158E+02  0.7816164E-02  0.1226708E+00
        -11   -1    0    0    0    0  0.00000000000E+00  0.00000000000E+00  0.45593999997E+02  0.45594000000E+02  0.51100000000E-03 0. -1.
         11   -1    0    0    0    0 -0.00000000000E+00 -0.00000000000E+00 -0.45593999997E+02  0.45594000000E+02  0.51100000000E-03 0.  1.
    9900012    2    1    2    0    0 -0.10531747767E+02  0.15283792386E+02 -0.24833056263E+01  0.72461579425E+02  0.70000011894E+02 0.  0.
         12    1    1    2    0    0  0.10531747767E+02 -0.15283792386E+02  0.24833056263E+01  0.18726420575E+02  0.00000000000E+00 0. -1.
         11    1    3    3    0    0 -0.21891822386E+02 -0.21004918116E+02 -0.20029795998E+01  0.30405104835E+02  0.51100000000E-03 0. -1.
        -11    1    3    3    0    0  0.21229848047E+01  0.29269093595E+01 -0.59969928648E+01  0.70026985200E+01  0.51100000000E-03 0.  1.
        -12    1    3    3    0    0  0.92370898150E+01  0.33361801143E+02  0.55166668383E+01  0.35053776070E+02  0.00000000000E+00 0.  1.
</event>
<event>
 7    1  0.3027254E-013  0.7246139E+02  0.7816164E-02  0.1226708E+00
        -11   -1    0    0    0    0  0.00000000000E+00  0.00000000000E+00  0.45593999997E+02  0.45594000000E+02  0.51100000000E-03 0. -1.
         11   -1    0    0    0    0 -0.00000000000E+00 -0.00000000000E+00 -0.45593999997E+02  0.45594000000E+02  0.51100000000E-03 0.  1.
    9900012    2    1    2    0    0  0.17516735601E+02 -0.15240492160E+01 -0.64441519041E+01  0.72461392034E+02  0.69999767783E+02 0.  0.
         12    1    1    2    0    0 -0.17516735601E+02  0.15240492160E+01  0.64441519041E+01  0.18726607966E+02  0.00000000000E+00 0. -1.
         11    1    3    3    0    0  0.42111140433E+01 -0.19205292930E+02 -0.81956648587E+01  0.21301307020E+02  0.51100000000E-03 0. -1.
        -11    1    3    3    0    0 -0.32305604020E+01 -0.70570186939E+01 -0.15089666243E+02  0.16968678821E+02  0.51100000000E-03 0.  1.
         12    1    3    3    0    0  0.16536181960E+02  0.24738262408E+02  0.16841179197E+02  0.34191406194E+02  0.00000000000E+00 0. -1.
</event>
<event>
 7    1  0.3027254E-013  0.7246157E+02  0.7816164E-02  0.1226708E+00
        -11   -1    0    0    0    0  0.00000000000E+00  0.00000000000E+00  0.45593999997E+02  0.45594000000E+02  0.51100000000E-03 0.  1.
         11   -1    0    0    0    0 -0.00000000000E+00 -0.00000000000E+00 -0.45593999997E+02  0.45594000000E+02  0.51100000000E-03 0. -1.
    9900012    2    1    2    0    0 -0.11687500854E+02 -0.11337502393E+02  0.92489303242E+01  0.72461565506E+02  0.69999993762E+02 0.  0.
         12    1    1    2    0    0  0.11687500854E+02  0.11337502393E+02 -0.92489303242E+01  0.18726434494E+02  0.00000000000E+00 0. -1.
         11    1    3    3    0    0 -0.16029388103E+02  0.37198581581E+01  0.11706223240E+02  0.20194412358E+02  0.51100000000E-03 0. -1.
        -11    1    3    3    0    0  0.23041446533E+02  0.68548509126E+00 -0.12046465712E+02  0.26009526804E+02  0.51100000000E-03 0.  1.
         12    1    3    3    0    0 -0.18699559284E+02 -0.15742845642E+02  0.95891727965E+01  0.26257626344E+02  0.00000000000E+00 0. -1.
</event>
<event>
 7    1  0.3027254E-013  0.7246159E+02  0.7816164E-02  0.1226708E+00
        -11   -1    0    0    0    0  0.00000000000E+00  0.00000000000E+00  0.45593999997E+02  0.45594000000E+02  0.51100000000E-03 0.  1.
         11   -1    0    0    0    0 -0.00000000000E+00 -0.00000000000E+00 -0.45593999997E+02  0.45594000000E+02  0.51100000000E-03 0. -1.
    9900012    2    1    2    0    0  0.13674194832E+02  0.84546221484E+01 -0.96028240032E+01  0.72461589004E+02  0.70000024372E+02 0.  0.
         12    1    1    2    0    0 -0.13674194832E+02 -0.84546221484E+01  0.96028240032E+01  0.18726410996E+02  0.00000000000E+00 0. -1.
         11    1    3    3    0    0  0.24975013806E+01  0.13968613916E+02  0.14493581402E+00  0.14190866588E+02  0.51100000000E-03 0. -1.
        -11    1    3    3    0    0  0.33996351808E+01  0.25267058650E+02 -0.18914867074E+01  0.25564809689E+02  0.51100000000E-03 0.  1.
         12    1    3    3    0    0  0.77770582702E+01 -0.30781050417E+02 -0.78562731098E+01  0.32705912727E+02  0.00000000000E+00 0. -1.
</event>
<event>
 7    1  0.3027254E-013  0.7246172E+02  0.7816164E-02  0.1226708E+00
        -11   -1    0    0    0    0  0.00000000000E+00  0.00000000000E+00  0.45593999997E+02  0.45594000000E+02  0.51100000000E-03 0.  1.
         11   -1    0    0    0    0 -0.00000000000E+00 -0.00000000000E+00 -0.45593999997E+02  0.45594000000E+02  0.51100000000E-03 0. -1.
    9900012    2    1    2    0    0 -0.17516245408E+01 -0.18535529070E+02  0.20098655283E+01  0.72461719379E+02  0.70000194210E+02 0.  0.
         12    1    1    2    0    0  0.17516245408E+01  0.18535529070E+02 -0.20098655283E+01  0.18726280621E+02  0.00000000000E+00 0. -1.
         11    1    3    3    0    0  0.52358839338E+01 -0.23974782815E+01 -0.75223993937E+01  0.94735883158E+01  0.51100000000E-03 0. -1.
        -11    1    3    3    0    0 -0.13642100769E+02 -0.23004026367E+02  0.30124835005E+02  0.40283964885E+02  0.51100000000E-03 0.  1.
         12    1    3    3    0    0  0.66545922946E+01  0.68659755786E+01 -0.20592570083E+02  0.22704166179E+02  0.00000000000E+00 0. -1.
</event>
<event>
 7    1  0.3027254E-013  0.7246154E+02  0.7816164E-02  0.1226708E+00
        -11   -1    0    0    0    0  0.00000000000E+00  0.00000000000E+00  0.45593999997E+02  0.45594000000E+02  0.51100000000E-03 0.  1.
         11   -1    0    0    0    0 -0.00000000000E+00 -0.00000000000E+00 -0.45593999997E+02  0.45594000000E+02  0.51100000000E-03 0. -1.
    9900012    2    1    2    0    0 -0.14072426321E+02  0.12183694974E+02 -0.20504917356E+01  0.72461544859E+02  0.69999966866E+02 0.  0.
         12    1    1    2    0    0  0.14072426321E+02 -0.12183694974E+02  0.20504917356E+01  0.18726455141E+02  0.00000000000E+00 0. -1.
         11    1    3    3    0    0 -0.22477877050E+02 -0.55486948923E+01 -0.22444986641E+02  0.32246246250E+02  0.51100000000E-03 0. -1.
        -11    1    3    3    0    0 -0.25199019148E+01 -0.70542227257E+01  0.55845543278E+01  0.93434046913E+01  0.51100000000E-03 0.  1.
         12    1    3    3    0    0  0.10925352644E+02  0.24786612592E+02  0.14809940577E+02  0.30871893918E+02  0.00000000000E+00 0. -1.
</event>
<event>
 7    1  0.3027254E-013  0.7246148E+02  0.7816164E-02  0.1226708E+00
        -11   -1    0    0    0    0  0.00000000000E+00  0.00000000000E+00  0.45593999997E+02  0.45594000000E+02  0.51100000000E-03 0. -1.
         11   -1    0    0    0    0 -0.00000000000E+00 -0.00000000000E+00 -0.45593999997E+02  0.45594000000E+02  0.51100000000E-03 0.  1.
    9900012    2    1    2    0    0 -0.11603119209E+02 -0.29185946168E+01 -0.14405964691E+02  0.72461484345E+02  0.69999888035E+02 0.  0.
         12    1    1    2    0    0  0.11603119209E+02  0.29185946168E+01  0.14405964691E+02  0.18726515655E+02  0.00000000000E+00 0. -1.
         11    1    3    3    0    0 -0.55560654035E+01 -0.13641728970E+02 -0.56732497516E+01  0.15784561922E+02  0.51100000000E-03 0. -1.
        -11    1    3    3    0    0 -0.15581516864E+02 -0.18443555140E+02 -0.95906655421E+01  0.25979400682E+02  0.51100000000E-03 0.  1.
         12    1    3    3    0    0  0.95344630578E+01  0.29166689493E+02  0.85795060323E+00  0.30697521741E+02  0.00000000000E+00 0. -1.
</event>
<event>
 7    1  0.3027254E-013  0.7246171E+02  0.7816164E-02  0.1226708E+00
        -11   -1    0    0    0    0  0.00000000000E+00  0.00000000000E+00  0.45593999997E+02  0.45594000000E+02  0.51100000000E-03 0. -1.
         11   -1    0    0    0    0 -0.00000000000E+00 -0.00000000000E+00 -0.45593999997E+02  0.45594000000E+02  0.51100000000E-03 0.  1.
    9900012    2    1    2    0    0 -0.13957602396E+02 -0.91408853876E+01 -0.85031477716E+01  0.72461709061E+02  0.70000180769E+02 0.  0.
         12    1    1    2    0    0  0.13957602396E+02  0.91408853876E+01  0.85031477716E+01  0.18726290939E+02  0.00000000000E+00 0. -1.
         11    1    3    3    0    0 -0.14662194827E+02  0.12411206284E+02  0.11011421365E+02  0.22142027895E+02  0.51100000000E-03 0. -1.
        -11    1    3    3    0    0  0.24174578168E+01  0.83244855741E+01 -0.18438756654E+02  0.20374712503E+02  0.51100000000E-03 0.  1.
        -12    1    3    3    0    0 -0.17128653861E+01 -0.29876577245E+02 -0.10758124828E+01  0.29944968663E+02  0.00000000000E+00 0.  1.
</event>
<event>
 7    1  0.3027254E-013  0.7246162E+02  0.7816164E-02  0.1226708E+00
        -11   -1    0    0    0    0  0.00000000000E+00  0.00000000000E+00  0.45593999997E+02  0.45594000000E+02  0.51100000000E-03 0.  1.
         11   -1    0    0    0    0 -0.00000000000E+00 -0.00000000000E+00 -0.45593999997E+02  0.45594000000E+02  0.51100000000E-03 0. -1.
    9900012    2    1    2    0    0  0.27608313901E+01 -0.11365661331E+02  0.14624528985E+02  0.72461620332E+02  0.70000065183E+02 0.  0.
         12    1    1    2    0    0 -0.27608313901E+01  0.11365661331E+02 -0.14624528985E+02  0.18726379668E+02  0.00000000000E+00 0. -1.
         11    1    3    3    0    0 -0.15836326327E+02 -0.74127788853E+01  0.17063652963E+01  0.17568443446E+02  0.51100000000E-03 0. -1.
        -11    1    3    3    0    0  0.70624492991E+01  0.19635332906E+02 -0.69197661766E+01  0.21984259202E+02  0.51100000000E-03 0.  1.
        -12    1    3    3    0    0  0.11534708418E+02 -0.23588215352E+02  0.19837929865E+02  0.32908917684E+02  0.00000000000E+00 0.  1.
</event>
<event>
 7    1  0.3027254E-013  0.7246159E+02  0.7816164E-02  0.1226708E+00
        -11   -1    0    0    0    0  0.00000000000E+00  0.00000000000E+00  0.45593999997E+02  0.45594000000E+02  0.51100000000E-03 0. -1.
         11   -1    0    0    0    0 -0.00000000000E+00 -0.00000000000E+00 -0.45593999997E+02  0.45594000000E+02  0.51100000000E-03 0.  1.
    9900012    2    1    2    0    0  0.12893302393E+02 -0.11088965575E+02 -0.78406567118E+01  0.72461593463E+02  0.70000030182E+02 0.  0.
         12    1    1    2    0    0 -0.12893302393E+02  0.11088965575E+02  0.78406567118E+01  0.18726406537E+02  0.00000000000E+00 0. -1.
         11    1    3    3    0    0  0.20383070281E+02  0.43152573060E+01  0.12769130867E+02  0.24436483034E+02  0.51100000000E-03 0. -1.
        -11    1    3    3    0    0  0.65571925044E+01  0.37149019453E+01 -0.22978220942E+02  0.24182553792E+02  0.51100000000E-03 0.  1.
         12    1    3    3    0    0 -0.14046960393E+02 -0.19119124826E+02  0.23684333628E+01  0.23842556637E+02  0.00000000000E+00 0. -1.
</event>
<event>
 7    1  0.3027254E-013  0.7246156E+02  0.7816164E-02  0.1226708E+00
        -11   -1    0    0    0    0  0.00000000000E+00  0.00000000000E+00  0.45593999997E+02  0.45594000000E+02  0.51100000000E-03 0.  1.
         11   -1    0    0    0    0 -0.00000000000E+00 -0.00000000000E+00 -0.45593999997E+02  0.45594000000E+02  0.51100000000E-03 0. -1.
    9900012    2    1    2    0    0  0.95231129468E+01  0.90296152047E+01  0.13358738891E+02  0.72461560517E+02  0.69999987264E+02 0.  0.
         12    1    1    2    0    0 -0.95231129468E+01 -0.90296152047E+01 -0.13358738891E+02  0.18726439483E+02  0.00000000000E+00 0. -1.
         11    1    3    3    0    0 -0.10662905538E+02  0.24522024148E+01  0.65197178796E+01  0.12736466255E+02  0.51100000000E-03 0. -1.
        -11    1    3    3    0    0  0.17340412385E+02 -0.18727638576E+02  0.18693560296E+02  0.31636427502E+02  0.51100000000E-03 0.  1.
         12    1    3    3    0    0  0.28456060996E+01  0.25305051365E+02 -0.11854539285E+02  0.28088666760E+02  0.00000000000E+00 0. -1.
</event>
<event>
 7    1  0.3027254E-013  0.7246157E+02  0.7816164E-02  0.1226708E+00
        -11   -1    0    0    0    0  0.00000000000E+00  0.00000000000E+00  0.45593999997E+02  0.45594000000E+02  0.51100000000E-03 0. -1.
         11   -1    0    0    0    0 -0.00000000000E+00 -0.00000000000E+00 -0.45593999997E+02  0.45594000000E+02  0.51100000000E-03 0.  1.
    9900012    2    1    2    0    0  0.62956822335E+01 -0.61862096590E+01 -0.16515881455E+02  0.72461570950E+02  0.70000000854E+02 0.  0.
         12    1    1    2    0    0 -0.62956822335E+01  0.61862096590E+01  0.16515881455E+02  0.18726429050E+02  0.00000000000E+00 0. -1.
         11    1    3    3    0    0  0.83994255561E+00 -0.13805722304E+02 -0.20092072097E+02  0.24392515927E+02  0.51100000000E-03 0. -1.
        -11    1    3    3    0    0  0.18844673707E+02  0.10381155628E+02 -0.14099739994E+02  0.25723389890E+02  0.51100000000E-03 0.  1.
         12    1    3    3    0    0 -0.13388934029E+02 -0.27616429830E+01  0.17675930636E+02  0.22345665133E+02  0.00000000000E+00 0. -1.
</event>
<event>
 7    1  0.3027254E-013  0.7246156E+02  0.7816164E-02  0.1226708E+00
        -11   -1    0    0    0    0  0.00000000000E+00  0.00000000000E+00  0.45593999997E+02  0.45594000000E+02  0.51100000000E-03 0. -1.
         11   -1    0    0    0    0 -0.00000000000E+00 -0.00000000000E+00 -0.45593999997E+02  0.45594000000E+02  0.51100000000E-03 0.  1.
    9900012    2    1    2    0    0  0.13410486150E+02 -0.11949180054E+02  0.52967397256E+01  0.72461561618E+02  0.69999988698E+02 0.  0.
         12    1    1    2    0    0 -0.13410486150E+02  0.11949180054E+02 -0.52967397256E+01  0.18726438382E+02  0.00000000000E+00 0. -1.
         11    1    3    3    0    0 -0.13892004462E+02 -0.24923427922E+02  0.61601453179E+01  0.29190965006E+02  0.51100000000E-03 0. -1.
        -11    1    3    3    0    0 -0.21526675257E+01  0.12723763574E+02  0.37887541058E+01  0.13449267449E+02  0.51100000000E-03 0.  1.
         12    1    3    3    0    0  0.29455158137E+02  0.25048429384E+00 -0.46521596981E+01  0.29821329164E+02  0.00000000000E+00 0. -1.
</event>
<event>
 7    1  0.3027254E-013  0.7246158E+02  0.7816164E-02  0.1226708E+00
        -11   -1    0    0    0    0  0.00000000000E+00  0.00000000000E+00  0.45593999997E+02  0.45594000000E+02  0.51100000000E-03 0.  1.
         11   -1    0    0    0    0 -0.00000000000E+00 -0.00000000000E+00 -0.45593999997E+02  0.45594000000E+02  0.51100000000E-03 0. -1.
    9900012    2    1    2    0    0 -0.27241259777E+01  0.14643887708E+02  0.11349649874E+02  0.72461578511E+02  0.70000010703E+02 0.  0.
         12    1    1    2    0    0  0.27241259777E+01 -0.14643887708E+02 -0.11349649874E+02  0.18726421489E+02  0.00000000000E+00 0. -1.
         11    1    3    3    0    0 -0.13843754647E+01  0.72434276433E+00  0.28337742858E+02  0.28380782907E+02  0.51100000000E-03 0. -1.
        -11    1    3    3    0    0  0.41742423578E+01  0.19727296228E+02  0.49193419185E+01  0.20755491825E+02  0.51100000000E-03 0.  1.
        -12    1    3    3    0    0 -0.55139928709E+01 -0.58077512841E+01 -0.21907434903E+02  0.23325303779E+02  0.00000000000E+00 0.  1.
</event>
<event>
 7    1  0.3027254E-013  0.7246155E+02  0.7816164E-02  0.1226708E+00
        -11   -1    0    0    0    0  0.00000000000E+00  0.00000000000E+00  0.45593999997E+02  0.45594000000E+02  0.51100000000E-03 0.  1.
         11   -1    0    0    0    0 -0.00000000000E+00 -0.00000000000E+00 -0.45593999997E+02  0.45594000000E+02  0.51100000000E-03 0. -1.
    9900012    2    1    2    0    0  0.66317403050E+01  0.13744035051E+02  0.10853639290E+02  0.72461549060E+02  0.69999972339E+02 0.  0.
         12    1    1    2    0    0 -0.66317403050E+01 -0.13744035051E+02 -0.10853639290E+02  0.18726450940E+02  0.00000000000E+00 0. -1.
         11    1    3    3    0    0 -0.36928367007E-01 -0.73150478056E+01  0.17873775029E+02  0.19312770960E+02  0.51100000000E-03 0. -1.
        -11    1    3    3    0    0 -0.11978772135E+02  0.29276656035E+02 -0.11457662135E+00  0.31632684024E+02  0.51100000000E-03 0.  1.
         12    1    3    3    0    0  0.18647440807E+02 -0.82175731784E+01 -0.69055591179E+01  0.21516094077E+02  0.00000000000E+00 0. -1.
</event>
<event>
 7    1  0.3027254E-013  0.7246157E+02  0.7816164E-02  0.1226708E+00
        -11   -1    0    0    0    0  0.00000000000E+00  0.00000000000E+00  0.45593999997E+02  0.45594000000E+02  0.51100000000E-03 0. -1.
         11   -1    0    0    0    0 -0.00000000000E+00 -0.00000000000E+00 -0.45593999997E+02  0.45594000000E+02  0.51100000000E-03 0.  1.
    9900012    2    1    2    0    0 -0.57282865374E+01 -0.52154291424E+01 -0.17048906027E+02  0.72461570428E+02  0.70000000174E+02 0.  0.
         12    1    1    2    0    0  0.57282865374E+01  0.52154291424E+01  0.17048906027E+02  0.18726429572E+02  0.00000000000E+00 0. -1.
         11    1    3    3    0    0  0.97962375989E+00  0.69888651707E+00  0.25078699027E+01  0.27816392262E+01  0.51100000000E-03 0. -1.
        -11    1    3    3    0    0 -0.25343114762E+02 -0.15358834005E+02  0.11886381744E+02  0.31928879075E+02  0.51100000000E-03 0.  1.
         12    1    3    3    0    0  0.18635204464E+02  0.94445183451E+01 -0.31443157673E+02  0.37751052127E+02  0.00000000000E+00 0. -1.
</event>
<event>
 7    1  0.3027254E-013  0.7246142E+02  0.7816164E-02  0.1226708E+00
        -11   -1    0    0    0    0  0.00000000000E+00  0.00000000000E+00  0.45593999997E+02  0.45594000000E+02  0.51100000000E-03 0.  1.
         11   -1    0    0    0    0 -0.00000000000E+00 -0.00000000000E+00 -0.45593999997E+02  0.45594000000E+02  0.51100000000E-03 0. -1.
    9900012    2    1    2    0    0 -0.79985932894E+00  0.14832322506E+02 -0.11403832960E+02  0.72461415366E+02  0.69999798177E+02 0.  0.
         12    1    1    2    0    0  0.79985932894E+00 -0.14832322506E+02  0.11403832960E+02  0.18726584634E+02  0.00000000000E+00 0. -1.
         11    1    3    3    0    0 -0.29283721714E+01  0.12490057645E+02  0.14581144323E+02  0.19421294333E+02  0.51100000000E-03 0. -1.
        -11    1    3    3    0    0 -0.13621115958E+02  0.11154177461E+02  0.39896916049E+01  0.18051817475E+02  0.51100000000E-03 0.  1.
         12    1    3    3    0    0  0.15749628801E+02 -0.88119125990E+01 -0.29974668887E+02  0.34988303559E+02  0.00000000000E+00 0. -1.
</event>
<event>
 7    1  0.3027254E-013  0.7246162E+02  0.7816164E-02  0.1226708E+00
        -11   -1    0    0    0    0  0.00000000000E+00  0.00000000000E+00  0.45593999997E+02  0.45594000000E+02  0.51100000000E-03 0.  1.
         11   -1    0    0    0    0 -0.00000000000E+00 -0.00000000000E+00 -0.45593999997E+02  0.45594000000E+02  0.51100000000E-03 0. -1.
    9900012    2    1    2    0    0 -0.14010906353E+02 -0.59366877612E+01  0.10914562480E+02  0.72461616672E+02  0.70000060416E+02 0.  0.
         12    1    1    2    0    0  0.14010906353E+02  0.59366877612E+01 -0.10914562480E+02  0.18726383328E+02  0.00000000000E+00 0. -1.
         11    1    3    3    0    0  0.11685823491E+02 -0.65320472190E+01  0.96549469019E+01  0.16505881118E+02  0.51100000000E-03 0. -1.
        -11    1    3    3    0    0  0.11369713695E+02  0.65519585899E+01  0.11053266449E+02  0.17157308947E+02  0.51100000000E-03 0.  1.
         12    1    3    3    0    0 -0.37066443539E+02 -0.59565991321E+01 -0.97936508707E+01  0.38798426607E+02  0.00000000000E+00 0. -1.
</event>
<event>
 7    1  0.3027254E-013  0.7246159E+02  0.7816164E-02  0.1226708E+00
        -11   -1    0    0    0    0  0.00000000000E+00  0.00000000000E+00  0.45593999997E+02  0.45594000000E+02  0.51100000000E-03 0.  1.
         11   -1    0    0    0    0 -0.00000000000E+00 -0.00000000000E+00 -0.45593999997E+02  0.45594000000E+02  0.51100000000E-03 0. -1.
    9900012    2    1    2    0    0  0.18503637169E+01  0.12655276907E+02  0.13678401121E+02  0.72461587191E+02  0.70000022011E+02 0.  0.
         12    1    1    2    0    0 -0.18503637169E+01 -0.12655276907E+02 -0.13678401121E+02  0.18726412809E+02  0.00000000000E+00 0. -1.
         11    1    3    3    0    0  0.14276466120E+02 -0.95980012588E+01  0.16181350345E+02  0.23617265132E+02  0.51100000000E-03 0. -1.
        -11    1    3    3    0    0 -0.86787424609E+01 -0.89065271112E+01 -0.10701985091E+02  0.16406684035E+02  0.51100000000E-03 0.  1.
        -12    1    3    3    0    0 -0.37473599419E+01  0.31159805277E+02  0.81990358669E+01  0.32437638024E+02  0.00000000000E+00 0.  1.
</event>
<event>
 7    1  0.3027254E-013  0.7246157E+02  0.7816164E-02  0.1226708E+00
        -11   -1    0    0    0    0  0.00000000000E+00  0.00000000000E+00  0.45593999997E+02  0.45594000000E+02  0.51100000000E-03 0.  1.
         11   -1    0    0    0    0 -0.00000000000E+00 -0.00000000000E+00 -0.45593999997E+02  0.45594000000E+02  0.51100000000E-03 0. -1.
    9900012    2    1    2    0    0 -0.63440177215E+01 -0.69277393873E+00  0.17605470271E+02  0.72461572683E+02  0.70000003112E+02 0.  0.
         12    1    1    2    0    0  0.63440177215E+01  0.69277393873E+00 -0.17605470271E+02  0.18726427317E+02  0.00000000000E+00 0. -1.
         11    1    3    3    0    0 -0.12834883090E+02 -0.68496619287E+01 -0.21859521189E+01  0.14711576374E+02  0.51100000000E-03 0. -1.
        -11    1    3    3    0    0  0.76888486562E+01 -0.10844032566E+02 -0.14368448606E+02  0.19574569001E+02  0.51100000000E-03 0.  1.
        -12    1    3    3    0    0 -0.11979832874E+01  0.17000920556E+02  0.34159870996E+02  0.38175427309E+02  0.00000000000E+00 0.  1.
</event>
<event>
 7    1  0.3027254E-013  0.7246158E+02  0.7816164E-02  0.1226708E+00
        -11   -1    0    0    0    0  0.00000000000E+00  0.00000000000E+00  0.45593999997E+02  0.45594000000E+02  0.51100000000E-03 0.  1.
         11   -1    0    0    0    0 -0.00000000000E+00 -0.00000000000E+00 -0.45593999997E+02  0.45594000000E+02  0.51100000000E-03 0. -1.
    9900012    2    1    2    0    0  0.81191060343E+01  0.16502110079E+02 -0.35269540353E+01  0.72461576833E+02  0.70000008518E+02 0.  0.
         12    1    1    2    0    0 -0.81191060343E+01 -0.16502110079E+02  0.35269540353E+01  0.18726423167E+02  0.00000000000E+00 0. -1.
         11    1    3    3    0    0  0.63751740694E+01 -0.19586232905E+02 -0.10313742862E+02  0.23035551999E+02  0.51100000000E-03 0. -1.
        -11    1    3    3    0    0  0.11822023455E+02  0.11834794797E+02 -0.87832564484E+01  0.18893602106E+02  0.51100000000E-03 0.  1.
        -12    1    3    3    0    0 -0.10078091490E+02  0.24253548187E+02  0.15570045275E+02  0.30532422728E+02  0.00000000000E+00 0.  1.
</event>
<event>
 7    1  0.3027254E-013  0.7246171E+02  0.7816164E-02  0.1226708E+00
        -11   -1    0    0    0    0  0.00000000000E+00  0.00000000000E+00  0.45593999997E+02  0.45594000000E+02  0.51100000000E-03 0. -1.
         11   -1    0    0    0    0 -0.00000000000E+00 -0.00000000000E+00 -0.45593999997E+02  0.45594000000E+02  0.51100000000E-03 0.  1.
    9900012    2    1    2    0    0 -0.74010846651E+01 -0.10736320850E+01 -0.17168144635E+02  0.72461710183E+02  0.70000182231E+02 0.  0.
         12    1    1    2    0    0  0.74010846651E+01  0.10736320850E+01  0.17168144635E+02  0.18726289817E+02  0.00000000000E+00 0. -1.
         11    1    3    3    0    0  0.11682496395E+01 -0.30119748259E+01  0.11576187495E+02  0.12018523901E+02  0.51100000000E-03 0. -1.
        -11    1    3    3    0    0 -0.79091735702E+01  0.25792251458E+02 -0.63437129453E+01  0.27713497723E+02  0.51100000000E-03 0.  1.
         12    1    3    3    0    0 -0.66016073437E+00 -0.23853908717E+02 -0.22400619186E+02  0.32729688559E+02  0.00000000000E+00 0. -1.
</event>
<event>
 7    1  0.3027254E-013  0.7246160E+02  0.7816164E-02  0.1226708E+00
        -11   -1    0    0    0    0  0.00000000000E+00  0.00000000000E+00  0.45593999997E+02  0.45594000000E+02  0.51100000000E-03 0.  1.
         11   -1    0    0    0    0 -0.00000000000E+00 -0.00000000000E+00 -0.45593999997E+02  0.45594000000E+02  0.51100000000E-03 0. -1.
    9900012    2    1    2    0    0 -0.46525155422E+01 -0.39147972729E+00  0.18135020851E+02  0.72461597823E+02  0.70000035861E+02 0.  0.
         12    1    1    2    0    0  0.46525155422E+01  0.39147972729E+00 -0.18135020851E+02  0.18726402177E+02  0.00000000000E+00 0. -1.
         11    1    3    3    0    0  0.15456022416E+02 -0.21321116731E+02 -0.77923969861E+01  0.27462703775E+02  0.51100000000E-03 0. -1.
        -11    1    3    3    0    0  0.37086954395E+01  0.33787867153E+01  0.10490299235E+02  0.11628284475E+02  0.51100000000E-03 0.  1.
        -12    1    3    3    0    0 -0.23817233397E+02  0.17550850289E+02  0.15437118602E+02  0.33370609573E+02  0.00000000000E+00 0.  1.
</event>
<event>
 7    1  0.3027254E-013  0.7246168E+02  0.7816164E-02  0.1226708E+00
        -11   -1    0    0    0    0  0.00000000000E+00  0.00000000000E+00  0.45593999997E+02  0.45594000000E+02  0.51100000000E-03 0.  1.
         11   -1    0    0    0    0 -0.00000000000E+00 -0.00000000000E+00 -0.45593999997E+02  0.45594000000E+02  0.51100000000E-03 0. -1.
    9900012    2    1    2    0    0 -0.16028941498E+02  0.65443288862E+01  0.71358205439E+01  0.72461677858E+02  0.70000140122E+02 0.  0.
         12    1    1    2    0    0  0.16028941498E+02 -0.65443288862E+01 -0.71358205439E+01  0.18726322142E+02  0.00000000000E+00 0. -1.
         11    1    3    3    0    0  0.13203206921E+02  0.19260578018E+02 -0.68019835249E+01  0.24322037717E+02  0.51100000000E-03 0. -1.
        -11    1    3    3    0    0  0.35694181929E+01 -0.79331948585E+01 -0.49285312336E+01  0.99983372258E+01  0.51100000000E-03 0.  1.
        -12    1    3    3    0    0 -0.32801566611E+02 -0.47830542733E+01  0.18866335302E+02  0.38141302915E+02  0.00000000000E+00 0.  1.
</event>
<event>
 7    1  0.3027254E-013  0.7246161E+02  0.7816164E-02  0.1226708E+00
        -11   -1    0    0    0    0  0.00000000000E+00  0.00000000000E+00  0.45593999997E+02  0.45594000000E+02  0.51100000000E-03 0.  1.
         11   -1    0    0    0    0 -0.00000000000E+00 -0.00000000000E+00 -0.45593999997E+02  0.45594000000E+02  0.51100000000E-03 0. -1.
    9900012    2    1    2    0    0 -0.91938066013E+01  0.11951756200E+02  0.11104376717E+02  0.72461608507E+02  0.70000049779E+02 0.  0.
         12    1    1    2    0    0  0.91938066013E+01 -0.11951756200E+02 -0.11104376717E+02  0.18726391493E+02  0.00000000000E+00 0. -1.
         11    1    3    3    0    0  0.51767535368E+01  0.28808021729E+02 -0.15727137953E+02  0.33227153980E+02  0.51100000000E-03 0. -1.
        -11    1    3    3    0    0  0.10753207977E+01  0.21756064162E+01  0.78980030468E+01  0.82624470034E+01  0.51100000000E-03 0.  1.
        -12    1    3    3    0    0 -0.15445880936E+02 -0.19031871945E+02  0.18933511624E+02  0.30972007523E+02  0.00000000000E+00 0.  1.
</event>
<event>
 7    1  0.3027254E-013  0.7246158E+02  0.7816164E-02  0.1226708E+00
        -11   -1    0    0    0    0  0.00000000000E+00  0.00000000000E+00  0.45593999997E+02  0.45594000000E+02  0.51100000000E-03 0.  1.
         11   -1    0    0    0    0 -0.00000000000E+00 -0.00000000000E+00 -0.45593999997E+02  0.45594000000E+02  0.51100000000E-03 0. -1.
    9900012    2    1    2    0    0 -0.16781669950E+02  0.36242977516E+00  0.83019770075E+01  0.72461584863E+02  0.70000018978E+02 0.  0.
         12    1    1    2    0    0  0.16781669950E+02 -0.36242977516E+00 -0.83019770075E+01  0.18726415137E+02  0.00000000000E+00 0. -1.
         11    1    3    3    0    0 -0.17939267152E+02  0.96173871043E+01 -0.27662381493E+02  0.34344123090E+02  0.51100000000E-03 0. -1.
        -11    1    3    3    0    0  0.33907342195E+01 -0.67664841328E+01  0.14136957336E+02  0.16035459115E+02  0.51100000000E-03 0.  1.
        -12    1    3    3    0    0 -0.22331370174E+01 -0.24884731963E+01  0.21827401165E+02  0.22082002658E+02  0.00000000000E+00 0.  1.
</event>
<event>
 7    1  0.3027254E-013  0.7246154E+02  0.7816164E-02  0.1226708E+00
        -11   -1    0    0    0    0  0.00000000000E+00  0.00000000000E+00  0.45593999997E+02  0.45594000000E+02  0.51100000000E-03 0.  1.
         11   -1    0    0    0    0 -0.00000000000E+00 -0.00000000000E+00 -0.45593999997E+02  0.45594000000E+02  0.51100000000E-03 0. -1.
    9900012    2    1    2    0    0  0.40773470947E+01 -0.74462968036E+01  0.16691562167E+02  0.72461538963E+02  0.69999959185E+02 0.  0.
         12    1    1    2    0    0 -0.40773470947E+01  0.74462968036E+01 -0.16691562167E+02  0.18726461037E+02  0.00000000000E+00 0. -1.
         11    1    3    3    0    0 -0.16935671314E+01  0.96726118259E+01 -0.14479988166E+02  0.17495646507E+02  0.51100000000E-03 0. -1.
        -11    1    3    3    0    0 -0.14898991846E+02  0.19710955995E+01  0.33517246418E+01  0.15398026959E+02  0.51100000000E-03 0.  1.
         12    1    3    3    0    0  0.20669906072E+02 -0.19090004229E+02  0.27819825691E+02  0.39567865497E+02  0.00000000000E+00 0. -1.
</event>
<event>
 8    1  0.3027254E-013  0.7246161E+02  0.7816164E-02  0.1226708E+00
        -11   -1    0    0    0    0  0.00000000000E+00  0.00000000000E+00  0.45593999997E+02  0.45594000000E+02  0.51100000000E-03 0.  1.
         11   -1    0    0    0    0 -0.00000000000E+00 -0.00000000000E+00 -0.45593999997E+02  0.45594000000E+02  0.51100000000E-03 0. -1.
    9900012    2    1    2    0    0  0.12174124955E+02  0.30742788425E+01  0.13893068523E+02  0.72461605211E+02  0.70000045485E+02 0.  0.
         23    2    3    3    0    0 -0.54057398966E-01  0.54689960946E+01  0.83411912792E+01  0.58820254275E+02  0.57968387942E+02 0.  0.
         12    1    1    2    0    0 -0.12174124955E+02 -0.30742788425E+01 -0.13893068523E+02  0.18726394789E+02  0.00000000000E+00 0. -1.
         11    1    4    4    0    0  0.63414459931E+01 -0.24346176209E+02 -0.48059350220E+01  0.25613419236E+02  0.51100000000E-03 0. -1.
        -11    1    4    4    0    0 -0.63955033920E+01  0.29815172303E+02  0.13147126301E+02  0.33206835040E+02  0.51100000000E-03 0.  1.
         12    1    3    3    0    0  0.12228182354E+02 -0.23947172521E+01  0.55518772434E+01  0.13641350935E+02  0.00000000000E+00 0. -1.
</event>
<event>
 7    1  0.3027254E-013  0.7246152E+02  0.7816164E-02  0.1226708E+00
        -11   -1    0    0    0    0  0.00000000000E+00  0.00000000000E+00  0.45593999997E+02  0.45594000000E+02  0.51100000000E-03 0. -1.
         11   -1    0    0    0    0 -0.00000000000E+00 -0.00000000000E+00 -0.45593999997E+02  0.45594000000E+02  0.51100000000E-03 0.  1.
    9900012    2    1    2    0    0  0.36709294055E+01  0.15081141008E+02 -0.10476853682E+02  0.72461521423E+02  0.69999936336E+02 0.  0.
         12    1    1    2    0    0 -0.36709294055E+01 -0.15081141008E+02  0.10476853682E+02  0.18726478577E+02  0.00000000000E+00 0. -1.
         11    1    3    3    0    0  0.17182907687E+02 -0.19809294512E+02 -0.89899684940E+01  0.27721471812E+02  0.51100000000E-03 0. -1.
        -11    1    3    3    0    0  0.60629733695E+01  0.58053638137E+01 -0.45494256497E+01  0.95477310966E+01  0.51100000000E-03 0.  1.
        -12    1    3    3    0    0 -0.19574951651E+02  0.29085071707E+02  0.30625404613E+01  0.35192318514E+02  0.00000000000E+00 0.  1.
</event>
<event>
 7    1  0.3027254E-013  0.7246157E+02  0.7816164E-02  0.1226708E+00
        -11   -1    0    0    0    0  0.00000000000E+00  0.00000000000E+00  0.45593999997E+02  0.45594000000E+02  0.51100000000E-03 0. -1.
         11   -1    0    0    0    0 -0.00000000000E+00 -0.00000000000E+00 -0.45593999997E+02  0.45594000000E+02  0.51100000000E-03 0.  1.
    9900012    2    1    2    0    0 -0.61305095253E+01 -0.10786842912E+02 -0.14026401978E+02  0.72461572698E+02  0.70000003131E+02 0.  0.
         12    1    1    2    0    0  0.61305095253E+01  0.10786842912E+02  0.14026401978E+02  0.18726427302E+02  0.00000000000E+00 0. -1.
         11    1    3    3    0    0  0.29284911902E+01 -0.42255916468E+01 -0.16685235153E+01  0.54051509136E+01  0.51100000000E-03 0. -1.
        -11    1    3    3    0    0 -0.23435726599E+02 -0.29678657315E+02 -0.12513633363E+02  0.39832737810E+02  0.51100000000E-03 0.  1.
         12    1    3    3    0    0  0.14376725883E+02  0.23117406049E+02  0.15575490019E+00  0.27223683975E+02  0.00000000000E+00 0. -1.
</event>
<event>
 7    1  0.3027254E-013  0.7246157E+02  0.7816164E-02  0.1226708E+00
        -11   -1    0    0    0    0  0.00000000000E+00  0.00000000000E+00  0.45593999997E+02  0.45594000000E+02  0.51100000000E-03 0. -1.
         11   -1    0    0    0    0 -0.00000000000E+00 -0.00000000000E+00 -0.45593999997E+02  0.45594000000E+02  0.51100000000E-03 0.  1.
    9900012    2    1    2    0    0  0.31310843650E+01  0.11359874088E+02 -0.14554339106E+02  0.72461569069E+02  0.69999998404E+02 0.  0.
         12    1    1    2    0    0 -0.31310843650E+01 -0.11359874088E+02  0.14554339106E+02  0.18726430931E+02  0.00000000000E+00 0. -1.
         11    1    3    3    0    0 -0.87982464991E+00  0.22616779406E+02  0.25338439673E+01  0.22775275358E+02  0.51100000000E-03 0. -1.
        -11    1    3    3    0    0 -0.11382932285E+02  0.13011296536E+02 -0.10416215535E+02  0.20183224006E+02  0.51100000000E-03 0.  1.
        -12    1    3    3    0    0  0.15393841300E+02 -0.24268201854E+02 -0.66719675387E+01  0.29503069705E+02  0.00000000000E+00 0.  1.
</event>
<event>
 7    1  0.3027254E-013  0.7246155E+02  0.7816164E-02  0.1226708E+00
        -11   -1    0    0    0    0  0.00000000000E+00  0.00000000000E+00  0.45593999997E+02  0.45594000000E+02  0.51100000000E-03 0.  1.
         11   -1    0    0    0    0 -0.00000000000E+00 -0.00000000000E+00 -0.45593999997E+02  0.45594000000E+02  0.51100000000E-03 0. -1.
    9900012    2    1    2    0    0  0.49977931074E+01  0.10541836982E+01  0.18016395528E+02  0.72461554874E+02  0.69999979912E+02 0.  0.
         12    1    1    2    0    0 -0.49977931074E+01 -0.10541836982E+01 -0.18016395528E+02  0.18726445126E+02  0.00000000000E+00 0. -1.
         11    1    3    3    0    0  0.10351998322E+02  0.13418595326E+01 -0.22139284056E+02  0.24476771744E+02  0.51100000000E-03 0. -1.
        -11    1    3    3    0    0 -0.80889241182E+01  0.40164472831E+01  0.16966957860E+01  0.91891957765E+01  0.51100000000E-03 0.  1.
        -12    1    3    3    0    0  0.27347189038E+01 -0.43041231175E+01  0.38458983798E+02  0.38795587353E+02  0.00000000000E+00 0.  1.
</event>
<event>
 7    1  0.3027254E-013  0.7246152E+02  0.7816164E-02  0.1226708E+00
        -11   -1    0    0    0    0  0.00000000000E+00  0.00000000000E+00  0.45593999997E+02  0.45594000000E+02  0.51100000000E-03 0.  1.
         11   -1    0    0    0    0 -0.00000000000E+00 -0.00000000000E+00 -0.45593999997E+02  0.45594000000E+02  0.51100000000E-03 0. -1.
    9900012    2    1    2    0    0 -0.51817060120E+01 -0.15225507702E+02  0.95924415165E+01  0.72461518851E+02  0.69999932985E+02 0.  0.
         12    1    1    2    0    0  0.51817060120E+01  0.15225507702E+02 -0.95924415165E+01  0.18726481149E+02  0.00000000000E+00 0. -1.
         11    1    3    3    0    0 -0.31465611541E+01 -0.14355563709E+02 -0.29819812632E+01  0.14995841724E+02  0.51100000000E-03 0. -1.
        -11    1    3    3    0    0 -0.54176926429E+01 -0.16659885989E+01  0.34653920882E+02  0.35114400811E+02  0.51100000000E-03 0.  1.
         12    1    3    3    0    0  0.33825477850E+01  0.79604460551E+00 -0.22079498102E+02  0.22351276316E+02  0.00000000000E+00 0. -1.
</event>
<event>
 7    1  0.3027254E-013  0.7246149E+02  0.7816164E-02  0.1226708E+00
        -11   -1    0    0    0    0  0.00000000000E+00  0.00000000000E+00  0.45593999997E+02  0.45594000000E+02  0.51100000000E-03 0.  1.
         11   -1    0    0    0    0 -0.00000000000E+00 -0.00000000000E+00 -0.45593999997E+02  0.45594000000E+02  0.51100000000E-03 0. -1.
    9900012    2    1    2    0    0  0.54420801992E+01 -0.77712620719E+01  0.16145379381E+02  0.72461494014E+02  0.69999900631E+02 0.  0.
         12    1    1    2    0    0 -0.54420801992E+01  0.77712620719E+01 -0.16145379381E+02  0.18726505986E+02  0.00000000000E+00 0. -1.
         11    1    3    3    0    0  0.42445504400E+01 -0.69175451324E+01  0.85208570368E+00  0.81605569298E+01  0.51100000000E-03 0. -1.
        -11    1    3    3    0    0  0.72632260540E+01 -0.30904126294E+02  0.91056810000E+01  0.33026245646E+02  0.51100000000E-03 0.  1.
         12    1    3    3    0    0 -0.60656962949E+01  0.30050409355E+02  0.61876126773E+01  0.31274691438E+02  0.00000000000E+00 0. -1.
</event>
<event>
 7    1  0.3027254E-013  0.7246170E+02  0.7816164E-02  0.1226708E+00
        -11   -1    0    0    0    0  0.00000000000E+00  0.00000000000E+00  0.45593999997E+02  0.45594000000E+02  0.51100000000E-03 0. -1.
         11   -1    0    0    0    0 -0.00000000000E+00 -0.00000000000E+00 -0.45593999997E+02  0.45594000000E+02  0.51100000000E-03 0.  1.
    9900012    2    1    2    0    0 -0.10164834338E+02  0.83931902874E+01 -0.13300558434E+02  0.72461698844E+02  0.70000167460E+02 0.  0.
         12    1    1    2    0    0  0.10164834338E+02 -0.83931902874E+01  0.13300558434E+02  0.18726301156E+02  0.00000000000E+00 0. -1.
         11    1    3    3    0    0 -0.43128575069E+01  0.20803152403E+02 -0.70979562229E+01  0.22399840905E+02  0.51100000000E-03 0. -1.
        -11    1    3    3    0    0 -0.14997616066E+02  0.54213700112E+01 -0.20112334471E+02  0.25667600951E+02  0.51100000000E-03 0.  1.
        -12    1    3    3    0    0  0.91456392348E+01 -0.17831332127E+02  0.13909732260E+02  0.24394256988E+02  0.00000000000E+00 0.  1.
</event>
<event>
 7    1  0.3027254E-013  0.7246168E+02  0.7816164E-02  0.1226708E+00
        -11   -1    0    0    0    0  0.00000000000E+00  0.00000000000E+00  0.45593999997E+02  0.45594000000E+02  0.51100000000E-03 0. -1.
         11   -1    0    0    0    0 -0.00000000000E+00 -0.00000000000E+00 -0.45593999997E+02  0.45594000000E+02  0.51100000000E-03 0.  1.
    9900012    2    1    2    0    0 -0.16965160159E+02 -0.59520778393E+01 -0.52374826219E+01  0.72461678577E+02  0.70000141058E+02 0.  0.
         12    1    1    2    0    0  0.16965160159E+02  0.59520778393E+01  0.52374826219E+01  0.18726321423E+02  0.00000000000E+00 0. -1.
         11    1    3    3    0    0  0.20047908343E+02  0.79175257824E+01  0.15551297007E+02  0.26579102361E+02  0.51100000000E-03 0. -1.
        -11    1    3    3    0    0 -0.11926848078E+01 -0.32558703383E+00  0.12002581150E+01  0.17231145554E+01  0.51100000000E-03 0.  1.
        -12    1    3    3    0    0 -0.35820383694E+02 -0.13544016588E+02 -0.21989037743E+02  0.44159461661E+02  0.00000000000E+00 0.  1.
</event>
<event>
 7    1  0.3027254E-013  0.7246153E+02  0.7816164E-02  0.1226708E+00
        -11   -1    0    0    0    0  0.00000000000E+00  0.00000000000E+00  0.45593999997E+02  0.45594000000E+02  0.51100000000E-03 0.  1.
         11   -1    0    0    0    0 -0.00000000000E+00 -0.00000000000E+00 -0.45593999997E+02  0.45594000000E+02  0.51100000000E-03 0. -1.
    9900012    2    1    2    0    0  0.46058175414E+01  0.17438607477E+02  0.50360838242E+01  0.72461528730E+02  0.69999945854E+02 0.  0.
         12    1    1    2    0    0 -0.46058175414E+01 -0.17438607477E+02 -0.50360838242E+01  0.18726471270E+02  0.00000000000E+00 0. -1.
         11    1    3    3    0    0 -0.10291702816E+02 -0.76107593396E+01 -0.13180260732E+01  0.12867789148E+02  0.51100000000E-03 0. -1.
        -11    1    3    3    0    0 -0.17529777655E+02 -0.79792122464E+00  0.43399927895E+01  0.18076651255E+02  0.51100000000E-03 0.  1.
        -12    1    3    3    0    0  0.32427298012E+02  0.25847288041E+02  0.20141171078E+01  0.41517088327E+02  0.00000000000E+00 0.  1.
</event>
<event>
 7    1  0.3027254E-013  0.7246158E+02  0.7816164E-02  0.1226708E+00
        -11   -1    0    0    0    0  0.00000000000E+00  0.00000000000E+00  0.45593999997E+02  0.45594000000E+02  0.51100000000E-03 0.  1.
         11   -1    0    0    0    0 -0.00000000000E+00 -0.00000000000E+00 -0.45593999997E+02  0.45594000000E+02  0.51100000000E-03 0. -1.
    9900012    2    1    2    0    0  0.17504579397E+02 -0.37985665834E+01  0.54625484999E+01  0.72461578984E+02  0.70000011320E+02 0.  0.
         12    1    1    2    0    0 -0.17504579397E+02  0.37985665834E+01 -0.54625484999E+01  0.18726421016E+02  0.00000000000E+00 0. -1.
         11    1    3    3    0    0  0.77156362553E+01 -0.17169768546E+02 -0.39794726999E+01  0.19239755663E+02  0.51100000000E-03 0.  1.
        -11    1    3    3    0    0  0.21701043518E+02 -0.25136439623E+01  0.20953917339E+02  0.30270783733E+02  0.51100000000E-03 0. -1.
         12    1    3    3    0    0 -0.11912100376E+02  0.15884845925E+02 -0.11511896139E+02  0.22951039587E+02  0.00000000000E+00 0. -1.
</event>
<event>
 7    1  0.3027254E-013  0.7246163E+02  0.7816164E-02  0.1226708E+00
        -11   -1    0    0    0    0  0.00000000000E+00  0.00000000000E+00  0.45593999997E+02  0.45594000000E+02  0.51100000000E-03 0.  1.
         11   -1    0    0    0    0 -0.00000000000E+00 -0.00000000000E+00 -0.45593999997E+02  0.45594000000E+02  0.51100000000E-03 0. -1.
    9900012    2    1    2    0    0 -0.12285495526E+02  0.56110079344E+00  0.14121928161E+02  0.72461625834E+02  0.70000072351E+02 0.  0.
         12    1    1    2    0    0  0.12285495526E+02 -0.56110079344E+00 -0.14121928161E+02  0.18726374166E+02  0.00000000000E+00 0. -1.
         11    1    3    3    0    0  0.83676800673E+01 -0.24152262846E+02  0.66211514739E+01  0.26404346563E+02  0.51100000000E-03 0. -1.
        -11    1    3    3    0    0  0.87240398448E+01  0.58739639315E+01  0.23979122819E+01  0.10787136184E+02  0.51100000000E-03 0.  1.
        -12    1    3    3    0    0 -0.29377215438E+02  0.18839399708E+02  0.51028644050E+01  0.35270143087E+02  0.00000000000E+00 0.  1.
</event>
<event>
 7    1  0.3027254E-013  0.7246160E+02  0.7816164E-02  0.1226708E+00
        -11   -1    0    0    0    0  0.00000000000E+00  0.00000000000E+00  0.45593999997E+02  0.45594000000E+02  0.51100000000E-03 0.  1.
         11   -1    0    0    0    0 -0.00000000000E+00 -0.00000000000E+00 -0.45593999997E+02  0.45594000000E+02  0.51100000000E-03 0. -1.
    9900012    2    1    2    0    0  0.94756514239E+01  0.15883858034E+02  0.29314215447E+01  0.72461597563E+02  0.70000035522E+02 0.  0.
         12    1    1    2    0    0 -0.94756514239E+01 -0.15883858034E+02 -0.29314215447E+01  0.18726402437E+02  0.00000000000E+00 0. -1.
         11    1    3    3    0    0 -0.20295508157E+02  0.96961196084E+01  0.14020247810E+01  0.22536371948E+02  0.51100000000E-03 0. -1.
        -11    1    3    3    0    0 -0.76788921389E+01  0.74019271018E+01 -0.51842838573E+01  0.11858781922E+02  0.51100000000E-03 0.  1.
         12    1    3    3    0    0  0.37450051720E+02 -0.12141886757E+01  0.67136806209E+01  0.38066443693E+02  0.00000000000E+00 0. -1.
</event>
<event>
 7    1  0.3027254E-013  0.7246157E+02  0.7816164E-02  0.1226708E+00
        -11   -1    0    0    0    0  0.00000000000E+00  0.00000000000E+00  0.45593999997E+02  0.45594000000E+02  0.51100000000E-03 0.  1.
         11   -1    0    0    0    0 -0.00000000000E+00 -0.00000000000E+00 -0.45593999997E+02  0.45594000000E+02  0.51100000000E-03 0. -1.
    9900012    2    1    2    0    0  0.28084861907E+01 -0.12964996237E+02  0.13217424671E+02  0.72461573831E+02  0.70000004608E+02 0.  0.
         12    1    1    2    0    0 -0.28084861907E+01  0.12964996237E+02 -0.13217424671E+02  0.18726426169E+02  0.00000000000E+00 0. -1.
         11    1    3    3    0    0  0.23370266036E+02 -0.51908083606E+01 -0.49636849938E+01  0.24448967157E+02  0.51100000000E-03 0. -1.
        -11    1    3    3    0    0  0.25696957246E+01 -0.69678698754E+01  0.23173784018E+02  0.24334724422E+02  0.51100000000E-03 0.  1.
        -12    1    3    3    0    0 -0.23131475570E+02 -0.80631800140E+00 -0.49926743535E+01  0.23677882253E+02  0.00000000000E+00 0.  1.
</event>
<event>
 7    1  0.3027254E-013  0.7246158E+02  0.7816164E-02  0.1226708E+00
        -11   -1    0    0    0    0  0.00000000000E+00  0.00000000000E+00  0.45593999997E+02  0.45594000000E+02  0.51100000000E-03 0.  1.
         11   -1    0    0    0    0 -0.00000000000E+00 -0.00000000000E+00 -0.45593999997E+02  0.45594000000E+02  0.51100000000E-03 0. -1.
    9900012    2    1    2    0    0 -0.17961956823E+02  0.24891942074E+01  0.46744962146E+01  0.72461577608E+02  0.70000009528E+02 0.  0.
         12    1    1    2    0    0  0.17961956823E+02 -0.24891942074E+01 -0.46744962146E+01  0.18726422392E+02  0.00000000000E+00 0. -1.
         11    1    3    3    0    0  0.16679507108E+02 -0.13416049312E+01  0.20137630816E+01  0.16854112352E+02  0.51100000000E-03 0. -1.
        -11    1    3    3    0    0 -0.14321277695E+02  0.15725285496E+02  0.17698306095E+02  0.27669724206E+02  0.51100000000E-03 0.  1.
         12    1    3    3    0    0 -0.20320186237E+02 -0.11894486357E+02 -0.15037572962E+02  0.27937741050E+02  0.00000000000E+00 0. -1.
</event>
<event>
 7    1  0.3027254E-013  0.7246159E+02  0.7816164E-02  0.1226708E+00
        -11   -1    0    0    0    0  0.00000000000E+00  0.00000000000E+00  0.45593999997E+02  0.45594000000E+02  0.51100000000E-03 0. -1.
         11   -1    0    0    0    0 -0.00000000000E+00 -0.00000000000E+00 -0.45593999997E+02  0.45594000000E+02  0.51100000000E-03 0.  1.
    9900012    2    1    2    0    0 -0.73947951732E+01 -0.11471744693E+02 -0.12821642322E+02  0.72461589938E+02  0.70000025590E+02 0.  0.
         12    1    1    2    0    0  0.73947951732E+01  0.11471744693E+02  0.12821642322E+02  0.18726410062E+02  0.00000000000E+00 0. -1.
         11    1    3    3    0    0 -0.12978480365E+02  0.38540105084E+01 -0.48732127625E+01  0.14388973295E+02  0.51100000000E-03 0.  1.
        -11    1    3    3    0    0 -0.10898824143E+02 -0.20518231170E+02  0.16239168549E+02  0.28345948096E+02  0.51100000000E-03 0. -1.
        -12    1    3    3    0    0  0.16482509335E+02  0.51924759687E+01 -0.24187598108E+02  0.29726668547E+02  0.00000000000E+00 0.  1.
</event>
<event>
 7    1  0.3027254E-013  0.7246158E+02  0.7816164E-02  0.1226708E+00
        -11   -1    0    0    0    0  0.00000000000E+00  0.00000000000E+00  0.45593999997E+02  0.45594000000E+02  0.51100000000E-03 0.  1.
         11   -1    0    0    0    0 -0.00000000000E+00 -0.00000000000E+00 -0.45593999997E+02  0.45594000000E+02  0.51100000000E-03 0. -1.
    9900012    2    1    2    0    0 -0.23352569769E+01 -0.77448949747E+01  0.16889112823E+02  0.72461576015E+02  0.70000007453E+02 0.  0.
         12    1    1    2    0    0  0.23352569769E+01  0.77448949747E+01 -0.16889112823E+02  0.18726423985E+02  0.00000000000E+00 0. -1.
         11    1    3    3    0    0 -0.16644095060E+01 -0.89628619664E+01 -0.72292826281E+01  0.11634675810E+02  0.51100000000E-03 0. -1.
        -11    1    3    3    0    0 -0.25614793741E+02  0.12414346358E+02  0.13375574286E+02  0.31450590481E+02  0.51100000000E-03 0.  1.
         12    1    3    3    0    0  0.24943946270E+02 -0.11196379367E+02  0.10742821165E+02  0.29376309724E+02  0.00000000000E+00 0. -1.
</event>
<event>
 7    1  0.3027254E-013  0.7246158E+02  0.7816164E-02  0.1226708E+00
        -11   -1    0    0    0    0  0.00000000000E+00  0.00000000000E+00  0.45593999997E+02  0.45594000000E+02  0.51100000000E-03 0.  1.
         11   -1    0    0    0    0 -0.00000000000E+00 -0.00000000000E+00 -0.45593999997E+02  0.45594000000E+02  0.51100000000E-03 0. -1.
    9900012    2    1    2    0    0 -0.83241105733E+01 -0.45339382270E+01  0.16150279648E+02  0.72461576279E+02  0.70000007796E+02 0.  0.
         12    1    1    2    0    0  0.83241105733E+01  0.45339382270E+01 -0.16150279648E+02  0.18726423721E+02  0.00000000000E+00 0. -1.
         11    1    3    3    0    0  0.59599375546E+00 -0.55251582132E+01 -0.11290763290E+02  0.12584272636E+02  0.51100000000E-03 0. -1.
        -11    1    3    3    0    0 -0.28973105538E+02  0.10535690446E+02  0.13498340890E+02  0.33654818745E+02  0.51100000000E-03 0.  1.
         12    1    3    3    0    0  0.20053001209E+02 -0.95444704598E+01  0.13942702048E+02  0.26222484899E+02  0.00000000000E+00 0. -1.
</event>
<event>
 7    1  0.3027254E-013  0.7246157E+02  0.7816164E-02  0.1226708E+00
        -11   -1    0    0    0    0  0.00000000000E+00  0.00000000000E+00  0.45593999997E+02  0.45594000000E+02  0.51100000000E-03 0.  1.
         11   -1    0    0    0    0 -0.00000000000E+00 -0.00000000000E+00 -0.45593999997E+02  0.45594000000E+02  0.51100000000E-03 0. -1.
    9900012    2    1    2    0    0 -0.14289332431E+01  0.15392114931E+02  0.10569779222E+02  0.72461567210E+02  0.69999995982E+02 0.  0.
         12    1    1    2    0    0  0.14289332431E+01 -0.15392114931E+02 -0.10569779222E+02  0.18726432790E+02  0.00000000000E+00 0. -1.
         11    1    3    3    0    0 -0.27842316673E+01  0.58918488443E+01  0.17054177435E+02  0.18256801391E+02  0.51100000000E-03 0. -1.
        -11    1    3    3    0    0 -0.19442851024E+02  0.88408592916E+01  0.13570484405E+02  0.25305005359E+02  0.51100000000E-03 0.  1.
         12    1    3    3    0    0  0.20798149448E+02  0.65940679466E+00 -0.20054882619E+02  0.28899760460E+02  0.00000000000E+00 0. -1.
</event>
<event>
 7    1  0.3027254E-013  0.7246185E+02  0.7816164E-02  0.1226707E+00
        -11   -1    0    0    0    0  0.00000000000E+00  0.00000000000E+00  0.45593999997E+02  0.45594000000E+02  0.51100000000E-03 0. -1.
         11   -1    0    0    0    0 -0.00000000000E+00 -0.00000000000E+00 -0.45593999997E+02  0.45594000000E+02  0.51100000000E-03 0.  1.
    9900012    2    1    2    0    0 -0.81181808039E+01 -0.16791527438E+02  0.16758401646E+01  0.72461850008E+02  0.70000364378E+02 0.  0.
         12    1    1    2    0    0  0.81181808039E+01  0.16791527438E+02 -0.16758401646E+01  0.18726149992E+02  0.00000000000E+00 0. -1.
         11    1    3    3    0    0  0.80831733547E+01 -0.10179501891E+02  0.13663936562E+02  0.18859032660E+02  0.51100000000E-03 0. -1.
        -11    1    3    3    0    0 -0.18644625817E+02 -0.23702810289E+02  0.35633597914E+01  0.30366804585E+02  0.51100000000E-03 0.  1.
        -12    1    3    3    0    0  0.24432716580E+01  0.17090784743E+02 -0.15551456189E+02  0.23236012763E+02  0.00000000000E+00 0.  1.
</event>
<event>
 7    1  0.3027254E-013  0.7246166E+02  0.7816164E-02  0.1226708E+00
        -11   -1    0    0    0    0  0.00000000000E+00  0.00000000000E+00  0.45593999997E+02  0.45594000000E+02  0.51100000000E-03 0. -1.
         11   -1    0    0    0    0 -0.00000000000E+00 -0.00000000000E+00 -0.45593999997E+02  0.45594000000E+02  0.51100000000E-03 0.  1.
    9900012    2    1    2    0    0  0.17828032511E+02  0.83668727766E+00 -0.56689376435E+01  0.72461664459E+02  0.70000122666E+02 0.  0.
         12    1    1    2    0    0 -0.17828032511E+02 -0.83668727766E+00  0.56689376435E+01  0.18726335541E+02  0.00000000000E+00 0. -1.
         11    1    3    3    0    0  0.68421526391E+01 -0.48737779920E-02  0.78690044979E+01  0.10427670331E+02  0.51100000000E-03 0. -1.
        -11    1    3    3    0    0  0.28948064271E+02  0.19292582707E+02 -0.76472823691E+01  0.35618465722E+02  0.51100000000E-03 0.  1.
         12    1    3    3    0    0 -0.17962184399E+02 -0.18451021651E+02 -0.58906597723E+01  0.26415528405E+02  0.00000000000E+00 0. -1.
</event>
<event>
 7    1  0.3027254E-013  0.7246157E+02  0.7816164E-02  0.1226708E+00
        -11   -1    0    0    0    0  0.00000000000E+00  0.00000000000E+00  0.45593999997E+02  0.45594000000E+02  0.51100000000E-03 0. -1.
         11   -1    0    0    0    0 -0.00000000000E+00 -0.00000000000E+00 -0.45593999997E+02  0.45594000000E+02  0.51100000000E-03 0.  1.
    9900012    2    1    2    0    0 -0.44989674401E+01 -0.95104399490E+01 -0.15491616291E+02  0.72461565439E+02  0.69999993676E+02 0.  0.
         12    1    1    2    0    0  0.44989674401E+01  0.95104399490E+01  0.15491616291E+02  0.18726434561E+02  0.00000000000E+00 0. -1.
         11    1    3    3    0    0 -0.84954345497E+01 -0.20394459854E+01  0.25054609506E+02  0.26534227064E+02  0.51100000000E-03 0. -1.
        -11    1    3    3    0    0 -0.78544808565E+01 -0.43029635613E+01 -0.13149842666E+02  0.15909956861E+02  0.51100000000E-03 0.  1.
        -12    1    3    3    0    0  0.11850947966E+02 -0.31680304023E+01 -0.27396383131E+02  0.30017381514E+02  0.00000000000E+00 0.  1.
</event>
<event>
 7    1  0.3027254E-013  0.7246156E+02  0.7816164E-02  0.1226708E+00
        -11   -1    0    0    0    0  0.00000000000E+00  0.00000000000E+00  0.45593999997E+02  0.45594000000E+02  0.51100000000E-03 0. -1.
         11   -1    0    0    0    0 -0.00000000000E+00 -0.00000000000E+00 -0.45593999997E+02  0.45594000000E+02  0.51100000000E-03 0.  1.
    9900012    2    1    2    0    0 -0.80874134033E+00  0.18703498920E+02  0.45218042126E+00  0.72461564099E+02  0.69999991930E+02 0.  0.
         12    1    1    2    0    0  0.80874134033E+00 -0.18703498920E+02 -0.45218042126E+00  0.18726435901E+02  0.00000000000E+00 0. -1.
         11    1    3    3    0    0 -0.16920849235E+02 -0.79062144087E+01 -0.50890844836E+01  0.19357741249E+02  0.51100000000E-03 0. -1.
        -11    1    3    3    0    0  0.12342487931E+02 -0.21936805015E+01  0.17636088222E+02  0.21637487158E+02  0.51100000000E-03 0.  1.
        -12    1    3    3    0    0  0.37696199636E+01  0.28803393830E+02 -0.12094823318E+02  0.31466335692E+02  0.00000000000E+00 0.  1.
</event>
<event>
 7    1  0.3027254E-013  0.7246150E+02  0.7816164E-02  0.1226708E+00
        -11   -1    0    0    0    0  0.00000000000E+00  0.00000000000E+00  0.45593999997E+02  0.45594000000E+02  0.51100000000E-03 0. -1.
         11   -1    0    0    0    0 -0.00000000000E+00 -0.00000000000E+00 -0.45593999997E+02  0.45594000000E+02  0.51100000000E-03 0.  1.
    9900012    2    1    2    0    0  0.92046827635E+01 -0.10593852810E+02 -0.12398626777E+02  0.72461498776E+02  0.69999906834E+02 0.  0.
         12    1    1    2    0    0 -0.92046827635E+01  0.10593852810E+02  0.12398626777E+02  0.18726501224E+02  0.00000000000E+00 0. -1.
         11    1    3    3    0    0 -0.24635726995E+02  0.84394821700E+01  0.62101299255E+01  0.26771432868E+02  0.51100000000E-03 0. -1.
        -11    1    3    3    0    0  0.13143647584E+02 -0.15453552008E+02 -0.12445660075E+02  0.23800466307E+02  0.51100000000E-03 0.  1.
        -12    1    3    3    0    0  0.20696762174E+02 -0.35797829727E+01 -0.61630966277E+01  0.21889599600E+02  0.00000000000E+00 0.  1.
</event>
<event>
 7    1  0.3027254E-013  0.7246156E+02  0.7816164E-02  0.1226708E+00
        -11   -1    0    0    0    0  0.00000000000E+00  0.00000000000E+00  0.45593999997E+02  0.45594000000E+02  0.51100000000E-03 0.  1.
         11   -1    0    0    0    0 -0.00000000000E+00 -0.00000000000E+00 -0.45593999997E+02  0.45594000000E+02  0.51100000000E-03 0. -1.
    9900012    2    1    2    0    0 -0.13786092984E+02 -0.12497263648E+02 -0.21074754401E+01  0.72461563842E+02  0.69999991595E+02 0.  0.
         12    1    1    2    0    0  0.13786092984E+02  0.12497263648E+02  0.21074754401E+01  0.18726436158E+02  0.00000000000E+00 0. -1.
         11    1    3    3    0    0  0.10763800146E+02  0.84652061760E+00 -0.45187292099E+01  0.11704482247E+02  0.51100000000E-03 0. -1.
        -11    1    3    3    0    0  0.98326502187E+01  0.13751549606E+02 -0.15874037795E+00  0.16905955331E+02  0.51100000000E-03 0.  1.
        -12    1    3    3    0    0 -0.34382543348E+02 -0.27095333871E+02  0.25699941478E+01  0.43851126264E+02  0.00000000000E+00 0.  1.
</event>
<event>
 7    1  0.3027254E-013  0.7246156E+02  0.7816164E-02  0.1226708E+00
        -11   -1    0    0    0    0  0.00000000000E+00  0.00000000000E+00  0.45593999997E+02  0.45594000000E+02  0.51100000000E-03 0. -1.
         11   -1    0    0    0    0 -0.00000000000E+00 -0.00000000000E+00 -0.45593999997E+02  0.45594000000E+02  0.51100000000E-03 0.  1.
    9900012    2    1    2    0    0  0.27235934945E+01 -0.75016787298E+01 -0.16940673552E+02  0.72461559717E+02  0.69999986220E+02 0.  0.
         12    1    1    2    0    0 -0.27235934945E+01  0.75016787298E+01  0.16940673552E+02  0.18726440283E+02  0.00000000000E+00 0. -1.
         11    1    3    3    0    0 -0.77410950798E+01 -0.48973683948E+01  0.43584707845E+01  0.10144212048E+02  0.51100000000E-03 0. -1.
        -11    1    3    3    0    0  0.16133550007E+02 -0.21510692656E+02  0.70278200885E+01  0.27791933899E+02  0.51100000000E-03 0.  1.
        -12    1    3    3    0    0 -0.56688614328E+01  0.18906382321E+02 -0.28326964425E+02  0.34525413770E+02  0.00000000000E+00 0.  1.
</event>
<event>
 7    1  0.3027254E-013  0.7246157E+02  0.7816164E-02  0.1226708E+00
        -11   -1    0    0    0    0  0.00000000000E+00  0.00000000000E+00  0.45593999997E+02  0.45594000000E+02  0.51100000000E-03 0.  1.
         11   -1    0    0    0    0 -0.00000000000E+00 -0.00000000000E+00 -0.45593999997E+02  0.45594000000E+02  0.51100000000E-03 0. -1.
    9900012    2    1    2    0    0  0.78552651801E+01 -0.11209047442E+02  0.12780118286E+02  0.72461565235E+02  0.69999993410E+02 0.  0.
         12    1    1    2    0    0 -0.78552651801E+01  0.11209047442E+02 -0.12780118286E+02  0.18726434765E+02  0.00000000000E+00 0. -1.
         11    1    3    3    0    0  0.23965803060E+02 -0.76888400437E+01  0.63130064143E+01  0.25948642118E+02  0.51100000000E-03 0. -1.
        -11    1    3    3    0    0  0.50927229634E+01 -0.13907071922E+02  0.15309482607E+02  0.21300768404E+02  0.51100000000E-03 0.  1.
         12    1    3    3    0    0 -0.21203260844E+02  0.10386864524E+02 -0.88423707362E+01  0.25212154713E+02  0.00000000000E+00 0. -1.
</event>
<event>
 7    1  0.3027254E-013  0.7246157E+02  0.7816164E-02  0.1226708E+00
        -11   -1    0    0    0    0  0.00000000000E+00  0.00000000000E+00  0.45593999997E+02  0.45594000000E+02  0.51100000000E-03 0. -1.
         11   -1    0    0    0    0 -0.00000000000E+00 -0.00000000000E+00 -0.45593999997E+02  0.45594000000E+02  0.51100000000E-03 0.  1.
    9900012    2    1    2    0    0 -0.21815823788E+01 -0.18598499422E+02 -0.12471513642E+00  0.72461573851E+02  0.70000004634E+02 0.  0.
         12    1    1    2    0    0  0.21815823788E+01  0.18598499422E+02  0.12471513642E+00  0.18726426149E+02  0.00000000000E+00 0. -1.
         11    1    3    3    0    0 -0.21737584322E+01  0.85599048599E+01  0.11737594472E+02  0.14689054468E+02  0.51100000000E-03 0. -1.
        -11    1    3    3    0    0  0.20149481074E+02 -0.68584656739E+01  0.82229892531E+01  0.22817924785E+02  0.51100000000E-03 0.  1.
         12    1    3    3    0    0 -0.20157305021E+02 -0.20299938608E+02 -0.20085298861E+02  0.34954594598E+02  0.00000000000E+00 0. -1.
</event>
<event>
 7    1  0.3027254E-013  0.7246157E+02  0.7816164E-02  0.1226708E+00
        -11   -1    0    0    0    0  0.00000000000E+00  0.00000000000E+00  0.45593999997E+02  0.45594000000E+02  0.51100000000E-03 0.  1.
         11   -1    0    0    0    0 -0.00000000000E+00 -0.00000000000E+00 -0.45593999997E+02  0.45594000000E+02  0.51100000000E-03 0. -1.
    9900012    2    1    2    0    0 -0.56541651738E+01  0.28766742522E+01  0.17619145401E+02  0.72461571531E+02  0.70000001611E+02 0.  0.
         12    1    1    2    0    0  0.56541651738E+01 -0.28766742522E+01 -0.17619145401E+02  0.18726428469E+02  0.00000000000E+00 0. -1.
         11    1    3    3    0    0  0.96873442678E+01  0.16163271282E+02 -0.14329311255E+02  0.23673300124E+02  0.51100000000E-03 0. -1.
        -11    1    3    3    0    0  0.61925735060E+01  0.71473504951E-01  0.19684746163E+02  0.20635946958E+02  0.51100000000E-03 0.  1.
         12    1    3    3    0    0 -0.21534082948E+02 -0.13358070534E+02  0.12263710492E+02  0.28152324448E+02  0.00000000000E+00 0. -1.
</event>
<event>
 7    1  0.3027254E-013  0.7246140E+02  0.7816164E-02  0.1226708E+00
        -11   -1    0    0    0    0  0.00000000000E+00  0.00000000000E+00  0.45593999997E+02  0.45594000000E+02  0.51100000000E-03 0. -1.
         11   -1    0    0    0    0 -0.00000000000E+00 -0.00000000000E+00 -0.45593999997E+02  0.45594000000E+02  0.51100000000E-03 0.  1.
    9900012    2    1    2    0    0  0.17956393649E+02  0.19551640406E+01  0.49427675559E+01  0.72461396186E+02  0.69999773191E+02 0.  0.
         12    1    1    2    0    0 -0.17956393649E+02 -0.19551640406E+01 -0.49427675559E+01  0.18726603814E+02  0.00000000000E+00 0. -1.
         11    1    3    3    0    0  0.42851981519E+01  0.13753679347E+02  0.46545373484E+01  0.15139066582E+02  0.51100000000E-03 0. -1.
        -11    1    3    3    0    0  0.29399149584E+02 -0.19171517741E+02 -0.10791237871E+02  0.36719312409E+02  0.51100000000E-03 0.  1.
         12    1    3    3    0    0 -0.15727954087E+02  0.73730024338E+01  0.11079468078E+02  0.20603017195E+02  0.00000000000E+00 0. -1.
</event>
<event>
 7    1  0.3027254E-013  0.7246151E+02  0.7816164E-02  0.1226708E+00
        -11   -1    0    0    0    0  0.00000000000E+00  0.00000000000E+00  0.45593999997E+02  0.45594000000E+02  0.51100000000E-03 0.  1.
         11   -1    0    0    0    0 -0.00000000000E+00 -0.00000000000E+00 -0.45593999997E+02  0.45594000000E+02  0.51100000000E-03 0. -1.
    9900012    2    1    2    0    0  0.71349687980E+00 -0.14913067143E+02  0.11303667896E+02  0.72461506540E+02  0.69999916948E+02 0.  0.
         12    1    1    2    0    0 -0.71349687980E+00  0.14913067143E+02 -0.11303667896E+02  0.18726493460E+02  0.00000000000E+00 0. -1.
         11    1    3    3    0    0 -0.68012629906E+01  0.12627794726E+01 -0.54131971896E+01  0.87837631080E+01  0.51100000000E-03 0. -1.
        -11    1    3    3    0    0 -0.15972983267E+02 -0.29566792090E+02  0.41425768191E+01  0.33859892675E+02  0.51100000000E-03 0.  1.
         12    1    3    3    0    0  0.23487743137E+02  0.13390945475E+02  0.12574288266E+02  0.29817850757E+02  0.00000000000E+00 0. -1.
</event>
<event>
 7    1  0.3027254E-013  0.7246160E+02  0.7816164E-02  0.1226708E+00
        -11   -1    0    0    0    0  0.00000000000E+00  0.00000000000E+00  0.45593999997E+02  0.45594000000E+02  0.51100000000E-03 0.  1.
         11   -1    0    0    0    0 -0.00000000000E+00 -0.00000000000E+00 -0.45593999997E+02  0.45594000000E+02  0.51100000000E-03 0. -1.
    9900012    2    1    2    0    0  0.17130649821E+02 -0.72693518340E+01  0.20917664746E+01  0.72461598147E+02  0.70000036284E+02 0.  0.
         12    1    1    2    0    0 -0.17130649821E+02  0.72693518340E+01 -0.20917664746E+01  0.18726401853E+02  0.00000000000E+00 0. -1.
         11    1    3    3    0    0 -0.22166329941E+02 -0.88605051827E+01  0.67175360669E+00  0.23881080133E+02  0.51100000000E-03 0. -1.
        -11    1    3    3    0    0 -0.42944482309E+01  0.57229046699E+00  0.24263387844E+01  0.49655736973E+01  0.51100000000E-03 0.  1.
        -12    1    3    3    0    0  0.43591427992E+02  0.10188628818E+01 -0.10063259165E+01  0.43614944317E+02  0.00000000000E+00 0.  1.
</event>
<event>
 7    1  0.3027254E-013  0.7246150E+02  0.7816164E-02  0.1226708E+00
        -11   -1    0    0    0    0  0.00000000000E+00  0.00000000000E+00  0.45593999997E+02  0.45594000000E+02  0.51100000000E-03 0.  1.
         11   -1    0    0    0    0 -0.00000000000E+00 -0.00000000000E+00 -0.45593999997E+02  0.45594000000E+02  0.51100000000E-03 0. -1.
    9900012    2    1    2    0    0  0.18495521365E+02 -0.22621204708E+01  0.18655874639E+01  0.72461496958E+02  0.69999904466E+02 0.  0.
         12    1    1    2    0    0 -0.18495521365E+02  0.22621204708E+01 -0.18655874639E+01  0.18726503042E+02  0.00000000000E+00 0. -1.
         11    1    3    3    0    0 -0.59095106049E+01 -0.34659201814E+01  0.13255450438E+02  0.14921189123E+02  0.51100000000E-03 0.  1.
        -11    1    3    3    0    0  0.40151739047E+02  0.39500863199E+01 -0.68428103312E+01  0.40921747078E+02  0.51100000000E-03 0. -1.
         12    1    3    3    0    0 -0.15746707077E+02 -0.27462866092E+01 -0.45470526424E+01  0.16618560757E+02  0.00000000000E+00 0. -1.
</event>
<event>
 7    1  0.3027254E-013  0.7246148E+02  0.7816164E-02  0.1226708E+00
        -11   -1    0    0    0    0  0.00000000000E+00  0.00000000000E+00  0.45593999997E+02  0.45594000000E+02  0.51100000000E-03 0. -1.
         11   -1    0    0    0    0 -0.00000000000E+00 -0.00000000000E+00 -0.45593999997E+02  0.45594000000E+02  0.51100000000E-03 0.  1.
    9900012    2    1    2    0    0 -0.72956429149E+01 -0.98323519893E+01 -0.14169721173E+02  0.72461480053E+02  0.69999882444E+02 0.  0.
         12    1    1    2    0    0  0.72956429149E+01  0.98323519893E+01  0.14169721173E+02  0.18726519947E+02  0.00000000000E+00 0. -1.
         11    1    3    3    0    0 -0.15171192453E+02  0.10561056496E+02  0.51477949545E+01  0.19188558776E+02  0.51100000000E-03 0. -1.
        -11    1    3    3    0    0 -0.13053437345E+02  0.22074608091E+01 -0.18127386395E+02  0.22446987493E+02  0.51100000000E-03 0.  1.
        -12    1    3    3    0    0  0.20928986883E+02 -0.22600869295E+02 -0.11901297329E+01  0.30825933783E+02  0.00000000000E+00 0.  1.
</event>
<event>
 7    1  0.3027254E-013  0.7246158E+02  0.7816164E-02  0.1226708E+00
        -11   -1    0    0    0    0  0.00000000000E+00  0.00000000000E+00  0.45593999997E+02  0.45594000000E+02  0.51100000000E-03 0. -1.
         11   -1    0    0    0    0 -0.00000000000E+00 -0.00000000000E+00 -0.45593999997E+02  0.45594000000E+02  0.51100000000E-03 0.  1.
    9900012    2    1    2    0    0  0.14073124663E+02  0.10711518344E+02 -0.61554214786E+01  0.72461583456E+02  0.70000017145E+02 0.  0.
         12    1    1    2    0    0 -0.14073124663E+02 -0.10711518344E+02  0.61554214786E+01  0.18726416544E+02  0.00000000000E+00 0. -1.
         11    1    3    3    0    0  0.60110421478E+01  0.25158416627E+01 -0.50013190626E+01  0.82143337893E+01  0.51100000000E-03 0. -1.
        -11    1    3    3    0    0 -0.18431283883E+02  0.10844078475E+02 -0.21813121592E+02  0.30546989007E+02  0.51100000000E-03 0.  1.
         12    1    3    3    0    0  0.26493366398E+02 -0.26484017937E+01  0.20659019176E+02  0.33700260659E+02  0.00000000000E+00 0. -1.
</event>
<event>
 7    1  0.3027254E-013  0.7246158E+02  0.7816164E-02  0.1226708E+00
        -11   -1    0    0    0    0  0.00000000000E+00  0.00000000000E+00  0.45593999997E+02  0.45594000000E+02  0.51100000000E-03 0. -1.
         11   -1    0    0    0    0 -0.00000000000E+00 -0.00000000000E+00 -0.45593999997E+02  0.45594000000E+02  0.51100000000E-03 0.  1.
    9900012    2    1    2    0    0 -0.16473487713E+02  0.89030156109E+01 -0.19873531631E+00  0.72461575351E+02  0.70000006587E+02 0.  0.
         12    1    1    2    0    0  0.16473487713E+02 -0.89030156109E+01  0.19873531631E+00  0.18726424649E+02  0.00000000000E+00 0. -1.
         11    1    3    3    0    0  0.14693916268E+02 -0.31549027211E+01 -0.15344581140E+02  0.21478378829E+02  0.51100000000E-03 0. -1.
        -11    1    3    3    0    0  0.82323340700E-02  0.16654190608E+02  0.17653724066E+01  0.16747497502E+02  0.51100000000E-03 0.  1.
        -12    1    3    3    0    0 -0.31175636316E+02 -0.45962722759E+01  0.13380473418E+02  0.34235699020E+02  0.00000000000E+00 0.  1.
</event>
<event>
 7    1  0.3027254E-013  0.7246155E+02  0.7816164E-02  0.1226708E+00
        -11   -1    0    0    0    0  0.00000000000E+00  0.00000000000E+00  0.45593999997E+02  0.45594000000E+02  0.51100000000E-03 0. -1.
         11   -1    0    0    0    0 -0.00000000000E+00 -0.00000000000E+00 -0.45593999997E+02  0.45594000000E+02  0.51100000000E-03 0.  1.
    9900012    2    1    2    0    0  0.15063320882E+02  0.11014002579E+02 -0.15709447701E+01  0.72461554628E+02  0.69999979592E+02 0.  0.
         12    1    1    2    0    0 -0.15063320882E+02 -0.11014002579E+02  0.15709447701E+01  0.18726445372E+02  0.00000000000E+00 0. -1.
         11    1    3    3    0    0 -0.32090470514E+01  0.15339672415E+02 -0.12616457046E+02  0.20119108365E+02  0.51100000000E-03 0. -1.
        -11    1    3    3    0    0  0.25821774474E+02  0.15208668700E+02  0.39306060079E+01  0.30224448787E+02  0.51100000000E-03 0.  1.
         12    1    3    3    0    0 -0.75494065411E+01 -0.19534338536E+02  0.71149062679E+01  0.22117997476E+02  0.00000000000E+00 0. -1.
</event>
<event>
 7    1  0.3027254E-013  0.7246156E+02  0.7816164E-02  0.1226708E+00
        -11   -1    0    0    0    0  0.00000000000E+00  0.00000000000E+00  0.45593999997E+02  0.45594000000E+02  0.51100000000E-03 0.  1.
         11   -1    0    0    0    0 -0.00000000000E+00 -0.00000000000E+00 -0.45593999997E+02  0.45594000000E+02  0.51100000000E-03 0. -1.
    9900012    2    1    2    0    0 -0.17104796220E+01 -0.73850577297E+01  0.17123514320E+02  0.72461559845E+02  0.69999986388E+02 0.  0.
         12    1    1    2    0    0  0.17104796220E+01  0.73850577297E+01 -0.17123514320E+02  0.18726440155E+02  0.00000000000E+00 0. -1.
         11    1    3    3    0    0 -0.20246904450E+02  0.10487324393E+02 -0.49663187071E+01  0.23336354353E+02  0.51100000000E-03 0. -1.
        -11    1    3    3    0    0  0.73175838961E+00 -0.94105242990E+01 -0.85208715564E+01  0.12716079988E+02  0.51100000000E-03 0.  1.
        -12    1    3    3    0    0  0.17804666438E+02 -0.84618578241E+01  0.30610704584E+02  0.36409125503E+02  0.00000000000E+00 0.  1.
</event>
<event>
 7    1  0.3027254E-013  0.7246155E+02  0.7816164E-02  0.1226708E+00
        -11   -1    0    0    0    0  0.00000000000E+00  0.00000000000E+00  0.45593999997E+02  0.45594000000E+02  0.51100000000E-03 0.  1.
         11   -1    0    0    0    0 -0.00000000000E+00 -0.00000000000E+00 -0.45593999997E+02  0.45594000000E+02  0.51100000000E-03 0. -1.
    9900012    2    1    2    0    0  0.47254899108E+01  0.20927905916E+01  0.17999165384E+02  0.72461548604E+02  0.69999971744E+02 0.  0.
         12    1    1    2    0    0 -0.47254899108E+01 -0.20927905916E+01 -0.17999165384E+02  0.18726451396E+02  0.00000000000E+00 0. -1.
         11    1    3    3    0    0  0.56219006645E+01  0.93189112444E+01  0.21818506382E+01  0.11099925510E+02  0.51100000000E-03 0. -1.
        -11    1    3    3    0    0  0.12344309015E+02  0.22193050599E+02 -0.81544704076E-01  0.25395277311E+02  0.51100000000E-03 0.  1.
        -12    1    3    3    0    0 -0.13240719768E+02 -0.29419171251E+02  0.15898859450E+02  0.35966345782E+02  0.00000000000E+00 0.  1.
</event>
<event>
 7    1  0.3027254E-013  0.7246156E+02  0.7816164E-02  0.1226708E+00
        -11   -1    0    0    0    0  0.00000000000E+00  0.00000000000E+00  0.45593999997E+02  0.45594000000E+02  0.51100000000E-03 0.  1.
         11   -1    0    0    0    0 -0.00000000000E+00 -0.00000000000E+00 -0.45593999997E+02  0.45594000000E+02  0.51100000000E-03 0. -1.
    9900012    2    1    2    0    0  0.86070029563E+01  0.11358934230E+02  0.12147986901E+02  0.72461562206E+02  0.69999989463E+02 0.  0.
         12    1    1    2    0    0 -0.86070029563E+01 -0.11358934230E+02 -0.12147986901E+02  0.18726437794E+02  0.00000000000E+00 0. -1.
         11    1    3    3    0    0  0.27929592015E+02 -0.81846565423E+01 -0.77725282841E+00  0.29114512448E+02  0.51100000000E-03 0. -1.
        -11    1    3    3    0    0 -0.33530548823E+00 -0.38337883205E+01  0.12656965816E+02  0.13229102259E+02  0.51100000000E-03 0.  1.
        -12    1    3    3    0    0 -0.18987283571E+02  0.23377379092E+02  0.26827391357E+00  0.30117947498E+02  0.00000000000E+00 0.  1.
</event>
<event>
 7    1  0.3027254E-013  0.7246151E+02  0.7816164E-02  0.1226708E+00
        -11   -1    0    0    0    0  0.00000000000E+00  0.00000000000E+00  0.45593999997E+02  0.45594000000E+02  0.51100000000E-03 0.  1.
         11   -1    0    0    0    0 -0.00000000000E+00 -0.00000000000E+00 -0.45593999997E+02  0.45594000000E+02  0.51100000000E-03 0. -1.
    9900012    2    1    2    0    0 -0.17984174166E+02 -0.26932769418E+01  0.44718157512E+01  0.72461510814E+02  0.69999922516E+02 0.  0.
         12    1    1    2    0    0  0.17984174166E+02  0.26932769418E+01 -0.44718157512E+01  0.18726489186E+02  0.00000000000E+00 0. -1.
         11    1    3    3    0    0 -0.13364787511E+02 -0.65437697170E+01  0.39321949901E+01  0.15391576431E+02  0.51100000000E-03 0. -1.
        -11    1    3    3    0    0 -0.25397311341E+02 -0.14146396249E+02 -0.35189747692E+01  0.29283564227E+02  0.51100000000E-03 0.  1.
         12    1    3    3    0    0  0.20777924686E+02  0.17996889024E+02  0.40585955303E+01  0.27786370156E+02  0.00000000000E+00 0. -1.
</event>
<event>
 7    1  0.3027254E-013  0.7246158E+02  0.7816164E-02  0.1226708E+00
        -11   -1    0    0    0    0  0.00000000000E+00  0.00000000000E+00  0.45593999997E+02  0.45594000000E+02  0.51100000000E-03 0. -1.
         11   -1    0    0    0    0 -0.00000000000E+00 -0.00000000000E+00 -0.45593999997E+02  0.45594000000E+02  0.51100000000E-03 0.  1.
    9900012    2    1    2    0    0  0.32660745881E+00 -0.18613305873E+02 -0.20290186145E+01  0.72461581642E+02  0.70000014783E+02 0.  0.
         12    1    1    2    0    0 -0.32660745881E+00  0.18613305873E+02  0.20290186145E+01  0.18726418358E+02  0.00000000000E+00 0. -1.
         11    1    3    3    0    0 -0.13838980240E+02  0.14646852934E+02  0.56307975533E+01  0.20922560940E+02  0.51100000000E-03 0. -1.
        -11    1    3    3    0    0 -0.11103436852E+02 -0.29688632614E+01 -0.24169735345E+01  0.11744880600E+02  0.51100000000E-03 0.  1.
        -12    1    3    3    0    0  0.25269024551E+02 -0.30291295546E+02 -0.52428426334E+01  0.39794140102E+02  0.00000000000E+00 0.  1.
</event>
<event>
 7    1  0.3027254E-013  0.7246157E+02  0.7816164E-02  0.1226708E+00
        -11   -1    0    0    0    0  0.00000000000E+00  0.00000000000E+00  0.45593999997E+02  0.45594000000E+02  0.51100000000E-03 0.  1.
         11   -1    0    0    0    0 -0.00000000000E+00 -0.00000000000E+00 -0.45593999997E+02  0.45594000000E+02  0.51100000000E-03 0. -1.
    9900012    2    1    2    0    0  0.17819828125E+02 -0.16330490711E+01 -0.55196086192E+01  0.72461569401E+02  0.69999998836E+02 0.  0.
         12    1    1    2    0    0 -0.17819828125E+02  0.16330490711E+01  0.55196086192E+01  0.18726430599E+02  0.00000000000E+00 0. -1.
         11    1    3    3    0    0  0.12570166082E+02  0.83889601038E+01 -0.68912354446E+00  0.15128073852E+02  0.51100000000E-03 0.  1.
        -11    1    3    3    0    0  0.23622660749E+02 -0.88685649160E+01 -0.21002600369E+02  0.32829723835E+02  0.51100000000E-03 0. -1.
        -12    1    3    3    0    0 -0.18372998706E+02 -0.11534442589E+01  0.16172115294E+02  0.24503771714E+02  0.00000000000E+00 0.  1.
</event>
<event>
 7    1  0.3027254E-013  0.7246155E+02  0.7816164E-02  0.1226708E+00
        -11   -1    0    0    0    0  0.00000000000E+00  0.00000000000E+00  0.45593999997E+02  0.45594000000E+02  0.51100000000E-03 0. -1.
         11   -1    0    0    0    0 -0.00000000000E+00 -0.00000000000E+00 -0.45593999997E+02  0.45594000000E+02  0.51100000000E-03 0.  1.
    9900012    2    1    2    0    0  0.18006480690E+02  0.38392754896E+01 -0.34215072059E+01  0.72461545592E+02  0.69999967820E+02 0.  0.
         12    1    1    2    0    0 -0.18006480690E+02 -0.38392754896E+01  0.34215072059E+01  0.18726454408E+02  0.00000000000E+00 0. -1.
         11    1    3    3    0    0  0.14735050975E+02  0.12314552049E+01  0.11948011699E+02  0.19010344368E+02  0.51100000000E-03 0. -1.
        -11    1    3    3    0    0 -0.14674325912E+02  0.16467786239E+02  0.53925428487E+01  0.22706900784E+02  0.51100000000E-03 0.  1.
        -12    1    3    3    0    0  0.17945755627E+02 -0.13859965955E+02 -0.20762061753E+02  0.30744300440E+02  0.00000000000E+00 0.  1.
</event>
<event>
 7    1  0.3027254E-013  0.7246159E+02  0.7816164E-02  0.1226708E+00
        -11   -1    0    0    0    0  0.00000000000E+00  0.00000000000E+00  0.45593999997E+02  0.45594000000E+02  0.51100000000E-03 0. -1.
         11   -1    0    0    0    0 -0.00000000000E+00 -0.00000000000E+00 -0.45593999997E+02  0.45594000000E+02  0.51100000000E-03 0.  1.
    9900012    2    1    2    0    0 -0.84402452859E+01  0.53890505293E+01 -0.15824000787E+02  0.72461585314E+02  0.70000019566E+02 0.  0.
         12    1    1    2    0    0  0.84402452859E+01 -0.53890505293E+01  0.15824000787E+02  0.18726414686E+02  0.00000000000E+00 0. -1.
         11    1    3    3    0    0  0.13056595462E+02  0.53743827277E+01 -0.25806229062E+00  0.14121801272E+02  0.51100000000E-03 0. -1.
        -11    1    3    3    0    0  0.10710836264E+02  0.12997803331E+02 -0.16532108571E+02  0.23600328789E+02  0.51100000000E-03 0.  1.
         12    1    3    3    0    0 -0.32207677012E+02 -0.12983135530E+02  0.96617007471E+00  0.34739455253E+02  0.00000000000E+00 0. -1.
</event>
<event>
 7    1  0.3027254E-013  0.7246160E+02  0.7816164E-02  0.1226708E+00
        -11   -1    0    0    0    0  0.00000000000E+00  0.00000000000E+00  0.45593999997E+02  0.45594000000E+02  0.51100000000E-03 0. -1.
         11   -1    0    0    0    0 -0.00000000000E+00 -0.00000000000E+00 -0.45593999997E+02  0.45594000000E+02  0.51100000000E-03 0.  1.
    9900012    2    1    2    0    0 -0.20777633833E+01  0.34669819162E+01 -0.18284993035E+02  0.72461600597E+02  0.70000039475E+02 0.  0.
         12    1    1    2    0    0  0.20777633833E+01 -0.34669819162E+01  0.18284993035E+02  0.18726399403E+02  0.00000000000E+00 0. -1.
         11    1    3    3    0    0 -0.15269978056E+02  0.51318177769E+00 -0.75501943955E+01  0.17042330270E+02  0.51100000000E-03 0. -1.
        -11    1    3    3    0    0  0.61930063185E+01  0.21642862102E+02  0.11718520892E+02  0.25378938894E+02  0.51100000000E-03 0.  1.
        -12    1    3    3    0    0  0.69992083544E+01 -0.18689061963E+02 -0.22453319532E+02  0.30040331433E+02  0.00000000000E+00 0.  1.
</event>
<event>
 7    1  0.3027254E-013  0.7246159E+02  0.7816164E-02  0.1226708E+00
        -11   -1    0    0    0    0  0.00000000000E+00  0.00000000000E+00  0.45593999997E+02  0.45594000000E+02  0.51100000000E-03 0.  1.
         11   -1    0    0    0    0 -0.00000000000E+00 -0.00000000000E+00 -0.45593999997E+02  0.45594000000E+02  0.51100000000E-03 0. -1.
    9900012    2    1    2    0    0  0.69628490030E+01 -0.68913693175E+01  0.15959513785E+02  0.72461593042E+02  0.70000029633E+02 0.  0.
         12    1    1    2    0    0 -0.69628490030E+01  0.68913693175E+01 -0.15959513785E+02  0.18726406958E+02  0.00000000000E+00 0. -1.
         11    1    3    3    0    0 -0.23151065524E+02  0.44620340954E+01  0.11847540085E+02  0.26386469819E+02  0.51100000000E-03 0. -1.
        -11    1    3    3    0    0 -0.44681716180E+01  0.43676279804E+01  0.51137963124E+01  0.80741343046E+01  0.51100000000E-03 0.  1.
        -12    1    3    3    0    0  0.34582086145E+02 -0.15721031393E+02 -0.10018226125E+01  0.38000988918E+02  0.00000000000E+00 0.  1.
</event>
<event>
 7    1  0.3027254E-013  0.7246160E+02  0.7816164E-02  0.1226708E+00
        -11   -1    0    0    0    0  0.00000000000E+00  0.00000000000E+00  0.45593999997E+02  0.45594000000E+02  0.51100000000E-03 0.  1.
         11   -1    0    0    0    0 -0.00000000000E+00 -0.00000000000E+00 -0.45593999997E+02  0.45594000000E+02  0.51100000000E-03 0. -1.
    9900012    2    1    2    0    0 -0.18562071779E+02  0.12440724327E+01 -0.21400490253E+01  0.72461600592E+02  0.70000039469E+02 0.  0.
         12    1    1    2    0    0  0.18562071779E+02 -0.12440724327E+01  0.21400490253E+01  0.18726399408E+02  0.00000000000E+00 0. -1.
         11    1    3    3    0    0 -0.23100635148E+02 -0.16594845250E+02 -0.11510986388E+02  0.30684377800E+02  0.51100000000E-03 0. -1.
        -11    1    3    3    0    0  0.11017888545E+02 -0.74749547825E+01  0.81671333455E+01  0.15619567354E+02  0.51100000000E-03 0.  1.
        -12    1    3    3    0    0 -0.64793251752E+01  0.25313872465E+02  0.12038040168E+01  0.26157655438E+02  0.00000000000E+00 0.  1.
</event>
<event>
 7    1  0.3027254E-013  0.7246157E+02  0.7816164E-02  0.1226708E+00
        -11   -1    0    0    0    0  0.00000000000E+00  0.00000000000E+00  0.45593999997E+02  0.45594000000E+02  0.51100000000E-03 0.  1.
         11   -1    0    0    0    0 -0.00000000000E+00 -0.00000000000E+00 -0.45593999997E+02  0.45594000000E+02  0.51100000000E-03 0. -1.
    9900012    2    1    2    0    0 -0.17689648618E+02  0.43601577029E+01  0.43294971148E+01  0.72461569783E+02  0.69999999334E+02 0.  0.
         12    1    1    2    0    0  0.17689648618E+02 -0.43601577029E+01 -0.43294971148E+01  0.18726430217E+02  0.00000000000E+00 0. -1.
         11    1    3    3    0    0 -0.14185359888E+02 -0.21900977503E+02 -0.15149247811E+02  0.30172453666E+02  0.51100000000E-03 0. -1.
        -11    1    3    3    0    0 -0.39502350955E+01  0.31902883117E+01 -0.60359356613E+01  0.78876369332E+01  0.51100000000E-03 0.  1.
        -12    1    3    3    0    0  0.44594636554E+00  0.23070846894E+02  0.25514680587E+02  0.34401479184E+02  0.00000000000E+00 0.  1.
</event>
<event>
 7    1  0.3027254E-013  0.7246159E+02  0.7816164E-02  0.1226708E+00
        -11   -1    0    0    0    0  0.00000000000E+00  0.00000000000E+00  0.45593999997E+02  0.45594000000E+02  0.51100000000E-03 0. -1.
         11   -1    0    0    0    0 -0.00000000000E+00 -0.00000000000E+00 -0.45593999997E+02  0.45594000000E+02  0.51100000000E-03 0.  1.
    9900012    2    1    2    0    0 -0.89749493117E+01  0.89480264490E+01 -0.13786275792E+02  0.72461593706E+02  0.70000030498E+02 0.  0.
         12    1    1    2    0    0  0.89749493117E+01 -0.89480264490E+01  0.13786275792E+02  0.18726406294E+02  0.00000000000E+00 0. -1.
         11    1    3    3    0    0  0.27282726338E+01 -0.90640511133E+01  0.17909152489E+02  0.20256807184E+02  0.51100000000E-03 0. -1.
        -11    1    3    3    0    0 -0.10318854074E+02 -0.67107478564E+01 -0.42316436986E+00  0.12316328777E+02  0.51100000000E-03 0.  1.
        -12    1    3    3    0    0 -0.13843678716E+01  0.24722825419E+02 -0.31272263912E+02  0.39888457745E+02  0.00000000000E+00 0.  1.
</event>
<event>
 7    1  0.3027254E-013  0.7246157E+02  0.7816164E-02  0.1226708E+00
        -11   -1    0    0    0    0  0.00000000000E+00  0.00000000000E+00  0.45593999997E+02  0.45594000000E+02  0.51100000000E-03 0.  1.
         11   -1    0    0    0    0 -0.00000000000E+00 -0.00000000000E+00 -0.45593999997E+02  0.45594000000E+02  0.51100000000E-03 0. -1.
    9900012    2    1    2    0    0  0.12690782523E+02  0.95282363741E+01  0.99416305852E+01  0.72461567661E+02  0.69999996569E+02 0.  0.
         12    1    1    2    0    0 -0.12690782523E+02 -0.95282363741E+01 -0.99416305852E+01  0.18726432339E+02  0.00000000000E+00 0. -1.
         11    1    3    3    0    0  0.45993729602E+01  0.20791627246E+02 -0.20118500011E+02  0.29295051427E+02  0.51100000000E-03 0. -1.
        -11    1    3    3    0    0  0.78428461527E+01 -0.13516607200E+01 -0.31112982367E+01  0.85450219108E+01  0.51100000000E-03 0.  1.
        -12    1    3    3    0    0  0.24856341053E+00 -0.99117301520E+01  0.33171428833E+02  0.34621494323E+02  0.00000000000E+00 0.  1.
</event>
<event>
 7    1  0.3027254E-013  0.7246131E+02  0.7816164E-02  0.1226709E+00
        -11   -1    0    0    0    0  0.00000000000E+00  0.00000000000E+00  0.45593999997E+02  0.45594000000E+02  0.51100000000E-03 0.  1.
         11   -1    0    0    0    0 -0.00000000000E+00 -0.00000000000E+00 -0.45593999997E+02  0.45594000000E+02  0.51100000000E-03 0. -1.
    9900012    2    1    2    0    0 -0.25835727194E+01  0.18202832871E+02 -0.35596065960E+01  0.72461313917E+02  0.69999666020E+02 0.  0.
         12    1    1    2    0    0  0.25835727194E+01 -0.18202832871E+02  0.35596065960E+01  0.18726686083E+02  0.00000000000E+00 0. -1.
         11    1    3    3    0    0  0.27853397478E+00  0.24354287899E+02 -0.21380286076E+01  0.24449541649E+02  0.51100000000E-03 0. -1.
        -11    1    3    3    0    0  0.21982847931E+00  0.83020153271E+01 -0.21518831258E+02  0.23065816309E+02  0.51100000000E-03 0.  1.
         12    1    3    3    0    0 -0.30819351735E+01 -0.14453470355E+02  0.20097253269E+02  0.24945955959E+02  0.00000000000E+00 0. -1.
</event>
<event>
 7    1  0.3027254E-013  0.7246156E+02  0.7816164E-02  0.1226708E+00
        -11   -1    0    0    0    0  0.00000000000E+00  0.00000000000E+00  0.45593999997E+02  0.45594000000E+02  0.51100000000E-03 0.  1.
         11   -1    0    0    0    0 -0.00000000000E+00 -0.00000000000E+00 -0.45593999997E+02  0.45594000000E+02  0.51100000000E-03 0. -1.
    9900012    2    1    2    0    0  0.24524536091E+01  0.11806289118E+02  0.14327481409E+02  0.72461555730E+02  0.69999981028E+02 0.  0.
         12    1    1    2    0    0 -0.24524536091E+01 -0.11806289118E+02 -0.14327481409E+02  0.18726444270E+02  0.00000000000E+00 0. -1.
         11    1    3    3    0    0  0.28759324328E+02 -0.10558791317E+02  0.90830790938E+01  0.31954485381E+02  0.51100000000E-03 0.  1.
        -11    1    3    3    0    0 -0.12832162690E+02  0.32128712654E+01 -0.60053742226E+01  0.14527610295E+02  0.51100000000E-03 0. -1.
        -12    1    3    3    0    0 -0.13474708029E+02  0.19152209170E+02  0.11249776538E+02  0.25979460055E+02  0.00000000000E+00 0.  1.
</event>
<event>
 7    1  0.3027254E-013  0.7246154E+02  0.7816164E-02  0.1226708E+00
        -11   -1    0    0    0    0  0.00000000000E+00  0.00000000000E+00  0.45593999997E+02  0.45594000000E+02  0.51100000000E-03 0. -1.
         11   -1    0    0    0    0 -0.00000000000E+00 -0.00000000000E+00 -0.45593999997E+02  0.45594000000E+02  0.51100000000E-03 0.  1.
    9900012    2    1    2    0    0  0.17131083920E+02 -0.42583716313E+01 -0.62508047674E+01  0.72461539430E+02  0.69999959794E+02 0.  0.
         12    1    1    2    0    0 -0.17131083920E+02  0.42583716313E+01  0.62508047674E+01  0.18726460570E+02  0.00000000000E+00 0. -1.
         11    1    3    3    0    0  0.18336492720E+02 -0.12700276407E+02  0.12575001209E+02  0.25605754075E+02  0.51100000000E-03 0. -1.
        -11    1    3    3    0    0 -0.15052252982E+02  0.70374871629E+01  0.65927784143E+01  0.17876276818E+02  0.51100000000E-03 0.  1.
        -12    1    3    3    0    0  0.13846844182E+02  0.14044176133E+01 -0.25418584391E+02  0.28979508537E+02  0.00000000000E+00 0.  1.
</event>
<event>
 7    1  0.3027254E-013  0.7246161E+02  0.7816164E-02  0.1226708E+00
        -11   -1    0    0    0    0  0.00000000000E+00  0.00000000000E+00  0.45593999997E+02  0.45594000000E+02  0.51100000000E-03 0. -1.
         11   -1    0    0    0    0 -0.00000000000E+00 -0.00000000000E+00 -0.45593999997E+02  0.45594000000E+02  0.51100000000E-03 0.  1.
    9900012    2    1    2    0    0  0.15092928179E+02  0.97522109584E+01  0.52702636597E+01  0.72461607432E+02  0.70000048378E+02 0.  0.
         12    1    1    2    0    0 -0.15092928179E+02 -0.97522109584E+01 -0.52702636597E+01  0.18726392568E+02  0.00000000000E+00 0. -1.
         11    1    3    3    0    0 -0.12201817649E+01 -0.18153549322E+02 -0.52764481730E+01  0.18944157467E+02  0.51100000000E-03 0. -1.
        -11    1    3    3    0    0 -0.13305219416E+02  0.55769603983E+01  0.76060785302E+01  0.16309009223E+02  0.51100000000E-03 0.  1.
        -12    1    3    3    0    0  0.29618329359E+02  0.22328799882E+02  0.29406333025E+01  0.37208440742E+02  0.00000000000E+00 0.  1.
</event>
<event>
 7    1  0.3027254E-013  0.7246152E+02  0.7816164E-02  0.1226708E+00
        -11   -1    0    0    0    0  0.00000000000E+00  0.00000000000E+00  0.45593999997E+02  0.45594000000E+02  0.51100000000E-03 0.  1.
         11   -1    0    0    0    0 -0.00000000000E+00 -0.00000000000E+00 -0.45593999997E+02  0.45594000000E+02  0.51100000000E-03 0. -1.
    9900012    2    1    2    0    0 -0.13497452511E+02 -0.12701258249E+02  0.26791680562E+01  0.72461518032E+02  0.69999931919E+02 0.  0.
         12    1    1    2    0    0  0.13497452511E+02  0.12701258249E+02 -0.26791680562E+01  0.18726481968E+02  0.00000000000E+00 0. -1.
         11    1    3    3    0    0  0.93579537438E+01  0.13256752470E+02  0.16781657951E+02  0.23343882029E+02  0.51100000000E-03 0. -1.
        -11    1    3    3    0    0 -0.17790672416E+00 -0.52413969997E+01  0.91818628127E+01  0.10574048339E+02  0.51100000000E-03 0.  1.
        -12    1    3    3    0    0 -0.22677499531E+02 -0.20716613720E+02 -0.23284352708E+02  0.38543587664E+02  0.00000000000E+00 0.  1.
</event>
<event>
 7    1  0.3027254E-013  0.7246183E+02  0.7816164E-02  0.1226707E+00
        -11   -1    0    0    0    0  0.00000000000E+00  0.00000000000E+00  0.45593999997E+02  0.45594000000E+02  0.51100000000E-03 0.  1.
         11   -1    0    0    0    0 -0.00000000000E+00 -0.00000000000E+00 -0.45593999997E+02  0.45594000000E+02  0.51100000000E-03 0. -1.
    9900012    2    1    2    0    0  0.21681142404E+01  0.15827710102E+02  0.97699790176E+01  0.72461825366E+02  0.70000332277E+02 0.  0.
         12    1    1    2    0    0 -0.21681142404E+01 -0.15827710102E+02 -0.97699790176E+01  0.18726174634E+02  0.00000000000E+00 0. -1.
         11    1    3    3    0    0  0.53547761576E+01  0.30358798737E+02 -0.96624432231E+01  0.32306239300E+02  0.51100000000E-03 0. -1.
        -11    1    3    3    0    0  0.19925729391E+01  0.85100773215E+01 -0.11670129263E+01  0.88178048496E+01  0.51100000000E-03 0.  1.
         12    1    3    3    0    0 -0.51792348563E+01 -0.23041165956E+02  0.20599435167E+02  0.31337781216E+02  0.00000000000E+00 0. -1.
</event>
<event>
 7    1  0.3027254E-013  0.7246159E+02  0.7816164E-02  0.1226708E+00
        -11   -1    0    0    0    0  0.00000000000E+00  0.00000000000E+00  0.45593999997E+02  0.45594000000E+02  0.51100000000E-03 0.  1.
         11   -1    0    0    0    0 -0.00000000000E+00 -0.00000000000E+00 -0.45593999997E+02  0.45594000000E+02  0.51100000000E-03 0. -1.
    9900012    2    1    2    0    0  0.13356322846E+02  0.97992004723E+01 -0.87328449694E+01  0.72461594282E+02  0.70000031248E+02 0.  0.
         12    1    1    2    0    0 -0.13356322846E+02 -0.97992004723E+01  0.87328449694E+01  0.18726405718E+02  0.00000000000E+00 0. -1.
         11    1    3    3    0    0  0.29820617534E+01  0.27267251993E+02 -0.10525265771E+02  0.29379873100E+02  0.51100000000E-03 0. -1.
        -11    1    3    3    0    0  0.51807897442E+00  0.69613829796E+01  0.12761874970E+02  0.14546295468E+02  0.51100000000E-03 0.  1.
         12    1    3    3    0    0  0.98561821186E+01 -0.24429434500E+02 -0.10969454168E+02  0.28535425714E+02  0.00000000000E+00 0. -1.
</event>
<event>
 7    1  0.3027254E-013  0.7246170E+02  0.7816164E-02  0.1226708E+00
        -11   -1    0    0    0    0  0.00000000000E+00  0.00000000000E+00  0.45593999997E+02  0.45594000000E+02  0.51100000000E-03 0.  1.
         11   -1    0    0    0    0 -0.00000000000E+00 -0.00000000000E+00 -0.45593999997E+02  0.45594000000E+02  0.51100000000E-03 0. -1.
    9900012    2    1    2    0    0  0.13350510676E+02  0.12616684315E+01  0.13070823922E+02  0.72461698162E+02  0.70000166571E+02 0.  0.
         12    1    1    2    0    0 -0.13350510676E+02 -0.12616684315E+01 -0.13070823922E+02  0.18726301838E+02  0.00000000000E+00 0. -1.
         11    1    3    3    0    0  0.18170906806E+01 -0.20648123024E+02 -0.13782821553E+02  0.24892026298E+02  0.51100000000E-03 0. -1.
        -11    1    3    3    0    0  0.57437839697E+01 -0.68973192530E+01  0.10950142078E+02  0.14158731545E+02  0.51100000000E-03 0.  1.
        -12    1    3    3    0    0  0.57896360252E+01  0.28807110709E+02  0.15903503397E+02  0.33410940319E+02  0.00000000000E+00 0.  1.
</event>
<event>
 7    1  0.3027254E-013  0.7246155E+02  0.7816164E-02  0.1226708E+00
        -11   -1    0    0    0    0  0.00000000000E+00  0.00000000000E+00  0.45593999997E+02  0.45594000000E+02  0.51100000000E-03 0.  1.
         11   -1    0    0    0    0 -0.00000000000E+00 -0.00000000000E+00 -0.45593999997E+02  0.45594000000E+02  0.51100000000E-03 0. -1.
    9900012    2    1    2    0    0  0.14843265885E+02  0.30773174798E+01  0.10994893134E+02  0.72461545449E+02  0.69999967635E+02 0.  0.
         12    1    1    2    0    0 -0.14843265885E+02 -0.30773174798E+01 -0.10994893134E+02  0.18726454551E+02  0.00000000000E+00 0. -1.
         11    1    3    3    0    0  0.91034284122E+01  0.31081625750E+02  0.71076732351E+01  0.33158089317E+02  0.51100000000E-03 0. -1.
        -11    1    3    3    0    0  0.24928026744E+00 -0.37033999498E+01 -0.10080139806E+02  0.10741812259E+02  0.51100000000E-03 0.  1.
        -12    1    3    3    0    0  0.54905572055E+01 -0.24300908320E+02  0.13967359705E+02  0.28561643873E+02  0.00000000000E+00 0.  1.
</event>
<event>
 7    1  0.3027254E-013  0.7246156E+02  0.7816164E-02  0.1226708E+00
        -11   -1    0    0    0    0  0.00000000000E+00  0.00000000000E+00  0.45593999997E+02  0.45594000000E+02  0.51100000000E-03 0.  1.
         11   -1    0    0    0    0 -0.00000000000E+00 -0.00000000000E+00 -0.45593999997E+02  0.45594000000E+02  0.51100000000E-03 0. -1.
    9900012    2    1    2    0    0 -0.14302808458E+02  0.36417196295E+01 -0.11525930830E+02  0.72461560586E+02  0.69999987353E+02 0.  0.
         12    1    1    2    0    0  0.14302808458E+02 -0.36417196295E+01  0.11525930830E+02  0.18726439414E+02  0.00000000000E+00 0. -1.
         11    1    3    3    0    0  0.47871960346E+01  0.52464800009E+01  0.19582899457E+02  0.20831052534E+02  0.51100000000E-03 0. -1.
        -11    1    3    3    0    0 -0.21801698224E+01  0.14464522798E+02 -0.27059482166E+01  0.14876078658E+02  0.51100000000E-03 0.  1.
         12    1    3    3    0    0 -0.16909834670E+02 -0.16069283169E+02 -0.28402882071E+02  0.36754429394E+02  0.00000000000E+00 0. -1.
</event>
<event>
 7    1  0.3027254E-013  0.7246160E+02  0.7816164E-02  0.1226708E+00
        -11   -1    0    0    0    0  0.00000000000E+00  0.00000000000E+00  0.45593999997E+02  0.45594000000E+02  0.51100000000E-03 0.  1.
         11   -1    0    0    0    0 -0.00000000000E+00 -0.00000000000E+00 -0.45593999997E+02  0.45594000000E+02  0.51100000000E-03 0. -1.
    9900012    2    1    2    0    0 -0.13678032098E+02 -0.88381284453E+01 -0.92453753562E+01  0.72461600400E+02  0.70000039219E+02 0.  0.
         12    1    1    2    0    0  0.13678032098E+02  0.88381284453E+01  0.92453753562E+01  0.18726399600E+02  0.00000000000E+00 0. -1.
         11    1    3    3    0    0  0.91874219030E+01 -0.22929918055E+01  0.96629699979E+01  0.13529209958E+02  0.51100000000E-03 0. -1.
        -11    1    3    3    0    0 -0.20371606843E+02 -0.34123808859E+01  0.14530695680E+02  0.25254461505E+02  0.51100000000E-03 0.  1.
         12    1    3    3    0    0 -0.24938471574E+01 -0.31327557539E+01 -0.33439041034E+02  0.33677928938E+02  0.00000000000E+00 0. -1.
</event>
<event>
 7    1  0.3027254E-013  0.7246161E+02  0.7816164E-02  0.1226708E+00
        -11   -1    0    0    0    0  0.00000000000E+00  0.00000000000E+00  0.45593999997E+02  0.45594000000E+02  0.51100000000E-03 0.  1.
         11   -1    0    0    0    0 -0.00000000000E+00 -0.00000000000E+00 -0.45593999997E+02  0.45594000000E+02  0.51100000000E-03 0. -1.
    9900012    2    1    2    0    0  0.68547989261E+01 -0.74560861869E+01  0.15751065560E+02  0.72461613381E+02  0.70000056128E+02 0.  0.
         12    1    1    2    0    0 -0.68547989261E+01  0.74560861869E+01 -0.15751065560E+02  0.18726386619E+02  0.00000000000E+00 0. -1.
         11    1    3    3    0    0  0.97546465843E+01  0.20538688429E+02  0.93437585799E+01  0.24582446523E+02  0.51100000000E-03 0. -1.
        -11    1    3    3    0    0 -0.11029329925E+02  0.51737595049E+01 -0.28192156537E+01  0.12504474526E+02  0.51100000000E-03 0.  1.
         12    1    3    3    0    0  0.81294822670E+01 -0.33168534121E+02  0.92265226337E+01  0.35374692332E+02  0.00000000000E+00 0. -1.
</event>
<event>
 7    1  0.3027254E-013  0.7246166E+02  0.7816164E-02  0.1226708E+00
        -11   -1    0    0    0    0  0.00000000000E+00  0.00000000000E+00  0.45593999997E+02  0.45594000000E+02  0.51100000000E-03 0.  1.
         11   -1    0    0    0    0 -0.00000000000E+00 -0.00000000000E+00 -0.45593999997E+02  0.45594000000E+02  0.51100000000E-03 0. -1.
    9900012    2    1    2    0    0 -0.17091794294E+02  0.63615802210E+01 -0.42516786507E+01  0.72461657419E+02  0.70000113496E+02 0.  0.
         12    1    1    2    0    0  0.17091794294E+02 -0.63615802210E+01  0.42516786507E+01  0.18726342581E+02  0.00000000000E+00 0. -1.
         11    1    3    3    0    0 -0.34452054975E+02 -0.57153668434E+01  0.13850322747E+01  0.34950362298E+02  0.51100000000E-03 0. -1.
        -11    1    3    3    0    0 -0.63941999037E+01 -0.45203045060E+01 -0.31007931346E+01  0.84222243831E+01  0.51100000000E-03 0.  1.
        -12    1    3    3    0    0  0.23754460584E+02  0.16597251570E+02 -0.25359177908E+01  0.29089070738E+02  0.00000000000E+00 0.  1.
</event>
<event>
 7    1  0.3027254E-013  0.7246160E+02  0.7816164E-02  0.1226708E+00
        -11   -1    0    0    0    0  0.00000000000E+00  0.00000000000E+00  0.45593999997E+02  0.45594000000E+02  0.51100000000E-03 0. -1.
         11   -1    0    0    0    0 -0.00000000000E+00 -0.00000000000E+00 -0.45593999997E+02  0.45594000000E+02  0.51100000000E-03 0.  1.
    9900012    2    1    2    0    0 -0.75568064653E+01  0.12726703150E+02 -0.11471864557E+02  0.72461602230E+02  0.70000041603E+02 0.  0.
         12    1    1    2    0    0  0.75568064653E+01 -0.12726703150E+02  0.11471864557E+02  0.18726397770E+02  0.00000000000E+00 0. -1.
         11    1    3    3    0    0 -0.28152289481E+01  0.19633836100E+01 -0.34925592040E+01  0.48967702912E+01  0.51100000000E-03 0. -1.
        -11    1    3    3    0    0 -0.50719367959E+01  0.23346976019E+01 -0.36961112781E+02  0.37380465674E+02  0.51100000000E-03 0.  1.
         12    1    3    3    0    0  0.33035927871E+00  0.84286219377E+01  0.28981807428E+02  0.30184366265E+02  0.00000000000E+00 0. -1.
</event>
<event>
 7    1  0.3027254E-013  0.7246160E+02  0.7816164E-02  0.1226708E+00
        -11   -1    0    0    0    0  0.00000000000E+00  0.00000000000E+00  0.45593999997E+02  0.45594000000E+02  0.51100000000E-03 0.  1.
         11   -1    0    0    0    0 -0.00000000000E+00 -0.00000000000E+00 -0.45593999997E+02  0.45594000000E+02  0.51100000000E-03 0. -1.
    9900012    2    1    2    0    0  0.78728946443E+01  0.77452237475E+01  0.15123064492E+02  0.72461600436E+02  0.70000039265E+02 0.  0.
         12    1    1    2    0    0 -0.78728946443E+01 -0.77452237475E+01 -0.15123064492E+02  0.18726399564E+02  0.00000000000E+00 0. -1.
         11    1    3    3    0    0 -0.54913245216E+00 -0.16059532701E+02  0.90950849867E+01  0.18464309036E+02  0.51100000000E-03 0.  1.
        -11    1    3    3    0    0 -0.51418709028E+00  0.26484585908E+02  0.22704682324E+02  0.34888397481E+02  0.51100000000E-03 0. -1.
         12    1    3    3    0    0  0.89362141867E+01 -0.26798294601E+01 -0.16676702818E+02  0.19108893919E+02  0.00000000000E+00 0. -1.
</event>
<event>
 7    1  0.3027254E-013  0.7246143E+02  0.7816164E-02  0.1226708E+00
        -11   -1    0    0    0    0  0.00000000000E+00  0.00000000000E+00  0.45593999997E+02  0.45594000000E+02  0.51100000000E-03 0. -1.
         11   -1    0    0    0    0 -0.00000000000E+00 -0.00000000000E+00 -0.45593999997E+02  0.45594000000E+02  0.51100000000E-03 0.  1.
    9900012    2    1    2    0    0 -0.44357925294E+00  0.15237312178E+02 -0.10877124346E+02  0.72461433870E+02  0.69999822282E+02 0.  0.
         12    1    1    2    0    0  0.44357925294E+00 -0.15237312178E+02  0.10877124346E+02  0.18726566130E+02  0.00000000000E+00 0. -1.
         11    1    3    3    0    0 -0.15804482396E+02  0.89643223949E+01 -0.53368813359E+01  0.18937345180E+02  0.51100000000E-03 0. -1.
        -11    1    3    3    0    0  0.11429726246E+02 -0.18741029959E+02 -0.14897673117E+02  0.26529333021E+02  0.51100000000E-03 0.  1.
         12    1    3    3    0    0  0.39311768965E+01  0.25014019742E+02  0.93574301068E+01  0.26994755670E+02  0.00000000000E+00 0. -1.
</event>
<event>
 7    1  0.3027254E-013  0.7246144E+02  0.7816164E-02  0.1226708E+00
        -11   -1    0    0    0    0  0.00000000000E+00  0.00000000000E+00  0.45593999997E+02  0.45594000000E+02  0.51100000000E-03 0.  1.
         11   -1    0    0    0    0 -0.00000000000E+00 -0.00000000000E+00 -0.45593999997E+02  0.45594000000E+02  0.51100000000E-03 0. -1.
    9900012    2    1    2    0    0 -0.18694059941E+02 -0.99284281621E+00  0.47988812932E+00  0.72461443815E+02  0.69999835236E+02 0.  0.
         12    1    1    2    0    0  0.18694059941E+02  0.99284281621E+00 -0.47988812932E+00  0.18726556185E+02  0.00000000000E+00 0. -1.
         11    1    3    3    0    0  0.55721716587E+01 -0.18804432846E+02 -0.43038496232E+01  0.20079315564E+02  0.51100000000E-03 0. -1.
        -11    1    3    3    0    0  0.74199553002E+01  0.19006460941E+02  0.74290270846E+00  0.20416983098E+02  0.51100000000E-03 0.  1.
        -12    1    3    3    0    0 -0.31686186900E+02 -0.11948709107E+01  0.40408350441E+01  0.31965145153E+02  0.00000000000E+00 0.  1.
</event>
<event>
 7    1  0.3027254E-013  0.7246147E+02  0.7816164E-02  0.1226708E+00
        -11   -1    0    0    0    0  0.00000000000E+00  0.00000000000E+00  0.45593999997E+02  0.45594000000E+02  0.51100000000E-03 0.  1.
         11   -1    0    0    0    0 -0.00000000000E+00 -0.00000000000E+00 -0.45593999997E+02  0.45594000000E+02  0.51100000000E-03 0. -1.
    9900012    2    1    2    0    0 -0.53242073969E+01 -0.17784293394E+02  0.24605840749E+01  0.72461474697E+02  0.69999875467E+02 0.  0.
         12    1    1    2    0    0  0.53242073969E+01  0.17784293394E+02 -0.24605840749E+01  0.18726525303E+02  0.00000000000E+00 0. -1.
         11    1    3    3    0    0 -0.13022522055E+02 -0.24075775028E+02 -0.20870666550E+02  0.34421123549E+02  0.51100000000E-03 0. -1.
        -11    1    3    3    0    0  0.14017669973E+02 -0.55140567367E+01  0.61816608933E+01  0.16282285615E+02  0.51100000000E-03 0.  1.
        -12    1    3    3    0    0 -0.63193553155E+01  0.11805538371E+02  0.17149589731E+02  0.21758065534E+02  0.00000000000E+00 0.  1.
</event>
<event>
 7    1  0.3027254E-013  0.7246158E+02  0.7816164E-02  0.1226708E+00
        -11   -1    0    0    0    0  0.00000000000E+00  0.00000000000E+00  0.45593999997E+02  0.45594000000E+02  0.51100000000E-03 0. -1.
         11   -1    0    0    0    0 -0.00000000000E+00 -0.00000000000E+00 -0.45593999997E+02  0.45594000000E+02  0.51100000000E-03 0.  1.
    9900012    2    1    2    0    0 -0.26915412488E+00  0.18373420699E+02 -0.36088517495E+01  0.72461579011E+02  0.70000011354E+02 0.  0.
         12    1    1    2    0    0  0.26915412488E+00 -0.18373420699E+02  0.36088517495E+01  0.18726420989E+02  0.00000000000E+00 0. -1.
         11    1    3    3    0    0  0.10056544672E+02 -0.59325008760E+01 -0.55534799783E+01  0.12929415977E+02  0.51100000000E-03 0. -1.
        -11    1    3    3    0    0  0.21862901117E+02  0.79901778093E+01  0.27250817921E+01  0.23436199729E+02  0.51100000000E-03 0.  1.
        -12    1    3    3    0    0 -0.32188599915E+02  0.16315743766E+02 -0.78045356332E+00  0.36095963304E+02  0.00000000000E+00 0.  1.
</event>
<event>
 7    1  0.3027254E-013  0.7246155E+02  0.7816164E-02  0.1226708E+00
        -11   -1    0    0    0    0  0.00000000000E+00  0.00000000000E+00  0.45593999997E+02  0.45594000000E+02  0.51100000000E-03 0.  1.
         11   -1    0    0    0    0 -0.00000000000E+00 -0.00000000000E+00 -0.45593999997E+02  0.45594000000E+02  0.51100000000E-03 0. -1.
    9900012    2    1    2    0    0  0.65812565314E+01 -0.17135047516E+02 -0.37090507708E+01  0.72461552165E+02  0.69999976383E+02 0.  0.
         12    1    1    2    0    0 -0.65812565314E+01  0.17135047516E+02  0.37090507708E+01  0.18726447835E+02  0.00000000000E+00 0. -1.
         11    1    3    3    0    0  0.50645736338E-01 -0.31544740997E+01  0.48674029676E+01  0.58004209973E+01  0.51100000000E-03 0.  1.
        -11    1    3    3    0    0  0.17168269340E+02  0.18160233578E+02 -0.18825810998E+02  0.31288252040E+02  0.51100000000E-03 0. -1.
         12    1    3    3    0    0 -0.10637658544E+02 -0.32140806994E+02  0.10249357260E+02  0.35372879128E+02  0.00000000000E+00 0. -1.
</event>
<event>
 7    1  0.3027254E-013  0.7246157E+02  0.7816164E-02  0.1226708E+00
        -11   -1    0    0    0    0  0.00000000000E+00  0.00000000000E+00  0.45593999997E+02  0.45594000000E+02  0.51100000000E-03 0.  1.
         11   -1    0    0    0    0 -0.00000000000E+00 -0.00000000000E+00 -0.45593999997E+02  0.45594000000E+02  0.51100000000E-03 0. -1.
    9900012    2    1    2    0    0 -0.13232766835E+02  0.11838098326E+02  0.59525332930E+01  0.72461565671E+02  0.69999993977E+02 0.  0.
         12    1    1    2    0    0  0.13232766835E+02 -0.11838098326E+02 -0.59525332930E+01  0.18726434329E+02  0.00000000000E+00 0. -1.
         11    1    3    3    0    0 -0.20513123996E+01  0.34547526058E+01 -0.69875157208E+01  0.80603085759E+01  0.51100000000E-03 0. -1.
        -11    1    3    3    0    0 -0.32459424333E+02 -0.11008676162E+02  0.79077963009E+01  0.35175821546E+02  0.51100000000E-03 0.  1.
         12    1    3    3    0    0  0.21277969898E+02  0.19392021882E+02  0.50322527129E+01  0.29225435549E+02  0.00000000000E+00 0. -1.
</event>
<event>
 7    1  0.3027254E-013  0.7246174E+02  0.7816164E-02  0.1226708E+00
        -11   -1    0    0    0    0  0.00000000000E+00  0.00000000000E+00  0.45593999997E+02  0.45594000000E+02  0.51100000000E-03 0.  1.
         11   -1    0    0    0    0 -0.00000000000E+00 -0.00000000000E+00 -0.45593999997E+02  0.45594000000E+02  0.51100000000E-03 0. -1.
    9900012    2    1    2    0    0  0.46145860403E+01 -0.17782040308E+01  0.18061466854E+02  0.72461735054E+02  0.70000214630E+02 0.  0.
         12    1    1    2    0    0 -0.46145860403E+01  0.17782040308E+01 -0.18061466854E+02  0.18726264946E+02  0.00000000000E+00 0. -1.
         11    1    3    3    0    0  0.16169860496E+02  0.21906311231E+02  0.54755830379E+01  0.27772880118E+02  0.51100000000E-03 0. -1.
        -11    1    3    3    0    0 -0.93848859806E+01 -0.61973158274E+01 -0.10675612011E+02  0.15506498651E+02  0.51100000000E-03 0.  1.
        -12    1    3    3    0    0 -0.21703884746E+01 -0.17487199435E+02  0.23261495828E+02  0.29182356285E+02  0.00000000000E+00 0.  1.
</event>
<event>
 7    1  0.3027254E-013  0.7246159E+02  0.7816164E-02  0.1226708E+00
        -11   -1    0    0    0    0  0.00000000000E+00  0.00000000000E+00  0.45593999997E+02  0.45594000000E+02  0.51100000000E-03 0. -1.
         11   -1    0    0    0    0 -0.00000000000E+00 -0.00000000000E+00 -0.45593999997E+02  0.45594000000E+02  0.51100000000E-03 0.  1.
    9900012    2    1    2    0    0  0.16451265414E+02 -0.48935082621E+01 -0.74891783569E+01  0.72461592195E+02  0.70000028529E+02 0.  0.
         12    1    1    2    0    0 -0.16451265414E+02  0.48935082621E+01  0.74891783569E+01  0.18726407805E+02  0.00000000000E+00 0. -1.
         11    1    3    3    0    0  0.26406445933E+02  0.35227693838E+01 -0.34431954380E+01  0.26861978446E+02  0.51100000000E-03 0. -1.
        -11    1    3    3    0    0  0.30322347251E+00  0.44588839405E-02  0.19001508187E+02  0.19003927962E+02  0.51100000000E-03 0.  1.
        -12    1    3    3    0    0 -0.10258403992E+02 -0.84207365298E+01 -0.23047491106E+02  0.26595685786E+02  0.00000000000E+00 0.  1.
</event>
<event>
 7    1  0.3027254E-013  0.7246156E+02  0.7816164E-02  0.1226708E+00
        -11   -1    0    0    0    0  0.00000000000E+00  0.00000000000E+00  0.45593999997E+02  0.45594000000E+02  0.51100000000E-03 0.  1.
         11   -1    0    0    0    0 -0.00000000000E+00 -0.00000000000E+00 -0.45593999997E+02  0.45594000000E+02  0.51100000000E-03 0. -1.
    9900012    2    1    2    0    0 -0.94559963367E+01 -0.12115429829E+02  0.10699533182E+02  0.72461561017E+02  0.69999987915E+02 0.  0.
         12    1    1    2    0    0  0.94559963367E+01  0.12115429829E+02 -0.10699533182E+02  0.18726438983E+02  0.00000000000E+00 0. -1.
         11    1    3    3    0    0  0.17646888009E+02  0.36193909453E+00  0.11636215333E+02  0.21141077642E+02  0.51100000000E-03 0. -1.
        -11    1    3    3    0    0 -0.36880596596E+01  0.96599465837E+01  0.12660362093E+02  0.16346287672E+02  0.51100000000E-03 0.  1.
         12    1    3    3    0    0 -0.23414824686E+02 -0.22137315508E+02 -0.13597044244E+02  0.34974195704E+02  0.00000000000E+00 0. -1.
</event>
<event>
 7    1  0.3027254E-013  0.7246162E+02  0.7816164E-02  0.1226708E+00
        -11   -1    0    0    0    0  0.00000000000E+00  0.00000000000E+00  0.45593999997E+02  0.45594000000E+02  0.51100000000E-03 0. -1.
         11   -1    0    0    0    0 -0.00000000000E+00 -0.00000000000E+00 -0.45593999997E+02  0.45594000000E+02  0.51100000000E-03 0.  1.
    9900012    2    1    2    0    0  0.11975193862E+02  0.46559763905E+01  0.13623283306E+02  0.72461622021E+02  0.70000067383E+02 0.  0.
         12    1    1    2    0    0 -0.11975193862E+02 -0.46559763905E+01 -0.13623283306E+02  0.18726377979E+02  0.00000000000E+00 0. -1.
         11    1    3    3    0    0  0.13504504026E+02 -0.35843291452E+00  0.13327352519E+02  0.18976786571E+02  0.51100000000E-03 0. -1.
        -11    1    3    3    0    0  0.34658830935E+01  0.26565843944E+02 -0.10615611042E+02  0.28817487887E+02  0.51100000000E-03 0.  1.
        -12    1    3    3    0    0 -0.49951932578E+01 -0.21551434639E+02  0.10911541830E+02  0.24667347563E+02  0.00000000000E+00 0.  1.
</event>
<event>
 7    1  0.3027254E-013  0.7246157E+02  0.7816164E-02  0.1226708E+00
        -11   -1    0    0    0    0  0.00000000000E+00  0.00000000000E+00  0.45593999997E+02  0.45594000000E+02  0.51100000000E-03 0. -1.
         11   -1    0    0    0    0 -0.00000000000E+00 -0.00000000000E+00 -0.45593999997E+02  0.45594000000E+02  0.51100000000E-03 0.  1.
    9900012    2    1    2    0    0 -0.52060708439E+01  0.15057786284E+02  0.98406757115E+01  0.72461574824E+02  0.70000005900E+02 0.  0.
         12    1    1    2    0    0  0.52060708439E+01 -0.15057786284E+02 -0.98406757115E+01  0.18726425176E+02  0.00000000000E+00 0. -1.
         11    1    3    3    0    0  0.18935178823E+02 -0.67194847043E+01 -0.53228912019E+01  0.20785226551E+02  0.51100000000E-03 0. -1.
        -11    1    3    3    0    0  0.31210969176E+01  0.19449709953E+02 -0.13037549088E+01  0.19741637226E+02  0.51100000000E-03 0.  1.
         12    1    3    3    0    0 -0.27262346585E+02  0.23275610355E+01  0.16467321822E+02  0.31934711047E+02  0.00000000000E+00 0. -1.
</event>
<event>
 7    1  0.3027254E-013  0.7246156E+02  0.7816164E-02  0.1226708E+00
        -11   -1    0    0    0    0  0.00000000000E+00  0.00000000000E+00  0.45593999997E+02  0.45594000000E+02  0.51100000000E-03 0.  1.
         11   -1    0    0    0    0 -0.00000000000E+00 -0.00000000000E+00 -0.45593999997E+02  0.45594000000E+02  0.51100000000E-03 0. -1.
    9900012    2    1    2    0    0  0.21134658816E+01 -0.17849069688E+00  0.18605938447E+02  0.72461560337E+02  0.69999987029E+02 0.  0.
         12    1    1    2    0    0 -0.21134658816E+01  0.17849069688E+00 -0.18605938447E+02  0.18726439663E+02  0.00000000000E+00 0. -1.
         11    1    3    3    0    0  0.31942959983E+02  0.27945109166E+01  0.40201300929E+01  0.32315993409E+02  0.51100000000E-03 0. -1.
        -11    1    3    3    0    0  0.23794753780E+01  0.79798274876E+00  0.61425333606E+01  0.66354650093E+01  0.51100000000E-03 0.  1.
         12    1    3    3    0    0 -0.32208969480E+02 -0.37709843622E+01  0.84432749936E+01  0.33510101919E+02  0.00000000000E+00 0. -1.
</event>
<event>
 7    1  0.3027254E-013  0.7246157E+02  0.7816164E-02  0.1226708E+00
        -11   -1    0    0    0    0  0.00000000000E+00  0.00000000000E+00  0.45593999997E+02  0.45594000000E+02  0.51100000000E-03 0.  1.
         11   -1    0    0    0    0 -0.00000000000E+00 -0.00000000000E+00 -0.45593999997E+02  0.45594000000E+02  0.51100000000E-03 0. -1.
    9900012    2    1    2    0    0  0.12442034305E+02  0.58176332851E+01  0.12729100172E+02  0.72461573062E+02  0.70000003605E+02 0.  0.
         12    1    1    2    0    0 -0.12442034305E+02 -0.58176332851E+01 -0.12729100172E+02  0.18726426938E+02  0.00000000000E+00 0. -1.
         11    1    3    3    0    0 -0.16003668519E+02  0.16263886115E+02  0.13628916370E+02  0.26577786953E+02  0.51100000000E-03 0. -1.
        -11    1    3    3    0    0 -0.62972025765E+01 -0.16906730982E+01  0.66005788227E+01  0.92779726703E+01  0.51100000000E-03 0.  1.
         12    1    3    3    0    0  0.34742905400E+02 -0.87555797320E+01 -0.75003950208E+01  0.36605813439E+02  0.00000000000E+00 0. -1.
</event>
<event>
 7    1  0.3027254E-013  0.7246157E+02  0.7816164E-02  0.1226708E+00
        -11   -1    0    0    0    0  0.00000000000E+00  0.00000000000E+00  0.45593999997E+02  0.45594000000E+02  0.51100000000E-03 0.  1.
         11   -1    0    0    0    0 -0.00000000000E+00 -0.00000000000E+00 -0.45593999997E+02  0.45594000000E+02  0.51100000000E-03 0. -1.
    9900012    2    1    2    0    0  0.40092812429E+01 -0.82371439567E+01  0.16332611345E+02  0.72461572952E+02  0.70000003462E+02 0.  0.
         12    1    1    2    0    0 -0.40092812429E+01  0.82371439567E+01 -0.16332611345E+02  0.18726427048E+02  0.00000000000E+00 0. -1.
         11    1    3    3    0    0  0.22591947744E+02 -0.10226788891E+02 -0.11535487265E+02  0.27350517007E+02  0.51100000000E-03 0. -1.
        -11    1    3    3    0    0 -0.18599095016E+01 -0.36197325905E+01 -0.58100313076E+01  0.70935316618E+01  0.51100000000E-03 0.  1.
        -12    1    3    3    0    0 -0.16722756999E+02  0.56093775247E+01  0.33678129917E+02  0.38017524283E+02  0.00000000000E+00 0.  1.
</event>
<event>
 7    1  0.3027254E-013  0.7246156E+02  0.7816164E-02  0.1226708E+00
        -11   -1    0    0    0    0  0.00000000000E+00  0.00000000000E+00  0.45593999997E+02  0.45594000000E+02  0.51100000000E-03 0.  1.
         11   -1    0    0    0    0 -0.00000000000E+00 -0.00000000000E+00 -0.45593999997E+02  0.45594000000E+02  0.51100000000E-03 0. -1.
    9900012    2    1    2    0    0  0.11004276201E+02 -0.14688851013E+02  0.37179420849E+01  0.72461560613E+02  0.69999987388E+02 0.  0.
         12    1    1    2    0    0 -0.11004276201E+02  0.14688851013E+02 -0.37179420849E+01  0.18726439387E+02  0.00000000000E+00 0. -1.
         11    1    3    3    0    0 -0.47494779297E+01  0.45409323097E+01 -0.18870433511E+02  0.19981763385E+02  0.51100000000E-03 0. -1.
        -11    1    3    3    0    0  0.11844662311E+02  0.17326335788E+01 -0.85708321886E+01  0.14722676694E+02  0.51100000000E-03 0.  1.
         12    1    3    3    0    0  0.39090918194E+01 -0.20962416901E+02  0.31159207784E+02  0.37757120533E+02  0.00000000000E+00 0. -1.
</event>
<event>
 7    1  0.3027254E-013  0.7246108E+02  0.7816164E-02  0.1226709E+00
        -11   -1    0    0    0    0  0.00000000000E+00  0.00000000000E+00  0.45593999997E+02  0.45594000000E+02  0.51100000000E-03 0.  1.
         11   -1    0    0    0    0 -0.00000000000E+00 -0.00000000000E+00 -0.45593999997E+02  0.45594000000E+02  0.51100000000E-03 0. -1.
    9900012    2    1    2    0    0 -0.11543534999E+02  0.13595657543E+02 -0.57098419700E+01  0.72461083553E+02  0.69999365926E+02 0.  0.
         12    1    1    2    0    0  0.11543534999E+02 -0.13595657543E+02  0.57098419700E+01  0.18726916447E+02  0.00000000000E+00 0. -1.
         11    1    3    3    0    0  0.10345752314E+02 -0.84525483380E+01  0.77350689115E+01  0.15437339657E+02  0.51100000000E-03 0. -1.
        -11    1    3    3    0    0 -0.15244212392E+02 -0.12535078142E+02 -0.13248268698E+01  0.19780529871E+02  0.51100000000E-03 0.  1.
        -12    1    3    3    0    0 -0.66450749208E+01  0.34583284022E+02 -0.12120084012E+02  0.37243214025E+02  0.00000000000E+00 0.  1.
</event>
<event>
 7    1  0.3027254E-013  0.7246154E+02  0.7816164E-02  0.1226708E+00
        -11   -1    0    0    0    0  0.00000000000E+00  0.00000000000E+00  0.45593999997E+02  0.45594000000E+02  0.51100000000E-03 0.  1.
         11   -1    0    0    0    0 -0.00000000000E+00 -0.00000000000E+00 -0.45593999997E+02  0.45594000000E+02  0.51100000000E-03 0. -1.
    9900012    2    1    2    0    0  0.35052844900E+01  0.95199036008E+01  0.15740548552E+02  0.72461536034E+02  0.69999955370E+02 0.  0.
         12    1    1    2    0    0 -0.35052844900E+01 -0.95199036008E+01 -0.15740548552E+02  0.18726463966E+02  0.00000000000E+00 0. -1.
         11    1    3    3    0    0  0.16809055561E+02  0.57396420372E+01 -0.55500006502E+01  0.18608878178E+02  0.51100000000E-03 0. -1.
        -11    1    3    3    0    0  0.33758210116E+01 -0.20020671291E+02  0.70925071745E+01  0.21506443330E+02  0.51100000000E-03 0.  1.
         12    1    3    3    0    0 -0.16679592082E+02  0.23800932854E+02  0.14198042028E+02  0.32346214526E+02  0.00000000000E+00 0. -1.
</event>
<event>
 7    1  0.3027254E-013  0.7246161E+02  0.7816164E-02  0.1226708E+00
        -11   -1    0    0    0    0  0.00000000000E+00  0.00000000000E+00  0.45593999997E+02  0.45594000000E+02  0.51100000000E-03 0.  1.
         11   -1    0    0    0    0 -0.00000000000E+00 -0.00000000000E+00 -0.45593999997E+02  0.45594000000E+02  0.51100000000E-03 0. -1.
    9900012    2    1    2    0    0  0.44987794113E+01 -0.11919740578E+02  0.13724372839E+02  0.72461611094E+02  0.70000053149E+02 0.  0.
         12    1    1    2    0    0 -0.44987794113E+01  0.11919740578E+02 -0.13724372839E+02  0.18726388906E+02  0.00000000000E+00 0. -1.
         11    1    3    3    0    0 -0.10525222356E+02 -0.11822187934E+02  0.67365713090E+01  0.17202494774E+02  0.51100000000E-03 0. -1.
        -11    1    3    3    0    0  0.14311992271E+02 -0.24847325406E+02  0.98843946962E+01  0.30330248290E+02  0.51100000000E-03 0.  1.
         12    1    3    3    0    0  0.71200949676E+00  0.24749772761E+02 -0.28965931658E+01  0.24928868030E+02  0.00000000000E+00 0. -1.
</event>
<event>
 7    1  0.3027254E-013  0.7246156E+02  0.7816164E-02  0.1226708E+00
        -11   -1    0    0    0    0  0.00000000000E+00  0.00000000000E+00  0.45593999997E+02  0.45594000000E+02  0.51100000000E-03 0.  1.
         11   -1    0    0    0    0 -0.00000000000E+00 -0.00000000000E+00 -0.45593999997E+02  0.45594000000E+02  0.51100000000E-03 0. -1.
    9900012    2    1    2    0    0  0.62922124682E+01  0.24869648986E+01  0.17461457621E+02  0.72461563222E+02  0.69999990786E+02 0.  0.
         12    1    1    2    0    0 -0.62922124682E+01 -0.24869648986E+01 -0.17461457621E+02  0.18726436778E+02  0.00000000000E+00 0. -1.
         11    1    3    3    0    0 -0.21889009365E+01 -0.80760475333E+01  0.55400587956E+00  0.83857470654E+01  0.51100000000E-03 0. -1.
        -11    1    3    3    0    0  0.71433819922E+01 -0.93209887265E+01  0.35148971193E+02  0.37058857421E+02  0.51100000000E-03 0.  1.
         12    1    3    3    0    0  0.13377314124E+01  0.19884001158E+02 -0.18241519452E+02  0.27016958735E+02  0.00000000000E+00 0. -1.
</event>
<event>
 7    1  0.3672322E-013  0.7246158E+02  0.7816164E-02  0.1226708E+00
        -11   -1    0    0    0    0  0.00000000000E+00  0.00000000000E+00  0.45593999997E+02  0.45594000000E+02  0.51100000000E-03 0. -1.
         11   -1    0    0    0    0 -0.00000000000E+00 -0.00000000000E+00 -0.45593999997E+02  0.45594000000E+02  0.51100000000E-03 0.  1.
    9900012    2    1    2    0    0 -0.68134170099E+01 -0.84371158497E+01 -0.15266672936E+02  0.72461578085E+02  0.70000010149E+02 0.  0.
         12    1    1    2    0    0  0.68134170099E+01  0.84371158497E+01  0.15266672936E+02  0.18726421915E+02  0.00000000000E+00 0. -1.
         11    1    3    3    0    0 -0.19106219413E+02  0.18524274490E+02  0.10323239072E+02  0.28544099755E+02  0.51100000000E-03 0. -1.
        -11    1    3    3    0    0 -0.31312300187E+01 -0.15165669144E+01 -0.94438513680E+01  0.10064338307E+02  0.51100000000E-03 0.  1.
        -12    1    3    3    0    0  0.15424032421E+02 -0.25444823425E+02 -0.16146060640E+02  0.33853140023E+02  0.00000000000E+00 0.  1.
</event>
<event>
 7    1  0.3535790E-013  0.7246157E+02  0.7816164E-02  0.1226708E+00
        -11   -1    0    0    0    0  0.00000000000E+00  0.00000000000E+00  0.45593999997E+02  0.45594000000E+02  0.51100000000E-03 0. -1.
         11   -1    0    0    0    0 -0.00000000000E+00 -0.00000000000E+00 -0.45593999997E+02  0.45594000000E+02  0.51100000000E-03 0.  1.
    9900012    2    1    2    0    0  0.27993895384E+01  0.93790205968E+01 -0.15964853683E+02  0.72461570488E+02  0.70000000253E+02 0.  0.
         12    1    1    2    0    0 -0.27993895384E+01 -0.93790205968E+01  0.15964853683E+02  0.18726429512E+02  0.00000000000E+00 0. -1.
         11    1    3    3    0    0  0.15598216536E+02 -0.60131524727E+01  0.42293621874E+01  0.17243835610E+02  0.51100000000E-03 0. -1.
        -11    1    3    3    0    0 -0.79541549813E+01  0.34560977462E+01 -0.34729346936E+02  0.35795820035E+02  0.51100000000E-03 0.  1.
         12    1    3    3    0    0 -0.48446720164E+01  0.11936075323E+02  0.14535131066E+02  0.19421914843E+02  0.00000000000E+00 0. -1.
</event>
<event>
 7    1  0.3027254E-013  0.7246141E+02  0.7816164E-02  0.1226708E+00
        -11   -1    0    0    0    0  0.00000000000E+00  0.00000000000E+00  0.45593999997E+02  0.45594000000E+02  0.51100000000E-03 0.  1.
         11   -1    0    0    0    0 -0.00000000000E+00 -0.00000000000E+00 -0.45593999997E+02  0.45594000000E+02  0.51100000000E-03 0. -1.
    9900012    2    1    2    0    0 -0.18446044264E+02 -0.32282689447E+01 -0.82316896303E-01  0.72461413407E+02  0.69999795625E+02 0.  0.
         12    1    1    2    0    0  0.18446044264E+02  0.32282689447E+01  0.82316896303E-01  0.18726586593E+02  0.00000000000E+00 0. -1.
         11    1    3    3    0    0 -0.39657703172E+01 -0.14643332178E+02 -0.15187741693E+02  0.21466765231E+02  0.51100000000E-03 0. -1.
        -11    1    3    3    0    0 -0.54055686303E+01 -0.14136888847E+02 -0.63541090870E+01  0.16414825647E+02  0.51100000000E-03 0.  1.
        -12    1    3    3    0    0 -0.90747053160E+01  0.25551952080E+02  0.21459533884E+02  0.34579822529E+02  0.00000000000E+00 0.  1.
</event>
<event>
 7    1  0.3027254E-013  0.7246155E+02  0.7816164E-02  0.1226708E+00
        -11   -1    0    0    0    0  0.00000000000E+00  0.00000000000E+00  0.45593999997E+02  0.45594000000E+02  0.51100000000E-03 0.  1.
         11   -1    0    0    0    0 -0.00000000000E+00 -0.00000000000E+00 -0.45593999997E+02  0.45594000000E+02  0.51100000000E-03 0. -1.
    9900012    2    1    2    0    0  0.16653468767E+02 -0.33093787749E+00  0.85575969433E+01  0.72461547926E+02  0.69999970861E+02 0.  0.
         12    1    1    2    0    0 -0.16653468767E+02  0.33093787749E+00 -0.85575969433E+01  0.18726452074E+02  0.00000000000E+00 0. -1.
         11    1    3    3    0    0 -0.37032416856E+00  0.11998818421E+02 -0.33199301951E+01  0.12455148343E+02  0.51100000000E-03 0. -1.
        -11    1    3    3    0    0 -0.85201120434E+01 -0.81410959755E+01  0.27398074446E+02  0.29824892900E+02  0.51100000000E-03 0.  1.
         12    1    3    3    0    0  0.25543904979E+02 -0.41886603232E+01 -0.15520547308E+02  0.30181506682E+02  0.00000000000E+00 0. -1.
</event>
<event>
 7    1  0.3027254E-013  0.7246151E+02  0.7816164E-02  0.1226708E+00
        -11   -1    0    0    0    0  0.00000000000E+00  0.00000000000E+00  0.45593999997E+02  0.45594000000E+02  0.51100000000E-03 0. -1.
         11   -1    0    0    0    0 -0.00000000000E+00 -0.00000000000E+00 -0.45593999997E+02  0.45594000000E+02  0.51100000000E-03 0.  1.
    9900012    2    1    2    0    0  0.37833934962E+01  0.70048964330E+01 -0.16949889716E+02  0.72461510693E+02  0.69999922358E+02 0.  0.
         12    1    1    2    0    0 -0.37833934962E+01 -0.70048964330E+01  0.16949889716E+02  0.18726489307E+02  0.00000000000E+00 0. -1.
         11    1    3    3    0    0  0.10878228185E+02  0.12523573476E+02  0.24178371639E+02  0.29321824575E+02  0.51100000000E-03 0. -1.
        -11    1    3    3    0    0 -0.22562317413E+01 -0.79108221707E+00 -0.12619462629E+01  0.27034979889E+01  0.51100000000E-03 0.  1.
        -12    1    3    3    0    0 -0.48386029478E+01 -0.47275948258E+01 -0.39866315092E+02  0.40436188128E+02  0.00000000000E+00 0.  1.
</event>
<event>
 7    1  0.3027254E-013  0.7246153E+02  0.7816164E-02  0.1226708E+00
        -11   -1    0    0    0    0  0.00000000000E+00  0.00000000000E+00  0.45593999997E+02  0.45594000000E+02  0.51100000000E-03 0.  1.
         11   -1    0    0    0    0 -0.00000000000E+00 -0.00000000000E+00 -0.45593999997E+02  0.45594000000E+02  0.51100000000E-03 0. -1.
    9900012    2    1    2    0    0  0.10870745891E+02  0.93701068148E+00  0.15219379372E+02  0.72461531734E+02  0.69999949768E+02 0.  0.
         12    1    1    2    0    0 -0.10870745891E+02 -0.93701068148E+00 -0.15219379372E+02  0.18726468266E+02  0.00000000000E+00 0. -1.
         11    1    3    3    0    0  0.33409219186E+00 -0.14130781531E+02  0.17329581827E+02  0.22363027766E+02  0.51100000000E-03 0. -1.
        -11    1    3    3    0    0 -0.32066037352E+01 -0.12516796521E+02  0.10648332233E+02  0.16743341431E+02  0.51100000000E-03 0.  1.
         12    1    3    3    0    0  0.13743257435E+02  0.27584588734E+02 -0.12758534689E+02  0.33355162538E+02  0.00000000000E+00 0. -1.
</event>
<event>
 7    1  0.3027254E-013  0.7246143E+02  0.7816164E-02  0.1226708E+00
        -11   -1    0    0    0    0  0.00000000000E+00  0.00000000000E+00  0.45593999997E+02  0.45594000000E+02  0.51100000000E-03 0.  1.
         11   -1    0    0    0    0 -0.00000000000E+00 -0.00000000000E+00 -0.45593999997E+02  0.45594000000E+02  0.51100000000E-03 0. -1.
    9900012    2    1    2    0    0 -0.64702015641E+01  0.14212224792E+02 -0.10336025198E+02  0.72461434412E+02  0.69999822988E+02 0.  0.
         12    1    1    2    0    0  0.64702015641E+01 -0.14212224792E+02  0.10336025198E+02  0.18726565588E+02  0.00000000000E+00 0. -1.
         11    1    3    3    0    0 -0.47025166467E+00  0.38080041652E+02 -0.97787750934E+00  0.38095497812E+02  0.51100000000E-03 0. -1.
        -11    1    3    3    0    0  0.31808541341E+01  0.36679503792E+00  0.40697995400E+01  0.51783820040E+01  0.51100000000E-03 0.  1.
         12    1    3    3    0    0 -0.91808040335E+01 -0.24234611898E+02 -0.13427947229E+02  0.29187554596E+02  0.00000000000E+00 0. -1.
</event>
<event>
 7    1  0.3027254E-013  0.7246158E+02  0.7816164E-02  0.1226708E+00
        -11   -1    0    0    0    0  0.00000000000E+00  0.00000000000E+00  0.45593999997E+02  0.45594000000E+02  0.51100000000E-03 0. -1.
         11   -1    0    0    0    0 -0.00000000000E+00 -0.00000000000E+00 -0.45593999997E+02  0.45594000000E+02  0.51100000000E-03 0.  1.
    9900012    2    1    2    0    0 -0.71850143158E+00  0.13522386845E+02  0.12934745813E+02  0.72461579105E+02  0.70000011477E+02 0.  0.
         12    1    1    2    0    0  0.71850143158E+00 -0.13522386845E+02 -0.12934745813E+02  0.18726420895E+02  0.00000000000E+00 0. -1.
         11    1    3    3    0    0  0.52222156152E+01  0.53981793381E+01  0.16445128036E+02  0.18079107071E+02  0.51100000000E-03 0. -1.
        -11    1    3    3    0    0  0.12617790537E+02  0.14516377475E+01  0.20002216761E+02  0.23693977416E+02  0.51100000000E-03 0.  1.
        -12    1    3    3    0    0 -0.18558507584E+02  0.66725697594E+01 -0.23512598984E+02  0.30688494618E+02  0.00000000000E+00 0.  1.
</event>
<event>
 7    1  0.3027254E-013  0.7246157E+02  0.7816164E-02  0.1226708E+00
        -11   -1    0    0    0    0  0.00000000000E+00  0.00000000000E+00  0.45593999997E+02  0.45594000000E+02  0.51100000000E-03 0. -1.
         11   -1    0    0    0    0 -0.00000000000E+00 -0.00000000000E+00 -0.45593999997E+02  0.45594000000E+02  0.51100000000E-03 0.  1.
    9900012    2    1    2    0    0  0.17254084866E+02  0.71345745343E+01  0.14399554791E+01  0.72461572948E+02  0.70000003457E+02 0.  0.
         12    1    1    2    0    0 -0.17254084866E+02 -0.71345745343E+01 -0.14399554791E+01  0.18726427052E+02  0.00000000000E+00 0. -1.
         11    1    3    3    0    0  0.18009452544E+02  0.22803018719E+02  0.32834270814E+01  0.29242074777E+02  0.51100000000E-03 0. -1.
        -11    1    3    3    0    0  0.94541217997E+01  0.87845511161E+01  0.77313026215E+01  0.15043995407E+02  0.51100000000E-03 0.  1.
        -12    1    3    3    0    0 -0.10209489477E+02 -0.24452995300E+02 -0.95747742238E+01  0.28175502764E+02  0.00000000000E+00 0.  1.
</event>
<event>
 7    1  0.3027254E-013  0.7246156E+02  0.7816164E-02  0.1226708E+00
        -11   -1    0    0    0    0  0.00000000000E+00  0.00000000000E+00  0.45593999997E+02  0.45594000000E+02  0.51100000000E-03 0. -1.
         11   -1    0    0    0    0 -0.00000000000E+00 -0.00000000000E+00 -0.45593999997E+02  0.45594000000E+02  0.51100000000E-03 0.  1.
    9900012    2    1    2    0    0 -0.94055849747E+00 -0.18112947134E+02 -0.46600661902E+01  0.72461555568E+02  0.69999980816E+02 0.  0.
         12    1    1    2    0    0  0.94055849747E+00  0.18112947134E+02  0.46600661902E+01  0.18726444432E+02  0.00000000000E+00 0. -1.
         11    1    3    3    0    0  0.38001851833E+01 -0.19530909743E+01  0.12137747319E+02  0.12867823515E+02  0.51100000000E-03 0. -1.
        -11    1    3    3    0    0 -0.69102811967E+01 -0.34422239793E+02 -0.64256097167E+00  0.35114889483E+02  0.51100000000E-03 0.  1.
         12    1    3    3    0    0  0.21695375160E+01  0.18262383633E+02 -0.16155252537E+02  0.24478842569E+02  0.00000000000E+00 0. -1.
</event>
<event>
 7    1  0.3027254E-013  0.7246162E+02  0.7816164E-02  0.1226708E+00
        -11   -1    0    0    0    0  0.00000000000E+00  0.00000000000E+00  0.45593999997E+02  0.45594000000E+02  0.51100000000E-03 0. -1.
         11   -1    0    0    0    0 -0.00000000000E+00 -0.00000000000E+00 -0.45593999997E+02  0.45594000000E+02  0.51100000000E-03 0.  1.
    9900012    2    1    2    0    0 -0.49454606357E+01  0.82814469529E+01 -0.16051080411E+02  0.72461624833E+02  0.70000071047E+02 0.  0.
         12    1    1    2    0    0  0.49454606357E+01 -0.82814469529E+01  0.16051080411E+02  0.18726375167E+02  0.00000000000E+00 0. -1.
         11    1    3    3    0    0  0.20847223655E+02 -0.72657496755E+01  0.42260545076E+01  0.22477931165E+02  0.51100000000E-03 0. -1.
        -11    1    3    3    0    0 -0.16440348962E+02 -0.40876439827E+01  0.39824630866E+01  0.17402698636E+02  0.51100000000E-03 0.  1.
        -12    1    3    3    0    0 -0.93523353290E+01  0.19634840611E+02 -0.24259598005E+02  0.32580995032E+02  0.00000000000E+00 0.  1.
</event>
<event>
 7    1  0.3027254E-013  0.7246155E+02  0.7816164E-02  0.1226708E+00
        -11   -1    0    0    0    0  0.00000000000E+00  0.00000000000E+00  0.45593999997E+02  0.45594000000E+02  0.51100000000E-03 0. -1.
         11   -1    0    0    0    0 -0.00000000000E+00 -0.00000000000E+00 -0.45593999997E+02  0.45594000000E+02  0.51100000000E-03 0.  1.
    9900012    2    1    2    0    0  0.13968708563E+02 -0.12106381641E+01 -0.12413276960E+02  0.72461550561E+02  0.69999974294E+02 0.  0.
         12    1    1    2    0    0 -0.13968708563E+02  0.12106381641E+01  0.12413276960E+02  0.18726449439E+02  0.00000000000E+00 0. -1.
         11    1    3    3    0    0 -0.13755594458E+02 -0.16576875139E+02 -0.80294711347E+01  0.22988727134E+02  0.51100000000E-03 0. -1.
        -11    1    3    3    0    0 -0.38930459874E+01 -0.86785225860E+01 -0.16833323750E+01  0.96595118655E+01  0.51100000000E-03 0.  1.
        -12    1    3    3    0    0  0.31617349008E+02  0.24044759561E+02 -0.27004734505E+01  0.39813311562E+02  0.00000000000E+00 0.  1.
</event>
<event>
 7    1  0.3027254E-013  0.7246158E+02  0.7816164E-02  0.1226708E+00
        -11   -1    0    0    0    0  0.00000000000E+00  0.00000000000E+00  0.45593999997E+02  0.45594000000E+02  0.51100000000E-03 0.  1.
         11   -1    0    0    0    0 -0.00000000000E+00 -0.00000000000E+00 -0.45593999997E+02  0.45594000000E+02  0.51100000000E-03 0. -1.
    9900012    2    1    2    0    0  0.49574513248E+00 -0.12405793198E+02  0.14018888800E+02  0.72461582529E+02  0.70000015938E+02 0.  0.
         12    1    1    2    0    0 -0.49574513248E+00  0.12405793198E+02 -0.14018888800E+02  0.18726417471E+02  0.00000000000E+00 0. -1.
         11    1    3    3    0    0 -0.70860075089E+01 -0.97892920471E+01  0.85909433247E+01  0.14827206368E+02  0.51100000000E-03 0. -1.
        -11    1    3    3    0    0 -0.17484868792E+02 -0.97160294128E+01  0.19575814597E+02  0.27988111434E+02  0.51100000000E-03 0.  1.
         12    1    3    3    0    0  0.25066621434E+02  0.70995282619E+01 -0.14147869122E+02  0.29646264728E+02  0.00000000000E+00 0. -1.
</event>
<event>
 7    1  0.3027254E-013  0.7246159E+02  0.7816164E-02  0.1226708E+00
        -11   -1    0    0    0    0  0.00000000000E+00  0.00000000000E+00  0.45593999997E+02  0.45594000000E+02  0.51100000000E-03 0. -1.
         11   -1    0    0    0    0 -0.00000000000E+00 -0.00000000000E+00 -0.45593999997E+02  0.45594000000E+02  0.51100000000E-03 0.  1.
    9900012    2    1    2    0    0 -0.14227400231E+01 -0.18073743070E+02 -0.46897823895E+01  0.72461589864E+02  0.70000025493E+02 0.  0.
         12    1    1    2    0    0  0.14227400231E+01  0.18073743070E+02  0.46897823895E+01  0.18726410136E+02  0.00000000000E+00 0. -1.
         11    1    3    3    0    0  0.38567515383E+01 -0.14547746314E+02  0.18642616259E+02  0.23959519955E+02  0.51100000000E-03 0. -1.
        -11    1    3    3    0    0  0.84165230719E+01 -0.19364223866E+02 -0.15302703990E+02  0.26076498542E+02  0.51100000000E-03 0.  1.
        -12    1    3    3    0    0 -0.13696014633E+02  0.15838227109E+02 -0.80296946585E+01  0.22425571367E+02  0.00000000000E+00 0.  1.
</event>
<event>
 7    1  0.3027254E-013  0.7246163E+02  0.7816164E-02  0.1226708E+00
        -11   -1    0    0    0    0  0.00000000000E+00  0.00000000000E+00  0.45593999997E+02  0.45594000000E+02  0.51100000000E-03 0.  1.
         11   -1    0    0    0    0 -0.00000000000E+00 -0.00000000000E+00 -0.45593999997E+02  0.45594000000E+02  0.51100000000E-03 0. -1.
    9900012    2    1    2    0    0 -0.10137997384E+02 -0.11095083746E+02  0.11171268206E+02  0.72461625348E+02  0.70000071717E+02 0.  0.
         12    1    1    2    0    0  0.10137997384E+02  0.11095083746E+02 -0.11171268206E+02  0.18726374652E+02  0.00000000000E+00 0. -1.
         11    1    3    3    0    0  0.15471503777E+02 -0.82575561972E+01  0.95600572007E+01  0.19973716665E+02  0.51100000000E-03 0. -1.
        -11    1    3    3    0    0 -0.40079484230E+01  0.12229585774E+02  0.17504897782E+02  0.21726662546E+02  0.51100000000E-03 0.  1.
        -12    1    3    3    0    0 -0.21601552738E+02 -0.15067113322E+02 -0.15893686777E+02  0.30761246137E+02  0.00000000000E+00 0.  1.
</event>
<event>
 7    1  0.3027254E-013  0.7246106E+02  0.7816164E-02  0.1226709E+00
        -11   -1    0    0    0    0  0.00000000000E+00  0.00000000000E+00  0.45593999997E+02  0.45594000000E+02  0.51100000000E-03 0. -1.
         11   -1    0    0    0    0 -0.00000000000E+00 -0.00000000000E+00 -0.45593999997E+02  0.45594000000E+02  0.51100000000E-03 0.  1.
    9900012    2    1    2    0    0  0.17746808840E+02 -0.54988035235E+01 -0.23477927965E+01  0.72461062311E+02  0.69999338254E+02 0.  0.
         12    1    1    2    0    0 -0.17746808840E+02  0.54988035235E+01  0.23477927965E+01  0.18726937689E+02  0.00000000000E+00 0. -1.
         11    1    3    3    0    0  0.10895792212E+02 -0.11323490413E+02  0.45895017388E+01  0.16370804792E+02  0.51100000000E-03 0. -1.
        -11    1    3    3    0    0  0.93480391167E+01 -0.22405198901E+02 -0.12350043739E+02  0.27237884532E+02  0.51100000000E-03 0.  1.
         12    1    3    3    0    0 -0.24970224882E+01  0.28229885791E+02  0.54127492038E+01  0.28852372987E+02  0.00000000000E+00 0. -1.
</event>
<event>
 7    1  0.3027254E-013  0.7246159E+02  0.7816164E-02  0.1226708E+00
        -11   -1    0    0    0    0  0.00000000000E+00  0.00000000000E+00  0.45593999997E+02  0.45594000000E+02  0.51100000000E-03 0.  1.
         11   -1    0    0    0    0 -0.00000000000E+00 -0.00000000000E+00 -0.45593999997E+02  0.45594000000E+02  0.51100000000E-03 0. -1.
    9900012    2    1    2    0    0 -0.12380899308E+02 -0.87156016067E+01  0.11019537637E+02  0.72461585800E+02  0.70000020199E+02 0.  0.
         12    1    1    2    0    0  0.12380899308E+02  0.87156016067E+01 -0.11019537637E+02  0.18726414200E+02  0.00000000000E+00 0. -1.
         11    1    3    3    0    0 -0.70055293308E+01  0.42729126274E+01 -0.16922404099E+02  0.18806992962E+02  0.51100000000E-03 0. -1.
        -11    1    3    3    0    0 -0.75122414028E+01 -0.20608600902E+01 -0.10815872966E+02  0.13329066864E+02  0.51100000000E-03 0.  1.
        -12    1    3    3    0    0  0.21368714253E+01 -0.10927654144E+02  0.38757814702E+02  0.40325525974E+02  0.00000000000E+00 0.  1.
</event>
<event>
 7    1  0.3027254E-013  0.7246099E+02  0.7816164E-02  0.1226710E+00
        -11   -1    0    0    0    0  0.00000000000E+00  0.00000000000E+00  0.45593999997E+02  0.45594000000E+02  0.51100000000E-03 0.  1.
         11   -1    0    0    0    0 -0.00000000000E+00 -0.00000000000E+00 -0.45593999997E+02  0.45594000000E+02  0.51100000000E-03 0. -1.
    9900012    2    1    2    0    0  0.46742273564E+01  0.68485565657E+01  0.16791357195E+02  0.72460992634E+02  0.69999247486E+02 0.  0.
         12    1    1    2    0    0 -0.46742273564E+01 -0.68485565657E+01 -0.16791357195E+02  0.18727007366E+02  0.00000000000E+00 0. -1.
         11    1    3    3    0    0  0.19921264343E+02  0.29271378287E+02  0.11646367657E+01  0.35426356557E+02  0.51100000000E-03 0. -1.
        -11    1    3    3    0    0 -0.59518540537E+01 -0.52388599714E+01 -0.43906096909E+01  0.90635354137E+01  0.51100000000E-03 0.  1.
        -12    1    3    3    0    0 -0.92951829325E+01 -0.17183961750E+02  0.20017330121E+02  0.27971100664E+02  0.00000000000E+00 0.  1.
</event>
<event>
 7    1  0.3027254E-013  0.7246202E+02  0.7816164E-02  0.1226707E+00
        -11   -1    0    0    0    0  0.00000000000E+00  0.00000000000E+00  0.45593999997E+02  0.45594000000E+02  0.51100000000E-03 0.  1.
         11   -1    0    0    0    0 -0.00000000000E+00 -0.00000000000E+00 -0.45593999997E+02  0.45594000000E+02  0.51100000000E-03 0. -1.
    9900012    2    1    2    0    0 -0.99670784067E-01 -0.12155394475E+02  0.14244250568E+02  0.72462022766E+02  0.70000589427E+02 0.  0.
         12    1    1    2    0    0  0.99670784067E-01  0.12155394475E+02 -0.14244250568E+02  0.18725977234E+02  0.00000000000E+00 0. -1.
         11    1    3    3    0    0  0.92321700487E+01  0.10451669448E+01  0.23024394690E+02  0.24828372659E+02  0.51100000000E-03 0. -1.
        -11    1    3    3    0    0 -0.81057475360E+01  0.11382840134E+02  0.95660556099E+01  0.16934627626E+02  0.51100000000E-03 0.  1.
         12    1    3    3    0    0 -0.12260932969E+01 -0.24583401554E+02 -0.18346199733E+02  0.30699022482E+02  0.00000000000E+00 0. -1.
</event>
<event>
 7    1  0.3027254E-013  0.7246195E+02  0.7816164E-02  0.1226707E+00
        -11   -1    0    0    0    0  0.00000000000E+00  0.00000000000E+00  0.45593999997E+02  0.45594000000E+02  0.51100000000E-03 0. -1.
         11   -1    0    0    0    0 -0.00000000000E+00 -0.00000000000E+00 -0.45593999997E+02  0.45594000000E+02  0.51100000000E-03 0.  1.
    9900012    2    1    2    0    0  0.15580546752E+02 -0.10343019325E+02 -0.96614895138E+00  0.72461950506E+02  0.70000495294E+02 0.  0.
         12    1    1    2    0    0 -0.15580546752E+02  0.10343019325E+02  0.96614895138E+00  0.18726049494E+02  0.00000000000E+00 0. -1.
         11    1    3    3    0    0  0.11351496901E+02  0.13342530450E+02  0.74659004159E+01  0.19042564690E+02  0.51100000000E-03 0. -1.
        -11    1    3    3    0    0  0.19649289575E+02 -0.12482635261E+02 -0.20366931087E+02  0.30930933481E+02  0.51100000000E-03 0.  1.
        -12    1    3    3    0    0 -0.15420239723E+02 -0.11202914514E+02  0.11934881720E+02  0.22488452334E+02  0.00000000000E+00 0.  1.
</event>
<event>
 7    1  0.3027254E-013  0.7246160E+02  0.7816164E-02  0.1226708E+00
        -11   -1    0    0    0    0  0.00000000000E+00  0.00000000000E+00  0.45593999997E+02  0.45594000000E+02  0.51100000000E-03 0.  1.
         11   -1    0    0    0    0 -0.00000000000E+00 -0.00000000000E+00 -0.45593999997E+02  0.45594000000E+02  0.51100000000E-03 0. -1.
    9900012    2    1    2    0    0  0.88776593787E+01  0.98909850791E+01  0.13192181668E+02  0.72461599411E+02  0.70000037929E+02 0.  0.
         12    1    1    2    0    0 -0.88776593787E+01 -0.98909850791E+01 -0.13192181668E+02  0.18726400589E+02  0.00000000000E+00 0. -1.
         11    1    3    3    0    0  0.13217500522E+01  0.17059914897E+01 -0.12831487708E+02  0.13011706545E+02  0.51100000000E-03 0. -1.
        -11    1    3    3    0    0  0.85790714567E+01 -0.21758039574E+02  0.95877170979E+01  0.25277204604E+02  0.51100000000E-03 0.  1.
        -12    1    3    3    0    0 -0.10231621302E+01  0.29943033163E+02  0.16435952278E+02  0.34172688262E+02  0.00000000000E+00 0.  1.
</event>
<event>
 7    1  0.3027254E-013  0.7246156E+02  0.7816164E-02  0.1226708E+00
        -11   -1    0    0    0    0  0.00000000000E+00  0.00000000000E+00  0.45593999997E+02  0.45594000000E+02  0.51100000000E-03 0.  1.
         11   -1    0    0    0    0 -0.00000000000E+00 -0.00000000000E+00 -0.45593999997E+02  0.45594000000E+02  0.51100000000E-03 0. -1.
    9900012    2    1    2    0    0 -0.15612128122E+02  0.91095459238E+01  0.48946192686E+01  0.72461556953E+02  0.69999982620E+02 0.  0.
         12    1    1    2    0    0  0.15612128122E+02 -0.91095459238E+01 -0.48946192686E+01  0.18726443047E+02  0.00000000000E+00 0. -1.
         11    1    3    3    0    0  0.14790899488E+02  0.11268991251E+02 -0.27741665522E+01  0.18800448713E+02  0.51100000000E-03 0. -1.
        -11    1    3    3    0    0 -0.12418461010E+02 -0.11934779504E+02  0.22534529823E+02  0.28363042330E+02  0.51100000000E-03 0.  1.
         12    1    3    3    0    0 -0.17984566600E+02  0.97753341760E+01 -0.14865744002E+02  0.25298065909E+02  0.00000000000E+00 0. -1.
</event>
<event>
 7    1  0.3027254E-013  0.7246166E+02  0.7816164E-02  0.1226708E+00
        -11   -1    0    0    0    0  0.00000000000E+00  0.00000000000E+00  0.45593999997E+02  0.45594000000E+02  0.51100000000E-03 0. -1.
         11   -1    0    0    0    0 -0.00000000000E+00 -0.00000000000E+00 -0.45593999997E+02  0.45594000000E+02  0.51100000000E-03 0.  1.
    9900012    2    1    2    0    0 -0.25520299327E+01 -0.18507669324E+02 -0.12763059204E+01  0.72461664604E+02  0.70000122855E+02 0.  0.
         12    1    1    2    0    0  0.25520299327E+01  0.18507669324E+02  0.12763059204E+01  0.18726335396E+02  0.00000000000E+00 0. -1.
         11    1    3    3    0    0  0.78406348206E+01  0.43089873930E+01 -0.20551771810E+02  0.22414688299E+02  0.51100000000E-03 0. -1.
        -11    1    3    3    0    0  0.22160269548E+01  0.93061453278E+01 -0.16235917165E+01  0.97031524078E+01  0.51100000000E-03 0.  1.
         12    1    3    3    0    0 -0.12608691708E+02 -0.32122802045E+02  0.20899057606E+02  0.40343823897E+02  0.00000000000E+00 0. -1.
</event>
<event>
 7    1  0.3027254E-013  0.7246152E+02  0.7816164E-02  0.1226708E+00
        -11   -1    0    0    0    0  0.00000000000E+00  0.00000000000E+00  0.45593999997E+02  0.45594000000E+02  0.51100000000E-03 0. -1.
         11   -1    0    0    0    0 -0.00000000000E+00 -0.00000000000E+00 -0.45593999997E+02  0.45594000000E+02  0.51100000000E-03 0.  1.
    9900012    2    1    2    0    0 -0.14945545396E+02  0.45283285200E+01 -0.10334691166E+02  0.72461523347E+02  0.69999938842E+02 0.  0.
         12    1    1    2    0    0  0.14945545396E+02 -0.45283285200E+01  0.10334691166E+02  0.18726476653E+02  0.00000000000E+00 0. -1.
         11    1    3    3    0    0 -0.18562469641E+02 -0.61555919981E-02 -0.93355803615E+01  0.20777833814E+02  0.51100000000E-03 0. -1.
        -11    1    3    3    0    0 -0.20341497271E+02 -0.11456374333E+01 -0.13126883085E+02  0.24236420035E+02  0.51100000000E-03 0.  1.
         12    1    3    3    0    0  0.23958421516E+02  0.56801215453E+01  0.12127772281E+02  0.27447269497E+02  0.00000000000E+00 0. -1.
</event>
<event>
 7    1  0.3027254E-013  0.7246157E+02  0.7816164E-02  0.1226708E+00
        -11   -1    0    0    0    0  0.00000000000E+00  0.00000000000E+00  0.45593999997E+02  0.45594000000E+02  0.51100000000E-03 0. -1.
         11   -1    0    0    0    0 -0.00000000000E+00 -0.00000000000E+00 -0.45593999997E+02  0.45594000000E+02  0.51100000000E-03 0.  1.
    9900012    2    1    2    0    0 -0.76116639487E+01 -0.14732760176E+02 -0.86998537069E+01  0.72461572017E+02  0.70000002244E+02 0.  0.
         12    1    1    2    0    0  0.76116639487E+01  0.14732760176E+02  0.86998537069E+01  0.18726427983E+02  0.00000000000E+00 0. -1.
         11    1    3    3    0    0 -0.15155336168E+01 -0.26385631325E+00 -0.60849311496E+01  0.62763723323E+01  0.51100000000E-03 0. -1.
        -11    1    3    3    0    0  0.12271641973E+02 -0.56045256123E+01 -0.29500717005E+02  0.32439115403E+02  0.51100000000E-03 0.  1.
         12    1    3    3    0    0 -0.18367772305E+02 -0.88643782508E+01  0.26885794448E+02  0.33746084281E+02  0.00000000000E+00 0. -1.
</event>
<event>
 7    1  0.3027254E-013  0.7246157E+02  0.7816164E-02  0.1226708E+00
        -11   -1    0    0    0    0  0.00000000000E+00  0.00000000000E+00  0.45593999997E+02  0.45594000000E+02  0.51100000000E-03 0.  1.
         11   -1    0    0    0    0 -0.00000000000E+00 -0.00000000000E+00 -0.45593999997E+02  0.45594000000E+02  0.51100000000E-03 0. -1.
    9900012    2    1    2    0    0 -0.63916612707E+01  0.14538242164E+02  0.99229755040E+01  0.72461567829E+02  0.69999996788E+02 0.  0.
         12    1    1    2    0    0  0.63916612707E+01 -0.14538242164E+02 -0.99229755040E+01  0.18726432171E+02  0.00000000000E+00 0. -1.
         11    1    3    3    0    0 -0.13302712108E+02 -0.20810659859E+02  0.10573081075E+00  0.24699329798E+02  0.51100000000E-03 0. -1.
        -11    1    3    3    0    0  0.17727342679E-01  0.12910301898E+02 -0.10559069663E+02  0.16678434032E+02  0.51100000000E-03 0.  1.
        -12    1    3    3    0    0  0.68933234942E+01  0.22438600125E+02  0.20376314356E+02  0.31083803999E+02  0.00000000000E+00 0.  1.
</event>
<event>
 7    1  0.3027254E-013  0.7246175E+02  0.7816164E-02  0.1226708E+00
        -11   -1    0    0    0    0  0.00000000000E+00  0.00000000000E+00  0.45593999997E+02  0.45594000000E+02  0.51100000000E-03 0.  1.
         11   -1    0    0    0    0 -0.00000000000E+00 -0.00000000000E+00 -0.45593999997E+02  0.45594000000E+02  0.51100000000E-03 0. -1.
    9900012    2    1    2    0    0 -0.48233467416E+01 -0.10028728349E+02  0.15060960428E+02  0.72461745834E+02  0.70000228672E+02 0.  0.
         12    1    1    2    0    0  0.48233467416E+01  0.10028728349E+02 -0.15060960428E+02  0.18726254166E+02  0.00000000000E+00 0. -1.
         11    1    3    3    0    0 -0.42474530144E+01 -0.18679045266E+01 -0.60076422794E+01  0.75908952337E+01  0.51100000000E-03 0. -1.
        -11    1    3    3    0    0  0.33565534129E+01 -0.28435074706E+02  0.30789448529E+02  0.42045333455E+02  0.51100000000E-03 0.  1.
         12    1    3    3    0    0 -0.39324471401E+01  0.20274250884E+02 -0.97208458220E+01  0.22825517144E+02  0.00000000000E+00 0. -1.
</event>
<event>
 7    1  0.3027254E-013  0.7246162E+02  0.7816164E-02  0.1226708E+00
        -11   -1    0    0    0    0  0.00000000000E+00  0.00000000000E+00  0.45593999997E+02  0.45594000000E+02  0.51100000000E-03 0.  1.
         11   -1    0    0    0    0 -0.00000000000E+00 -0.00000000000E+00 -0.45593999997E+02  0.45594000000E+02  0.51100000000E-03 0. -1.
    9900012    2    1    2    0    0 -0.96302277968E+01  0.16059626182E+02  0.15613229861E+00  0.72461621337E+02  0.70000066492E+02 0.  0.
         12    1    1    2    0    0  0.96302277968E+01 -0.16059626182E+02 -0.15613229861E+00  0.18726378663E+02  0.00000000000E+00 0. -1.
         11    1    3    3    0    0  0.22476403535E+02  0.19466409835E+02  0.16569232308E+01  0.29780450342E+02  0.51100000000E-03 0. -1.
        -11    1    3    3    0    0  0.36133638307E+01  0.41172632987E+01  0.23779726356E+01  0.59718514182E+01  0.51100000000E-03 0.  1.
        -12    1    3    3    0    0 -0.35719995162E+02 -0.75240469517E+01 -0.38787635678E+01  0.36709319576E+02  0.00000000000E+00 0.  1.
</event>
<event>
 7    1  0.3027254E-013  0.7246157E+02  0.7816164E-02  0.1226708E+00
        -11   -1    0    0    0    0  0.00000000000E+00  0.00000000000E+00  0.45593999997E+02  0.45594000000E+02  0.51100000000E-03 0.  1.
         11   -1    0    0    0    0 -0.00000000000E+00 -0.00000000000E+00 -0.45593999997E+02  0.45594000000E+02  0.51100000000E-03 0. -1.
    9900012    2    1    2    0    0  0.10058187338E+02  0.12860064635E+02  0.91722801239E+01  0.72461571681E+02  0.70000001806E+02 0.  0.
         12    1    1    2    0    0 -0.10058187338E+02 -0.12860064635E+02 -0.91722801239E+01  0.18726428319E+02  0.00000000000E+00 0. -1.
         11    1    3    3    0    0 -0.41899578628E+01 -0.23571816044E+02  0.23513112431E+01  0.24056494411E+02  0.51100000000E-03 0. -1.
        -11    1    3    3    0    0  0.12456757327E+02  0.12245344206E+01  0.34952860428E+01  0.12995665140E+02  0.51100000000E-03 0.  1.
        -12    1    3    3    0    0  0.17913878740E+01  0.35207346258E+02  0.33256828380E+01  0.35409412130E+02  0.00000000000E+00 0.  1.
</event>
<event>
 7    1  0.3027254E-013  0.7246154E+02  0.7816164E-02  0.1226708E+00
        -11   -1    0    0    0    0  0.00000000000E+00  0.00000000000E+00  0.45593999997E+02  0.45594000000E+02  0.51100000000E-03 0.  1.
         11   -1    0    0    0    0 -0.00000000000E+00 -0.00000000000E+00 -0.45593999997E+02  0.45594000000E+02  0.51100000000E-03 0. -1.
    9900012    2    1    2    0    0  0.83121126265E+01 -0.16395214401E+02  0.35757364069E+01  0.72461543784E+02  0.69999965465E+02 0.  0.
         12    1    1    2    0    0 -0.83121126265E+01  0.16395214401E+02 -0.35757364069E+01  0.18726456216E+02  0.00000000000E+00 0. -1.
         11    1    3    3    0    0 -0.49932538295E+01 -0.30763260825E+02  0.68271965551E+01  0.31904880715E+02  0.51100000000E-03 0. -1.
        -11    1    3    3    0    0 -0.77224034415E+01 -0.44393320540E+01  0.61450696612E+01  0.10821509386E+02  0.51100000000E-03 0.  1.
         12    1    3    3    0    0  0.21027769897E+02  0.18807378478E+02 -0.93965298094E+01  0.29735153683E+02  0.00000000000E+00 0. -1.
</event>
<event>
 7    1  0.3027254E-013  0.7246155E+02  0.7816164E-02  0.1226708E+00
        -11   -1    0    0    0    0  0.00000000000E+00  0.00000000000E+00  0.45593999997E+02  0.45594000000E+02  0.51100000000E-03 0.  1.
         11   -1    0    0    0    0 -0.00000000000E+00 -0.00000000000E+00 -0.45593999997E+02  0.45594000000E+02  0.51100000000E-03 0. -1.
    9900012    2    1    2    0    0  0.13938728473E+00  0.79659736664E+01  0.16947088421E+02  0.72461548889E+02  0.69999972116E+02 0.  0.
         12    1    1    2    0    0 -0.13938728473E+00 -0.79659736664E+01 -0.16947088421E+02  0.18726451111E+02  0.00000000000E+00 0. -1.
         11    1    3    3    0    0 -0.61623003229E+01 -0.35120768981E+01  0.50082584460E+01  0.86828153459E+01  0.51100000000E-03 0. -1.
        -11    1    3    3    0    0 -0.12090236816E+02 -0.17794626069E+02  0.18756753285E+02  0.28541869898E+02  0.51100000000E-03 0.  1.
         12    1    3    3    0    0  0.18391924424E+02  0.29272676634E+02 -0.68179233104E+01  0.35236863646E+02  0.00000000000E+00 0. -1.
</event>
<event>
 7    1  0.3027254E-013  0.7246155E+02  0.7816164E-02  0.1226708E+00
        -11   -1    0    0    0    0  0.00000000000E+00  0.00000000000E+00  0.45593999997E+02  0.45594000000E+02  0.51100000000E-03 0.  1.
         11   -1    0    0    0    0 -0.00000000000E+00 -0.00000000000E+00 -0.45593999997E+02  0.45594000000E+02  0.51100000000E-03 0. -1.
    9900012    2    1    2    0    0 -0.14151996710E+02  0.95059909777E+01  0.77483544887E+01  0.72461551521E+02  0.69999975545E+02 0.  0.
         12    1    1    2    0    0  0.14151996710E+02 -0.95059909777E+01 -0.77483544887E+01  0.18726448479E+02  0.00000000000E+00 0. -1.
         11    1    3    3    0    0  0.40523665703E+01  0.12559524909E+02 -0.62985576812E+01  0.14623103976E+02  0.51100000000E-03 0. -1.
        -11    1    3    3    0    0  0.68767788790E+01 -0.18250798100E+02  0.19976922782E+02  0.27918795875E+02  0.51100000000E-03 0.  1.
         12    1    3    3    0    0 -0.25081142159E+02  0.15197264168E+02 -0.59300106125E+01  0.29919651670E+02  0.00000000000E+00 0. -1.
</event>
<event>
 7    1  0.3027254E-013  0.7246169E+02  0.7816164E-02  0.1226708E+00
        -11   -1    0    0    0    0  0.00000000000E+00  0.00000000000E+00  0.45593999997E+02  0.45594000000E+02  0.51100000000E-03 0.  1.
         11   -1    0    0    0    0 -0.00000000000E+00 -0.00000000000E+00 -0.45593999997E+02  0.45594000000E+02  0.51100000000E-03 0. -1.
    9900012    2    1    2    0    0 -0.13486879449E+02  0.79093382263E+00 -0.12967384334E+02  0.72461693635E+02  0.70000160675E+02 0.  0.
         12    1    1    2    0    0  0.13486879449E+02 -0.79093382263E+00  0.12967384334E+02  0.18726306365E+02  0.00000000000E+00 0. -1.
         11    1    3    3    0    0 -0.15392714582E+02 -0.22988095742E+01 -0.11429124572E+02  0.19309196679E+02  0.51100000000E-03 0. -1.
        -11    1    3    3    0    0  0.66415739969E+01 -0.17893860995E+02 -0.17868003789E+02  0.26145101379E+02  0.51100000000E-03 0.  1.
         12    1    3    3    0    0 -0.47357388644E+01  0.20983604392E+02  0.16329744027E+02  0.27007395577E+02  0.00000000000E+00 0. -1.
</event>
<event>
 7    1  0.3027254E-013  0.7246156E+02  0.7816164E-02  0.1226708E+00
        -11   -1    0    0    0    0  0.00000000000E+00  0.00000000000E+00  0.45593999997E+02  0.45594000000E+02  0.51100000000E-03 0. -1.
         11   -1    0    0    0    0 -0.00000000000E+00 -0.00000000000E+00 -0.45593999997E+02  0.45594000000E+02  0.51100000000E-03 0.  1.
    9900012    2    1    2    0    0  0.40930462784E+01 -0.13397173583E+02 -0.12427473950E+02  0.72461564230E+02  0.69999992101E+02 0.  0.
         12    1    1    2    0    0 -0.40930462784E+01  0.13397173583E+02  0.12427473950E+02  0.18726435770E+02  0.00000000000E+00 0. -1.
         11    1    3    3    0    0 -0.15088308088E+02 -0.39738691692E+01  0.19157837454E+02  0.24707719711E+02  0.51100000000E-03 0. -1.
        -11    1    3    3    0    0 -0.86086963327E-01 -0.10950056559E+02 -0.26942550320E+00  0.10953708959E+02  0.51100000000E-03 0.  1.
         12    1    3    3    0    0  0.19267441330E+02  0.15267521444E+01 -0.31315885900E+02  0.36800135560E+02  0.00000000000E+00 0. -1.
</event>
<event>
 7    1  0.3027254E-013  0.7246154E+02  0.7816164E-02  0.1226708E+00
        -11   -1    0    0    0    0  0.00000000000E+00  0.00000000000E+00  0.45593999997E+02  0.45594000000E+02  0.51100000000E-03 0. -1.
         11   -1    0    0    0    0 -0.00000000000E+00 -0.00000000000E+00 -0.45593999997E+02  0.45594000000E+02  0.51100000000E-03 0.  1.
    9900012    2    1    2    0    0 -0.11778129117E+02 -0.13330213410E+02  0.58533279522E+01  0.72461538424E+02  0.69999958483E+02 0.  0.
         12    1    1    2    0    0  0.11778129117E+02  0.13330213410E+02 -0.58533279522E+01  0.18726461576E+02  0.00000000000E+00 0. -1.
         11    1    3    3    0    0 -0.16782496953E+02  0.78789556469E+01 -0.38739701104E+01  0.18940374620E+02  0.51100000000E-03 0. -1.
        -11    1    3    3    0    0  0.75156617166E+01  0.47194070048E+01 -0.15113121858E+02  0.17526106985E+02  0.51100000000E-03 0.  1.
         12    1    3    3    0    0 -0.25112938802E+01 -0.25928576061E+02  0.24840419920E+02  0.35995056818E+02  0.00000000000E+00 0. -1.
</event>
<event>
 7    1  0.3027254E-013  0.7246154E+02  0.7816164E-02  0.1226708E+00
        -11   -1    0    0    0    0  0.00000000000E+00  0.00000000000E+00  0.45593999997E+02  0.45594000000E+02  0.51100000000E-03 0. -1.
         11   -1    0    0    0    0 -0.00000000000E+00 -0.00000000000E+00 -0.45593999997E+02  0.45594000000E+02  0.51100000000E-03 0.  1.
    9900012    2    1    2    0    0  0.61997847730E+01  0.30877605343E+01 -0.17398527472E+02  0.72461538654E+02  0.69999958782E+02 0.  0.
         12    1    1    2    0    0 -0.61997847730E+01 -0.30877605343E+01  0.17398527472E+02  0.18726461346E+02  0.00000000000E+00 0. -1.
         11    1    3    3    0    0 -0.42925858905E+01 -0.19291815315E+02 -0.29705115495E+02  0.35679045932E+02  0.51100000000E-03 0.  1.
        -11    1    3    3    0    0 -0.30811643484E+01  0.76139015569E+01 -0.55628493451E+01  0.99201997842E+01  0.51100000000E-03 0. -1.
         12    1    3    3    0    0  0.13573535012E+02  0.14765674293E+02  0.17869437368E+02  0.26862292938E+02  0.00000000000E+00 0. -1.
</event>
<event>
 7    1  0.3027254E-013  0.7246160E+02  0.7816164E-02  0.1226708E+00
        -11   -1    0    0    0    0  0.00000000000E+00  0.00000000000E+00  0.45593999997E+02  0.45594000000E+02  0.51100000000E-03 0.  1.
         11   -1    0    0    0    0 -0.00000000000E+00 -0.00000000000E+00 -0.45593999997E+02  0.45594000000E+02  0.51100000000E-03 0. -1.
    9900012    2    1    2    0    0 -0.56163244323E+01 -0.15054777002E+02  0.96170957847E+01  0.72461603069E+02  0.70000042695E+02 0.  0.
         12    1    1    2    0    0  0.56163244323E+01  0.15054777002E+02 -0.96170957847E+01  0.18726396931E+02  0.00000000000E+00 0. -1.
         11    1    3    3    0    0  0.23057079011E+01  0.14540645065E+02 -0.49733834534E+01  0.15539665089E+02  0.51100000000E-03 0. -1.
        -11    1    3    3    0    0  0.12348131335E+02 -0.99546072326E+00  0.17837218464E+02  0.21717128087E+02  0.51100000000E-03 0.  1.
         12    1    3    3    0    0 -0.20270163669E+02 -0.28599961344E+02 -0.32467392262E+01  0.35204809893E+02  0.00000000000E+00 0. -1.
</event>
<event>
 7    1  0.3027254E-013  0.7246158E+02  0.7816164E-02  0.1226708E+00
        -11   -1    0    0    0    0  0.00000000000E+00  0.00000000000E+00  0.45593999997E+02  0.45594000000E+02  0.51100000000E-03 0. -1.
         11   -1    0    0    0    0 -0.00000000000E+00 -0.00000000000E+00 -0.45593999997E+02  0.45594000000E+02  0.51100000000E-03 0.  1.
    9900012    2    1    2    0    0  0.15481014367E+02 -0.29029657130E+01 -0.10128670722E+02  0.72461575185E+02  0.70000006372E+02 0.  0.
         12    1    1    2    0    0 -0.15481014367E+02  0.29029657130E+01  0.10128670722E+02  0.18726424815E+02  0.00000000000E+00 0. -1.
         11    1    3    3    0    0  0.98589373277E+01  0.18331757945E+02  0.27471118118E+01  0.20995204647E+02  0.51100000000E-03 0. -1.
        -11    1    3    3    0    0 -0.19564775086E+02 -0.11631944839E+02 -0.41717762867E+01  0.23140576539E+02  0.51100000000E-03 0.  1.
         12    1    3    3    0    0  0.25186852125E+02 -0.96027788192E+01 -0.87040062466E+01  0.28325794000E+02  0.00000000000E+00 0. -1.
</event>
<event>
 7    1  0.3027254E-013  0.7246159E+02  0.7816164E-02  0.1226708E+00
        -11   -1    0    0    0    0  0.00000000000E+00  0.00000000000E+00  0.45593999997E+02  0.45594000000E+02  0.51100000000E-03 0. -1.
         11   -1    0    0    0    0 -0.00000000000E+00 -0.00000000000E+00 -0.45593999997E+02  0.45594000000E+02  0.51100000000E-03 0.  1.
    9900012    2    1    2    0    0 -0.17407255854E+02 -0.33561600273E+01 -0.60334060960E+01  0.72461592026E+02  0.70000028310E+02 0.  0.
         12    1    1    2    0    0  0.17407255854E+02  0.33561600273E+01  0.60334060960E+01  0.18726407974E+02  0.00000000000E+00 0. -1.
         11    1    3    3    0    0 -0.56460919713E+01  0.16842331923E+02 -0.68450409663E+01  0.19036729899E+02  0.51100000000E-03 0. -1.
        -11    1    3    3    0    0 -0.60648569555E+00 -0.19098927549E+01 -0.22023473730E+02  0.22114450268E+02  0.51100000000E-03 0.  1.
        -12    1    3    3    0    0 -0.11154678187E+02 -0.18288599196E+02  0.22835108601E+02  0.31310411859E+02  0.00000000000E+00 0.  1.
</event>
<event>
 7    1  0.3027254E-013  0.7246091E+02  0.7816164E-02  0.1226710E+00
        -11   -1    0    0    0    0  0.00000000000E+00  0.00000000000E+00  0.45593999997E+02  0.45594000000E+02  0.51100000000E-03 0.  1.
         11   -1    0    0    0    0 -0.00000000000E+00 -0.00000000000E+00 -0.45593999997E+02  0.45594000000E+02  0.51100000000E-03 0. -1.
    9900012    2    1    2    0    0  0.48129064468E+01 -0.16753525067E+02  0.68453725845E+01  0.72460912761E+02  0.69999143436E+02 0.  0.
         12    1    1    2    0    0 -0.48129064468E+01  0.16753525067E+02 -0.68453725845E+01  0.18727087239E+02  0.00000000000E+00 0. -1.
         11    1    3    3    0    0 -0.93107332348E+01  0.73640429365E+01 -0.19303897458E+01  0.12026856887E+02  0.51100000000E-03 0. -1.
        -11    1    3    3    0    0 -0.86102085940E+00 -0.33616075951E+02 -0.95201235925E+01  0.34948743507E+02  0.51100000000E-03 0.  1.
         12    1    3    3    0    0  0.14984660541E+02  0.94985079478E+01  0.18295885923E+02  0.25485312367E+02  0.00000000000E+00 0. -1.
</event>
<event>
 7    1  0.3027254E-013  0.7246162E+02  0.7816164E-02  0.1226708E+00
        -11   -1    0    0    0    0  0.00000000000E+00  0.00000000000E+00  0.45593999997E+02  0.45594000000E+02  0.51100000000E-03 0.  1.
         11   -1    0    0    0    0 -0.00000000000E+00 -0.00000000000E+00 -0.45593999997E+02  0.45594000000E+02  0.51100000000E-03 0. -1.
    9900012    2    1    2    0    0  0.67535619063E+01 -0.16644309254E+02 -0.52946888125E+01  0.72461618647E+02  0.70000062988E+02 0.  0.
         12    1    1    2    0    0 -0.67535619063E+01  0.16644309254E+02  0.52946888125E+01  0.18726381353E+02  0.00000000000E+00 0. -1.
         11    1    3    3    0    0  0.95372435263E+01  0.36138354750E+01 -0.13536480640E+02  0.16948602576E+02  0.51100000000E-03 0. -1.
        -11    1    3    3    0    0  0.67967623184E+01  0.11126234384E+02 -0.11357713076E+02  0.17291232349E+02  0.51100000000E-03 0.  1.
        -12    1    3    3    0    0 -0.95804439384E+01 -0.31384379113E+02  0.19599504903E+02  0.38221783721E+02  0.00000000000E+00 0.  1.
</event>
<event>
 7    1  0.3027254E-013  0.7246159E+02  0.7816164E-02  0.1226708E+00
        -11   -1    0    0    0    0  0.00000000000E+00  0.00000000000E+00  0.45593999997E+02  0.45594000000E+02  0.51100000000E-03 0.  1.
         11   -1    0    0    0    0 -0.00000000000E+00 -0.00000000000E+00 -0.45593999997E+02  0.45594000000E+02  0.51100000000E-03 0. -1.
    9900012    2    1    2    0    0  0.16870191602E+02  0.71254092885E+01  0.39119792364E+01  0.72461590740E+02  0.70000026634E+02 0.  0.
         12    1    1    2    0    0 -0.16870191602E+02 -0.71254092885E+01 -0.39119792364E+01  0.18726409260E+02  0.00000000000E+00 0. -1.
         11    1    3    3    0    0 -0.75455240162E+01  0.10363168099E+02  0.13268512984E+01  0.12887618878E+02  0.51100000000E-03 0. -1.
        -11    1    3    3    0    0  0.25076732576E+02 -0.24488672384E+02  0.10958028519E+02  0.36723507200E+02  0.51100000000E-03 0.  1.
         12    1    3    3    0    0 -0.66101695743E+00  0.21250913573E+02 -0.83729005811E+01  0.22850464662E+02  0.00000000000E+00 0. -1.
</event>
<event>
 7    1  0.3027254E-013  0.7246144E+02  0.7816164E-02  0.1226708E+00
        -11   -1    0    0    0    0  0.00000000000E+00  0.00000000000E+00  0.45593999997E+02  0.45594000000E+02  0.51100000000E-03 0.  1.
         11   -1    0    0    0    0 -0.00000000000E+00 -0.00000000000E+00 -0.45593999997E+02  0.45594000000E+02  0.51100000000E-03 0. -1.
    9900012    2    1    2    0    0  0.14389021488E+02  0.50728998019E+01  0.10858443342E+02  0.72461440156E+02  0.69999830470E+02 0.  0.
         12    1    1    2    0    0 -0.14389021488E+02 -0.50728998019E+01 -0.10858443342E+02  0.18726559844E+02  0.00000000000E+00 0. -1.
         11    1    3    3    0    0 -0.88478841472E+01 -0.92685093722E+01 -0.70661324849E+01  0.14632858518E+02  0.51100000000E-03 0. -1.
        -11    1    3    3    0    0  0.26442344698E+02  0.25191504191E+02 -0.13057569895E+00  0.36521589872E+02  0.51100000000E-03 0.  1.
         12    1    3    3    0    0 -0.32054390628E+01 -0.10850095017E+02  0.18055151526E+02  0.21306991765E+02  0.00000000000E+00 0. -1.
</event>
<event>
 7    1  0.3027254E-013  0.7246156E+02  0.7816164E-02  0.1226708E+00
        -11   -1    0    0    0    0  0.00000000000E+00  0.00000000000E+00  0.45593999997E+02  0.45594000000E+02  0.51100000000E-03 0.  1.
         11   -1    0    0    0    0 -0.00000000000E+00 -0.00000000000E+00 -0.45593999997E+02  0.45594000000E+02  0.51100000000E-03 0. -1.
    9900012    2    1    2    0    0 -0.15479252734E+02 -0.10025837288E+02  0.32488305424E+01  0.72461559377E+02  0.69999985778E+02 0.  0.
         12    1    1    2    0    0  0.15479252734E+02  0.10025837288E+02 -0.32488305424E+01  0.18726440623E+02  0.00000000000E+00 0. -1.
         11    1    3    3    0    0  0.16108385685E+00  0.66712736809E+01 -0.93622229728E+01  0.11497089188E+02  0.51100000000E-03 0. -1.
        -11    1    3    3    0    0 -0.98406628174E+01  0.17383620155E+02  0.16851996368E+02  0.26134626001E+02  0.51100000000E-03 0.  1.
         12    1    3    3    0    0 -0.57996737732E+01 -0.34080731125E+02 -0.42409428526E+01  0.34829844188E+02  0.00000000000E+00 0. -1.
</event>
<event>
 7    1  0.3027254E-013  0.7246157E+02  0.7816164E-02  0.1226708E+00
        -11   -1    0    0    0    0  0.00000000000E+00  0.00000000000E+00  0.45593999997E+02  0.45594000000E+02  0.51100000000E-03 0. -1.
         11   -1    0    0    0    0 -0.00000000000E+00 -0.00000000000E+00 -0.45593999997E+02  0.45594000000E+02  0.51100000000E-03 0.  1.
    9900012    2    1    2    0    0 -0.13097556607E+02  0.13213136869E+02  0.21321539036E+01  0.72461573345E+02  0.70000003974E+02 0.  0.
         12    1    1    2    0    0  0.13097556607E+02 -0.13213136869E+02 -0.21321539036E+01  0.18726426655E+02  0.00000000000E+00 0. -1.
         11    1    3    3    0    0  0.10792668536E+01  0.16422550836E+02 -0.23743498694E+01  0.16628365237E+02  0.51100000000E-03 0. -1.
        -11    1    3    3    0    0 -0.30009811427E+02  0.10496856480E+02 -0.60786344728E+01  0.32368542988E+02  0.51100000000E-03 0.  1.
         12    1    3    3    0    0  0.15832987966E+02 -0.13706270447E+02  0.10585138246E+02  0.23464665120E+02  0.00000000000E+00 0. -1.
</event>
<event>
 7    1  0.3027254E-013  0.7246155E+02  0.7816164E-02  0.1226708E+00
        -11   -1    0    0    0    0  0.00000000000E+00  0.00000000000E+00  0.45593999997E+02  0.45594000000E+02  0.51100000000E-03 0. -1.
         11   -1    0    0    0    0 -0.00000000000E+00 -0.00000000000E+00 -0.45593999997E+02  0.45594000000E+02  0.51100000000E-03 0.  1.
    9900012    2    1    2    0    0  0.14047621673E+02  0.12222318008E+02 -0.19897693382E+01  0.72461550412E+02  0.69999974099E+02 0.  0.
         12    1    1    2    0    0 -0.14047621673E+02 -0.12222318008E+02  0.19897693382E+01  0.18726449588E+02  0.00000000000E+00 0. -1.
         11    1    3    3    0    0  0.11362611955E+01  0.32391523916E+01  0.12666155489E+02  0.13123059584E+02  0.51100000000E-03 0. -1.
        -11    1    3    3    0    0  0.12071937454E+02  0.31116714346E+02 -0.16269064436E+02  0.37130365518E+02  0.51100000000E-03 0.  1.
         12    1    3    3    0    0  0.83942302312E+00 -0.22133548730E+02  0.16131396089E+01  0.22208125310E+02  0.00000000000E+00 0. -1.
</event>
<event>
 7    1  0.3027254E-013  0.7246155E+02  0.7816164E-02  0.1226708E+00
        -11   -1    0    0    0    0  0.00000000000E+00  0.00000000000E+00  0.45593999997E+02  0.45594000000E+02  0.51100000000E-03 0.  1.
         11   -1    0    0    0    0 -0.00000000000E+00 -0.00000000000E+00 -0.45593999997E+02  0.45594000000E+02  0.51100000000E-03 0. -1.
    9900012    2    1    2    0    0  0.12959605442E+02  0.11200787098E+02  0.75677557306E+01  0.72461549946E+02  0.69999973493E+02 0.  0.
         12    1    1    2    0    0 -0.12959605442E+02 -0.11200787098E+02 -0.75677557306E+01  0.18726450054E+02  0.00000000000E+00 0. -1.
         11    1    3    3    0    0  0.12251086980E+02  0.13044475293E+01 -0.15859766898E+02  0.20082901231E+02  0.51100000000E-03 0. -1.
        -11    1    3    3    0    0 -0.16212479296E+02  0.15131789430E+02 -0.10067868354E+01  0.22199755771E+02  0.51100000000E-03 0.  1.
         12    1    3    3    0    0  0.16920997758E+02 -0.52354498618E+01  0.24434309464E+02  0.30178892945E+02  0.00000000000E+00 0. -1.
</event>
<event>
 7    1  0.3027254E-013  0.7246159E+02  0.7816164E-02  0.1226708E+00
        -11   -1    0    0    0    0  0.00000000000E+00  0.00000000000E+00  0.45593999997E+02  0.45594000000E+02  0.51100000000E-03 0.  1.
         11   -1    0    0    0    0 -0.00000000000E+00 -0.00000000000E+00 -0.45593999997E+02  0.45594000000E+02  0.51100000000E-03 0. -1.
    9900012    2    1    2    0    0  0.50874790359E+01 -0.81622362832E+01  0.16067791264E+02  0.72461589234E+02  0.70000024673E+02 0.  0.
         12    1    1    2    0    0 -0.50874790359E+01  0.81622362832E+01 -0.16067791264E+02  0.18726410766E+02  0.00000000000E+00 0. -1.
         11    1    3    3    0    0  0.58420523153E+01 -0.15125378728E+02 -0.14847662826E+02  0.21985444016E+02  0.51100000000E-03 0. -1.
        -11    1    3    3    0    0  0.19158416744E+02  0.27616517268E+01  0.12595687532E+02  0.23093786980E+02  0.51100000000E-03 0.  1.
        -12    1    3    3    0    0 -0.19912990024E+02  0.42014907183E+01  0.18319766558E+02  0.27382358238E+02  0.00000000000E+00 0.  1.
</event>
<event>
 7    1  0.3027254E-013  0.7246156E+02  0.7816164E-02  0.1226708E+00
        -11   -1    0    0    0    0  0.00000000000E+00  0.00000000000E+00  0.45593999997E+02  0.45594000000E+02  0.51100000000E-03 0. -1.
         11   -1    0    0    0    0 -0.00000000000E+00 -0.00000000000E+00 -0.45593999997E+02  0.45594000000E+02  0.51100000000E-03 0.  1.
    9900012    2    1    2    0    0 -0.74768671019E+01  0.11556691204E+02 -0.12697199517E+02  0.72461560701E+02  0.69999987503E+02 0.  0.
         12    1    1    2    0    0  0.74768671019E+01 -0.11556691204E+02  0.12697199517E+02  0.18726439299E+02  0.00000000000E+00 0. -1.
         11    1    3    3    0    0  0.93911502499E+00  0.22144594504E+02  0.29029710789E+01  0.22353797085E+02  0.51100000000E-03 0. -1.
        -11    1    3    3    0    0  0.11301378338E+02  0.10528722890E+02 -0.14516067606E+02  0.21196494452E+02  0.51100000000E-03 0.  1.
        -12    1    3    3    0    0 -0.19717360465E+02 -0.21116626191E+02 -0.10841029905E+01  0.28911269164E+02  0.00000000000E+00 0.  1.
</event>
<event>
 7    1  0.3027254E-013  0.7246159E+02  0.7816164E-02  0.1226708E+00
        -11   -1    0    0    0    0  0.00000000000E+00  0.00000000000E+00  0.45593999997E+02  0.45594000000E+02  0.51100000000E-03 0.  1.
         11   -1    0    0    0    0 -0.00000000000E+00 -0.00000000000E+00 -0.45593999997E+02  0.45594000000E+02  0.51100000000E-03 0. -1.
    9900012    2    1    2    0    0 -0.66617049569E+01 -0.10405274786E+02 -0.14072330410E+02  0.72461587117E+02  0.70000021914E+02 0.  0.
         12    1    1    2    0    0  0.66617049569E+01  0.10405274786E+02  0.14072330410E+02  0.18726412883E+02  0.00000000000E+00 0. -1.
         11    1    3    3    0    0 -0.15023851472E+02  0.21430077869E+01  0.10956597746E+02  0.18717789129E+02  0.51100000000E-03 0. -1.
        -11    1    3    3    0    0  0.17461471660E+02 -0.15545144827E+02  0.35093557651E+01  0.23640433548E+02  0.51100000000E-03 0.  1.
         12    1    3    3    0    0 -0.90993251444E+01  0.29968622535E+01 -0.28538283921E+02  0.30103364440E+02  0.00000000000E+00 0. -1.
</event>
<event>
 7    1  0.3027254E-013  0.7246161E+02  0.7816164E-02  0.1226708E+00
        -11   -1    0    0    0    0  0.00000000000E+00  0.00000000000E+00  0.45593999997E+02  0.45594000000E+02  0.51100000000E-03 0.  1.
         11   -1    0    0    0    0 -0.00000000000E+00 -0.00000000000E+00 -0.45593999997E+02  0.45594000000E+02  0.51100000000E-03 0. -1.
    9900012    2    1    2    0    0  0.15857143173E+02  0.62619250943E+01  0.77470601721E+01  0.72461611218E+02  0.70000053311E+02 0.  0.
         12    1    1    2    0    0 -0.15857143173E+02 -0.62619250943E+01 -0.77470601721E+01  0.18726388782E+02  0.00000000000E+00 0. -1.
         11    1    3    3    0    0 -0.59720587185E+01  0.13225553066E+02  0.17225474554E+02  0.22523270480E+02  0.51100000000E-03 0. -1.
        -11    1    3    3    0    0 -0.60892389225E+01  0.10046612072E+02  0.66335239502E+01  0.13491363350E+02  0.51100000000E-03 0.  1.
         12    1    3    3    0    0  0.27918440814E+02 -0.17010240044E+02 -0.16111938332E+02  0.36446977388E+02  0.00000000000E+00 0. -1.
</event>
<event>
 7    1  0.3027254E-013  0.7246176E+02  0.7816164E-02  0.1226708E+00
        -11   -1    0    0    0    0  0.00000000000E+00  0.00000000000E+00  0.45593999997E+02  0.45594000000E+02  0.51100000000E-03 0.  1.
         11   -1    0    0    0    0 -0.00000000000E+00 -0.00000000000E+00 -0.45593999997E+02  0.45594000000E+02  0.51100000000E-03 0. -1.
    9900012    2    1    2    0    0  0.16868227213E+01  0.10787633453E+02  0.15213600567E+02  0.72461760425E+02  0.70000247680E+02 0.  0.
         12    1    1    2    0    0 -0.16868227213E+01 -0.10787633453E+02 -0.15213600567E+02  0.18726239575E+02  0.00000000000E+00 0. -1.
         11    1    3    3    0    0 -0.64393874725E+01  0.11032331975E+01 -0.34571956647E+01  0.73915517068E+01  0.51100000000E-03 0. -1.
        -11    1    3    3    0    0 -0.12492885688E+01  0.24764299133E+02  0.33677738772E+02  0.41821302258E+02  0.51100000000E-03 0.  1.
         12    1    3    3    0    0  0.93754987626E+01 -0.15079898877E+02 -0.15006942541E+02  0.23248906461E+02  0.00000000000E+00 0. -1.
</event>
<event>
 7    1  0.3027254E-013  0.7246166E+02  0.7816164E-02  0.1226708E+00
        -11   -1    0    0    0    0  0.00000000000E+00  0.00000000000E+00  0.45593999997E+02  0.45594000000E+02  0.51100000000E-03 0.  1.
         11   -1    0    0    0    0 -0.00000000000E+00 -0.00000000000E+00 -0.45593999997E+02  0.45594000000E+02  0.51100000000E-03 0. -1.
    9900012    2    1    2    0    0  0.21433511843E+01  0.15416706914E+02  0.10411868958E+02  0.72461659686E+02  0.70000116449E+02 0.  0.
         12    1    1    2    0    0 -0.21433511843E+01 -0.15416706914E+02 -0.10411868958E+02  0.18726340314E+02  0.00000000000E+00 0. -1.
         11    1    3    3    0    0 -0.15236444384E+02  0.17742728827E+02 -0.11723138894E+01  0.23416404161E+02  0.51100000000E-03 0. -1.
        -11    1    3    3    0    0 -0.18480139253E+01  0.11798242970E+02  0.20377004759E+02  0.23618552366E+02  0.51100000000E-03 0.  1.
         12    1    3    3    0    0  0.19227809493E+02 -0.14124264884E+02 -0.87928219119E+01  0.25426703160E+02  0.00000000000E+00 0. -1.
</event>
<event>
 7    1  0.3027254E-013  0.7246159E+02  0.7816164E-02  0.1226708E+00
        -11   -1    0    0    0    0  0.00000000000E+00  0.00000000000E+00  0.45593999997E+02  0.45594000000E+02  0.51100000000E-03 0. -1.
         11   -1    0    0    0    0 -0.00000000000E+00 -0.00000000000E+00 -0.45593999997E+02  0.45594000000E+02  0.51100000000E-03 0.  1.
    9900012    2    1    2    0    0  0.12526637753E+02 -0.18061348916E+01 -0.13802165618E+02  0.72461586771E+02  0.70000021464E+02 0.  0.
         12    1    1    2    0    0 -0.12526637753E+02  0.18061348916E+01  0.13802165618E+02  0.18726413229E+02  0.00000000000E+00 0. -1.
         11    1    3    3    0    0 -0.14897995836E+02  0.94739743512E+01 -0.89470739099E+01  0.19792842184E+02  0.51100000000E-03 0. -1.
        -11    1    3    3    0    0  0.13464503515E+02 -0.17837243382E+02  0.15450738858E+02  0.27169568231E+02  0.51100000000E-03 0.  1.
         12    1    3    3    0    0  0.13960130074E+02  0.65571341392E+01 -0.20305830567E+02  0.25499176356E+02  0.00000000000E+00 0. -1.
</event>
<event>
 7    1  0.3027254E-013  0.7246160E+02  0.7816164E-02  0.1226708E+00
        -11   -1    0    0    0    0  0.00000000000E+00  0.00000000000E+00  0.45593999997E+02  0.45594000000E+02  0.51100000000E-03 0.  1.
         11   -1    0    0    0    0 -0.00000000000E+00 -0.00000000000E+00 -0.45593999997E+02  0.45594000000E+02  0.51100000000E-03 0. -1.
    9900012    2    1    2    0    0 -0.50429520125E+01 -0.15991693743E+02  0.83374204400E+01  0.72461595824E+02  0.70000033257E+02 0.  0.
         12    1    1    2    0    0  0.50429520125E+01  0.15991693743E+02 -0.83374204400E+01  0.18726404176E+02  0.00000000000E+00 0. -1.
         11    1    3    3    0    0 -0.11298964776E+00  0.46403864699E+01 -0.18874393355E+02  0.19436786721E+02  0.51100000000E-03 0. -1.
        -11    1    3    3    0    0  0.14086046232E+02 -0.17954536040E+02  0.44607613146E+01  0.23252536520E+02  0.51100000000E-03 0.  1.
         12    1    3    3    0    0 -0.19016008596E+02 -0.26775441734E+01  0.22751052481E+02  0.29772272582E+02  0.00000000000E+00 0. -1.
</event>
<event>
 7    1  0.3027254E-013  0.7246155E+02  0.7816164E-02  0.1226708E+00
        -11   -1    0    0    0    0  0.00000000000E+00  0.00000000000E+00  0.45593999997E+02  0.45594000000E+02  0.51100000000E-03 0. -1.
         11   -1    0    0    0    0 -0.00000000000E+00 -0.00000000000E+00 -0.45593999997E+02  0.45594000000E+02  0.51100000000E-03 0.  1.
    9900012    2    1    2    0    0  0.90586345964E+01  0.38315134632E+01 -0.15935510443E+02  0.72461552146E+02  0.69999976358E+02 0.  0.
         12    1    1    2    0    0 -0.90586345964E+01 -0.38315134632E+01  0.15935510443E+02  0.18726447854E+02  0.00000000000E+00 0. -1.
         11    1    3    3    0    0 -0.21727976159E+02 -0.16159038642E+00 -0.16328334696E+02  0.27179874422E+02  0.51100000000E-03 0. -1.
        -11    1    3    3    0    0  0.23767080136E+01  0.14909165841E+00 -0.13299454693E+02  0.13510975712E+02  0.51100000000E-03 0.  1.
        -12    1    3    3    0    0  0.28409902742E+02  0.38440121912E+01  0.13692278946E+02  0.31770702011E+02  0.00000000000E+00 0.  1.
</event>
<event>
 7    1  0.3027254E-013  0.7246156E+02  0.7816164E-02  0.1226708E+00
        -11   -1    0    0    0    0  0.00000000000E+00  0.00000000000E+00  0.45593999997E+02  0.45594000000E+02  0.51100000000E-03 0.  1.
         11   -1    0    0    0    0 -0.00000000000E+00 -0.00000000000E+00 -0.45593999997E+02  0.45594000000E+02  0.51100000000E-03 0. -1.
    9900012    2    1    2    0    0  0.17649438875E+02 -0.34866326105E+01 -0.51981001051E+01  0.72461560288E+02  0.69999986965E+02 0.  0.
         12    1    1    2    0    0 -0.17649438875E+02  0.34866326105E+01  0.51981001051E+01  0.18726439712E+02  0.00000000000E+00 0. -1.
         11    1    3    3    0    0 -0.55958695805E+01  0.37341353019E+01 -0.21150836350E+02  0.22194940897E+02  0.51100000000E-03 0. -1.
        -11    1    3    3    0    0 -0.96273645419E+01 -0.41491631680E+01  0.13593747456E+02  0.17166585950E+02  0.51100000000E-03 0.  1.
         12    1    3    3    0    0  0.32872672998E+02 -0.30716047444E+01  0.23589887889E+01  0.33100033441E+02  0.00000000000E+00 0. -1.
</event>
<event>
 7    1  0.3027254E-013  0.7246157E+02  0.7816164E-02  0.1226708E+00
        -11   -1    0    0    0    0  0.00000000000E+00  0.00000000000E+00  0.45593999997E+02  0.45594000000E+02  0.51100000000E-03 0.  1.
         11   -1    0    0    0    0 -0.00000000000E+00 -0.00000000000E+00 -0.45593999997E+02  0.45594000000E+02  0.51100000000E-03 0. -1.
    9900012    2    1    2    0    0 -0.86211638344E+01  0.81466009587E+01 -0.14490944798E+02  0.72461573374E+02  0.70000004011E+02 0.  0.
         12    1    1    2    0    0  0.86211638344E+01 -0.81466009587E+01  0.14490944798E+02  0.18726426626E+02  0.00000000000E+00 0. -1.
         11    1    3    3    0    0  0.16767380666E+02  0.97364879845E+01  0.58644013793E+00  0.19398148493E+02  0.51100000000E-03 0.  1.
        -11    1    3    3    0    0  0.44728336431E+01 -0.11961511759E+02 -0.17152180892E+02  0.21384136970E+02  0.51100000000E-03 0. -1.
         12    1    3    3    0    0 -0.29861378143E+02  0.10371624733E+02  0.20747959556E+01  0.31679287910E+02  0.00000000000E+00 0. -1.
</event>
<event>
 7    1  0.3027254E-013  0.7246157E+02  0.7816164E-02  0.1226708E+00
        -11   -1    0    0    0    0  0.00000000000E+00  0.00000000000E+00  0.45593999997E+02  0.45594000000E+02  0.51100000000E-03 0.  1.
         11   -1    0    0    0    0 -0.00000000000E+00 -0.00000000000E+00 -0.45593999997E+02  0.45594000000E+02  0.51100000000E-03 0. -1.
    9900012    2    1    2    0    0 -0.65244815824E+01  0.30914034651E+01  0.17278705219E+02  0.72461567095E+02  0.69999995832E+02 0.  0.
         12    1    1    2    0    0  0.65244815824E+01 -0.30914034651E+01 -0.17278705219E+02  0.18726432905E+02  0.00000000000E+00 0. -1.
         11    1    3    3    0    0 -0.51510089982E+01 -0.11151644077E+02 -0.17628957493E+02  0.21486558633E+02  0.51100000000E-03 0. -1.
        -11    1    3    3    0    0 -0.81490659153E+01  0.17780040730E+02  0.51133184274E+01  0.20215913268E+02  0.51100000000E-03 0.  1.
        -12    1    3    3    0    0  0.67755933311E+01 -0.35369931881E+01  0.29794344285E+02  0.30759095194E+02  0.00000000000E+00 0.  1.
</event>
<event>
 7    1  0.3027254E-013  0.7246154E+02  0.7816164E-02  0.1226708E+00
        -11   -1    0    0    0    0  0.00000000000E+00  0.00000000000E+00  0.45593999997E+02  0.45594000000E+02  0.51100000000E-03 0. -1.
         11   -1    0    0    0    0 -0.00000000000E+00 -0.00000000000E+00 -0.45593999997E+02  0.45594000000E+02  0.51100000000E-03 0.  1.
    9900012    2    1    2    0    0 -0.86646392102E+01  0.18883531616E+01 -0.16493587303E+02  0.72461540847E+02  0.69999961639E+02 0.  0.
         12    1    1    2    0    0  0.86646392102E+01 -0.18883531616E+01  0.16493587303E+02  0.18726459153E+02  0.00000000000E+00 0. -1.
         11    1    3    3    0    0 -0.55408343206E+00 -0.83785502327E+01 -0.23748254868E+01  0.87262196171E+01  0.51100000000E-03 0. -1.
        -11    1    3    3    0    0 -0.38460188158E+01 -0.24947999928E+02  0.79566735313E+00  0.25255249908E+02  0.51100000000E-03 0.  1.
         12    1    3    3    0    0 -0.42645369624E+01  0.35214903322E+02 -0.14914429169E+02  0.38480071322E+02  0.00000000000E+00 0. -1.
</event>
<event>
 7    1  0.3027254E-013  0.7246155E+02  0.7816164E-02  0.1226708E+00
        -11   -1    0    0    0    0  0.00000000000E+00  0.00000000000E+00  0.45593999997E+02  0.45594000000E+02  0.51100000000E-03 0. -1.
         11   -1    0    0    0    0 -0.00000000000E+00 -0.00000000000E+00 -0.45593999997E+02  0.45594000000E+02  0.51100000000E-03 0.  1.
    9900012    2    1    2    0    0 -0.75769604693E+01  0.35615477476E+01 -0.16750673983E+02  0.72461547287E+02  0.69999970029E+02 0.  0.
         12    1    1    2    0    0  0.75769604693E+01 -0.35615477476E+01  0.16750673983E+02  0.18726452713E+02  0.00000000000E+00 0. -1.
         11    1    3    3    0    0 -0.32690789629E+02 -0.83499082295E+01  0.15699729881E+01  0.33776819113E+02  0.51100000000E-03 0. -1.
        -11    1    3    3    0    0  0.14815358821E+02  0.54248365327E+01  0.10450936637E+01  0.15811892025E+02  0.51100000000E-03 0.  1.
        -12    1    3    3    0    0  0.10298470338E+02  0.64866194444E+01 -0.19365740635E+02  0.22872836148E+02  0.00000000000E+00 0.  1.
</event>
<event>
 7    1  0.3027254E-013  0.7246147E+02  0.7816164E-02  0.1226708E+00
        -11   -1    0    0    0    0  0.00000000000E+00  0.00000000000E+00  0.45593999997E+02  0.45594000000E+02  0.51100000000E-03 0. -1.
         11   -1    0    0    0    0 -0.00000000000E+00 -0.00000000000E+00 -0.45593999997E+02  0.45594000000E+02  0.51100000000E-03 0.  1.
    9900012    2    1    2    0    0  0.10008936369E+02 -0.63005667774E+01 -0.14519199011E+02  0.72461465647E+02  0.69999863677E+02 0.  0.
         12    1    1    2    0    0 -0.10008936369E+02  0.63005667774E+01  0.14519199011E+02  0.18726534353E+02  0.00000000000E+00 0. -1.
         11    1    3    3    0    0  0.15129434040E+02 -0.35703387062E+01 -0.30420894793E+01  0.15839867471E+02  0.51100000000E-03 0. -1.
        -11    1    3    3    0    0  0.23717863283E+02  0.45384119164E+01 -0.11805657248E+02  0.26879504548E+02  0.51100000000E-03 0.  1.
         12    1    3    3    0    0 -0.28838360954E+02 -0.72686399876E+01  0.32854771591E+00  0.29742093628E+02  0.00000000000E+00 0. -1.
</event>
<event>
 7    1  0.3027254E-013  0.7246153E+02  0.7816164E-02  0.1226708E+00
        -11   -1    0    0    0    0  0.00000000000E+00  0.00000000000E+00  0.45593999997E+02  0.45594000000E+02  0.51100000000E-03 0.  1.
         11   -1    0    0    0    0 -0.00000000000E+00 -0.00000000000E+00 -0.45593999997E+02  0.45594000000E+02  0.51100000000E-03 0. -1.
    9900012    2    1    2    0    0  0.76519408275E+01  0.15143480761E+02  0.79248542233E+01  0.72461534171E+02  0.69999952942E+02 0.  0.
         12    1    1    2    0    0 -0.76519408275E+01 -0.15143480761E+02 -0.79248542233E+01  0.18726465829E+02  0.00000000000E+00 0. -1.
         11    1    3    3    0    0  0.98661605515E+01 -0.22640795908E+01 -0.93711142072E+01  0.13794381544E+02  0.51100000000E-03 0.  1.
        -11    1    3    3    0    0  0.99508572230E+01  0.45627620315E+01 -0.16917484374E+02  0.20150425172E+02  0.51100000000E-03 0. -1.
        -12    1    3    3    0    0 -0.12165076947E+02  0.12844798321E+02  0.34213452804E+02  0.38516727455E+02  0.00000000000E+00 0.  1.
</event>
<event>
 7    1  0.3027254E-013  0.7246159E+02  0.7816164E-02  0.1226708E+00
        -11   -1    0    0    0    0  0.00000000000E+00  0.00000000000E+00  0.45593999997E+02  0.45594000000E+02  0.51100000000E-03 0.  1.
         11   -1    0    0    0    0 -0.00000000000E+00 -0.00000000000E+00 -0.45593999997E+02  0.45594000000E+02  0.51100000000E-03 0. -1.
    9900012    2    1    2    0    0  0.10217270320E+02 -0.27404983550E+01  0.15452364326E+02  0.72461587976E+02  0.70000023034E+02 0.  0.
         12    1    1    2    0    0 -0.10217270320E+02  0.27404983550E+01 -0.15452364326E+02  0.18726412024E+02  0.00000000000E+00 0. -1.
         11    1    3    3    0    0 -0.21617173514E+02  0.55877036316E+01 -0.45578795731E+01  0.22788130443E+02  0.51100000000E-03 0. -1.
        -11    1    3    3    0    0  0.25266109176E+01  0.85635616004E+01  0.11918473689E+02  0.14891889247E+02  0.51100000000E-03 0.  1.
        -12    1    3    3    0    0  0.29307832917E+02 -0.16891763587E+02  0.80917702099E+01  0.34781568287E+02  0.00000000000E+00 0.  1.
</event>
<event>
 7    1  0.3027254E-013  0.7246152E+02  0.7816164E-02  0.1226708E+00
        -11   -1    0    0    0    0  0.00000000000E+00  0.00000000000E+00  0.45593999997E+02  0.45594000000E+02  0.51100000000E-03 0.  1.
         11   -1    0    0    0    0 -0.00000000000E+00 -0.00000000000E+00 -0.45593999997E+02  0.45594000000E+02  0.51100000000E-03 0. -1.
    9900012    2    1    2    0    0 -0.18552181686E+02  0.56238957648E+00  0.24861912346E+01  0.72461524779E+02  0.69999940707E+02 0.  0.
         12    1    1    2    0    0  0.18552181686E+02 -0.56238957648E+00 -0.24861912346E+01  0.18726475221E+02  0.00000000000E+00 0. -1.
         11    1    3    3    0    0 -0.17453622592E+02 -0.14788352725E+02 -0.62354619864E+01  0.23710868907E+02  0.51100000000E-03 0. -1.
        -11    1    3    3    0    0 -0.18411927752E+02 -0.34911284113E+01  0.12999175604E+02  0.22807139842E+02  0.51100000000E-03 0.  1.
        -12    1    3    3    0    0  0.17313368658E+02  0.18841870713E+02 -0.42775223826E+01  0.25943516029E+02  0.00000000000E+00 0.  1.
</event>
<event>
 7    1  0.3027254E-013  0.7246156E+02  0.7816164E-02  0.1226708E+00
        -11   -1    0    0    0    0  0.00000000000E+00  0.00000000000E+00  0.45593999997E+02  0.45594000000E+02  0.51100000000E-03 0.  1.
         11   -1    0    0    0    0 -0.00000000000E+00 -0.00000000000E+00 -0.45593999997E+02  0.45594000000E+02  0.51100000000E-03 0. -1.
    9900012    2    1    2    0    0  0.11139884202E+02 -0.15000394452E+02  0.12533383654E+01  0.72461555842E+02  0.69999981173E+02 0.  0.
         12    1    1    2    0    0 -0.11139884202E+02  0.15000394452E+02 -0.12533383654E+01  0.18726444158E+02  0.00000000000E+00 0. -1.
         11    1    3    3    0    0  0.32942140796E+02  0.97910427493E+00  0.30990625809E+01  0.33102076589E+02  0.51100000000E-03 0. -1.
        -11    1    3    3    0    0  0.38288216920E+01  0.21170876730E+01  0.56057669536E+01  0.71110167461E+01  0.51100000000E-03 0.  1.
        -12    1    3    3    0    0 -0.25631078285E+02 -0.18096586400E+02 -0.74514911691E+01  0.32248462506E+02  0.00000000000E+00 0.  1.
</event>
<event>
 7    1  0.3027254E-013  0.7246154E+02  0.7816164E-02  0.1226708E+00
        -11   -1    0    0    0    0  0.00000000000E+00  0.00000000000E+00  0.45593999997E+02  0.45594000000E+02  0.51100000000E-03 0.  1.
         11   -1    0    0    0    0 -0.00000000000E+00 -0.00000000000E+00 -0.45593999997E+02  0.45594000000E+02  0.51100000000E-03 0. -1.
    9900012    2    1    2    0    0  0.15734261478E+02 -0.22308762411E+01  0.99063939300E+01  0.72461536539E+02  0.69999956028E+02 0.  0.
         12    1    1    2    0    0 -0.15734261478E+02  0.22308762411E+01 -0.99063939300E+01  0.18726463461E+02  0.00000000000E+00 0. -1.
         11    1    3    3    0    0  0.24083976548E+02  0.44850775231E+01 -0.40090879491E+01  0.24823912528E+02  0.51100000000E-03 0. -1.
        -11    1    3    3    0    0  0.17371115734E+02  0.16706283836E+01  0.54351229302E+00  0.17459727000E+02  0.51100000000E-03 0.  1.
        -12    1    3    3    0    0 -0.25720830805E+02 -0.83865821477E+01  0.13371969586E+02  0.30177897011E+02  0.00000000000E+00 0.  1.
</event>
<event>
 7    1  0.3214844E-013  0.7246161E+02  0.7816164E-02  0.1226708E+00
        -11   -1    0    0    0    0  0.00000000000E+00  0.00000000000E+00  0.45593999997E+02  0.45594000000E+02  0.51100000000E-03 0. -1.
         11   -1    0    0    0    0 -0.00000000000E+00 -0.00000000000E+00 -0.45593999997E+02  0.45594000000E+02  0.51100000000E-03 0.  1.
    9900012    2    1    2    0    0 -0.11705710570E+02 -0.74118744562E+01 -0.12598341258E+02  0.72461608320E+02  0.70000049535E+02 0.  0.
         12    1    1    2    0    0  0.11705710570E+02  0.74118744562E+01  0.12598341258E+02  0.18726391680E+02  0.00000000000E+00 0. -1.
         11    1    3    3    0    0 -0.28009614996E+02 -0.16377457681E+02  0.65366478172E+01  0.33098148246E+02  0.51100000000E-03 0. -1.
        -11    1    3    3    0    0  0.36747530768E+01 -0.70137126589E+01  0.37213722508E+01  0.87489763474E+01  0.51100000000E-03 0.  1.
        -12    1    3    3    0    0  0.12629151350E+02  0.15979295884E+02 -0.22856361326E+02  0.30614483726E+02  0.00000000000E+00 0.  1.
</event>
<event>
 7    1  0.3027254E-013  0.7246157E+02  0.7816164E-02  0.1226708E+00
        -11   -1    0    0    0    0  0.00000000000E+00  0.00000000000E+00  0.45593999997E+02  0.45594000000E+02  0.51100000000E-03 0.  1.
         11   -1    0    0    0    0 -0.00000000000E+00 -0.00000000000E+00 -0.45593999997E+02  0.45594000000E+02  0.51100000000E-03 0. -1.
    9900012    2    1    2    0    0 -0.72838269099E+01 -0.47927409124E+01  0.16572706349E+02  0.72461572267E+02  0.70000002570E+02 0.  0.
         12    1    1    2    0    0  0.72838269099E+01  0.47927409124E+01 -0.16572706349E+02  0.18726427733E+02  0.00000000000E+00 0. -1.
         11    1    3    3    0    0 -0.36533789931E+01 -0.24286990877E+02 -0.40505298943E+01  0.24892004672E+02  0.51100000000E-03 0. -1.
        -11    1    3    3    0    0 -0.17700079385E+02  0.94810897702E+01  0.22549161100E+02  0.30193518179E+02  0.51100000000E-03 0.  1.
         12    1    3    3    0    0  0.14069631468E+02  0.10013160194E+02 -0.19259248565E+01  0.17376049415E+02  0.00000000000E+00 0. -1.
</event>
<event>
 7    1  0.3027254E-013  0.7246150E+02  0.7816164E-02  0.1226708E+00
        -11   -1    0    0    0    0  0.00000000000E+00  0.00000000000E+00  0.45593999997E+02  0.45594000000E+02  0.51100000000E-03 0.  1.
         11   -1    0    0    0    0 -0.00000000000E+00 -0.00000000000E+00 -0.45593999997E+02  0.45594000000E+02  0.51100000000E-03 0. -1.
    9900012    2    1    2    0    0  0.44331377623E+01 -0.62311014356E+01  0.17093930173E+02  0.72461500480E+02  0.69999909054E+02 0.  0.
         12    1    1    2    0    0 -0.44331377623E+01  0.62311014356E+01 -0.17093930173E+02  0.18726499520E+02  0.00000000000E+00 0. -1.
         11    1    3    3    0    0 -0.17699782557E+01 -0.14858590411E+02 -0.19688941584E+02  0.24729839324E+02  0.51100000000E-03 0. -1.
        -11    1    3    3    0    0 -0.86113880554E+00 -0.10514337882E+01 -0.45230243493E+01  0.47227981726E+01  0.51100000000E-03 0.  1.
        -12    1    3    3    0    0  0.70642548236E+01  0.96789227634E+01  0.41305896106E+02  0.43008862984E+02  0.00000000000E+00 0.  1.
</event>
<event>
 7    1  0.3027254E-013  0.7246089E+02  0.7816164E-02  0.1226710E+00
        -11   -1    0    0    0    0  0.00000000000E+00  0.00000000000E+00  0.45593999997E+02  0.45594000000E+02  0.51100000000E-03 0.  1.
         11   -1    0    0    0    0 -0.00000000000E+00 -0.00000000000E+00 -0.45593999997E+02  0.45594000000E+02  0.51100000000E-03 0. -1.
    9900012    2    1    2    0    0 -0.11243947099E+02 -0.11364480442E+02  0.97532973230E+01  0.72460892088E+02  0.69999116505E+02 0.  0.
         12    1    1    2    0    0  0.11243947099E+02  0.11364480442E+02 -0.97532973230E+01  0.18727107912E+02  0.00000000000E+00 0. -1.
         11    1    3    3    0    0  0.18177826479E+02  0.53578872799E+01 -0.87963420480E+01  0.20892964493E+02  0.51100000000E-03 0. -1.
        -11    1    3    3    0    0 -0.71713622995E+00 -0.15266681872E+02 -0.30876349145E+01  0.15592284931E+02  0.51100000000E-03 0.  1.
        -12    1    3    3    0    0 -0.28704637348E+02 -0.14556858501E+01  0.21637274285E+02  0.35975642664E+02  0.00000000000E+00 0.  1.
</event>
<event>
 7    1  0.3027254E-013  0.7246166E+02  0.7816164E-02  0.1226708E+00
        -11   -1    0    0    0    0  0.00000000000E+00  0.00000000000E+00  0.45593999997E+02  0.45594000000E+02  0.51100000000E-03 0.  1.
         11   -1    0    0    0    0 -0.00000000000E+00 -0.00000000000E+00 -0.45593999997E+02  0.45594000000E+02  0.51100000000E-03 0. -1.
    9900012    2    1    2    0    0  0.98403011907E+01  0.10616133641E+02  0.11880317526E+02  0.72461661182E+02  0.70000118398E+02 0.  0.
         12    1    1    2    0    0 -0.98403011907E+01 -0.10616133641E+02 -0.11880317526E+02  0.18726338818E+02  0.00000000000E+00 0. -1.
         11    1    3    3    0    0 -0.56672871799E+00  0.84186011984E+01 -0.20740126816E+02  0.22390776856E+02  0.51100000000E-03 0. -1.
        -11    1    3    3    0    0 -0.25728211962E+01  0.11734820479E+02 -0.17243900089E+01  0.12136677541E+02  0.51100000000E-03 0.  1.
        -12    1    3    3    0    0  0.12979851105E+02 -0.95372880367E+01  0.34344834351E+02  0.37934206785E+02  0.00000000000E+00 0.  1.
</event>
<event>
 7    1  0.3027254E-013  0.7246159E+02  0.7816164E-02  0.1226708E+00
        -11   -1    0    0    0    0  0.00000000000E+00  0.00000000000E+00  0.45593999997E+02  0.45594000000E+02  0.51100000000E-03 0. -1.
         11   -1    0    0    0    0 -0.00000000000E+00 -0.00000000000E+00 -0.45593999997E+02  0.45594000000E+02  0.51100000000E-03 0.  1.
    9900012    2    1    2    0    0  0.81452157819E+01  0.15923748783E+02  0.55469069952E+01  0.72461588367E+02  0.70000023543E+02 0.  0.
         12    1    1    2    0    0 -0.81452157819E+01 -0.15923748783E+02 -0.55469069952E+01  0.18726411633E+02  0.00000000000E+00 0. -1.
         11    1    3    3    0    0 -0.12879366977E+02  0.49641374630E+01  0.21574356343E+02  0.25611981696E+02  0.51100000000E-03 0. -1.
        -11    1    3    3    0    0  0.16888515521E+02  0.16110132955E+02  0.57954896310E+01  0.24048826180E+02  0.51100000000E-03 0.  1.
        -12    1    3    3    0    0  0.41360672380E+01 -0.51505216350E+01 -0.21822938979E+02  0.22800780491E+02  0.00000000000E+00 0.  1.
</event>
<event>
 7    1  0.3027254E-013  0.7246151E+02  0.7816164E-02  0.1226708E+00
        -11   -1    0    0    0    0  0.00000000000E+00  0.00000000000E+00  0.45593999997E+02  0.45594000000E+02  0.51100000000E-03 0. -1.
         11   -1    0    0    0    0 -0.00000000000E+00 -0.00000000000E+00 -0.45593999997E+02  0.45594000000E+02  0.51100000000E-03 0.  1.
    9900012    2    1    2    0    0 -0.20678831884E+01  0.15823298096E+02  0.97994207987E+01  0.72461506695E+02  0.69999917150E+02 0.  0.
         12    1    1    2    0    0  0.20678831884E+01 -0.15823298096E+02 -0.97994207987E+01  0.18726493305E+02  0.00000000000E+00 0. -1.
         11    1    3    3    0    0  0.11904862369E+02  0.20658320958E+02  0.46976959500E+01  0.24301446877E+02  0.51100000000E-03 0. -1.
        -11    1    3    3    0    0 -0.18663626380E+02  0.49425334717E+01 -0.15578929614E+02  0.24808519402E+02  0.51100000000E-03 0.  1.
        -12    1    3    3    0    0  0.46908808225E+01 -0.97775563335E+01  0.20680654463E+02  0.23351540415E+02  0.00000000000E+00 0.  1.
</event>
<event>
 7    1  0.3027254E-013  0.7246154E+02  0.7816164E-02  0.1226708E+00
        -11   -1    0    0    0    0  0.00000000000E+00  0.00000000000E+00  0.45593999997E+02  0.45594000000E+02  0.51100000000E-03 0.  1.
         11   -1    0    0    0    0 -0.00000000000E+00 -0.00000000000E+00 -0.45593999997E+02  0.45594000000E+02  0.51100000000E-03 0. -1.
    9900012    2    1    2    0    0  0.23273354196E+01  0.67894420921E+01 -0.17296452853E+02  0.72461540234E+02  0.69999960841E+02 0.  0.
         12    1    1    2    0    0 -0.23273354196E+01 -0.67894420921E+01  0.17296452853E+02  0.18726459766E+02  0.00000000000E+00 0. -1.
         11    1    3    3    0    0  0.13637850475E+02 -0.14450624212E+01 -0.43855767777E+01  0.14398349034E+02  0.51100000000E-03 0. -1.
        -11    1    3    3    0    0  0.15544590393E+02  0.99257184245E+01  0.11497705951E+02  0.21733647166E+02  0.51100000000E-03 0.  1.
         12    1    3    3    0    0 -0.26855105449E+02 -0.16912139111E+01 -0.24408582026E+02  0.36329544034E+02  0.00000000000E+00 0. -1.
</event>
<event>
 7    1  0.3027254E-013  0.7246161E+02  0.7816164E-02  0.1226708E+00
        -11   -1    0    0    0    0  0.00000000000E+00  0.00000000000E+00  0.45593999997E+02  0.45594000000E+02  0.51100000000E-03 0.  1.
         11   -1    0    0    0    0 -0.00000000000E+00 -0.00000000000E+00 -0.45593999997E+02  0.45594000000E+02  0.51100000000E-03 0. -1.
    9900012    2    1    2    0    0  0.52173882916E+01  0.14606895062E+02 -0.10492623948E+02  0.72461610031E+02  0.70000051765E+02 0.  0.
         12    1    1    2    0    0 -0.52173882916E+01 -0.14606895062E+02  0.10492623948E+02  0.18726389969E+02  0.00000000000E+00 0. -1.
         11    1    3    3    0    0 -0.14118236168E+02 -0.29711018839E+01  0.72806812331E+01  0.16160456626E+02  0.51100000000E-03 0. -1.
        -11    1    3    3    0    0 -0.16776185018E+01  0.33207380079E+01 -0.28495132648E+02  0.28736984700E+02  0.51100000000E-03 0.  1.
        -12    1    3    3    0    0  0.21013242961E+02  0.14257258938E+02  0.10721827466E+02  0.27564168705E+02  0.00000000000E+00 0.  1.
</event>
<event>
 7    1  0.3027254E-013  0.7246156E+02  0.7816164E-02  0.1226708E+00
        -11   -1    0    0    0    0  0.00000000000E+00  0.00000000000E+00  0.45593999997E+02  0.45594000000E+02  0.51100000000E-03 0.  1.
         11   -1    0    0    0    0 -0.00000000000E+00 -0.00000000000E+00 -0.45593999997E+02  0.45594000000E+02  0.51100000000E-03 0. -1.
    9900012    2    1    2    0    0  0.11392455294E+02 -0.18067105579E+01  0.14752192014E+02  0.72461563877E+02  0.69999991640E+02 0.  0.
         12    1    1    2    0    0 -0.11392455294E+02  0.18067105579E+01 -0.14752192014E+02  0.18726436123E+02  0.00000000000E+00 0. -1.
         11    1    3    3    0    0  0.36387579675E+01  0.41474770146E+01  0.78713526507E+01  0.96125084107E+01  0.51100000000E-03 0. -1.
        -11    1    3    3    0    0  0.23043925709E+02  0.12465602764E+02  0.22273911345E+02  0.34388092288E+02  0.51100000000E-03 0.  1.
         12    1    3    3    0    0 -0.15290228382E+02 -0.18419790336E+02 -0.15393071982E+02  0.28460963178E+02  0.00000000000E+00 0. -1.
</event>
<event>
 7    1  0.3027254E-013  0.7246155E+02  0.7816164E-02  0.1226708E+00
        -11   -1    0    0    0    0  0.00000000000E+00  0.00000000000E+00  0.45593999997E+02  0.45594000000E+02  0.51100000000E-03 0.  1.
         11   -1    0    0    0    0 -0.00000000000E+00 -0.00000000000E+00 -0.45593999997E+02  0.45594000000E+02  0.51100000000E-03 0. -1.
    9900012    2    1    2    0    0  0.11121155184E+02 -0.12920144208E+02  0.77504644658E+01  0.72461550298E+02  0.69999973951E+02 0.  0.
         12    1    1    2    0    0 -0.11121155184E+02  0.12920144208E+02 -0.77504644658E+01  0.18726449702E+02  0.00000000000E+00 0. -1.
         11    1    3    3    0    0 -0.10531591090E+02 -0.11021273392E+02 -0.26204993096E+01  0.15467704903E+02  0.51100000000E-03 0. -1.
        -11    1    3    3    0    0 -0.89669851954E+01  0.78883482607E+01  0.20123972448E+02  0.23401007011E+02  0.51100000000E-03 0.  1.
         12    1    3    3    0    0  0.30619731470E+02 -0.97872190770E+01 -0.97530086731E+01  0.33592838384E+02  0.00000000000E+00 0. -1.
</event>
<event>
 7    1  0.3027254E-013  0.7246140E+02  0.7816164E-02  0.1226708E+00
        -11   -1    0    0    0    0  0.00000000000E+00  0.00000000000E+00  0.45593999997E+02  0.45594000000E+02  0.51100000000E-03 0.  1.
         11   -1    0    0    0    0 -0.00000000000E+00 -0.00000000000E+00 -0.45593999997E+02  0.45594000000E+02  0.51100000000E-03 0. -1.
    9900012    2    1    2    0    0  0.15032145632E+02 -0.88482677729E+01 -0.68138237678E+01  0.72461402893E+02  0.69999781928E+02 0.  0.
         12    1    1    2    0    0 -0.15032145632E+02  0.88482677729E+01  0.68138237678E+01  0.18726597107E+02  0.00000000000E+00 0. -1.
         11    1    3    3    0    0 -0.18648823257E+01  0.53456034187E+01 -0.35532093438E+01  0.66842021888E+01  0.51100000000E-03 0. -1.
        -11    1    3    3    0    0  0.38345090525E+02 -0.20205738095E+02 -0.36760531410E+01  0.43498634303E+02  0.51100000000E-03 0.  1.
         12    1    3    3    0    0 -0.21448062567E+02  0.60118669029E+01  0.41543871699E+00  0.22278566400E+02  0.00000000000E+00 0. -1.
</event>
<event>
 7    1  0.3027254E-013  0.7246156E+02  0.7816164E-02  0.1226708E+00
        -11   -1    0    0    0    0  0.00000000000E+00  0.00000000000E+00  0.45593999997E+02  0.45594000000E+02  0.51100000000E-03 0. -1.
         11   -1    0    0    0    0 -0.00000000000E+00 -0.00000000000E+00 -0.45593999997E+02  0.45594000000E+02  0.51100000000E-03 0.  1.
    9900012    2    1    2    0    0  0.44215697832E+00 -0.16616802878E+02 -0.86235714864E+01  0.72461558110E+02  0.69999984128E+02 0.  0.
         12    1    1    2    0    0 -0.44215697832E+00  0.16616802878E+02  0.86235714864E+01  0.18726441890E+02  0.00000000000E+00 0. -1.
         11    1    3    3    0    0  0.42163363169E+00 -0.10924544108E+02  0.79685887481E+01  0.13528556678E+02  0.51100000000E-03 0. -1.
        -11    1    3    3    0    0  0.16144833749E+02 -0.25838459273E+02 -0.11880210387E+02  0.32702003509E+02  0.51100000000E-03 0.  1.
         12    1    3    3    0    0 -0.16124310403E+02  0.20146200503E+02 -0.47119498480E+01  0.26230997923E+02  0.00000000000E+00 0. -1.
</event>
<event>
 7    1  0.3027254E-013  0.7246150E+02  0.7816164E-02  0.1226708E+00
        -11   -1    0    0    0    0  0.00000000000E+00  0.00000000000E+00  0.45593999997E+02  0.45594000000E+02  0.51100000000E-03 0. -1.
         11   -1    0    0    0    0 -0.00000000000E+00 -0.00000000000E+00 -0.45593999997E+02  0.45594000000E+02  0.51100000000E-03 0.  1.
    9900012    2    1    2    0    0  0.48979424261E+01  0.11705783607E+02 -0.13771947745E+02  0.72461501274E+02  0.69999910088E+02 0.  0.
         12    1    1    2    0    0 -0.48979424261E+01 -0.11705783607E+02  0.13771947745E+02  0.18726498726E+02  0.00000000000E+00 0. -1.
         11    1    3    3    0    0  0.13800826601E+02  0.29961277779E+02 -0.15636859378E+02  0.36505511262E+02  0.51100000000E-03 0. -1.
        -11    1    3    3    0    0  0.60752785083E+00  0.31279442912E+01 -0.94416857823E+01  0.99648660930E+01  0.51100000000E-03 0.  1.
        -12    1    3    3    0    0 -0.95104120254E+01 -0.21383438463E+02  0.11306597416E+02  0.25991123918E+02  0.00000000000E+00 0.  1.
</event>
<event>
 7    1  0.3027254E-013  0.7246156E+02  0.7816164E-02  0.1226708E+00
        -11   -1    0    0    0    0  0.00000000000E+00  0.00000000000E+00  0.45593999997E+02  0.45594000000E+02  0.51100000000E-03 0.  1.
         11   -1    0    0    0    0 -0.00000000000E+00 -0.00000000000E+00 -0.45593999997E+02  0.45594000000E+02  0.51100000000E-03 0. -1.
    9900012    2    1    2    0    0  0.55903872979E+01  0.75907104125E+01  0.16180494437E+02  0.72461555732E+02  0.69999981029E+02 0.  0.
         12    1    1    2    0    0 -0.55903872979E+01 -0.75907104125E+01 -0.16180494437E+02  0.18726444268E+02  0.00000000000E+00 0. -1.
         11    1    3    3    0    0  0.15286041676E+02 -0.94884703221E+01  0.36619252807E+01  0.18360387692E+02  0.51100000000E-03 0. -1.
        -11    1    3    3    0    0  0.10100740004E+02  0.11255463711E+01  0.24105679990E+02  0.26160573604E+02  0.51100000000E-03 0.  1.
        -12    1    3    3    0    0 -0.19796394382E+02  0.15953634363E+02 -0.11587110834E+02  0.27940594435E+02  0.00000000000E+00 0.  1.
</event>
<event>
 7    1  0.3027254E-013  0.7246169E+02  0.7816164E-02  0.1226708E+00
        -11   -1    0    0    0    0  0.00000000000E+00  0.00000000000E+00  0.45593999997E+02  0.45594000000E+02  0.51100000000E-03 0. -1.
         11   -1    0    0    0    0 -0.00000000000E+00 -0.00000000000E+00 -0.45593999997E+02  0.45594000000E+02  0.51100000000E-03 0.  1.
    9900012    2    1    2    0    0 -0.82724920760E+01 -0.12963351722E+02 -0.10686065331E+02  0.72461692161E+02  0.70000158754E+02 0.  0.
         12    1    1    2    0    0  0.82724920760E+01  0.12963351722E+02  0.10686065331E+02  0.18726307839E+02  0.00000000000E+00 0. -1.
         11    1    3    3    0    0  0.41388848760E+01 -0.17641708591E+01 -0.15281151124E+01  0.47516105580E+01  0.51100000000E-03 0. -1.
        -11    1    3    3    0    0 -0.51185689416E+01 -0.77966012831E+01 -0.37295670584E+02  0.38444164501E+02  0.51100000000E-03 0.  1.
         12    1    3    3    0    0 -0.72928080105E+01 -0.34025795795E+01  0.28137720365E+02  0.29265917102E+02  0.00000000000E+00 0. -1.
</event>
<event>
 7    1  0.3027254E-013  0.7246149E+02  0.7816164E-02  0.1226708E+00
        -11   -1    0    0    0    0  0.00000000000E+00  0.00000000000E+00  0.45593999997E+02  0.45594000000E+02  0.51100000000E-03 0. -1.
         11   -1    0    0    0    0 -0.00000000000E+00 -0.00000000000E+00 -0.45593999997E+02  0.45594000000E+02  0.51100000000E-03 0.  1.
    9900012    2    1    2    0    0 -0.15738389006E+02  0.30846156794E+01 -0.96680034563E+01  0.72461493833E+02  0.69999900395E+02 0.  0.
         12    1    1    2    0    0  0.15738389006E+02 -0.30846156794E+01  0.96680034563E+01  0.18726506167E+02  0.00000000000E+00 0. -1.
         11    1    3    3    0    0  0.10131415613E+02 -0.21876389381E+02 -0.21487652381E+01  0.24204115083E+02  0.51100000000E-03 0. -1.
        -11    1    3    3    0    0 -0.56648413297E+01 -0.75132085258E+01 -0.19115017260E+01  0.96016961393E+01  0.51100000000E-03 0.  1.
        -12    1    3    3    0    0 -0.20204963289E+02  0.32474213586E+02 -0.56077364922E+01  0.38655682611E+02  0.00000000000E+00 0.  1.
</event>
<event>
 7    1  0.3027254E-013  0.7246163E+02  0.7816164E-02  0.1226708E+00
        -11   -1    0    0    0    0  0.00000000000E+00  0.00000000000E+00  0.45593999997E+02  0.45594000000E+02  0.51100000000E-03 0.  1.
         11   -1    0    0    0    0 -0.00000000000E+00 -0.00000000000E+00 -0.45593999997E+02  0.45594000000E+02  0.51100000000E-03 0. -1.
    9900012    2    1    2    0    0  0.20256807886E+01 -0.12495985488E+02  0.13799415768E+02  0.72461630583E+02  0.70000078538E+02 0.  0.
         12    1    1    2    0    0 -0.20256807886E+01  0.12495985488E+02 -0.13799415768E+02  0.18726369417E+02  0.00000000000E+00 0. -1.
         11    1    3    3    0    0 -0.15320242869E+02 -0.20442324619E+02  0.15829447141E+02  0.30052784803E+02  0.51100000000E-03 0. -1.
        -11    1    3    3    0    0 -0.80130553104E+00  0.16488542250E+02  0.97261917880E+01  0.19160191102E+02  0.51100000000E-03 0.  1.
         12    1    3    3    0    0  0.18147229188E+02 -0.85422031194E+01 -0.11756223161E+02  0.23248654678E+02  0.00000000000E+00 0. -1.
</event>
<event>
 7    1  0.3027254E-013  0.7246146E+02  0.7816164E-02  0.1226708E+00
        -11   -1    0    0    0    0  0.00000000000E+00  0.00000000000E+00  0.45593999997E+02  0.45594000000E+02  0.51100000000E-03 0.  1.
         11   -1    0    0    0    0 -0.00000000000E+00 -0.00000000000E+00 -0.45593999997E+02  0.45594000000E+02  0.51100000000E-03 0. -1.
    9900012    2    1    2    0    0 -0.70404386871E+01 -0.68363931903E+01 -0.15949274212E+02  0.72461457430E+02  0.69999852973E+02 0.  0.
         12    1    1    2    0    0  0.70404386871E+01  0.68363931903E+01  0.15949274212E+02  0.18726542570E+02  0.00000000000E+00 0. -1.
         11    1    3    3    0    0 -0.13290869002E+02  0.12384612916E+02  0.14183664015E+02  0.23047823348E+02  0.51100000000E-03 0. -1.
        -11    1    3    3    0    0 -0.38922828218E+01  0.34532472558E+01  0.44417082796E+01  0.68413123651E+01  0.51100000000E-03 0.  1.
        -12    1    3    3    0    0  0.10142713137E+02 -0.22674253362E+02 -0.34574646507E+02  0.42572321717E+02  0.00000000000E+00 0.  1.
</event>
<event>
 7    1  0.3027254E-013  0.7246159E+02  0.7816164E-02  0.1226708E+00
        -11   -1    0    0    0    0  0.00000000000E+00  0.00000000000E+00  0.45593999997E+02  0.45594000000E+02  0.51100000000E-03 0.  1.
         11   -1    0    0    0    0 -0.00000000000E+00 -0.00000000000E+00 -0.45593999997E+02  0.45594000000E+02  0.51100000000E-03 0. -1.
    9900012    2    1    2    0    0 -0.11129603225E+02 -0.79817001198E+01  0.12771175366E+02  0.72461587504E+02  0.70000022419E+02 0.  0.
         12    1    1    2    0    0  0.11129603225E+02  0.79817001198E+01 -0.12771175366E+02  0.18726412496E+02  0.00000000000E+00 0. -1.
         11    1    3    3    0    0 -0.12974926683E+02 -0.43446108621E+01  0.13403188097E+02  0.19153846021E+02  0.51100000000E-03 0.  1.
        -11    1    3    3    0    0  0.24374795508E+02 -0.13628450047E+02 -0.47299357123E+01  0.28323799160E+02  0.51100000000E-03 0. -1.
         12    1    3    3    0    0 -0.22529472050E+02  0.99913607893E+01  0.40979229816E+01  0.24983942324E+02  0.00000000000E+00 0. -1.
</event>
<event>
 7    1  0.3027254E-013  0.7246155E+02  0.7816164E-02  0.1226708E+00
        -11   -1    0    0    0    0  0.00000000000E+00  0.00000000000E+00  0.45593999997E+02  0.45594000000E+02  0.51100000000E-03 0.  1.
         11   -1    0    0    0    0 -0.00000000000E+00 -0.00000000000E+00 -0.45593999997E+02  0.45594000000E+02  0.51100000000E-03 0. -1.
    9900012    2    1    2    0    0 -0.74799210614E+01 -0.14750115438E+02 -0.87843519766E+01  0.72461549077E+02  0.69999972361E+02 0.  0.
         12    1    1    2    0    0  0.74799210614E+01  0.14750115438E+02  0.87843519766E+01  0.18726450923E+02  0.00000000000E+00 0. -1.
         11    1    3    3    0    0  0.56902331358E+01  0.66527472600E+01  0.60885157438E+01  0.10663387054E+02  0.51100000000E-03 0. -1.
        -11    1    3    3    0    0 -0.11707986101E+02  0.10171529976E+02 -0.24288056172E+02  0.28817470977E+02  0.51100000000E-03 0.  1.
        -12    1    3    3    0    0 -0.14621680957E+01 -0.31574392674E+02  0.94151884521E+01  0.32980691046E+02  0.00000000000E+00 0.  1.
</event>
<event>
 7    1  0.3027254E-013  0.7246151E+02  0.7816164E-02  0.1226708E+00
        -11   -1    0    0    0    0  0.00000000000E+00  0.00000000000E+00  0.45593999997E+02  0.45594000000E+02  0.51100000000E-03 0.  1.
         11   -1    0    0    0    0 -0.00000000000E+00 -0.00000000000E+00 -0.45593999997E+02  0.45594000000E+02  0.51100000000E-03 0. -1.
    9900012    2    1    2    0    0  0.51930428326E+01  0.49547211187E+01  0.17296371206E+02  0.72461510416E+02  0.69999921997E+02 0.  0.
         12    1    1    2    0    0 -0.51930428326E+01 -0.49547211187E+01 -0.17296371206E+02  0.18726489584E+02  0.00000000000E+00 0. -1.
         11    1    3    3    0    0  0.22791884722E+02 -0.22281274337E+02  0.74330995565E+01  0.32728827729E+02  0.51100000000E-03 0. -1.
        -11    1    3    3    0    0  0.33717956290E+01 -0.67999128900E+00 -0.40990465803E-01  0.34399236032E+01  0.51100000000E-03 0.  1.
        -12    1    3    3    0    0 -0.20970637518E+02  0.27915986745E+02  0.99042621157E+01  0.36292759084E+02  0.00000000000E+00 0.  1.
</event>
<event>
 7    1  0.3027254E-013  0.7246158E+02  0.7816164E-02  0.1226708E+00
        -11   -1    0    0    0    0  0.00000000000E+00  0.00000000000E+00  0.45593999997E+02  0.45594000000E+02  0.51100000000E-03 0.  1.
         11   -1    0    0    0    0 -0.00000000000E+00 -0.00000000000E+00 -0.45593999997E+02  0.45594000000E+02  0.51100000000E-03 0. -1.
    9900012    2    1    2    0    0  0.62657549408E+01  0.14323713767E+02 -0.10307773141E+02  0.72461584214E+02  0.70000018133E+02 0.  0.
         12    1    1    2    0    0 -0.62657549408E+01 -0.14323713767E+02  0.10307773141E+02  0.18726415786E+02  0.00000000000E+00 0. -1.
         11    1    3    3    0    0 -0.96119443616E+01 -0.11924549782E+02 -0.14553162136E+02  0.21127680667E+02  0.51100000000E-03 0. -1.
        -11    1    3    3    0    0 -0.27845989959E+01 -0.97913325036E+01 -0.16846786981E+01  0.10318058264E+02  0.51100000000E-03 0.  1.
        -12    1    3    3    0    0  0.18662298298E+02  0.36039596053E+02  0.59300676933E+01  0.41015845283E+02  0.00000000000E+00 0.  1.
</event>
<event>
 7    1  0.3027254E-013  0.7246159E+02  0.7816164E-02  0.1226708E+00
        -11   -1    0    0    0    0  0.00000000000E+00  0.00000000000E+00  0.45593999997E+02  0.45594000000E+02  0.51100000000E-03 0. -1.
         11   -1    0    0    0    0 -0.00000000000E+00 -0.00000000000E+00 -0.45593999997E+02  0.45594000000E+02  0.51100000000E-03 0.  1.
    9900012    2    1    2    0    0  0.91845600158E+01 -0.14457382067E+02 -0.75700995069E+01  0.72461589627E+02  0.70000025185E+02 0.  0.
         12    1    1    2    0    0 -0.91845600158E+01  0.14457382067E+02  0.75700995069E+01  0.18726410373E+02  0.00000000000E+00 0. -1.
         11    1    3    3    0    0 -0.52117140625E-01  0.72560781971E+01  0.83724978784E+01  0.11079355035E+02  0.51100000000E-03 0. -1.
        -11    1    3    3    0    0  0.29311786682E+02 -0.24567138848E+02 -0.57093214982E+01  0.38669387142E+02  0.51100000000E-03 0.  1.
         12    1    3    3    0    0 -0.20075109526E+02  0.28536785843E+01 -0.10233275887E+02  0.22712847451E+02  0.00000000000E+00 0. -1.
</event>
<event>
 7    1  0.3027254E-013  0.7246164E+02  0.7816164E-02  0.1226708E+00
        -11   -1    0    0    0    0  0.00000000000E+00  0.00000000000E+00  0.45593999997E+02  0.45594000000E+02  0.51100000000E-03 0. -1.
         11   -1    0    0    0    0 -0.00000000000E+00 -0.00000000000E+00 -0.45593999997E+02  0.45594000000E+02  0.51100000000E-03 0.  1.
    9900012    2    1    2    0    0 -0.49246781248E+01  0.14799938081E+02  0.10362715177E+02  0.72461641901E+02  0.70000093280E+02 0.  0.
         12    1    1    2    0    0  0.49246781248E+01 -0.14799938081E+02 -0.10362715177E+02  0.18726358099E+02  0.00000000000E+00 0. -1.
         11    1    3    3    0    0  0.36023284701E+00  0.19080742209E+02 -0.78395981066E+01  0.20631621111E+02  0.51100000000E-03 0. -1.
        -11    1    3    3    0    0 -0.22377500505E+02  0.78455775362E+01 -0.53334246668E+00  0.23718981221E+02  0.51100000000E-03 0.  1.
         12    1    3    3    0    0  0.17092589533E+02 -0.12126381664E+02  0.18735655750E+02  0.28111039568E+02  0.00000000000E+00 0. -1.
</event>
<event>
 7    1  0.3027254E-013  0.7246146E+02  0.7816164E-02  0.1226708E+00
        -11   -1    0    0    0    0  0.00000000000E+00  0.00000000000E+00  0.45593999997E+02  0.45594000000E+02  0.51100000000E-03 0.  1.
         11   -1    0    0    0    0 -0.00000000000E+00 -0.00000000000E+00 -0.45593999997E+02  0.45594000000E+02  0.51100000000E-03 0. -1.
    9900012    2    1    2    0    0 -0.13199284276E+02 -0.45270010900E+01  0.12488738191E+02  0.72461456649E+02  0.69999851956E+02 0.  0.
         12    1    1    2    0    0  0.13199284276E+02  0.45270010900E+01 -0.12488738191E+02  0.18726543351E+02  0.00000000000E+00 0. -1.
         11    1    3    3    0    0 -0.43734557659E+01 -0.10344808555E+02  0.13295414572E+01  0.11309724140E+02  0.51100000000E-03 0. -1.
        -11    1    3    3    0    0 -0.23708153718E+02 -0.19220189409E+02  0.95527435634E+01  0.31980418126E+02  0.51100000000E-03 0.  1.
         12    1    3    3    0    0  0.14882325208E+02  0.25037996874E+02  0.16064531708E+01  0.29171314384E+02  0.00000000000E+00 0. -1.
</event>
<event>
 7    1  0.3027254E-013  0.7246162E+02  0.7816164E-02  0.1226708E+00
        -11   -1    0    0    0    0  0.00000000000E+00  0.00000000000E+00  0.45593999997E+02  0.45594000000E+02  0.51100000000E-03 0.  1.
         11   -1    0    0    0    0 -0.00000000000E+00 -0.00000000000E+00 -0.45593999997E+02  0.45594000000E+02  0.51100000000E-03 0. -1.
    9900012    2    1    2    0    0 -0.16975224841E+02 -0.77278951306E+01 -0.16729098005E+01  0.72461621579E+02  0.70000066808E+02 0.  0.
         12    1    1    2    0    0  0.16975224841E+02  0.77278951306E+01  0.16729098005E+01  0.18726378421E+02  0.00000000000E+00 0. -1.
         11    1    3    3    0    0 -0.73913078868E+01 -0.51206758998E+01 -0.78755103793E+00  0.90262390200E+01  0.51100000000E-03 0. -1.
        -11    1    3    3    0    0 -0.14651159639E+02 -0.20617201485E+02  0.22246587219E+02  0.33684360154E+02  0.51100000000E-03 0.  1.
         12    1    3    3    0    0  0.50672426848E+01  0.18009982255E+02 -0.23131945981E+02  0.29751022405E+02  0.00000000000E+00 0. -1.
</event>
<event>
 7    1  0.3027254E-013  0.7246129E+02  0.7816164E-02  0.1226709E+00
        -11   -1    0    0    0    0  0.00000000000E+00  0.00000000000E+00  0.45593999997E+02  0.45594000000E+02  0.51100000000E-03 0.  1.
         11   -1    0    0    0    0 -0.00000000000E+00 -0.00000000000E+00 -0.45593999997E+02  0.45594000000E+02  0.51100000000E-03 0. -1.
    9900012    2    1    2    0    0  0.91475147500E+01  0.31387450076E+01  0.16036234437E+02  0.72461292835E+02  0.69999638557E+02 0.  0.
         12    1    1    2    0    0 -0.91475147500E+01 -0.31387450076E+01 -0.16036234437E+02  0.18726707165E+02  0.00000000000E+00 0. -1.
         11    1    3    3    0    0  0.24193528877E+01  0.12023099347E+02  0.77779284622E+01  0.14522546530E+02  0.51100000000E-03 0.  1.
        -11    1    3    3    0    0  0.68238247309E+00  0.74840961958E+01 -0.21868346739E+02  0.23123622793E+02  0.51100000000E-03 0. -1.
         12    1    3    3    0    0  0.60457793892E+01 -0.16368450535E+02  0.30126652714E+02  0.34815123511E+02  0.00000000000E+00 0. -1.
</event>
<event>
 7    1  0.3027254E-013  0.7246170E+02  0.7816164E-02  0.1226708E+00
        -11   -1    0    0    0    0  0.00000000000E+00  0.00000000000E+00  0.45593999997E+02  0.45594000000E+02  0.51100000000E-03 0. -1.
         11   -1    0    0    0    0 -0.00000000000E+00 -0.00000000000E+00 -0.45593999997E+02  0.45594000000E+02  0.51100000000E-03 0.  1.
    9900012    2    1    2    0    0 -0.91235791268E+01  0.12824040436E+02 -0.10147833828E+02  0.72461701898E+02  0.70000171439E+02 0.  0.
         12    1    1    2    0    0  0.91235791268E+01 -0.12824040436E+02  0.10147833828E+02  0.18726298102E+02  0.00000000000E+00 0. -1.
         11    1    3    3    0    0 -0.25850266674E+01 -0.63263911418E+01  0.21272220086E+02  0.22343073545E+02  0.51100000000E-03 0. -1.
        -11    1    3    3    0    0  0.64191056443E+01 -0.63609729543E+01 -0.23687211984E+01  0.93422553259E+01  0.51100000000E-03 0.  1.
        -12    1    3    3    0    0 -0.12957658104E+02  0.25511404532E+02 -0.29051332716E+02  0.40776373028E+02  0.00000000000E+00 0.  1.
</event>
<event>
 7    1  0.3027254E-013  0.7246159E+02  0.7816164E-02  0.1226708E+00
        -11   -1    0    0    0    0  0.00000000000E+00  0.00000000000E+00  0.45593999997E+02  0.45594000000E+02  0.51100000000E-03 0.  1.
         11   -1    0    0    0    0 -0.00000000000E+00 -0.00000000000E+00 -0.45593999997E+02  0.45594000000E+02  0.51100000000E-03 0. -1.
    9900012    2    1    2    0    0 -0.16269696162E+02 -0.82018710304E+01 -0.43248811278E+01  0.72461593554E+02  0.70000030301E+02 0.  0.
         12    1    1    2    0    0  0.16269696162E+02  0.82018710304E+01  0.43248811278E+01  0.18726406446E+02  0.00000000000E+00 0. -1.
         11    1    3    3    0    0 -0.47304141547E+01 -0.78130872275E+01 -0.32353159580E+01  0.96896036921E+01  0.51100000000E-03 0. -1.
        -11    1    3    3    0    0 -0.61528486812E+01 -0.21591337532E+02 -0.22767018537E+02  0.31974685872E+02  0.51100000000E-03 0.  1.
         12    1    3    3    0    0 -0.53864333258E+01  0.21202553729E+02  0.21677453367E+02  0.30797303990E+02  0.00000000000E+00 0. -1.
</event>
<event>
 7    1  0.3027254E-013  0.7246160E+02  0.7816164E-02  0.1226708E+00
        -11   -1    0    0    0    0  0.00000000000E+00  0.00000000000E+00  0.45593999997E+02  0.45594000000E+02  0.51100000000E-03 0. -1.
         11   -1    0    0    0    0 -0.00000000000E+00 -0.00000000000E+00 -0.45593999997E+02  0.45594000000E+02  0.51100000000E-03 0.  1.
    9900012    2    1    2    0    0  0.15189238354E+02 -0.10939183544E+02  0.54700756253E+00  0.72461603773E+02  0.70000043612E+02 0.  0.
         12    1    1    2    0    0 -0.15189238354E+02  0.10939183544E+02 -0.54700756253E+00  0.18726396227E+02  0.00000000000E+00 0. -1.
         11    1    3    3    0    0  0.19597688102E+02 -0.22040862959E+02 -0.18638777277E+02  0.34889440202E+02  0.51100000000E-03 0. -1.
        -11    1    3    3    0    0 -0.86315149944E+00 -0.87651344758E+00 -0.77677734673E+01  0.78645795333E+01  0.51100000000E-03 0.  1.
        -12    1    3    3    0    0 -0.35452982489E+01  0.11978192863E+02  0.26953558307E+02  0.29707584038E+02  0.00000000000E+00 0.  1.
</event>
<event>
 7    1  0.3027254E-013  0.7246176E+02  0.7816164E-02  0.1226708E+00
        -11   -1    0    0    0    0  0.00000000000E+00  0.00000000000E+00  0.45593999997E+02  0.45594000000E+02  0.51100000000E-03 0.  1.
         11   -1    0    0    0    0 -0.00000000000E+00 -0.00000000000E+00 -0.45593999997E+02  0.45594000000E+02  0.51100000000E-03 0. -1.
    9900012    2    1    2    0    0  0.10307092358E+02 -0.89485078353E+01  0.12820305459E+02  0.72461756986E+02  0.70000243200E+02 0.  0.
         12    1    1    2    0    0 -0.10307092358E+02  0.89485078353E+01 -0.12820305459E+02  0.18726243014E+02  0.00000000000E+00 0. -1.
         11    1    3    3    0    0 -0.10268171294E+02 -0.90714861049E+00  0.43604782322E+01  0.11192498872E+02  0.51100000000E-03 0. -1.
        -11    1    3    3    0    0  0.81738067337E+01 -0.21539656438E+02  0.26798639488E+02  0.35340274399E+02  0.51100000000E-03 0.  1.
         12    1    3    3    0    0  0.12401456918E+02  0.13498297213E+02 -0.18338812261E+02  0.25928983715E+02  0.00000000000E+00 0. -1.
</event>
<event>
 7    1  0.3674233E-013  0.7246155E+02  0.7816164E-02  0.1226708E+00
        -11   -1    0    0    0    0  0.00000000000E+00  0.00000000000E+00  0.45593999997E+02  0.45594000000E+02  0.51100000000E-03 0. -1.
         11   -1    0    0    0    0 -0.00000000000E+00 -0.00000000000E+00 -0.45593999997E+02  0.45594000000E+02  0.51100000000E-03 0.  1.
    9900012    2    1    2    0    0 -0.35723800980E+01 -0.72984253217E+01 -0.16871603064E+02  0.72461550745E+02  0.69999974533E+02 0.  0.
         12    1    1    2    0    0  0.35723800980E+01  0.72984253217E+01  0.16871603064E+02  0.18726449255E+02  0.00000000000E+00 0. -1.
         11    1    3    3    0    0 -0.14751354624E+01 -0.42437364179E+01  0.15063162354E+02  0.15718911660E+02  0.51100000000E-03 0. -1.
        -11    1    3    3    0    0 -0.28661549352E+01  0.48496524697E+01  0.11384193601E+02  0.12701725765E+02  0.51100000000E-03 0.  1.
        -12    1    3    3    0    0  0.76891029958E+00 -0.79043413735E+01 -0.43318959019E+02  0.44040913320E+02  0.00000000000E+00 0.  1.
</event>
<event>
 7    1  0.3027254E-013  0.7246154E+02  0.7816164E-02  0.1226708E+00
        -11   -1    0    0    0    0  0.00000000000E+00  0.00000000000E+00  0.45593999997E+02  0.45594000000E+02  0.51100000000E-03 0. -1.
         11   -1    0    0    0    0 -0.00000000000E+00 -0.00000000000E+00 -0.45593999997E+02  0.45594000000E+02  0.51100000000E-03 0.  1.
    9900012    2    1    2    0    0 -0.16138335375E+02 -0.88100712141E+01  0.35520491040E+01  0.72461540743E+02  0.69999961503E+02 0.  0.
         12    1    1    2    0    0  0.16138335375E+02  0.88100712141E+01 -0.35520491040E+01  0.18726459257E+02  0.00000000000E+00 0. -1.
         11    1    3    3    0    0 -0.17672524843E+02 -0.33191253717E+02  0.13113833400E+01  0.37625751609E+02  0.51100000000E-03 0. -1.
        -11    1    3    3    0    0 -0.36271218351E+01 -0.35717413653E+01 -0.30325975830E+01  0.59253689800E+01  0.51100000000E-03 0.  1.
        -12    1    3    3    0    0  0.51613113032E+01  0.27952923868E+02  0.52732633470E+01  0.28910420153E+02  0.00000000000E+00 0.  1.
</event>
<event>
 7    1  0.3027254E-013  0.7246158E+02  0.7816164E-02  0.1226708E+00
        -11   -1    0    0    0    0  0.00000000000E+00  0.00000000000E+00  0.45593999997E+02  0.45594000000E+02  0.51100000000E-03 0. -1.
         11   -1    0    0    0    0 -0.00000000000E+00 -0.00000000000E+00 -0.45593999997E+02  0.45594000000E+02  0.51100000000E-03 0.  1.
    9900012    2    1    2    0    0  0.31128826290E+01 -0.17507969531E+01 -0.18382693936E+02  0.72461581107E+02  0.70000014085E+02 0.  0.
         12    1    1    2    0    0 -0.31128826290E+01  0.17507969531E+01  0.18382693936E+02  0.18726418893E+02  0.00000000000E+00 0. -1.
         11    1    3    3    0    0  0.12334531701E+02 -0.14548263552E+01  0.10472517431E+01  0.12464105603E+02  0.51100000000E-03 0. -1.
        -11    1    3    3    0    0 -0.97960387385E+01 -0.15221766792E+02 -0.34386307310E+02  0.38859782423E+02  0.51100000000E-03 0.  1.
         12    1    3    3    0    0  0.57438966612E+00  0.14925796194E+02  0.14956361632E+02  0.21137693081E+02  0.00000000000E+00 0. -1.
</event>
<event>
 7    1  0.3027254E-013  0.7246221E+02  0.7816164E-02  0.1226706E+00
        -11   -1    0    0    0    0  0.00000000000E+00  0.00000000000E+00  0.45593999997E+02  0.45594000000E+02  0.51100000000E-03 0.  1.
         11   -1    0    0    0    0 -0.00000000000E+00 -0.00000000000E+00 -0.45593999997E+02  0.45594000000E+02  0.51100000000E-03 0. -1.
    9900012    2    1    2    0    0 -0.12260873146E+02  0.13567604673E+02  0.40306581420E+01  0.72462212649E+02  0.70000836781E+02 0.  0.
         12    1    1    2    0    0  0.12260873146E+02 -0.13567604673E+02 -0.40306581420E+01  0.18725787351E+02  0.00000000000E+00 0. -1.
         11    1    3    3    0    0 -0.27032280914E+01  0.17815098016E+02 -0.46430755374E+01  0.18607614306E+02  0.51100000000E-03 0. -1.
        -11    1    3    3    0    0  0.53245706755E+01  0.21172610135E+02  0.10731221338E+02  0.24326725725E+02  0.51100000000E-03 0.  1.
         12    1    3    3    0    0 -0.14882215730E+02 -0.25420103478E+02 -0.20574876584E+01  0.29527872618E+02  0.00000000000E+00 0. -1.
</event>
<event>
 7    1  0.3027254E-013  0.7246153E+02  0.7816164E-02  0.1226708E+00
        -11   -1    0    0    0    0  0.00000000000E+00  0.00000000000E+00  0.45593999997E+02  0.45594000000E+02  0.51100000000E-03 0. -1.
         11   -1    0    0    0    0 -0.00000000000E+00 -0.00000000000E+00 -0.45593999997E+02  0.45594000000E+02  0.51100000000E-03 0.  1.
    9900012    2    1    2    0    0  0.11325312195E+00  0.65138167209E+01 -0.17556714510E+02  0.72461525187E+02  0.69999941239E+02 0.  0.
         12    1    1    2    0    0 -0.11325312195E+00 -0.65138167209E+01  0.17556714510E+02  0.18726474813E+02  0.00000000000E+00 0. -1.
         11    1    3    3    0    0 -0.17065077744E+02  0.83716098759E+01  0.81357729033E+00  0.19025315729E+02  0.51100000000E-03 0. -1.
        -11    1    3    3    0    0 -0.58029278058E+01  0.11439936065E+02  0.87146898175E+01  0.15507802139E+02  0.51100000000E-03 0.  1.
         12    1    3    3    0    0  0.22981258671E+02 -0.13297729220E+02 -0.27084981618E+02  0.37928407319E+02  0.00000000000E+00 0. -1.
</event>
<event>
 7    1  0.3027254E-013  0.7246157E+02  0.7816164E-02  0.1226708E+00
        -11   -1    0    0    0    0  0.00000000000E+00  0.00000000000E+00  0.45593999997E+02  0.45594000000E+02  0.51100000000E-03 0.  1.
         11   -1    0    0    0    0 -0.00000000000E+00 -0.00000000000E+00 -0.45593999997E+02  0.45594000000E+02  0.51100000000E-03 0. -1.
    9900012    2    1    2    0    0  0.10644234372E+00 -0.15168436085E+02  0.10981183856E+02  0.72461569958E+02  0.69999999562E+02 0.  0.
         12    1    1    2    0    0 -0.10644234372E+00  0.15168436085E+02 -0.10981183856E+02  0.18726430042E+02  0.00000000000E+00 0. -1.
         11    1    3    3    0    0  0.96851571978E+00  0.11303895252E+02  0.19859970687E+02  0.22872133843E+02  0.51100000000E-03 0. -1.
        -11    1    3    3    0    0 -0.14991785100E+02  0.35556868032E+01 -0.77035828849E+00  0.15426923909E+02  0.51100000000E-03 0.  1.
        -12    1    3    3    0    0  0.14129711724E+02 -0.30028018140E+02 -0.81084285427E+01  0.34162512206E+02  0.00000000000E+00 0.  1.
</event>
<event>
 7    1  0.3027254E-013  0.7246204E+02  0.7816164E-02  0.1226707E+00
        -11   -1    0    0    0    0  0.00000000000E+00  0.00000000000E+00  0.45593999997E+02  0.45594000000E+02  0.51100000000E-03 0.  1.
         11   -1    0    0    0    0 -0.00000000000E+00 -0.00000000000E+00 -0.45593999997E+02  0.45594000000E+02  0.51100000000E-03 0. -1.
    9900012    2    1    2    0    0  0.60034052372E+01  0.15860617048E+02  0.79411292210E+01  0.72462039921E+02  0.70000611773E+02 0.  0.
         12    1    1    2    0    0 -0.60034052372E+01 -0.15860617048E+02 -0.79411292210E+01  0.18725960079E+02  0.00000000000E+00 0. -1.
         11    1    3    3    0    0  0.40683905311E+01  0.91467667319E+01  0.32327353379E+01  0.10519777621E+02  0.51100000000E-03 0. -1.
        -11    1    3    3    0    0 -0.13537130755E+02 -0.18785528585E+02  0.17960898684E+02  0.29304332019E+02  0.51100000000E-03 0.  1.
         12    1    3    3    0    0  0.15472145461E+02  0.25499378902E+02 -0.13252504800E+02  0.32637930281E+02  0.00000000000E+00 0. -1.
</event>
<event>
 7    1  0.3027254E-013  0.7246156E+02  0.7816164E-02  0.1226708E+00
        -11   -1    0    0    0    0  0.00000000000E+00  0.00000000000E+00  0.45593999997E+02  0.45594000000E+02  0.51100000000E-03 0.  1.
         11   -1    0    0    0    0 -0.00000000000E+00 -0.00000000000E+00 -0.45593999997E+02  0.45594000000E+02  0.51100000000E-03 0. -1.
    9900012    2    1    2    0    0  0.90232003035E+01 -0.88458634962E+01 -0.13820711123E+02  0.72461561453E+02  0.69999988482E+02 0.  0.
         12    1    1    2    0    0 -0.90232003035E+01  0.88458634962E+01  0.13820711123E+02  0.18726438547E+02  0.00000000000E+00 0. -1.
         11    1    3    3    0    0  0.11663001399E+02 -0.12167174539E+02 -0.73970508349E+01  0.18406034316E+02  0.51100000000E-03 0. -1.
        -11    1    3    3    0    0  0.87717191404E+01 -0.20982847537E+02  0.73213796472E+01  0.23891955710E+02  0.51100000000E-03 0.  1.
         12    1    3    3    0    0 -0.11411520236E+02  0.24304158580E+02 -0.13745039936E+02  0.30163571427E+02  0.00000000000E+00 0. -1.
</event>
<event>
 7    1  0.3027254E-013  0.7246153E+02  0.7816164E-02  0.1226708E+00
        -11   -1    0    0    0    0  0.00000000000E+00  0.00000000000E+00  0.45593999997E+02  0.45594000000E+02  0.51100000000E-03 0. -1.
         11   -1    0    0    0    0 -0.00000000000E+00 -0.00000000000E+00 -0.45593999997E+02  0.45594000000E+02  0.51100000000E-03 0.  1.
    9900012    2    1    2    0    0 -0.16289251644E+02  0.86199876302E+01 -0.33221565992E+01  0.72461531290E+02  0.69999949190E+02 0.  0.
         12    1    1    2    0    0  0.16289251644E+02 -0.86199876302E+01  0.33221565992E+01  0.18726468710E+02  0.00000000000E+00 0. -1.
         11    1    3    3    0    0  0.16550501918E+00  0.24868959629E+02  0.58043663974E+01  0.25537878034E+02  0.51100000000E-03 0. -1.
        -11    1    3    3    0    0 -0.12645734052E+02  0.12043817583E+02 -0.28609929799E+01  0.17696141183E+02  0.51100000000E-03 0.  1.
         12    1    3    3    0    0 -0.38090226119E+01 -0.28292789582E+02 -0.62655300167E+01  0.29227512073E+02  0.00000000000E+00 0. -1.
</event>
<event>
 7    1  0.3027254E-013  0.7246155E+02  0.7816164E-02  0.1226708E+00
        -11   -1    0    0    0    0  0.00000000000E+00  0.00000000000E+00  0.45593999997E+02  0.45594000000E+02  0.51100000000E-03 0. -1.
         11   -1    0    0    0    0 -0.00000000000E+00 -0.00000000000E+00 -0.45593999997E+02  0.45594000000E+02  0.51100000000E-03 0.  1.
    9900012    2    1    2    0    0 -0.14141676023E+02 -0.12249026288E+02 -0.80894090891E+00  0.72461547289E+02  0.69999970032E+02 0.  0.
         12    1    1    2    0    0  0.14141676023E+02  0.12249026288E+02  0.80894090891E+00  0.18726452711E+02  0.00000000000E+00 0. -1.
         11    1    3    3    0    0 -0.12484353353E+02 -0.61303489984E+01  0.48379987681E+01  0.14725708466E+02  0.51100000000E-03 0. -1.
        -11    1    3    3    0    0  0.10626314091E+02 -0.26971038857E+02 -0.13922211960E+02  0.32158723145E+02  0.51100000000E-03 0.  1.
         12    1    3    3    0    0 -0.12283636761E+02  0.20852361568E+02  0.82752722835E+01  0.25577115678E+02  0.00000000000E+00 0. -1.
</event>
<event>
 7    1  0.3027254E-013  0.7246158E+02  0.7816164E-02  0.1226708E+00
        -11   -1    0    0    0    0  0.00000000000E+00  0.00000000000E+00  0.45593999997E+02  0.45594000000E+02  0.51100000000E-03 0.  1.
         11   -1    0    0    0    0 -0.00000000000E+00 -0.00000000000E+00 -0.45593999997E+02  0.45594000000E+02  0.51100000000E-03 0. -1.
    9900012    2    1    2    0    0  0.10997448178E+02  0.87531151347E+01 -0.12374082793E+02  0.72461579735E+02  0.70000012298E+02 0.  0.
         12    1    1    2    0    0 -0.10997448178E+02 -0.87531151347E+01  0.12374082793E+02  0.18726420265E+02  0.00000000000E+00 0. -1.
         11    1    3    3    0    0  0.14416261879E+02 -0.17968009654E+02 -0.13300537300E+02  0.26600418610E+02  0.51100000000E-03 0. -1.
        -11    1    3    3    0    0  0.12091258435E+02 -0.21260437990E+01 -0.36089250522E+01  0.12796207761E+02  0.51100000000E-03 0.  1.
        -12    1    3    3    0    0 -0.15510072135E+02  0.28847168588E+02  0.45353795595E+01  0.33064953364E+02  0.00000000000E+00 0.  1.
</event>
<event>
 7    1  0.3027254E-013  0.7246143E+02  0.7816164E-02  0.1226708E+00
        -11   -1    0    0    0    0  0.00000000000E+00  0.00000000000E+00  0.45593999997E+02  0.45594000000E+02  0.51100000000E-03 0. -1.
         11   -1    0    0    0    0 -0.00000000000E+00 -0.00000000000E+00 -0.45593999997E+02  0.45594000000E+02  0.51100000000E-03 0.  1.
    9900012    2    1    2    0    0  0.75060948455E+01 -0.10976214898E+02 -0.13185814295E+02  0.72461429253E+02  0.69999816267E+02 0.  0.
         12    1    1    2    0    0 -0.75060948455E+01  0.10976214898E+02  0.13185814295E+02  0.18726570747E+02  0.00000000000E+00 0. -1.
         11    1    3    3    0    0 -0.81952678124E+00  0.26355886998E+01  0.48114082223E+01  0.55468550803E+01  0.51100000000E-03 0. -1.
        -11    1    3    3    0    0  0.25891844315E+02  0.15697428237E+02 -0.84215993856E+01  0.31428016033E+02  0.51100000000E-03 0.  1.
         12    1    3    3    0    0 -0.17566222688E+02 -0.29309231835E+02 -0.95756231317E+01  0.35486558140E+02  0.00000000000E+00 0. -1.
</event>
<event>
 7    1  0.3027254E-013  0.7246154E+02  0.7816164E-02  0.1226708E+00
        -11   -1    0    0    0    0  0.00000000000E+00  0.00000000000E+00  0.45593999997E+02  0.45594000000E+02  0.51100000000E-03 0.  1.
         11   -1    0    0    0    0 -0.00000000000E+00 -0.00000000000E+00 -0.45593999997E+02  0.45594000000E+02  0.51100000000E-03 0. -1.
    9900012    2    1    2    0    0  0.14317884201E+02 -0.19111544649E+01  0.11917472366E+02  0.72461535652E+02  0.69999954872E+02 0.  0.
         12    1    1    2    0    0 -0.14317884201E+02  0.19111544649E+01 -0.11917472366E+02  0.18726464348E+02  0.00000000000E+00 0. -1.
         11    1    3    3    0    0  0.66593836550E+01 -0.49631138466E+01 -0.69648401878E+01  0.10839229162E+02  0.51100000000E-03 0. -1.
        -11    1    3    3    0    0  0.32114856052E+02 -0.54868587646E+01  0.12866520916E+02  0.35028801851E+02  0.51100000000E-03 0.  1.
        -12    1    3    3    0    0 -0.24456355506E+02  0.85388181464E+01  0.60157916377E+01  0.26593504639E+02  0.00000000000E+00 0.  1.
</event>
<event>
 7    1  0.3027254E-013  0.7246159E+02  0.7816164E-02  0.1226708E+00
        -11   -1    0    0    0    0  0.00000000000E+00  0.00000000000E+00  0.45593999997E+02  0.45594000000E+02  0.51100000000E-03 0.  1.
         11   -1    0    0    0    0 -0.00000000000E+00 -0.00000000000E+00 -0.45593999997E+02  0.45594000000E+02  0.51100000000E-03 0. -1.
    9900012    2    1    2    0    0 -0.15861097061E+02  0.59964753841E+01  0.79464641600E+01  0.72461590583E+02  0.70000026430E+02 0.  0.
         12    1    1    2    0    0  0.15861097061E+02 -0.59964753841E+01 -0.79464641600E+01  0.18726409417E+02  0.00000000000E+00 0. -1.
         11    1    3    3    0    0  0.16100545211E+01  0.48720318382E+01 -0.80433701717E+01  0.95406904244E+01  0.51100000000E-03 0. -1.
        -11    1    3    3    0    0  0.15974956791E+02  0.76838661591E+01 -0.97305446508E+01  0.20221882778E+02  0.51100000000E-03 0.  1.
         12    1    3    3    0    0 -0.33446108373E+02 -0.65594226132E+01  0.25720378983E+02  0.42699017381E+02  0.00000000000E+00 0. -1.
</event>
<event>
 7    1  0.3027254E-013  0.7246143E+02  0.7816164E-02  0.1226708E+00
        -11   -1    0    0    0    0  0.00000000000E+00  0.00000000000E+00  0.45593999997E+02  0.45594000000E+02  0.51100000000E-03 0.  1.
         11   -1    0    0    0    0 -0.00000000000E+00 -0.00000000000E+00 -0.45593999997E+02  0.45594000000E+02  0.51100000000E-03 0. -1.
    9900012    2    1    2    0    0 -0.15887621002E+01 -0.17345733820E+02  0.68764572291E+01  0.72461433022E+02  0.69999821177E+02 0.  0.
         12    1    1    2    0    0  0.15887621002E+01  0.17345733820E+02 -0.68764572291E+01  0.18726566978E+02  0.00000000000E+00 0. -1.
         11    1    3    3    0    0  0.19690099508E+00  0.46385512762E+01 -0.81041269560E+01  0.93397966747E+01  0.51100000000E-03 0. -1.
        -11    1    3    3    0    0  0.20174778153E+02 -0.25510744782E+02 -0.53820902384E+01  0.32966447616E+02  0.51100000000E-03 0.  1.
        -12    1    3    3    0    0 -0.21960441248E+02  0.35264596861E+01  0.20362674424E+02  0.30155188731E+02  0.00000000000E+00 0.  1.
</event>
<event>
 7    1  0.3027254E-013  0.7246160E+02  0.7816164E-02  0.1226708E+00
        -11   -1    0    0    0    0  0.00000000000E+00  0.00000000000E+00  0.45593999997E+02  0.45594000000E+02  0.51100000000E-03 0. -1.
         11   -1    0    0    0    0 -0.00000000000E+00 -0.00000000000E+00 -0.45593999997E+02  0.45594000000E+02  0.51100000000E-03 0.  1.
    9900012    2    1    2    0    0 -0.12354658241E+02  0.38191917277E+01 -0.13544534406E+02  0.72461595701E+02  0.70000033097E+02 0.  0.
         12    1    1    2    0    0  0.12354658241E+02 -0.38191917277E+01  0.13544534406E+02  0.18726404299E+02  0.00000000000E+00 0. -1.
         11    1    3    3    0    0 -0.21622864821E+02  0.32055276536E+01 -0.13013853514E+02  0.25439812778E+02  0.51100000000E-03 0. -1.
        -11    1    3    3    0    0 -0.41679678885E+01  0.67428763074E+01 -0.20618309099E+02  0.22089658385E+02  0.51100000000E-03 0.  1.
        -12    1    3    3    0    0  0.13436174469E+02 -0.61292122333E+01  0.20087628207E+02  0.24932124537E+02  0.00000000000E+00 0.  1.
</event>
<event>
 7    1  0.3027254E-013  0.7246146E+02  0.7816164E-02  0.1226708E+00
        -11   -1    0    0    0    0  0.00000000000E+00  0.00000000000E+00  0.45593999997E+02  0.45594000000E+02  0.51100000000E-03 0.  1.
         11   -1    0    0    0    0 -0.00000000000E+00 -0.00000000000E+00 -0.45593999997E+02  0.45594000000E+02  0.51100000000E-03 0. -1.
    9900012    2    1    2    0    0  0.86554828622E+01 -0.15930159598E+02 -0.46899685883E+01  0.72461463380E+02  0.69999860725E+02 0.  0.
         12    1    1    2    0    0 -0.86554828622E+01  0.15930159598E+02  0.46899685883E+01  0.18726536620E+02  0.00000000000E+00 0. -1.
         11    1    3    3    0    0 -0.34403989943E+01 -0.31042197787E+02 -0.11932498941E+02  0.33434098162E+02  0.51100000000E-03 0. -1.
        -11    1    3    3    0    0 -0.64660332162E+01  0.36205137333E+01 -0.91153861921E+01  0.11747679385E+02  0.51100000000E-03 0.  1.
         12    1    3    3    0    0  0.18561915073E+02  0.11491524455E+02  0.16357916545E+02  0.27279685833E+02  0.00000000000E+00 0. -1.
</event>
<event>
 7    1  0.3027254E-013  0.7246144E+02  0.7816164E-02  0.1226708E+00
        -11   -1    0    0    0    0  0.00000000000E+00  0.00000000000E+00  0.45593999997E+02  0.45594000000E+02  0.51100000000E-03 0.  1.
         11   -1    0    0    0    0 -0.00000000000E+00 -0.00000000000E+00 -0.45593999997E+02  0.45594000000E+02  0.51100000000E-03 0. -1.
    9900012    2    1    2    0    0 -0.12897890025E+02 -0.52340701488E+01  0.12527285775E+02  0.72461442753E+02  0.69999833854E+02 0.  0.
         12    1    1    2    0    0  0.12897890025E+02  0.52340701488E+01 -0.12527285775E+02  0.18726557247E+02  0.00000000000E+00 0. -1.
         11    1    3    3    0    0  0.61160245454E+00 -0.30987834100E+01  0.97805581598E+00  0.33065253098E+01  0.51100000000E-03 0. -1.
        -11    1    3    3    0    0 -0.99409633616E+01 -0.26937277198E+02  0.27249588819E+02  0.39585095004E+02  0.51100000000E-03 0.  1.
         12    1    3    3    0    0 -0.35685291184E+01  0.24801990459E+02 -0.15700358860E+02  0.29569822440E+02  0.00000000000E+00 0. -1.
</event>
<event>
 7    1  0.3027254E-013  0.7246159E+02  0.7816164E-02  0.1226708E+00
        -11   -1    0    0    0    0  0.00000000000E+00  0.00000000000E+00  0.45593999997E+02  0.45594000000E+02  0.51100000000E-03 0.  1.
         11   -1    0    0    0    0 -0.00000000000E+00 -0.00000000000E+00 -0.45593999997E+02  0.45594000000E+02  0.51100000000E-03 0. -1.
    9900012    2    1    2    0    0 -0.16404058928E+02  0.80328414515E+01  0.41302161721E+01  0.72461591462E+02  0.70000027575E+02 0.  0.
         12    1    1    2    0    0  0.16404058928E+02 -0.80328414515E+01 -0.41302161721E+01  0.18726408538E+02  0.00000000000E+00 0. -1.
         11    1    3    3    0    0  0.45056590211E+01  0.45243652660E+01  0.12300457172E+01  0.65026038632E+01  0.51100000000E-03 0. -1.
        -11    1    3    3    0    0 -0.62493095263E+01  0.29124935719E+02  0.15833802686E+02  0.33734626987E+02  0.51100000000E-03 0.  1.
         12    1    3    3    0    0 -0.14660408423E+02 -0.25616459533E+02 -0.12933632231E+02  0.32224360612E+02  0.00000000000E+00 0. -1.
</event>
<event>
 7    1  0.3027254E-013  0.7246160E+02  0.7816164E-02  0.1226708E+00
        -11   -1    0    0    0    0  0.00000000000E+00  0.00000000000E+00  0.45593999997E+02  0.45594000000E+02  0.51100000000E-03 0.  1.
         11   -1    0    0    0    0 -0.00000000000E+00 -0.00000000000E+00 -0.45593999997E+02  0.45594000000E+02  0.51100000000E-03 0. -1.
    9900012    2    1    2    0    0  0.14298157019E+02  0.10098397829E+02 -0.66530573547E+01  0.72461598717E+02  0.70000037025E+02 0.  0.
         12    1    1    2    0    0 -0.14298157019E+02 -0.10098397829E+02  0.66530573547E+01  0.18726401283E+02  0.00000000000E+00 0. -1.
         11    1    3    3    0    0  0.58214892798E+01  0.31499589537E+02  0.10708653770E+00  0.32033191321E+02  0.51100000000E-03 0. -1.
        -11    1    3    3    0    0  0.10104480769E-02  0.77885210362E+01  0.32324426326E+01  0.84326595204E+01  0.51100000000E-03 0.  1.
        -12    1    3    3    0    0  0.84756572913E+01 -0.29189712744E+02 -0.99925865250E+01  0.31995747875E+02  0.00000000000E+00 0.  1.
</event>
<event>
 7    1  0.3671051E-013  0.7246155E+02  0.7816164E-02  0.1226708E+00
        -11   -1    0    0    0    0  0.00000000000E+00  0.00000000000E+00  0.45593999997E+02  0.45594000000E+02  0.51100000000E-03 0. -1.
         11   -1    0    0    0    0 -0.00000000000E+00 -0.00000000000E+00 -0.45593999997E+02  0.45594000000E+02  0.51100000000E-03 0.  1.
    9900012    2    1    2    0    0  0.17208412877E+02 -0.49179520182E+01 -0.55103644247E+01  0.72461552342E+02  0.69999976614E+02 0.  0.
         12    1    1    2    0    0 -0.17208412877E+02  0.49179520182E+01  0.55103644247E+01  0.18726447658E+02  0.00000000000E+00 0. -1.
         11    1    3    3    0    0  0.11359637049E+02 -0.25402264193E+02  0.17640830896E+02  0.32947159133E+02  0.51100000000E-03 0. -1.
        -11    1    3    3    0    0  0.10207896585E+02 -0.45931221385E-01 -0.35808156729E+01  0.10817832662E+02  0.51100000000E-03 0.  1.
        -12    1    3    3    0    0 -0.43591207568E+01  0.20530243396E+02 -0.19570379648E+02  0.28696560547E+02  0.00000000000E+00 0.  1.
</event>
<event>
 7    1  0.3027254E-013  0.7246158E+02  0.7816164E-02  0.1226708E+00
        -11   -1    0    0    0    0  0.00000000000E+00  0.00000000000E+00  0.45593999997E+02  0.45594000000E+02  0.51100000000E-03 0. -1.
         11   -1    0    0    0    0 -0.00000000000E+00 -0.00000000000E+00 -0.45593999997E+02  0.45594000000E+02  0.51100000000E-03 0.  1.
    9900012    2    1    2    0    0  0.15880482965E+02 -0.56489722315E+01 -0.81595406290E+01  0.72461582036E+02  0.70000015296E+02 0.  0.
         12    1    1    2    0    0 -0.15880482965E+02  0.56489722315E+01  0.81595406290E+01  0.18726417964E+02  0.00000000000E+00 0. -1.
         11    1    3    3    0    0  0.17430422378E+02 -0.30106777154E+01  0.20100166407E+02  0.26774997562E+02  0.51100000000E-03 0. -1.
        -11    1    3    3    0    0 -0.53448845961E+01 -0.35115753594E+01  0.74196124911E+01  0.97953868034E+01  0.51100000000E-03 0.  1.
        -12    1    3    3    0    0  0.37949451829E+01  0.87328084325E+00 -0.35679319527E+02  0.35891197671E+02  0.00000000000E+00 0.  1.
</event>
<event>
 7    1  0.3027254E-013  0.7246160E+02  0.7816164E-02  0.1226708E+00
        -11   -1    0    0    0    0  0.00000000000E+00  0.00000000000E+00  0.45593999997E+02  0.45594000000E+02  0.51100000000E-03 0.  1.
         11   -1    0    0    0    0 -0.00000000000E+00 -0.00000000000E+00 -0.45593999997E+02  0.45594000000E+02  0.51100000000E-03 0. -1.
    9900012    2    1    2    0    0 -0.12789420255E+02  0.65323784526E+01  0.12018189840E+02  0.72461598163E+02  0.70000036305E+02 0.  0.
         12    1    1    2    0    0  0.12789420255E+02 -0.65323784526E+01 -0.12018189840E+02  0.18726401837E+02  0.00000000000E+00 0. -1.
         11    1    3    3    0    0 -0.38229024358E+01 -0.43228209068E+01 -0.58695793401E+01  0.82312408249E+01  0.51100000000E-03 0. -1.
        -11    1    3    3    0    0 -0.33569657290E+02 -0.15781156634E+00  0.37120961692E+01  0.33774642164E+02  0.51100000000E-03 0.  1.
        -12    1    3    3    0    0  0.24603139471E+02  0.11013010926E+02  0.14175673011E+02  0.30455715175E+02  0.00000000000E+00 0.  1.
</event>
<event>
 7    1  0.3027254E-013  0.7246176E+02  0.7816164E-02  0.1226708E+00
        -11   -1    0    0    0    0  0.00000000000E+00  0.00000000000E+00  0.45593999997E+02  0.45594000000E+02  0.51100000000E-03 0.  1.
         11   -1    0    0    0    0 -0.00000000000E+00 -0.00000000000E+00 -0.45593999997E+02  0.45594000000E+02  0.51100000000E-03 0. -1.
    9900012    2    1    2    0    0  0.88013574701E+01  0.11269551353E+01  0.16490548643E+02  0.72461758633E+02  0.70000245345E+02 0.  0.
         12    1    1    2    0    0 -0.88013574701E+01 -0.11269551353E+01 -0.16490548643E+02  0.18726241367E+02  0.00000000000E+00 0. -1.
         11    1    3    3    0    0  0.79300891966E+01  0.26815801253E+02 -0.10277225201E+02  0.29792530433E+02  0.51100000000E-03 0. -1.
        -11    1    3    3    0    0  0.15613465965E+01  0.31194207786E+01  0.23204990500E+00  0.34960601551E+01  0.51100000000E-03 0.  1.
        -12    1    3    3    0    0 -0.69007832294E+00 -0.28808266897E+02  0.26535723939E+02  0.39173168044E+02  0.00000000000E+00 0.  1.
</event>
<event>
 7    1  0.3027254E-013  0.7246162E+02  0.7816164E-02  0.1226708E+00
        -11   -1    0    0    0    0  0.00000000000E+00  0.00000000000E+00  0.45593999997E+02  0.45594000000E+02  0.51100000000E-03 0. -1.
         11   -1    0    0    0    0 -0.00000000000E+00 -0.00000000000E+00 -0.45593999997E+02  0.45594000000E+02  0.51100000000E-03 0.  1.
    9900012    2    1    2    0    0 -0.17494710265E+02  0.18024599289E-01  0.66792308916E+01  0.72461619211E+02  0.70000063723E+02 0.  0.
         12    1    1    2    0    0  0.17494710265E+02 -0.18024599289E-01 -0.66792308916E+01  0.18726380789E+02  0.00000000000E+00 0. -1.
         11    1    3    3    0    0 -0.20149138290E+02 -0.17624403281E+02  0.24453248522E+02  0.36256981789E+02  0.51100000000E-03 0. -1.
        -11    1    3    3    0    0  0.33844661737E+01  0.22778799735E+01  0.63775303703E+01  0.75707491267E+01  0.51100000000E-03 0.  1.
        -12    1    3    3    0    0 -0.73003814844E+00  0.15364547907E+02 -0.24151548001E+02  0.28633888296E+02  0.00000000000E+00 0.  1.
</event>
<event>
 7    1  0.3027254E-013  0.7246156E+02  0.7816164E-02  0.1226708E+00
        -11   -1    0    0    0    0  0.00000000000E+00  0.00000000000E+00  0.45593999997E+02  0.45594000000E+02  0.51100000000E-03 0.  1.
         11   -1    0    0    0    0 -0.00000000000E+00 -0.00000000000E+00 -0.45593999997E+02  0.45594000000E+02  0.51100000000E-03 0. -1.
    9900012    2    1    2    0    0 -0.71037292838E+01  0.16795435262E+02  0.42579328307E+01  0.72461558603E+02  0.69999984770E+02 0.  0.
         12    1    1    2    0    0  0.71037292838E+01 -0.16795435262E+02 -0.42579328307E+01  0.18726441397E+02  0.00000000000E+00 0. -1.
         11    1    3    3    0    0 -0.20516724187E+02  0.32936064131E+01 -0.23669112538E+02  0.31496201409E+02  0.51100000000E-03 0. -1.
        -11    1    3    3    0    0 -0.37294865694E+01  0.12132070620E+02  0.10381020507E+02  0.16397005660E+02  0.51100000000E-03 0.  1.
        -12    1    3    3    0    0  0.17142481473E+02  0.13697582297E+01  0.17546024862E+02  0.24568351534E+02  0.00000000000E+00 0.  1.
</event>
<event>
 7    1  0.3027254E-013  0.7246171E+02  0.7816164E-02  0.1226708E+00
        -11   -1    0    0    0    0  0.00000000000E+00  0.00000000000E+00  0.45593999997E+02  0.45594000000E+02  0.51100000000E-03 0.  1.
         11   -1    0    0    0    0 -0.00000000000E+00 -0.00000000000E+00 -0.45593999997E+02  0.45594000000E+02  0.51100000000E-03 0. -1.
    9900012    2    1    2    0    0 -0.11569042920E+02 -0.72979351401E+01  0.12789504381E+02  0.72461707422E+02  0.70000178634E+02 0.  0.
         12    1    1    2    0    0  0.11569042920E+02  0.72979351401E+01 -0.12789504381E+02  0.18726292578E+02  0.00000000000E+00 0. -1.
         11    1    3    3    0    0  0.63640452531E+01 -0.73355829292E+00 -0.97961149421E+01  0.11704830113E+02  0.51100000000E-03 0. -1.
        -11    1    3    3    0    0  0.78529285992E+01 -0.17756456764E+02 -0.63380273171E+01  0.20423781113E+02  0.51100000000E-03 0.  1.
        -12    1    3    3    0    0 -0.25786016772E+02  0.11192079917E+02  0.28923646640E+02  0.40333096197E+02  0.00000000000E+00 0.  1.
</event>
<event>
 7    1  0.3027254E-013  0.7246153E+02  0.7816164E-02  0.1226708E+00
        -11   -1    0    0    0    0  0.00000000000E+00  0.00000000000E+00  0.45593999997E+02  0.45594000000E+02  0.51100000000E-03 0. -1.
         11   -1    0    0    0    0 -0.00000000000E+00 -0.00000000000E+00 -0.45593999997E+02  0.45594000000E+02  0.51100000000E-03 0.  1.
    9900012    2    1    2    0    0 -0.36600095279E+01 -0.17943077422E+02 -0.39154596239E+01  0.72461534205E+02  0.69999952987E+02 0.  0.
         12    1    1    2    0    0  0.36600095279E+01  0.17943077422E+02  0.39154596239E+01  0.18726465795E+02  0.00000000000E+00 0. -1.
         11    1    3    3    0    0  0.46956945068E+01 -0.24808129932E+02 -0.15707837994E+02  0.29735988840E+02  0.51100000000E-03 0. -1.
        -11    1    3    3    0    0 -0.16344019926E+02 -0.38904870323E+01 -0.81717648875E+01  0.18682628785E+02  0.51100000000E-03 0.  1.
         12    1    3    3    0    0  0.79883158912E+01  0.10755539542E+02  0.19964143258E+02  0.24042916579E+02  0.00000000000E+00 0. -1.
</event>
<event>
 7    1  0.3027254E-013  0.7246156E+02  0.7816164E-02  0.1226708E+00
        -11   -1    0    0    0    0  0.00000000000E+00  0.00000000000E+00  0.45593999997E+02  0.45594000000E+02  0.51100000000E-03 0.  1.
         11   -1    0    0    0    0 -0.00000000000E+00 -0.00000000000E+00 -0.45593999997E+02  0.45594000000E+02  0.51100000000E-03 0. -1.
    9900012    2    1    2    0    0  0.15593822156E+02  0.64975565730E+01  0.80804826457E+01  0.72461555312E+02  0.69999980483E+02 0.  0.
         12    1    1    2    0    0 -0.15593822156E+02 -0.64975565730E+01 -0.80804826457E+01  0.18726444688E+02  0.00000000000E+00 0. -1.
         11    1    3    3    0    0  0.64588903988E+00  0.84113662286E+01  0.12317730766E+01  0.85255803120E+01  0.51100000000E-03 0.  1.
        -11    1    3    3    0    0  0.12983140123E+02 -0.12435239630E+02 -0.24740628677E+02  0.30582606489E+02  0.51100000000E-03 0. -1.
         12    1    3    3    0    0  0.19647929933E+01  0.10521429975E+02  0.31589338246E+02  0.33353368511E+02  0.00000000000E+00 0. -1.
</event>
<event>
 7    1  0.3027254E-013  0.7246156E+02  0.7816164E-02  0.1226708E+00
        -11   -1    0    0    0    0  0.00000000000E+00  0.00000000000E+00  0.45593999997E+02  0.45594000000E+02  0.51100000000E-03 0.  1.
         11   -1    0    0    0    0 -0.00000000000E+00 -0.00000000000E+00 -0.45593999997E+02  0.45594000000E+02  0.51100000000E-03 0. -1.
    9900012    2    1    2    0    0 -0.11517176824E+02 -0.25080152119E+01  0.14551431390E+02  0.72461557257E+02  0.69999983017E+02 0.  0.
         12    1    1    2    0    0  0.11517176824E+02  0.25080152119E+01 -0.14551431390E+02  0.18726442743E+02  0.00000000000E+00 0. -1.
         11    1    3    3    0    0 -0.75359912004E+01 -0.11130679132E+02  0.14032380218E+02  0.19431697717E+02  0.51100000000E-03 0. -1.
        -11    1    3    3    0    0 -0.27607444293E+02  0.75879309270E+01  0.46993380046E+01  0.29014331874E+02  0.51100000000E-03 0.  1.
         12    1    3    3    0    0  0.23626258669E+02  0.10347329934E+01 -0.41802868325E+01  0.24015527666E+02  0.00000000000E+00 0. -1.
</event>
<event>
 7    1  0.3027254E-013  0.7246145E+02  0.7816164E-02  0.1226708E+00
        -11   -1    0    0    0    0  0.00000000000E+00  0.00000000000E+00  0.45593999997E+02  0.45594000000E+02  0.51100000000E-03 0.  1.
         11   -1    0    0    0    0 -0.00000000000E+00 -0.00000000000E+00 -0.45593999997E+02  0.45594000000E+02  0.51100000000E-03 0. -1.
    9900012    2    1    2    0    0 -0.17278394228E+02  0.59699116939E+01  0.40621207374E+01  0.72461452597E+02  0.69999846678E+02 0.  0.
         12    1    1    2    0    0  0.17278394228E+02 -0.59699116939E+01 -0.40621207374E+01  0.18726547403E+02  0.00000000000E+00 0. -1.
         11    1    3    3    0    0  0.27689336710E+01  0.38287181569E+01  0.11268985489E+02  0.12219497150E+02  0.51100000000E-03 0. -1.
        -11    1    3    3    0    0 -0.30091393098E+02  0.16631681426E+02  0.97938561235E+01  0.35749466900E+02  0.51100000000E-03 0.  1.
         12    1    3    3    0    0  0.10044065198E+02 -0.14490487889E+02 -0.17000720875E+02  0.24492488547E+02  0.00000000000E+00 0. -1.
</event>
<event>
 7    1  0.3027254E-013  0.7246162E+02  0.7816164E-02  0.1226708E+00
        -11   -1    0    0    0    0  0.00000000000E+00  0.00000000000E+00  0.45593999997E+02  0.45594000000E+02  0.51100000000E-03 0. -1.
         11   -1    0    0    0    0 -0.00000000000E+00 -0.00000000000E+00 -0.45593999997E+02  0.45594000000E+02  0.51100000000E-03 0.  1.
    9900012    2    1    2    0    0  0.15499766398E+02 -0.44469763564E+01 -0.95215030310E+01  0.72461618153E+02  0.70000062344E+02 0.  0.
         12    1    1    2    0    0 -0.15499766398E+02  0.44469763564E+01  0.95215030310E+01  0.18726381847E+02  0.00000000000E+00 0. -1.
         11    1    3    3    0    0  0.45864317721E+00  0.33783965926E+01  0.13900062004E+02  0.14312080250E+02  0.51100000000E-03 0. -1.
        -11    1    3    3    0    0  0.45720823433E+00 -0.51528003380E+01  0.15584471842E+02  0.16420601498E+02  0.51100000000E-03 0.  1.
        -12    1    3    3    0    0  0.14583914987E+02 -0.26725726109E+01 -0.39006036877E+02  0.41728936405E+02  0.00000000000E+00 0.  1.
</event>
<event>
 7    1  0.3027254E-013  0.7246119E+02  0.7816164E-02  0.1226709E+00
        -11   -1    0    0    0    0  0.00000000000E+00  0.00000000000E+00  0.45593999997E+02  0.45594000000E+02  0.51100000000E-03 0. -1.
         11   -1    0    0    0    0 -0.00000000000E+00 -0.00000000000E+00 -0.45593999997E+02  0.45594000000E+02  0.51100000000E-03 0.  1.
    9900012    2    1    2    0    0  0.69845563864E+01  0.10650800827E+02 -0.13728437460E+02  0.72461185502E+02  0.69999498734E+02 0.  0.
         12    1    1    2    0    0 -0.69845563864E+01 -0.10650800827E+02  0.13728437460E+02  0.18726814498E+02  0.00000000000E+00 0. -1.
         11    1    3    3    0    0  0.20099750695E+02 -0.16469140675E+02  0.10961751599E+02  0.28202705029E+02  0.51100000000E-03 0. -1.
        -11    1    3    3    0    0 -0.23035938291E+01  0.15978063490E+01  0.36597713219E+01  0.46101470744E+01  0.51100000000E-03 0.  1.
        -12    1    3    3    0    0 -0.10811600479E+02  0.25522135153E+02 -0.28349960380E+02  0.39648333398E+02  0.00000000000E+00 0.  1.
</event>
<event>
 7    1  0.3027254E-013  0.7246157E+02  0.7816164E-02  0.1226708E+00
        -11   -1    0    0    0    0  0.00000000000E+00  0.00000000000E+00  0.45593999997E+02  0.45594000000E+02  0.51100000000E-03 0.  1.
         11   -1    0    0    0    0 -0.00000000000E+00 -0.00000000000E+00 -0.45593999997E+02  0.45594000000E+02  0.51100000000E-03 0. -1.
    9900012    2    1    2    0    0  0.17919526584E+01 -0.18522786557E+02 -0.20915079815E+01  0.72461571568E+02  0.70000001659E+02 0.  0.
         12    1    1    2    0    0 -0.17919526584E+01  0.18522786557E+02  0.20915079815E+01  0.18726428432E+02  0.00000000000E+00 0. -1.
         11    1    3    3    0    0 -0.18077143255E+02 -0.16221136677E+02 -0.19196380141E+02  0.30958187837E+02  0.51100000000E-03 0. -1.
        -11    1    3    3    0    0  0.47377627349E+01  0.10152992605E+02 -0.47316240292E+01  0.12162151158E+02  0.51100000000E-03 0.  1.
        -12    1    3    3    0    0  0.15131333178E+02 -0.12454642485E+02  0.21836496188E+02  0.29341232574E+02  0.00000000000E+00 0.  1.
</event>
<event>
 7    1  0.3027254E-013  0.7246156E+02  0.7816164E-02  0.1226708E+00
        -11   -1    0    0    0    0  0.00000000000E+00  0.00000000000E+00  0.45593999997E+02  0.45594000000E+02  0.51100000000E-03 0.  1.
         11   -1    0    0    0    0 -0.00000000000E+00 -0.00000000000E+00 -0.45593999997E+02  0.45594000000E+02  0.51100000000E-03 0. -1.
    9900012    2    1    2    0    0  0.35591570573E+01  0.54743594550E+01  0.17551158325E+02  0.72461564969E+02  0.69999993063E+02 0.  0.
         12    1    1    2    0    0 -0.35591570573E+01 -0.54743594550E+01 -0.17551158325E+02  0.18726435031E+02  0.00000000000E+00 0. -1.
         11    1    3    3    0    0  0.78880390046E+01  0.20659903396E+02  0.89847340494E+01  0.23870027521E+02  0.51100000000E-03 0. -1.
        -11    1    3    3    0    0 -0.57937633847E+01  0.10437461499E+02  0.17700405973E+02  0.21349769755E+02  0.51100000000E-03 0.  1.
         12    1    3    3    0    0  0.14648814374E+01 -0.25623005440E+02 -0.91339816976E+01  0.27241767693E+02  0.00000000000E+00 0. -1.
</event>
<event>
 7    1  0.3027254E-013  0.7246157E+02  0.7816164E-02  0.1226708E+00
        -11   -1    0    0    0    0  0.00000000000E+00  0.00000000000E+00  0.45593999997E+02  0.45594000000E+02  0.51100000000E-03 0. -1.
         11   -1    0    0    0    0 -0.00000000000E+00 -0.00000000000E+00 -0.45593999997E+02  0.45594000000E+02  0.51100000000E-03 0.  1.
    9900012    2    1    2    0    0  0.31818968622E+01 -0.18416127572E+02 -0.11836292090E+01  0.72461569468E+02  0.69999998923E+02 0.  0.
         12    1    1    2    0    0 -0.31818968622E+01  0.18416127572E+02  0.11836292090E+01  0.18726430532E+02  0.00000000000E+00 0. -1.
         11    1    3    3    0    0 -0.44999270358E+00 -0.58474687493E+01  0.26577222303E+01  0.64388564141E+01  0.51100000000E-03 0. -1.
        -11    1    3    3    0    0 -0.19424383461E+02 -0.25312367298E+02 -0.17455379378E+02  0.36369119876E+02  0.51100000000E-03 0.  1.
         12    1    3    3    0    0  0.23056273027E+02  0.12743708475E+02  0.13614027939E+02  0.29653593177E+02  0.00000000000E+00 0. -1.
</event>
<event>
 7    1  0.3027254E-013  0.7246165E+02  0.7816164E-02  0.1226708E+00
        -11   -1    0    0    0    0  0.00000000000E+00  0.00000000000E+00  0.45593999997E+02  0.45594000000E+02  0.51100000000E-03 0.  1.
         11   -1    0    0    0    0 -0.00000000000E+00 -0.00000000000E+00 -0.45593999997E+02  0.45594000000E+02  0.51100000000E-03 0. -1.
    9900012    2    1    2    0    0  0.10502709568E+02 -0.14288118700E+02  0.60182229776E+01  0.72461648191E+02  0.70000101475E+02 0.  0.
         12    1    1    2    0    0 -0.10502709568E+02  0.14288118700E+02 -0.60182229776E+01  0.18726351809E+02  0.00000000000E+00 0. -1.
         11    1    3    3    0    0 -0.78683632027E+01  0.11684098775E+02  0.44959255976E+01  0.14786569951E+02  0.51100000000E-03 0. -1.
        -11    1    3    3    0    0 -0.69671354685E+01 -0.26847504986E+02  0.12026506150E+02  0.30231876406E+02  0.51100000000E-03 0.  1.
         12    1    3    3    0    0  0.25338208240E+02  0.87528751148E+00 -0.10504208770E+02  0.27443201834E+02  0.00000000000E+00 0. -1.
</event>
<event>
 7    1  0.3027254E-013  0.7246161E+02  0.7816164E-02  0.1226708E+00
        -11   -1    0    0    0    0  0.00000000000E+00  0.00000000000E+00  0.45593999997E+02  0.45594000000E+02  0.51100000000E-03 0.  1.
         11   -1    0    0    0    0 -0.00000000000E+00 -0.00000000000E+00 -0.45593999997E+02  0.45594000000E+02  0.51100000000E-03 0. -1.
    9900012    2    1    2    0    0  0.12263751748E+01  0.18222176587E+02  0.41383699933E+01  0.72461606278E+02  0.70000046876E+02 0.  0.
         12    1    1    2    0    0 -0.12263751748E+01 -0.18222176587E+02 -0.41383699933E+01  0.18726393722E+02  0.00000000000E+00 0. -1.
         11    1    3    3    0    0  0.11896871759E+01 -0.26338492812E+01 -0.49697576999E+01  0.57490007366E+01  0.51100000000E-03 0. -1.
        -11    1    3    3    0    0  0.45760238285E+01  0.23500490060E+01 -0.26141321458E+02  0.26642661508E+02  0.51100000000E-03 0.  1.
        -12    1    3    3    0    0 -0.45393358295E+01  0.18505976862E+02  0.35249449151E+02  0.40069944033E+02  0.00000000000E+00 0.  1.
</event>
<event>
 7    1  0.3027254E-013  0.7246165E+02  0.7816164E-02  0.1226708E+00
        -11   -1    0    0    0    0  0.00000000000E+00  0.00000000000E+00  0.45593999997E+02  0.45594000000E+02  0.51100000000E-03 0.  1.
         11   -1    0    0    0    0 -0.00000000000E+00 -0.00000000000E+00 -0.45593999997E+02  0.45594000000E+02  0.51100000000E-03 0. -1.
    9900012    2    1    2    0    0 -0.45672595370E+01 -0.91396807004E+01  0.15693387137E+02  0.72461654312E+02  0.70000109448E+02 0.  0.
         12    1    1    2    0    0  0.45672595370E+01  0.91396807004E+01 -0.15693387137E+02  0.18726345688E+02  0.00000000000E+00 0. -1.
         11    1    3    3    0    0 -0.11007143119E+02 -0.67268857951E+01 -0.11344993848E+01  0.12949721281E+02  0.51100000000E-03 0. -1.
        -11    1    3    3    0    0 -0.20716450978E+02  0.12511341879E+02  0.14996045250E+02  0.28470798903E+02  0.51100000000E-03 0.  1.
         12    1    3    3    0    0  0.27156334560E+02 -0.14924136784E+02  0.18318412719E+01  0.31041134128E+02  0.00000000000E+00 0. -1.
</event>
<event>
 7    1  0.3027254E-013  0.7246178E+02  0.7816164E-02  0.1226707E+00
        -11   -1    0    0    0    0  0.00000000000E+00  0.00000000000E+00  0.45593999997E+02  0.45594000000E+02  0.51100000000E-03 0.  1.
         11   -1    0    0    0    0 -0.00000000000E+00 -0.00000000000E+00 -0.45593999997E+02  0.45594000000E+02  0.51100000000E-03 0. -1.
    9900012    2    1    2    0    0 -0.15875615546E+02 -0.75912789192E+01  0.64038121151E+01  0.72461775228E+02  0.70000266964E+02 0.  0.
         12    1    1    2    0    0  0.15875615546E+02  0.75912789192E+01 -0.64038121151E+01  0.18726224772E+02  0.00000000000E+00 0. -1.
         11    1    3    3    0    0 -0.20949323283E+01 -0.30295793456E+02  0.11381361934E+02  0.32430837829E+02  0.51100000000E-03 0. -1.
        -11    1    3    3    0    0  0.19610333712E+01 -0.60118376526E+01  0.18295936770E+01  0.65829520071E+01  0.51100000000E-03 0.  1.
        -12    1    3    3    0    0 -0.15741716589E+02  0.28716352189E+02 -0.68071434957E+01  0.33447985392E+02  0.00000000000E+00 0.  1.
</event>
<event>
 7    1  0.3027254E-013  0.7246161E+02  0.7816164E-02  0.1226708E+00
        -11   -1    0    0    0    0  0.00000000000E+00  0.00000000000E+00  0.45593999997E+02  0.45594000000E+02  0.51100000000E-03 0.  1.
         11   -1    0    0    0    0 -0.00000000000E+00 -0.00000000000E+00 -0.45593999997E+02  0.45594000000E+02  0.51100000000E-03 0. -1.
    9900012    2    1    2    0    0 -0.13001705898E+02 -0.86184050185E+01  0.10361297968E+02  0.72461608011E+02  0.70000049133E+02 0.  0.
         12    1    1    2    0    0  0.13001705898E+02  0.86184050185E+01 -0.10361297968E+02  0.18726391989E+02  0.00000000000E+00 0. -1.
         11    1    3    3    0    0  0.25963892174E+02 -0.15449983519E+02  0.31383360076E+01  0.30375563216E+02  0.51100000000E-03 0. -1.
        -11    1    3    3    0    0 -0.89833586433E-01  0.75474968632E+00  0.23110122342E+01  0.24327957107E+01  0.51100000000E-03 0.  1.
        -12    1    3    3    0    0 -0.38875764486E+02  0.60768288138E+01  0.49119497267E+01  0.39653249084E+02  0.00000000000E+00 0.  1.
</event>
<event>
 7    1  0.3027254E-013  0.7246160E+02  0.7816164E-02  0.1226708E+00
        -11   -1    0    0    0    0  0.00000000000E+00  0.00000000000E+00  0.45593999997E+02  0.45594000000E+02  0.51100000000E-03 0. -1.
         11   -1    0    0    0    0 -0.00000000000E+00 -0.00000000000E+00 -0.45593999997E+02  0.45594000000E+02  0.51100000000E-03 0.  1.
    9900012    2    1    2    0    0  0.70876953233E+01  0.97578670010E+01  0.14325738325E+02  0.72461596929E+02  0.70000034697E+02 0.  0.
         12    1    1    2    0    0 -0.70876953233E+01 -0.97578670010E+01 -0.14325738325E+02  0.18726403071E+02  0.00000000000E+00 0. -1.
         11    1    3    3    0    0 -0.25719316112E+02 -0.79294645210E+01  0.43666188788E+01  0.27265857580E+02  0.51100000000E-03 0. -1.
        -11    1    3    3    0    0  0.14103261012E+02 -0.44626080091E+01  0.88761358271E+00  0.14819065408E+02  0.51100000000E-03 0.  1.
        -12    1    3    3    0    0  0.18703750423E+02  0.22149939531E+02  0.90715058636E+01  0.30376673942E+02  0.00000000000E+00 0.  1.
</event>
<event>
 7    1  0.3027254E-013  0.7246158E+02  0.7816164E-02  0.1226708E+00
        -11   -1    0    0    0    0  0.00000000000E+00  0.00000000000E+00  0.45593999997E+02  0.45594000000E+02  0.51100000000E-03 0. -1.
         11   -1    0    0    0    0 -0.00000000000E+00 -0.00000000000E+00 -0.45593999997E+02  0.45594000000E+02  0.51100000000E-03 0.  1.
    9900012    2    1    2    0    0 -0.15488680628E+02  0.37806847338E+01 -0.98227371610E+01  0.72461575622E+02  0.70000006941E+02 0.  0.
         12    1    1    2    0    0  0.15488680628E+02 -0.37806847338E+01  0.98227371610E+01  0.18726424378E+02  0.00000000000E+00 0. -1.
         11    1    3    3    0    0 -0.23958472057E+01 -0.76169264641E+01 -0.54366188406E+01  0.96599418876E+01  0.51100000000E-03 0. -1.
        -11    1    3    3    0    0 -0.96812010122E+01 -0.24600940034E+02 -0.60023516900E+00  0.26444133302E+02  0.51100000000E-03 0.  1.
         12    1    3    3    0    0 -0.34116324095E+01  0.35998551232E+02 -0.37858831513E+01  0.36357500433E+02  0.00000000000E+00 0. -1.
</event>
<event>
 7    1  0.3027254E-013  0.7246154E+02  0.7816164E-02  0.1226708E+00
        -11   -1    0    0    0    0  0.00000000000E+00  0.00000000000E+00  0.45593999997E+02  0.45594000000E+02  0.51100000000E-03 0.  1.
         11   -1    0    0    0    0 -0.00000000000E+00 -0.00000000000E+00 -0.45593999997E+02  0.45594000000E+02  0.51100000000E-03 0. -1.
    9900012    2    1    2    0    0 -0.64160404781E+01 -0.53252697024E+01  0.16767715257E+02  0.72461538835E+02  0.69999959018E+02 0.  0.
         12    1    1    2    0    0  0.64160404781E+01  0.53252697024E+01 -0.16767715257E+02  0.18726461165E+02  0.00000000000E+00 0. -1.
         11    1    3    3    0    0 -0.17604862413E+02 -0.61903882140E+00  0.85895420517E+01  0.19598332137E+02  0.51100000000E-03 0. -1.
        -11    1    3    3    0    0 -0.14666267568E+02 -0.14214458862E+00  0.19391886820E+02  0.24313882540E+02  0.51100000000E-03 0.  1.
        -12    1    3    3    0    0  0.25855089502E+02 -0.45640862924E+01 -0.11213713615E+02  0.28549324158E+02  0.00000000000E+00 0.  1.
</event>
<event>
 7    1  0.3027254E-013  0.7246156E+02  0.7816164E-02  0.1226708E+00
        -11   -1    0    0    0    0  0.00000000000E+00  0.00000000000E+00  0.45593999997E+02  0.45594000000E+02  0.51100000000E-03 0. -1.
         11   -1    0    0    0    0 -0.00000000000E+00 -0.00000000000E+00 -0.45593999997E+02  0.45594000000E+02  0.51100000000E-03 0.  1.
    9900012    2    1    2    0    0 -0.26404296345E+01 -0.12242049330E+02 -0.13922642089E+02  0.72461558716E+02  0.69999984917E+02 0.  0.
         12    1    1    2    0    0  0.26404296345E+01  0.12242049330E+02  0.13922642089E+02  0.18726441284E+02  0.00000000000E+00 0. -1.
         11    1    3    3    0    0  0.13944583281E+02 -0.23647380724E+02 -0.61067962470E+01  0.28123708480E+02  0.51100000000E-03 0. -1.
        -11    1    3    3    0    0 -0.53328251358E+01 -0.13615200979E+02 -0.84651564674E+01  0.16895904708E+02  0.51100000000E-03 0.  1.
        -12    1    3    3    0    0 -0.11252187780E+02  0.25020532373E+02  0.64931062587E+00  0.27441945528E+02  0.00000000000E+00 0.  1.
</event>
<event>
 7    1  0.3027254E-013  0.7246157E+02  0.7816164E-02  0.1226708E+00
        -11   -1    0    0    0    0  0.00000000000E+00  0.00000000000E+00  0.45593999997E+02  0.45594000000E+02  0.51100000000E-03 0.  1.
         11   -1    0    0    0    0 -0.00000000000E+00 -0.00000000000E+00 -0.45593999997E+02  0.45594000000E+02  0.51100000000E-03 0. -1.
    9900012    2    1    2    0    0  0.13425844959E+02 -0.10013096900E+02  0.83763917161E+01  0.72461565193E+02  0.69999993355E+02 0.  0.
         12    1    1    2    0    0 -0.13425844959E+02  0.10013096900E+02 -0.83763917161E+01  0.18726434807E+02  0.00000000000E+00 0. -1.
         11    1    3    3    0    0 -0.11541040381E+02  0.12852118193E+02 -0.12148200749E+02  0.21117559917E+02  0.51100000000E-03 0. -1.
        -11    1    3    3    0    0 -0.35896600024E+01 -0.49550564405E+01 -0.59098656544E+01  0.85067476497E+01  0.51100000000E-03 0.  1.
        -12    1    3    3    0    0  0.28556545343E+02 -0.17910158652E+02  0.26434458120E+02  0.42837257627E+02  0.00000000000E+00 0.  1.
</event>
<event>
 7    1  0.3027254E-013  0.7246176E+02  0.7816164E-02  0.1226708E+00
        -11   -1    0    0    0    0  0.00000000000E+00  0.00000000000E+00  0.45593999997E+02  0.45594000000E+02  0.51100000000E-03 0.  1.
         11   -1    0    0    0    0 -0.00000000000E+00 -0.00000000000E+00 -0.45593999997E+02  0.45594000000E+02  0.51100000000E-03 0. -1.
    9900012    2    1    2    0    0 -0.15709415774E+02  0.58513211916E+01  0.83455604432E+01  0.72461759513E+02  0.70000246492E+02 0.  0.
         12    1    1    2    0    0  0.15709415774E+02 -0.58513211916E+01 -0.83455604432E+01  0.18726240487E+02  0.00000000000E+00 0. -1.
         11    1    3    3    0    0  0.17097081323E+02 -0.11180556519E+02  0.19568373623E+01  0.20521799302E+02  0.51100000000E-03 0. -1.
        -11    1    3    3    0    0 -0.16879133970E+02 -0.60051289836E-01  0.18980395030E+02  0.25400081997E+02  0.51100000000E-03 0.  1.
         12    1    3    3    0    0 -0.15927363128E+02  0.17091929000E+02 -0.12591671949E+02  0.26539878214E+02  0.00000000000E+00 0. -1.
</event>
<event>
 7    1  0.3027254E-013  0.7246158E+02  0.7816164E-02  0.1226708E+00
        -11   -1    0    0    0    0  0.00000000000E+00  0.00000000000E+00  0.45593999997E+02  0.45594000000E+02  0.51100000000E-03 0.  1.
         11   -1    0    0    0    0 -0.00000000000E+00 -0.00000000000E+00 -0.45593999997E+02  0.45594000000E+02  0.51100000000E-03 0. -1.
    9900012    2    1    2    0    0  0.34709217112E+01 -0.18341836432E+02  0.14861723342E+01  0.72461575637E+02  0.70000006960E+02 0.  0.
         12    1    1    2    0    0 -0.34709217112E+01  0.18341836432E+02 -0.14861723342E+01  0.18726424363E+02  0.00000000000E+00 0. -1.
         11    1    3    3    0    0  0.38822966822E+01 -0.68881322107E+01 -0.72353200103E+00  0.79399050183E+01  0.51100000000E-03 0. -1.
        -11    1    3    3    0    0  0.27006712091E+01 -0.19845502809E+02 -0.27201046054E+02  0.33779202380E+02  0.51100000000E-03 0.  1.
         12    1    3    3    0    0 -0.31120461801E+01  0.83917985878E+01  0.29410750389E+02  0.30742468239E+02  0.00000000000E+00 0. -1.
</event>
<event>
 7    1  0.3027254E-013  0.7246157E+02  0.7816164E-02  0.1226708E+00
        -11   -1    0    0    0    0  0.00000000000E+00  0.00000000000E+00  0.45593999997E+02  0.45594000000E+02  0.51100000000E-03 0. -1.
         11   -1    0    0    0    0 -0.00000000000E+00 -0.00000000000E+00 -0.45593999997E+02  0.45594000000E+02  0.51100000000E-03 0.  1.
    9900012    2    1    2    0    0  0.94056459491E+00 -0.13286281513E+02 -0.13163174182E+02  0.72461572345E+02  0.70000002671E+02 0.  0.
         12    1    1    2    0    0 -0.94056459491E+00  0.13286281513E+02  0.13163174182E+02  0.18726427655E+02  0.00000000000E+00 0. -1.
         11    1    3    3    0    0 -0.17786386431E+02 -0.44203927896E+01 -0.17161341125E+02  0.25107908000E+02  0.51100000000E-03 0. -1.
        -11    1    3    3    0    0 -0.11599267835E+02  0.20096873867E+01 -0.65272495097E+01  0.13460566263E+02  0.51100000000E-03 0.  1.
        -12    1    3    3    0    0  0.30326218860E+02 -0.10875576110E+02  0.10525416453E+02  0.33893098082E+02  0.00000000000E+00 0.  1.
</event>
<event>
 7    1  0.3027254E-013  0.7246151E+02  0.7816164E-02  0.1226708E+00
        -11   -1    0    0    0    0  0.00000000000E+00  0.00000000000E+00  0.45593999997E+02  0.45594000000E+02  0.51100000000E-03 0.  1.
         11   -1    0    0    0    0 -0.00000000000E+00 -0.00000000000E+00 -0.45593999997E+02  0.45594000000E+02  0.51100000000E-03 0. -1.
    9900012    2    1    2    0    0 -0.17610143016E+02  0.17565514767E+01 -0.61219998678E+01  0.72461508270E+02  0.69999919201E+02 0.  0.
         12    1    1    2    0    0  0.17610143016E+02 -0.17565514767E+01  0.61219998678E+01  0.18726491730E+02  0.00000000000E+00 0. -1.
         11    1    3    3    0    0 -0.12563995390E+02 -0.32525163379E+01  0.21602372683E+02  0.25201098161E+02  0.51100000000E-03 0. -1.
        -11    1    3    3    0    0 -0.20576099853E+02  0.77036602624E+01 -0.12172018006E+02  0.25117330455E+02  0.51100000000E-03 0.  1.
         12    1    3    3    0    0  0.15529952227E+02 -0.26945924478E+01 -0.15552354545E+02  0.22143079654E+02  0.00000000000E+00 0. -1.
</event>
<event>
 7    1  0.3027254E-013  0.7246158E+02  0.7816164E-02  0.1226708E+00
        -11   -1    0    0    0    0  0.00000000000E+00  0.00000000000E+00  0.45593999997E+02  0.45594000000E+02  0.51100000000E-03 0. -1.
         11   -1    0    0    0    0 -0.00000000000E+00 -0.00000000000E+00 -0.45593999997E+02  0.45594000000E+02  0.51100000000E-03 0.  1.
    9900012    2    1    2    0    0  0.15712486989E+02 -0.82375063551E+01 -0.59949921602E+01  0.72461583116E+02  0.70000016702E+02 0.  0.
         12    1    1    2    0    0 -0.15712486989E+02  0.82375063551E+01  0.59949921602E+01  0.18726416884E+02  0.00000000000E+00 0. -1.
         11    1    3    3    0    0 -0.46696010865E+01  0.42439198057E+00 -0.10195410035E+01  0.47984108806E+01  0.51100000000E-03 0. -1.
        -11    1    3    3    0    0 -0.10288616419E+02  0.11846802221E+02 -0.22005485936E+02  0.27026723113E+02  0.51100000000E-03 0.  1.
         12    1    3    3    0    0  0.30670704494E+02 -0.20508700557E+02  0.17030034779E+02  0.40636449122E+02  0.00000000000E+00 0. -1.
</event>
<event>
 7    1  0.3027254E-013  0.7246143E+02  0.7816164E-02  0.1226708E+00
        -11   -1    0    0    0    0  0.00000000000E+00  0.00000000000E+00  0.45593999997E+02  0.45594000000E+02  0.51100000000E-03 0.  1.
         11   -1    0    0    0    0 -0.00000000000E+00 -0.00000000000E+00 -0.45593999997E+02  0.45594000000E+02  0.51100000000E-03 0. -1.
    9900012    2    1    2    0    0  0.12843481379E+02 -0.13594632741E+02 -0.95674815466E+00  0.72461430097E+02  0.69999817367E+02 0.  0.
         12    1    1    2    0    0 -0.12843481379E+02  0.13594632741E+02  0.95674815466E+00  0.18726569903E+02  0.00000000000E+00 0. -1.
         11    1    3    3    0    0 -0.63793151490E+01  0.72736282039E+01 -0.18576615230E+02  0.20944974640E+02  0.51100000000E-03 0. -1.
        -11    1    3    3    0    0 -0.64221534947E+01 -0.16473800705E+02 -0.34762978158E+01  0.18019844948E+02  0.51100000000E-03 0.  1.
        -12    1    3    3    0    0  0.25644950023E+02 -0.43944602395E+01  0.21096164891E+02  0.33496610509E+02  0.00000000000E+00 0.  1.
</event>
<event>
 7    1  0.3027254E-013  0.7246159E+02  0.7816164E-02  0.1226708E+00
        -11   -1    0    0    0    0  0.00000000000E+00  0.00000000000E+00  0.45593999997E+02  0.45594000000E+02  0.51100000000E-03 0. -1.
         11   -1    0    0    0    0 -0.00000000000E+00 -0.00000000000E+00 -0.45593999997E+02  0.45594000000E+02  0.51100000000E-03 0.  1.
    9900012    2    1    2    0    0  0.18701349784E+02  0.27921109866E+00  0.92737449484E+00  0.72461589077E+02  0.70000024468E+02 0.  0.
         12    1    1    2    0    0 -0.18701349784E+02 -0.27921109866E+00 -0.92737449484E+00  0.18726410923E+02  0.00000000000E+00 0. -1.
         11    1    3    3    0    0  0.21465671246E+02  0.15209887026E+02 -0.18826531632E+02  0.32350486843E+02  0.51100000000E-03 0.  1.
        -11    1    3    3    0    0  0.10847532782E+02  0.38357385931E+01  0.44719773756E+01  0.12344247240E+02  0.51100000000E-03 0. -1.
        -12    1    3    3    0    0 -0.13611854244E+02 -0.18766414521E+02  0.15281928751E+02  0.27766854995E+02  0.00000000000E+00 0.  1.
</event>
<event>
 7    1  0.3027254E-013  0.7246153E+02  0.7816164E-02  0.1226708E+00
        -11   -1    0    0    0    0  0.00000000000E+00  0.00000000000E+00  0.45593999997E+02  0.45594000000E+02  0.51100000000E-03 0. -1.
         11   -1    0    0    0    0 -0.00000000000E+00 -0.00000000000E+00 -0.45593999997E+02  0.45594000000E+02  0.51100000000E-03 0.  1.
    9900012    2    1    2    0    0  0.46938881090E+01 -0.88090980693E+01 -0.15844493497E+02  0.72461527600E+02  0.69999944383E+02 0.  0.
         12    1    1    2    0    0 -0.46938881090E+01  0.88090980693E+01  0.15844493497E+02  0.18726472400E+02  0.00000000000E+00 0. -1.
         11    1    3    3    0    0  0.76678442550E+01 -0.11079177595E+02 -0.21402895147E+01  0.13642758195E+02  0.51100000000E-03 0. -1.
        -11    1    3    3    0    0  0.11517020623E+02 -0.22658009369E+02  0.28405863425E+01  0.25575302220E+02  0.51100000000E-03 0.  1.
         12    1    3    3    0    0 -0.14490976769E+02  0.24928088894E+02 -0.16544790324E+02  0.33243467186E+02  0.00000000000E+00 0. -1.
</event>
<event>
 7    1  0.3027254E-013  0.7246157E+02  0.7816164E-02  0.1226708E+00
        -11   -1    0    0    0    0  0.00000000000E+00  0.00000000000E+00  0.45593999997E+02  0.45594000000E+02  0.51100000000E-03 0.  1.
         11   -1    0    0    0    0 -0.00000000000E+00 -0.00000000000E+00 -0.45593999997E+02  0.45594000000E+02  0.51100000000E-03 0. -1.
    9900012    2    1    2    0    0 -0.14456282536E+02  0.11383997316E+02  0.34784385278E+01  0.72461573906E+02  0.70000004705E+02 0.  0.
         12    1    1    2    0    0  0.14456282536E+02 -0.11383997316E+02 -0.34784385278E+01  0.18726426094E+02  0.00000000000E+00 0. -1.
         11    1    3    3    0    0  0.48617702819E+01  0.11334656808E+01 -0.11534012128E+02  0.12568014591E+02  0.51100000000E-03 0. -1.
        -11    1    3    3    0    0 -0.32783714912E+02  0.21825128952E+00 -0.56505365253E+01  0.33267824701E+02  0.51100000000E-03 0.  1.
        -12    1    3    3    0    0  0.13465662094E+02  0.10032280345E+02  0.20662987181E+02  0.26625734615E+02  0.00000000000E+00 0.  1.
</event>
<event>
 7    1  0.3027254E-013  0.7246151E+02  0.7816164E-02  0.1226708E+00
        -11   -1    0    0    0    0  0.00000000000E+00  0.00000000000E+00  0.45593999997E+02  0.45594000000E+02  0.51100000000E-03 0. -1.
         11   -1    0    0    0    0 -0.00000000000E+00 -0.00000000000E+00 -0.45593999997E+02  0.45594000000E+02  0.51100000000E-03 0.  1.
    9900012    2    1    2    0    0 -0.13635960939E+02  0.10930824477E+02 -0.67274880429E+01  0.72461509409E+02  0.69999920686E+02 0.  0.
         12    1    1    2    0    0  0.13635960939E+02 -0.10930824477E+02  0.67274880429E+01  0.18726490591E+02  0.00000000000E+00 0. -1.
         11    1    3    3    0    0 -0.11916948616E+02 -0.62880172337E+01 -0.38223295860E+01  0.14005821246E+02  0.51100000000E-03 0. -1.
        -11    1    3    3    0    0 -0.15637675293E+02 -0.14890861896E+02 -0.81260648069E+01  0.23071792000E+02  0.51100000000E-03 0.  1.
         12    1    3    3    0    0  0.13918662970E+02  0.32109703607E+02  0.52209063500E+01  0.35383896163E+02  0.00000000000E+00 0. -1.
</event>
<event>
 7    1  0.3027254E-013  0.7246157E+02  0.7816164E-02  0.1226708E+00
        -11   -1    0    0    0    0  0.00000000000E+00  0.00000000000E+00  0.45593999997E+02  0.45594000000E+02  0.51100000000E-03 0.  1.
         11   -1    0    0    0    0 -0.00000000000E+00 -0.00000000000E+00 -0.45593999997E+02  0.45594000000E+02  0.51100000000E-03 0. -1.
    9900012    2    1    2    0    0 -0.83095390735E+00  0.18273959796E+02 -0.40064010576E+01  0.72461565730E+02  0.69999994055E+02 0.  0.
         12    1    1    2    0    0  0.83095390735E+00 -0.18273959796E+02  0.40064010576E+01  0.18726434270E+02  0.00000000000E+00 0. -1.
         11    1    3    3    0    0 -0.50236013900E+01 -0.14087235871E+02 -0.93113619052E+01  0.17617838863E+02  0.51100000000E-03 0. -1.
        -11    1    3    3    0    0  0.94746196846E+01  0.34586088909E+00 -0.14133311886E+02  0.17018770316E+02  0.51100000000E-03 0.  1.
         12    1    3    3    0    0 -0.52819722020E+01  0.32015334778E+02  0.19438272734E+02  0.37824956552E+02  0.00000000000E+00 0. -1.
</event>
<event>
 7    1  0.3027254E-013  0.7246155E+02  0.7816164E-02  0.1226708E+00
        -11   -1    0    0    0    0  0.00000000000E+00  0.00000000000E+00  0.45593999997E+02  0.45594000000E+02  0.51100000000E-03 0. -1.
         11   -1    0    0    0    0 -0.00000000000E+00 -0.00000000000E+00 -0.45593999997E+02  0.45594000000E+02  0.51100000000E-03 0.  1.
    9900012    2    1    2    0    0 -0.11598189204E+00  0.13133558598E+02 -0.13348263559E+02  0.72461549368E+02  0.69999972740E+02 0.  0.
         12    1    1    2    0    0  0.11598189204E+00 -0.13133558598E+02  0.13348263559E+02  0.18726450632E+02  0.00000000000E+00 0. -1.
         11    1    3    3    0    0 -0.62651118836E+01 -0.58671383683E+01 -0.16611390999E+01  0.87426725272E+01  0.51100000000E-03 0. -1.
        -11    1    3    3    0    0 -0.64128094248E+01 -0.93351886169E+01  0.17695687163E+02  0.21009693374E+02  0.51100000000E-03 0.  1.
        -12    1    3    3    0    0  0.12561939416E+02  0.28335885583E+02 -0.29382811621E+02  0.42709183467E+02  0.00000000000E+00 0.  1.
</event>
<event>
 7    1  0.3027254E-013  0.7246159E+02  0.7816164E-02  0.1226708E+00
        -11   -1    0    0    0    0  0.00000000000E+00  0.00000000000E+00  0.45593999997E+02  0.45594000000E+02  0.51100000000E-03 0. -1.
         11   -1    0    0    0    0 -0.00000000000E+00 -0.00000000000E+00 -0.45593999997E+02  0.45594000000E+02  0.51100000000E-03 0.  1.
    9900012    2    1    2    0    0 -0.10035011559E+02 -0.10875179937E+02  0.11476379572E+02  0.72461593946E+02  0.70000030810E+02 0.  0.
         12    1    1    2    0    0  0.10035011559E+02  0.10875179937E+02 -0.11476379572E+02  0.18726406054E+02  0.00000000000E+00 0. -1.
         11    1    3    3    0    0  0.12562469831E+02  0.16082450375E+02  0.63959992943E+01  0.21386202691E+02  0.51100000000E-03 0. -1.
        -11    1    3    3    0    0  0.98218741260E+01 -0.78669570219E+01 -0.21438818191E+01  0.12765361477E+02  0.51100000000E-03 0.  1.
        -12    1    3    3    0    0 -0.32419355516E+02 -0.19090673290E+02  0.72242620964E+01  0.38310029777E+02  0.00000000000E+00 0.  1.
</event>
<event>
 7    1  0.3027254E-013  0.7246161E+02  0.7816164E-02  0.1226708E+00
        -11   -1    0    0    0    0  0.00000000000E+00  0.00000000000E+00  0.45593999997E+02  0.45594000000E+02  0.51100000000E-03 0. -1.
         11   -1    0    0    0    0 -0.00000000000E+00 -0.00000000000E+00 -0.45593999997E+02  0.45594000000E+02  0.51100000000E-03 0.  1.
    9900012    2    1    2    0    0 -0.29614082803E+01  0.18196369085E+02 -0.32863165050E+01  0.72461610518E+02  0.70000052398E+02 0.  0.
         12    1    1    2    0    0  0.29614082803E+01 -0.18196369085E+02  0.32863165050E+01  0.18726389482E+02  0.00000000000E+00 0. -1.
         11    1    3    3    0    0 -0.19880135445E+02  0.70241833139E+01  0.15501298197E+02  0.26169623280E+02  0.51100000000E-03 0. -1.
        -11    1    3    3    0    0 -0.27195740135E+01  0.10862240294E+02  0.75001574606E+01  0.13477266385E+02  0.51100000000E-03 0.  1.
        -12    1    3    3    0    0  0.19638301178E+02  0.30994547706E+00 -0.26287772163E+02  0.32814720853E+02  0.00000000000E+00 0.  1.
</event>
<event>
 7    1  0.3027254E-013  0.7246171E+02  0.7816164E-02  0.1226708E+00
        -11   -1    0    0    0    0  0.00000000000E+00  0.00000000000E+00  0.45593999997E+02  0.45594000000E+02  0.51100000000E-03 0. -1.
         11   -1    0    0    0    0 -0.00000000000E+00 -0.00000000000E+00 -0.45593999997E+02  0.45594000000E+02  0.51100000000E-03 0.  1.
    9900012    2    1    2    0    0  0.10058516956E+02 -0.11853394876E+02 -0.10440171435E+02  0.72461710644E+02  0.70000182832E+02 0.  0.
         12    1    1    2    0    0 -0.10058516956E+02  0.11853394876E+02  0.10440171435E+02  0.18726289356E+02  0.00000000000E+00 0. -1.
         11    1    3    3    0    0  0.29247733756E+01 -0.32105735233E+02 -0.12393082213E+02  0.34538688758E+02  0.51100000000E-03 0. -1.
        -11    1    3    3    0    0 -0.75124480789E+01 -0.39654917352E+01 -0.33441939340E+01  0.91293830114E+01  0.51100000000E-03 0.  1.
         12    1    3    3    0    0  0.14646191659E+02  0.24217832091E+02  0.52971047121E+01  0.28793638875E+02  0.00000000000E+00 0. -1.
</event>
<event>
 7    1  0.3027254E-013  0.7246172E+02  0.7816164E-02  0.1226708E+00
        -11   -1    0    0    0    0  0.00000000000E+00  0.00000000000E+00  0.45593999997E+02  0.45594000000E+02  0.51100000000E-03 0. -1.
         11   -1    0    0    0    0 -0.00000000000E+00 -0.00000000000E+00 -0.45593999997E+02  0.45594000000E+02  0.51100000000E-03 0.  1.
    9900012    2    1    2    0    0 -0.16351149898E+01 -0.17600356458E+02 -0.61828224426E+01  0.72461723226E+02  0.70000199221E+02 0.  0.
         12    1    1    2    0    0  0.16351149898E+01  0.17600356458E+02  0.61828224426E+01  0.18726276774E+02  0.00000000000E+00 0. -1.
         11    1    3    3    0    0  0.71476575718E+01  0.90509393515E+01 -0.56941791687E+00  0.11546980079E+02  0.51100000000E-03 0. -1.
        -11    1    3    3    0    0  0.22054700324E+02 -0.52863491550E+01 -0.57582536239E+01  0.23398990979E+02  0.51100000000E-03 0.  1.
         12    1    3    3    0    0 -0.30837472886E+02 -0.21364946654E+02  0.14484909819E+00  0.37515752168E+02  0.00000000000E+00 0. -1.
</event>
<event>
 7    1  0.3027254E-013  0.7246165E+02  0.7816164E-02  0.1226708E+00
        -11   -1    0    0    0    0  0.00000000000E+00  0.00000000000E+00  0.45593999997E+02  0.45594000000E+02  0.51100000000E-03 0. -1.
         11   -1    0    0    0    0 -0.00000000000E+00 -0.00000000000E+00 -0.45593999997E+02  0.45594000000E+02  0.51100000000E-03 0.  1.
    9900012    2    1    2    0    0  0.11826526957E+02  0.28482739712E+01 -0.14237159384E+02  0.72461651936E+02  0.70000106353E+02 0.  0.
         12    1    1    2    0    0 -0.11826526957E+02 -0.28482739712E+01  0.14237159384E+02  0.18726348064E+02  0.00000000000E+00 0. -1.
         11    1    3    3    0    0  0.69826002219E+01 -0.27681329402E+02 -0.15943251312E+02  0.32698623305E+02  0.51100000000E-03 0. -1.
        -11    1    3    3    0    0 -0.40473415447E+00  0.64685499497E+01 -0.10452067110E+02  0.12298441174E+02  0.51100000000E-03 0.  1.
         12    1    3    3    0    0  0.52486608899E+01  0.24061053424E+02  0.12158159038E+02  0.27464587457E+02  0.00000000000E+00 0. -1.
</event>
<event>
 7    1  0.3027254E-013  0.7246156E+02  0.7816164E-02  0.1226708E+00
        -11   -1    0    0    0    0  0.00000000000E+00  0.00000000000E+00  0.45593999997E+02  0.45594000000E+02  0.51100000000E-03 0.  1.
         11   -1    0    0    0    0 -0.00000000000E+00 -0.00000000000E+00 -0.45593999997E+02  0.45594000000E+02  0.51100000000E-03 0. -1.
    9900012    2    1    2    0    0 -0.17419795704E+02  0.68591911850E+01  0.42650526265E+00  0.72461556323E+02  0.69999981799E+02 0.  0.
         12    1    1    2    0    0  0.17419795704E+02 -0.68591911850E+01 -0.42650526265E+00  0.18726443677E+02  0.00000000000E+00 0. -1.
         11    1    3    3    0    0  0.77284232643E+01  0.24808204058E+02 -0.18511039280E+02  0.31903512193E+02  0.51100000000E-03 0. -1.
        -11    1    3    3    0    0 -0.23401948548E+01  0.34269571603E+01  0.45140959587E+01  0.61316889942E+01  0.51100000000E-03 0.  1.
        -12    1    3    3    0    0 -0.22808024113E+02 -0.21375970034E+02  0.14423448584E+02  0.34426355135E+02  0.00000000000E+00 0.  1.
</event>
<event>
 7    1  0.3027254E-013  0.7246153E+02  0.7816164E-02  0.1226708E+00
        -11   -1    0    0    0    0  0.00000000000E+00  0.00000000000E+00  0.45593999997E+02  0.45594000000E+02  0.51100000000E-03 0. -1.
         11   -1    0    0    0    0 -0.00000000000E+00 -0.00000000000E+00 -0.45593999997E+02  0.45594000000E+02  0.51100000000E-03 0.  1.
    9900012    2    1    2    0    0 -0.47592888566E+01 -0.92329239692E+01 -0.15581498496E+02  0.72461526471E+02  0.69999942912E+02 0.  0.
         12    1    1    2    0    0  0.47592888566E+01  0.92329239692E+01  0.15581498496E+02  0.18726473529E+02  0.00000000000E+00 0. -1.
         11    1    3    3    0    0 -0.29234948621E+02 -0.34578760542E+01 -0.33511421158E+01  0.29628858929E+02  0.51100000000E-03 0. -1.
        -11    1    3    3    0    0 -0.72316786482E+01 -0.27646354151E+01  0.19264765598E+01  0.79782013791E+01  0.51100000000E-03 0.  1.
        -12    1    3    3    0    0  0.31707338413E+02 -0.30104124998E+01 -0.14156832940E+02  0.34854466163E+02  0.00000000000E+00 0.  1.
</event>
<event>
 7    1  0.3027254E-013  0.7246156E+02  0.7816164E-02  0.1226708E+00
        -11   -1    0    0    0    0  0.00000000000E+00  0.00000000000E+00  0.45593999997E+02  0.45594000000E+02  0.51100000000E-03 0.  1.
         11   -1    0    0    0    0 -0.00000000000E+00 -0.00000000000E+00 -0.45593999997E+02  0.45594000000E+02  0.51100000000E-03 0. -1.
    9900012    2    1    2    0    0 -0.22649811845E-01  0.12502630098E+02  0.13941420259E+02  0.72461562239E+02  0.69999989507E+02 0.  0.
         12    1    1    2    0    0  0.22649811845E-01 -0.12502630098E+02 -0.13941420259E+02  0.18726437761E+02  0.00000000000E+00 0. -1.
         11    1    3    3    0    0  0.14620810754E+01  0.33405596836E+01 -0.29778469462E+01  0.47079287130E+01  0.51100000000E-03 0. -1.
        -11    1    3    3    0    0  0.23368156901E+01  0.20331962814E+02 -0.20228120452E+02  0.28775445726E+02  0.51100000000E-03 0.  1.
         12    1    3    3    0    0 -0.38215465773E+01 -0.11169892400E+02  0.37147387657E+02  0.38978187801E+02  0.00000000000E+00 0. -1.
</event>
<event>
 7    1  0.3027254E-013  0.7246160E+02  0.7816164E-02  0.1226708E+00
        -11   -1    0    0    0    0  0.00000000000E+00  0.00000000000E+00  0.45593999997E+02  0.45594000000E+02  0.51100000000E-03 0. -1.
         11   -1    0    0    0    0 -0.00000000000E+00 -0.00000000000E+00 -0.45593999997E+02  0.45594000000E+02  0.51100000000E-03 0.  1.
    9900012    2    1    2    0    0 -0.16287324188E+02  0.65602106589E+01 -0.65088270128E+01  0.72461598259E+02  0.70000036429E+02 0.  0.
         12    1    1    2    0    0  0.16287324188E+02 -0.65602106589E+01  0.65088270128E+01  0.18726401741E+02  0.00000000000E+00 0. -1.
         11    1    3    3    0    0 -0.17155204604E+02  0.17475374342E+02  0.22380339025E+02  0.33174829744E+02  0.51100000000E-03 0. -1.
        -11    1    3    3    0    0  0.56092901303E+01 -0.68235088844E+01  0.86986795172E+00  0.88758706489E+01  0.51100000000E-03 0.  1.
        -12    1    3    3    0    0 -0.47414097138E+01 -0.40916547983E+01 -0.29759033989E+02  0.30410897866E+02  0.00000000000E+00 0.  1.
</event>
<event>
 7    1  0.3027254E-013  0.7246157E+02  0.7816164E-02  0.1226708E+00
        -11   -1    0    0    0    0  0.00000000000E+00  0.00000000000E+00  0.45593999997E+02  0.45594000000E+02  0.51100000000E-03 0.  1.
         11   -1    0    0    0    0 -0.00000000000E+00 -0.00000000000E+00 -0.45593999997E+02  0.45594000000E+02  0.51100000000E-03 0. -1.
    9900012    2    1    2    0    0  0.25999421897E+01  0.18459649060E+02 -0.17778625497E+01  0.72461571135E+02  0.70000001095E+02 0.  0.
         12    1    1    2    0    0 -0.25999421897E+01 -0.18459649060E+02  0.17778625497E+01  0.18726428865E+02  0.00000000000E+00 0. -1.
         11    1    3    3    0    0  0.85783394207E+01  0.98803650906E+01 -0.44375521694E+01  0.13816706954E+02  0.51100000000E-03 0. -1.
        -11    1    3    3    0    0 -0.13437997534E+02  0.27973951138E+02 -0.11936956408E+02  0.33250754105E+02  0.51100000000E-03 0.  1.
        -12    1    3    3    0    0  0.74596003028E+01 -0.19394667169E+02  0.14596646027E+02  0.25394110076E+02  0.00000000000E+00 0.  1.
</event>
<event>
 7    1  0.3027254E-013  0.7246137E+02  0.7816164E-02  0.1226709E+00
        -11   -1    0    0    0    0  0.00000000000E+00  0.00000000000E+00  0.45593999997E+02  0.45594000000E+02  0.51100000000E-03 0.  1.
         11   -1    0    0    0    0 -0.00000000000E+00 -0.00000000000E+00 -0.45593999997E+02  0.45594000000E+02  0.51100000000E-03 0. -1.
    9900012    2    1    2    0    0  0.76165386337E+01 -0.13009884456E+02  0.11109359719E+02  0.72461371161E+02  0.69999740591E+02 0.  0.
         12    1    1    2    0    0 -0.76165386337E+01  0.13009884456E+02 -0.11109359719E+02  0.18726628839E+02  0.00000000000E+00 0. -1.
         11    1    3    3    0    0  0.37183502712E+01 -0.36819478421E+02 -0.63526509165E+01  0.37548053130E+02  0.51100000000E-03 0.  1.
        -11    1    3    3    0    0  0.22012969392E+01  0.15973562615E+02  0.47760284905E+00  0.16131599908E+02  0.51100000000E-03 0. -1.
        -12    1    3    3    0    0  0.16968914233E+01  0.78360313497E+01  0.16984407786E+02  0.18781718123E+02  0.00000000000E+00 0.  1.
</event>
<event>
 7    1  0.3027254E-013  0.7246155E+02  0.7816164E-02  0.1226708E+00
        -11   -1    0    0    0    0  0.00000000000E+00  0.00000000000E+00  0.45593999997E+02  0.45594000000E+02  0.51100000000E-03 0.  1.
         11   -1    0    0    0    0 -0.00000000000E+00 -0.00000000000E+00 -0.45593999997E+02  0.45594000000E+02  0.51100000000E-03 0. -1.
    9900012    2    1    2    0    0 -0.33980050844E+01 -0.74800557091E+01  0.16828016134E+02  0.72461553487E+02  0.69999978106E+02 0.  0.
         12    1    1    2    0    0  0.33980050844E+01  0.74800557091E+01 -0.16828016134E+02  0.18726446513E+02  0.00000000000E+00 0. -1.
         11    1    3    3    0    0  0.71332434633E+00  0.14679240829E+02 -0.62811731020E+01  0.15982555451E+02  0.51100000000E-03 0. -1.
        -11    1    3    3    0    0 -0.21612064501E+02 -0.30907328938E+00  0.17766367440E+02  0.27978932620E+02  0.51100000000E-03 0.  1.
        -12    1    3    3    0    0  0.17500735070E+02 -0.21850223248E+02  0.53428217964E+01  0.28500065417E+02  0.00000000000E+00 0.  1.
</event>
<event>
 7    1  0.3027254E-013  0.7246160E+02  0.7816164E-02  0.1226708E+00
        -11   -1    0    0    0    0  0.00000000000E+00  0.00000000000E+00  0.45593999997E+02  0.45594000000E+02  0.51100000000E-03 0.  1.
         11   -1    0    0    0    0 -0.00000000000E+00 -0.00000000000E+00 -0.45593999997E+02  0.45594000000E+02  0.51100000000E-03 0. -1.
    9900012    2    1    2    0    0 -0.90064501800E+00  0.18544712989E+02  0.24413805540E+01  0.72461604716E+02  0.70000044841E+02 0.  0.
         12    1    1    2    0    0  0.90064501800E+00 -0.18544712989E+02 -0.24413805540E+01  0.18726395284E+02  0.00000000000E+00 0. -1.
         11    1    3    3    0    0  0.12555105006E+02 -0.11170887725E+02 -0.11755082308E+02  0.20508567834E+02  0.51100000000E-03 0. -1.
        -11    1    3    3    0    0 -0.15538357685E+02 -0.39358337858E+01  0.22650605736E+01  0.16188324398E+02  0.51100000000E-03 0.  1.
         12    1    3    3    0    0  0.20826076619E+01  0.33651434500E+02  0.11931402288E+02  0.35764712485E+02  0.00000000000E+00 0. -1.
</event>
<event>
 7    1  0.3027254E-013  0.7246159E+02  0.7816164E-02  0.1226708E+00
        -11   -1    0    0    0    0  0.00000000000E+00  0.00000000000E+00  0.45593999997E+02  0.45594000000E+02  0.51100000000E-03 0. -1.
         11   -1    0    0    0    0 -0.00000000000E+00 -0.00000000000E+00 -0.45593999997E+02  0.45594000000E+02  0.51100000000E-03 0.  1.
    9900012    2    1    2    0    0  0.17251919860E+02 -0.67118386953E+01 -0.28286004814E+01  0.72461588218E+02  0.70000023349E+02 0.  0.
         12    1    1    2    0    0 -0.17251919860E+02  0.67118386953E+01  0.28286004814E+01  0.18726411782E+02  0.00000000000E+00 0. -1.
         11    1    3    3    0    0 -0.14502769189E+02 -0.10607828997E+02  0.27732595695E+01  0.18180960346E+02  0.51100000000E-03 0. -1.
        -11    1    3    3    0    0  0.15810273120E+02 -0.79153441359E+01 -0.22221457973E+02  0.28397369661E+02  0.51100000000E-03 0.  1.
        -12    1    3    3    0    0  0.15944415930E+02  0.11811334438E+02  0.16619597923E+02  0.25883258212E+02  0.00000000000E+00 0.  1.
</event>
<event>
 7    1  0.3027254E-013  0.7246156E+02  0.7816164E-02  0.1226708E+00
        -11   -1    0    0    0    0  0.00000000000E+00  0.00000000000E+00  0.45593999997E+02  0.45594000000E+02  0.51100000000E-03 0. -1.
         11   -1    0    0    0    0 -0.00000000000E+00 -0.00000000000E+00 -0.45593999997E+02  0.45594000000E+02  0.51100000000E-03 0.  1.
    9900012    2    1    2    0    0  0.14817970166E+02  0.43529175017E+01 -0.10590532450E+02  0.72461561252E+02  0.69999988220E+02 0.  0.
         12    1    1    2    0    0 -0.14817970166E+02 -0.43529175017E+01  0.10590532450E+02  0.18726438748E+02  0.00000000000E+00 0. -1.
         11    1    3    3    0    0 -0.41874608694E+01  0.34439614697E+01 -0.47659765852E+01  0.72187417330E+01  0.51100000000E-03 0. -1.
        -11    1    3    3    0    0 -0.99746503455E+01  0.24356746227E+02 -0.90332697231E+01  0.27827049762E+02  0.51100000000E-03 0.  1.
         12    1    3    3    0    0  0.28980081381E+02 -0.23447790195E+02  0.32087138580E+01  0.37415769757E+02  0.00000000000E+00 0. -1.
</event>
<event>
 7    1  0.3027254E-013  0.7246147E+02  0.7816164E-02  0.1226708E+00
        -11   -1    0    0    0    0  0.00000000000E+00  0.00000000000E+00  0.45593999997E+02  0.45594000000E+02  0.51100000000E-03 0. -1.
         11   -1    0    0    0    0 -0.00000000000E+00 -0.00000000000E+00 -0.45593999997E+02  0.45594000000E+02  0.51100000000E-03 0.  1.
    9900012    2    1    2    0    0 -0.40882172140E+01  0.17066260259E+02 -0.65354503697E+01  0.72461471471E+02  0.69999871264E+02 0.  0.
         12    1    1    2    0    0  0.40882172140E+01 -0.17066260259E+02  0.65354503697E+01  0.18726528529E+02  0.00000000000E+00 0. -1.
         11    1    3    3    0    0 -0.10540681429E+02  0.30834320871E+02  0.18938547740E+02  0.37689917741E+02  0.51100000000E-03 0.  1.
        -11    1    3    3    0    0  0.58901933187E+01 -0.14287440191E+01  0.42694778362E+00  0.60760160858E+01  0.51100000000E-03 0. -1.
        -12    1    3    3    0    0  0.56227089671E+00 -0.12339316592E+02 -0.25900945893E+02  0.28695537644E+02  0.00000000000E+00 0.  1.
</event>
<event>
 7    1  0.3027254E-013  0.7246160E+02  0.7816164E-02  0.1226708E+00
        -11   -1    0    0    0    0  0.00000000000E+00  0.00000000000E+00  0.45593999997E+02  0.45594000000E+02  0.51100000000E-03 0.  1.
         11   -1    0    0    0    0 -0.00000000000E+00 -0.00000000000E+00 -0.45593999997E+02  0.45594000000E+02  0.51100000000E-03 0. -1.
    9900012    2    1    2    0    0 -0.39383997485E+01 -0.16999656265E+02  0.67954942915E+01  0.72461600229E+02  0.70000038995E+02 0.  0.
         12    1    1    2    0    0  0.39383997485E+01  0.16999656265E+02 -0.67954942915E+01  0.18726399771E+02  0.00000000000E+00 0. -1.
         11    1    3    3    0    0  0.12943175176E+02 -0.16890274355E+02 -0.13470096016E+02  0.25184333193E+02  0.51100000000E-03 0. -1.
        -11    1    3    3    0    0  0.96630135185E+01  0.96692183222E+01  0.10884222555E+02  0.17473806515E+02  0.51100000000E-03 0.  1.
        -12    1    3    3    0    0 -0.26544588444E+02 -0.97786002323E+01  0.93813677524E+01  0.29803460521E+02  0.00000000000E+00 0.  1.
</event>
<event>
 7    1  0.3027254E-013  0.7246160E+02  0.7816164E-02  0.1226708E+00
        -11   -1    0    0    0    0  0.00000000000E+00  0.00000000000E+00  0.45593999997E+02  0.45594000000E+02  0.51100000000E-03 0. -1.
         11   -1    0    0    0    0 -0.00000000000E+00 -0.00000000000E+00 -0.45593999997E+02  0.45594000000E+02  0.51100000000E-03 0.  1.
    9900012    2    1    2    0    0 -0.16856130337E+01  0.14232472040E+02 -0.12052946804E+02  0.72461599429E+02  0.70000037954E+02 0.  0.
         12    1    1    2    0    0  0.16856130337E+01 -0.14232472040E+02  0.12052946804E+02  0.18726400571E+02  0.00000000000E+00 0. -1.
         11    1    3    3    0    0 -0.80774761144E+01 -0.10694388746E+02 -0.99749350702E+01  0.16706732204E+02  0.51100000000E-03 0. -1.
        -11    1    3    3    0    0  0.28996855460E+00  0.14370156072E+02 -0.25543962171E+02  0.29310057505E+02  0.51100000000E-03 0.  1.
         12    1    3    3    0    0  0.61018945261E+01  0.10556704714E+02  0.23465950437E+02  0.26444809720E+02  0.00000000000E+00 0. -1.
</event>
<event>
 7    1  0.3027254E-013  0.7246158E+02  0.7816164E-02  0.1226708E+00
        -11   -1    0    0    0    0  0.00000000000E+00  0.00000000000E+00  0.45593999997E+02  0.45594000000E+02  0.51100000000E-03 0. -1.
         11   -1    0    0    0    0 -0.00000000000E+00 -0.00000000000E+00 -0.45593999997E+02  0.45594000000E+02  0.51100000000E-03 0.  1.
    9900012    2    1    2    0    0  0.48319761332E+01 -0.17573990189E+02 -0.42994789867E+01  0.72461584324E+02  0.70000018276E+02 0.  0.
         12    1    1    2    0    0 -0.48319761332E+01  0.17573990189E+02  0.42994789867E+01  0.18726415676E+02  0.00000000000E+00 0. -1.
         11    1    3    3    0    0  0.13410754215E+02 -0.98870922326E+01  0.42142530621E+01  0.17186123779E+02  0.51100000000E-03 0. -1.
        -11    1    3    3    0    0 -0.61439287400E+01 -0.70670321128E+00 -0.30997032929E+02  0.31607963244E+02  0.51100000000E-03 0.  1.
         12    1    3    3    0    0 -0.24348493416E+01 -0.69801947451E+01  0.22483300880E+02  0.23667497300E+02  0.00000000000E+00 0. -1.
</event>
<event>
 7    1  0.3027254E-013  0.7246160E+02  0.7816164E-02  0.1226708E+00
        -11   -1    0    0    0    0  0.00000000000E+00  0.00000000000E+00  0.45593999997E+02  0.45594000000E+02  0.51100000000E-03 0. -1.
         11   -1    0    0    0    0 -0.00000000000E+00 -0.00000000000E+00 -0.45593999997E+02  0.45594000000E+02  0.51100000000E-03 0.  1.
    9900012    2    1    2    0    0  0.99857532193E+01 -0.10981650732E-01 -0.15841802382E+02  0.72461599100E+02  0.70000037524E+02 0.  0.
         12    1    1    2    0    0 -0.99857532193E+01  0.10981650732E-01  0.15841802382E+02  0.18726400900E+02  0.00000000000E+00 0. -1.
         11    1    3    3    0    0  0.20474866805E+02  0.26451564369E+02 -0.17577001584E+02  0.37786987353E+02  0.51100000000E-03 0.  1.
        -11    1    3    3    0    0 -0.71795756157E+01 -0.80002334592E+00 -0.38759773023E+01  0.81981426973E+01  0.51100000000E-03 0. -1.
        -12    1    3    3    0    0 -0.33095379698E+01 -0.25662522674E+02  0.56111765035E+01  0.26476469050E+02  0.00000000000E+00 0.  1.
</event>
<event>
 7    1  0.3027254E-013  0.7246157E+02  0.7816164E-02  0.1226708E+00
        -11   -1    0    0    0    0  0.00000000000E+00  0.00000000000E+00  0.45593999997E+02  0.45594000000E+02  0.51100000000E-03 0.  1.
         11   -1    0    0    0    0 -0.00000000000E+00 -0.00000000000E+00 -0.45593999997E+02  0.45594000000E+02  0.51100000000E-03 0. -1.
    9900012    2    1    2    0    0  0.71225342860E+00  0.55906840748E+00  0.18704530747E+02  0.72461565932E+02  0.69999994318E+02 0.  0.
         12    1    1    2    0    0 -0.71225342860E+00 -0.55906840748E+00 -0.18704530747E+02  0.18726434068E+02  0.00000000000E+00 0. -1.
         11    1    3    3    0    0 -0.11859190449E+02  0.49335647310E+01  0.61939051753E+01  0.14259906053E+02  0.51100000000E-03 0. -1.
        -11    1    3    3    0    0  0.20720856457E+01 -0.74659678004E+01  0.33578242228E+02  0.34460594387E+02  0.51100000000E-03 0.  1.
         12    1    3    3    0    0  0.10499358232E+02  0.30914714769E+01 -0.21067616656E+02  0.23741065493E+02  0.00000000000E+00 0. -1.
</event>
<event>
 7    1  0.3027254E-013  0.7246166E+02  0.7816164E-02  0.1226708E+00
        -11   -1    0    0    0    0  0.00000000000E+00  0.00000000000E+00  0.45593999997E+02  0.45594000000E+02  0.51100000000E-03 0.  1.
         11   -1    0    0    0    0 -0.00000000000E+00 -0.00000000000E+00 -0.45593999997E+02  0.45594000000E+02  0.51100000000E-03 0. -1.
    9900012    2    1    2    0    0  0.98098615826E+01 -0.68627817335E+01  0.14399468998E+02  0.72461658531E+02  0.70000114945E+02 0.  0.
         12    1    1    2    0    0 -0.98098615826E+01  0.68627817335E+01 -0.14399468998E+02  0.18726341469E+02  0.00000000000E+00 0. -1.
         11    1    3    3    0    0  0.26756919669E+01  0.59577786011E+01 -0.75449438842E+01  0.99790095620E+01  0.51100000000E-03 0. -1.
        -11    1    3    3    0    0 -0.10615792481E+02  0.19139991408E+02  0.95554808488E+01  0.23881824378E+02  0.51100000000E-03 0.  1.
         12    1    3    3    0    0  0.17749962097E+02 -0.31960551743E+02  0.12388932033E+02  0.38600824591E+02  0.00000000000E+00 0. -1.
</event>
<event>
 7    1  0.3027254E-013  0.7246167E+02  0.7816164E-02  0.1226708E+00
        -11   -1    0    0    0    0  0.00000000000E+00  0.00000000000E+00  0.45593999997E+02  0.45594000000E+02  0.51100000000E-03 0.  1.
         11   -1    0    0    0    0 -0.00000000000E+00 -0.00000000000E+00 -0.45593999997E+02  0.45594000000E+02  0.51100000000E-03 0. -1.
    9900012    2    1    2    0    0 -0.61213642158E+01 -0.13819787352E+02 -0.11055217748E+02  0.72461669292E+02  0.70000128963E+02 0.  0.
         12    1    1    2    0    0  0.61213642158E+01  0.13819787352E+02  0.11055217748E+02  0.18726330708E+02  0.00000000000E+00 0. -1.
         11    1    3    3    0    0 -0.84222375288E+01 -0.86741555294E+01  0.14810628370E+01  0.12180665274E+02  0.51100000000E-03 0. -1.
        -11    1    3    3    0    0 -0.11908169299E+02 -0.50792008495E+01  0.20541308507E+02  0.24280612281E+02  0.51100000000E-03 0.  1.
         12    1    3    3    0    0  0.14209042612E+02 -0.66430972828E-01 -0.33077589092E+02  0.36000391737E+02  0.00000000000E+00 0. -1.
</event>
<event>
 7    1  0.3027254E-013  0.7246156E+02  0.7816164E-02  0.1226708E+00
        -11   -1    0    0    0    0  0.00000000000E+00  0.00000000000E+00  0.45593999997E+02  0.45594000000E+02  0.51100000000E-03 0.  1.
         11   -1    0    0    0    0 -0.00000000000E+00 -0.00000000000E+00 -0.45593999997E+02  0.45594000000E+02  0.51100000000E-03 0. -1.
    9900012    2    1    2    0    0 -0.17387265378E+02  0.45968290044E+01  0.52184036148E+01  0.72461559588E+02  0.69999986052E+02 0.  0.
         12    1    1    2    0    0  0.17387265378E+02 -0.45968290044E+01 -0.52184036148E+01  0.18726440412E+02  0.00000000000E+00 0. -1.
         11    1    3    3    0    0 -0.20053691669E+01  0.14927489164E+02 -0.13875553270E+02  0.20478828508E+02  0.51100000000E-03 0. -1.
        -11    1    3    3    0    0 -0.16759275916E+02  0.88237267436E+01  0.25476867762E+02  0.31745901690E+02  0.51100000000E-03 0.  1.
         12    1    3    3    0    0  0.13773797043E+01 -0.19154386903E+02 -0.63829108775E+01  0.20236829390E+02  0.00000000000E+00 0. -1.
</event>
<event>
 7    1  0.3027254E-013  0.7246158E+02  0.7816164E-02  0.1226708E+00
        -11   -1    0    0    0    0  0.00000000000E+00  0.00000000000E+00  0.45593999997E+02  0.45594000000E+02  0.51100000000E-03 0. -1.
         11   -1    0    0    0    0 -0.00000000000E+00 -0.00000000000E+00 -0.45593999997E+02  0.45594000000E+02  0.51100000000E-03 0.  1.
    9900012    2    1    2    0    0  0.48391307537E+01 -0.10613384957E+02 -0.14649835762E+02  0.72461579772E+02  0.70000012346E+02 0.  0.
         12    1    1    2    0    0 -0.48391307537E+01  0.10613384957E+02  0.14649835762E+02  0.18726420228E+02  0.00000000000E+00 0. -1.
         11    1    3    3    0    0  0.13954966203E+01 -0.51225164890E+00  0.90342246300E+01  0.91557101033E+01  0.51100000000E-03 0. -1.
        -11    1    3    3    0    0  0.28008404204E+01  0.93504126891E+01  0.16207581892E+02  0.18919847662E+02  0.51100000000E-03 0.  1.
        -12    1    3    3    0    0  0.64279371302E+00 -0.19451545998E+02 -0.39891642284E+02  0.44386022006E+02  0.00000000000E+00 0.  1.
</event>
<event>
 7    1  0.3027254E-013  0.7246158E+02  0.7816164E-02  0.1226708E+00
        -11   -1    0    0    0    0  0.00000000000E+00  0.00000000000E+00  0.45593999997E+02  0.45594000000E+02  0.51100000000E-03 0.  1.
         11   -1    0    0    0    0 -0.00000000000E+00 -0.00000000000E+00 -0.45593999997E+02  0.45594000000E+02  0.51100000000E-03 0. -1.
    9900012    2    1    2    0    0  0.14389464879E+01 -0.18669985336E+02  0.19924907069E+00  0.72461584976E+02  0.70000019126E+02 0.  0.
         12    1    1    2    0    0 -0.14389464879E+01  0.18669985336E+02 -0.19924907069E+00  0.18726415024E+02  0.00000000000E+00 0. -1.
         11    1    3    3    0    0  0.13249708855E+02  0.43678827319E+01 -0.18599099052E+01  0.14074531943E+02  0.51100000000E-03 0. -1.
        -11    1    3    3    0    0 -0.20982306998E+02  0.89758446763E+01 -0.70077360666E+01  0.23873235215E+02  0.51100000000E-03 0.  1.
        -12    1    3    3    0    0  0.91715446307E+01 -0.32013712745E+02  0.90668950425E+01  0.34513817817E+02  0.00000000000E+00 0.  1.
</event>
<event>
 7    1  0.3027254E-013  0.7246158E+02  0.7816164E-02  0.1226708E+00
        -11   -1    0    0    0    0  0.00000000000E+00  0.00000000000E+00  0.45593999997E+02  0.45594000000E+02  0.51100000000E-03 0. -1.
         11   -1    0    0    0    0 -0.00000000000E+00 -0.00000000000E+00 -0.45593999997E+02  0.45594000000E+02  0.51100000000E-03 0.  1.
    9900012    2    1    2    0    0  0.15282791399E+02 -0.10700526357E+02  0.16167320501E+01  0.72461580166E+02  0.70000012860E+02 0.  0.
         12    1    1    2    0    0 -0.15282791399E+02  0.10700526357E+02 -0.16167320501E+01  0.18726419834E+02  0.00000000000E+00 0. -1.
         11    1    3    3    0    0  0.42143564402E+01 -0.49120273619E+01  0.48930397409E+01  0.81136090106E+01  0.51100000000E-03 0. -1.
        -11    1    3    3    0    0  0.44124870460E+01  0.20099595133E+02  0.20153252664E+02  0.28803078996E+02  0.51100000000E-03 0.  1.
         12    1    3    3    0    0  0.66559479131E+01 -0.25888094128E+02 -0.23429560355E+02  0.35544892160E+02  0.00000000000E+00 0. -1.
</event>
<event>
 7    1  0.3027254E-013  0.7246156E+02  0.7816164E-02  0.1226708E+00
        -11   -1    0    0    0    0  0.00000000000E+00  0.00000000000E+00  0.45593999997E+02  0.45594000000E+02  0.51100000000E-03 0. -1.
         11   -1    0    0    0    0 -0.00000000000E+00 -0.00000000000E+00 -0.45593999997E+02  0.45594000000E+02  0.51100000000E-03 0.  1.
    9900012    2    1    2    0    0  0.44732266654E+01 -0.17851443149E+02  0.34634842600E+01  0.72461561403E+02  0.69999988418E+02 0.  0.
         12    1    1    2    0    0 -0.44732266654E+01  0.17851443149E+02 -0.34634842600E+01  0.18726438597E+02  0.00000000000E+00 0. -1.
         11    1    3    3    0    0  0.82866156319E+01 -0.17535481356E+02 -0.15093272412E+01  0.19453513153E+02  0.51100000000E-03 0. -1.
        -11    1    3    3    0    0  0.16886367616E+02 -0.18202712363E+02 -0.15719417740E+01  0.24878889642E+02  0.51100000000E-03 0.  1.
        -12    1    3    3    0    0 -0.20699756582E+02  0.17886750571E+02  0.65447532752E+01  0.28129158608E+02  0.00000000000E+00 0.  1.
</event>
<event>
 7    1  0.3027254E-013  0.7246155E+02  0.7816164E-02  0.1226708E+00
        -11   -1    0    0    0    0  0.00000000000E+00  0.00000000000E+00  0.45593999997E+02  0.45594000000E+02  0.51100000000E-03 0.  1.
         11   -1    0    0    0    0 -0.00000000000E+00 -0.00000000000E+00 -0.45593999997E+02  0.45594000000E+02  0.51100000000E-03 0. -1.
    9900012    2    1    2    0    0  0.10668161398E+02 -0.14106618287E+02  0.61541607090E+01  0.72461547022E+02  0.69999969683E+02 0.  0.
         12    1    1    2    0    0 -0.10668161398E+02  0.14106618287E+02 -0.61541607090E+01  0.18726452978E+02  0.00000000000E+00 0. -1.
         11    1    3    3    0    0  0.22242432512E+01 -0.45882334302E+01  0.15666681006E+02  0.16475558809E+02  0.51100000000E-03 0. -1.
        -11    1    3    3    0    0 -0.58539802366E+01 -0.13108594651E+01  0.20708910162E+02  0.21560296786E+02  0.51100000000E-03 0.  1.
         12    1    3    3    0    0  0.14297898383E+02 -0.82075253917E+01 -0.30221430459E+02  0.34425691427E+02  0.00000000000E+00 0. -1.
</event>
<event>
 7    1  0.3027254E-013  0.7246156E+02  0.7816164E-02  0.1226708E+00
        -11   -1    0    0    0    0  0.00000000000E+00  0.00000000000E+00  0.45593999997E+02  0.45594000000E+02  0.51100000000E-03 0.  1.
         11   -1    0    0    0    0 -0.00000000000E+00 -0.00000000000E+00 -0.45593999997E+02  0.45594000000E+02  0.51100000000E-03 0. -1.
    9900012    2    1    2    0    0 -0.98047855735E+01  0.70550270722E+01  0.14309862745E+02  0.72461564170E+02  0.69999992021E+02 0.  0.
         12    1    1    2    0    0  0.98047855735E+01 -0.70550270722E+01 -0.14309862745E+02  0.18726435830E+02  0.00000000000E+00 0. -1.
         11    1    3    3    0    0 -0.12780919163E+02  0.11632055930E+02 -0.12119162709E+02  0.21107598746E+02  0.51100000000E-03 0. -1.
        -11    1    3    3    0    0 -0.17898824891E+02  0.72589566519E+01  0.16428445306E+02  0.25356541554E+02  0.51100000000E-03 0.  1.
        -12    1    3    3    0    0  0.20874958480E+02 -0.11835985510E+02  0.10000580148E+02  0.25997423869E+02  0.00000000000E+00 0.  1.
</event>
<event>
 7    1  0.3027254E-013  0.7246156E+02  0.7816164E-02  0.1226708E+00
        -11   -1    0    0    0    0  0.00000000000E+00  0.00000000000E+00  0.45593999997E+02  0.45594000000E+02  0.51100000000E-03 0.  1.
         11   -1    0    0    0    0 -0.00000000000E+00 -0.00000000000E+00 -0.45593999997E+02  0.45594000000E+02  0.51100000000E-03 0. -1.
    9900012    2    1    2    0    0 -0.22620743520E+01 -0.16722646858E+02  0.81188559798E+01  0.72461555577E+02  0.69999980828E+02 0.  0.
         12    1    1    2    0    0  0.22620743520E+01  0.16722646858E+02 -0.81188559798E+01  0.18726444423E+02  0.00000000000E+00 0. -1.
         11    1    3    3    0    0 -0.32916455822E+00 -0.42436385277E+01 -0.19387172837E+01  0.46771190094E+01  0.51100000000E-03 0. -1.
        -11    1    3    3    0    0 -0.65214320042E+01 -0.39192528322E+02  0.85297027164E+01  0.40636672850E+02  0.51100000000E-03 0.  1.
         12    1    3    3    0    0  0.45885222104E+01  0.26713519992E+02  0.15278705471E+01  0.27147763717E+02  0.00000000000E+00 0. -1.
</event>
<event>
 7    1  0.3027254E-013  0.7246154E+02  0.7816164E-02  0.1226708E+00
        -11   -1    0    0    0    0  0.00000000000E+00  0.00000000000E+00  0.45593999997E+02  0.45594000000E+02  0.51100000000E-03 0.  1.
         11   -1    0    0    0    0 -0.00000000000E+00 -0.00000000000E+00 -0.45593999997E+02  0.45594000000E+02  0.51100000000E-03 0. -1.
    9900012    2    1    2    0    0  0.35298753776E+00  0.18700670000E+02  0.91685893834E+00  0.72461540405E+02  0.69999961064E+02 0.  0.
         12    1    1    2    0    0 -0.35298753776E+00 -0.18700670000E+02 -0.91685893834E+00  0.18726459595E+02  0.00000000000E+00 0. -1.
         11    1    3    3    0    0  0.28276233899E+01  0.71640048517E+01  0.17292574218E+02  0.18930175459E+02  0.51100000000E-03 0. -1.
        -11    1    3    3    0    0 -0.59044921793E+01 -0.21434255758E+01  0.16555524304E+02  0.17707136593E+02  0.51100000000E-03 0.  1.
         12    1    3    3    0    0  0.34298563272E+01  0.13680090724E+02 -0.32931239583E+02  0.35824228354E+02  0.00000000000E+00 0. -1.
</event>
<event>
 7    1  0.3027254E-013  0.7246177E+02  0.7816164E-02  0.1226707E+00
        -11   -1    0    0    0    0  0.00000000000E+00  0.00000000000E+00  0.45593999997E+02  0.45594000000E+02  0.51100000000E-03 0.  1.
         11   -1    0    0    0    0 -0.00000000000E+00 -0.00000000000E+00 -0.45593999997E+02  0.45594000000E+02  0.51100000000E-03 0. -1.
    9900012    2    1    2    0    0  0.60278641982E+01 -0.28914902863E+01  0.17492170075E+02  0.72461765012E+02  0.70000253656E+02 0.  0.
         12    1    1    2    0    0 -0.60278641982E+01  0.28914902863E+01 -0.17492170075E+02  0.18726234988E+02  0.00000000000E+00 0. -1.
         11    1    3    3    0    0 -0.21481470588E+01  0.80027839660E+01 -0.15824096852E+02  0.17862282285E+02  0.51100000000E-03 0. -1.
        -11    1    3    3    0    0  0.25862201088E+01  0.42964934247E+01 -0.84390091735E+01  0.98165811916E+01  0.51100000000E-03 0.  1.
        -12    1    3    3    0    0  0.55897911481E+01 -0.15190767677E+02  0.41755276101E+02  0.44782901536E+02  0.00000000000E+00 0.  1.
</event>
<event>
 7    1  0.3027254E-013  0.7246164E+02  0.7816164E-02  0.1226708E+00
        -11   -1    0    0    0    0  0.00000000000E+00  0.00000000000E+00  0.45593999997E+02  0.45594000000E+02  0.51100000000E-03 0.  1.
         11   -1    0    0    0    0 -0.00000000000E+00 -0.00000000000E+00 -0.45593999997E+02  0.45594000000E+02  0.51100000000E-03 0. -1.
    9900012    2    1    2    0    0 -0.99492643496E+01 -0.34330588265E+01  0.15488799996E+02  0.72461636783E+02  0.70000086614E+02 0.  0.
         12    1    1    2    0    0  0.99492643496E+01  0.34330588265E+01 -0.15488799996E+02  0.18726363217E+02  0.00000000000E+00 0. -1.
         11    1    3    3    0    0  0.47168921508E+01  0.91207973395E+01 -0.77116655071E+00  0.10297218740E+02  0.51100000000E-03 0. -1.
        -11    1    3    3    0    0 -0.17415560546E+02 -0.16617976473E+02  0.35175047709E+02  0.42623266801E+02  0.51100000000E-03 0.  1.
         12    1    3    3    0    0  0.27494040458E+01  0.40641203073E+01 -0.18915081162E+02  0.19541151242E+02  0.00000000000E+00 0. -1.
</event>
<event>
 7    1  0.3027254E-013  0.7246157E+02  0.7816164E-02  0.1226708E+00
        -11   -1    0    0    0    0  0.00000000000E+00  0.00000000000E+00  0.45593999997E+02  0.45594000000E+02  0.51100000000E-03 0.  1.
         11   -1    0    0    0    0 -0.00000000000E+00 -0.00000000000E+00 -0.45593999997E+02  0.45594000000E+02  0.51100000000E-03 0. -1.
    9900012    2    1    2    0    0  0.15080622627E+02 -0.56869071037E+01  0.95348355272E+01  0.72461570021E+02  0.69999999644E+02 0.  0.
         12    1    1    2    0    0 -0.15080622627E+02  0.56869071037E+01 -0.95348355272E+01  0.18726429979E+02  0.00000000000E+00 0. -1.
         11    1    3    3    0    0  0.43500316114E+01  0.21916450493E+02 -0.67415462480E+01  0.23338852228E+02  0.51100000000E-03 0. -1.
        -11    1    3    3    0    0  0.23197222130E+02 -0.23150856406E+02  0.14223997276E+02  0.35726675827E+02  0.51100000000E-03 0.  1.
        -12    1    3    3    0    0 -0.12466631115E+02 -0.44525011911E+01  0.20523844988E+01  0.13396041966E+02  0.00000000000E+00 0.  1.
</event>
<event>
 7    1  0.3027254E-013  0.7246163E+02  0.7816164E-02  0.1226708E+00
        -11   -1    0    0    0    0  0.00000000000E+00  0.00000000000E+00  0.45593999997E+02  0.45594000000E+02  0.51100000000E-03 0.  1.
         11   -1    0    0    0    0 -0.00000000000E+00 -0.00000000000E+00 -0.45593999997E+02  0.45594000000E+02  0.51100000000E-03 0. -1.
    9900012    2    1    2    0    0  0.16785497485E+02 -0.82638718022E+01 -0.79523264667E+00  0.72461630946E+02  0.70000079010E+02 0.  0.
         12    1    1    2    0    0 -0.16785497485E+02  0.82638718022E+01  0.79523264667E+00  0.18726369054E+02  0.00000000000E+00 0. -1.
         11    1    3    3    0    0 -0.19094455469E+02  0.20078505025E+01 -0.22846960160E+01  0.19335188891E+02  0.51100000000E-03 0. -1.
        -11    1    3    3    0    0  0.10064117017E+01 -0.14148213079E+02  0.95817031697E+01  0.17117062649E+02  0.51100000000E-03 0.  1.
         12    1    3    3    0    0  0.34873541253E+02  0.38764907739E+01 -0.80922398003E+01  0.36009379406E+02  0.00000000000E+00 0. -1.
</event>
<event>
 7    1  0.3027254E-013  0.7246162E+02  0.7816164E-02  0.1226708E+00
        -11   -1    0    0    0    0  0.00000000000E+00  0.00000000000E+00  0.45593999997E+02  0.45594000000E+02  0.51100000000E-03 0. -1.
         11   -1    0    0    0    0 -0.00000000000E+00 -0.00000000000E+00 -0.45593999997E+02  0.45594000000E+02  0.51100000000E-03 0.  1.
    9900012    2    1    2    0    0 -0.97707479749E+00 -0.17351354984E+02 -0.69751727418E+01  0.72461622087E+02  0.70000067470E+02 0.  0.
         12    1    1    2    0    0  0.97707479749E+00  0.17351354984E+02  0.69751727418E+01  0.18726377913E+02  0.00000000000E+00 0. -1.
         11    1    3    3    0    0  0.11059126274E+02 -0.16051482198E+02  0.36036497428E+01  0.19822730549E+02  0.51100000000E-03 0. -1.
        -11    1    3    3    0    0  0.95869630487E+01 -0.20437471587E+02 -0.29019681171E+01  0.22760086217E+02  0.51100000000E-03 0.  1.
        -12    1    3    3    0    0 -0.21623164120E+02  0.19137598801E+02 -0.76768543675E+01  0.29878805321E+02  0.00000000000E+00 0.  1.
</event>
<event>
 7    1  0.3027254E-013  0.7246161E+02  0.7816164E-02  0.1226708E+00
        -11   -1    0    0    0    0  0.00000000000E+00  0.00000000000E+00  0.45593999997E+02  0.45594000000E+02  0.51100000000E-03 0. -1.
         11   -1    0    0    0    0 -0.00000000000E+00 -0.00000000000E+00 -0.45593999997E+02  0.45594000000E+02  0.51100000000E-03 0.  1.
    9900012    2    1    2    0    0  0.13522718710E+02  0.12881638619E+02  0.13701318305E+01  0.72461606967E+02  0.70000047773E+02 0.  0.
         12    1    1    2    0    0 -0.13522718710E+02 -0.12881638619E+02 -0.13701318305E+01  0.18726393033E+02  0.00000000000E+00 0. -1.
         11    1    3    3    0    0 -0.11416354766E+02  0.11010568583E+02  0.12940856872E+02  0.20470260221E+02  0.51100000000E-03 0. -1.
        -11    1    3    3    0    0 -0.90336180628E+01 -0.97074195050E+01  0.24012537412E+01  0.13476137004E+02  0.51100000000E-03 0.  1.
        -12    1    3    3    0    0  0.33972691538E+02  0.11578489541E+02 -0.13971978783E+02  0.38515209742E+02  0.00000000000E+00 0.  1.
</event>
<event>
 7    1  0.3027254E-013  0.7246160E+02  0.7816164E-02  0.1226708E+00
        -11   -1    0    0    0    0  0.00000000000E+00  0.00000000000E+00  0.45593999997E+02  0.45594000000E+02  0.51100000000E-03 0. -1.
         11   -1    0    0    0    0 -0.00000000000E+00 -0.00000000000E+00 -0.45593999997E+02  0.45594000000E+02  0.51100000000E-03 0.  1.
    9900012    2    1    2    0    0 -0.46430173957E+00 -0.67627903050E+01 -0.17456432119E+02  0.72461603359E+02  0.70000043073E+02 0.  0.
         12    1    1    2    0    0  0.46430173957E+00  0.67627903050E+01  0.17456432119E+02  0.18726396641E+02  0.00000000000E+00 0. -1.
         11    1    3    3    0    0 -0.94832868918E+01 -0.22797141214E+02  0.15678259503E+02  0.29248080264E+02  0.51100000000E-03 0. -1.
        -11    1    3    3    0    0  0.63919857530E+01 -0.37501180249E+01 -0.60331754805E+01  0.95561537088E+01  0.51100000000E-03 0.  1.
        -12    1    3    3    0    0  0.26269993992E+01  0.19784468934E+02 -0.27101516141E+02  0.33657369386E+02  0.00000000000E+00 0.  1.
</event>
<event>
 7    1  0.3027254E-013  0.7246159E+02  0.7816164E-02  0.1226708E+00
        -11   -1    0    0    0    0  0.00000000000E+00  0.00000000000E+00  0.45593999997E+02  0.45594000000E+02  0.51100000000E-03 0.  1.
         11   -1    0    0    0    0 -0.00000000000E+00 -0.00000000000E+00 -0.45593999997E+02  0.45594000000E+02  0.51100000000E-03 0. -1.
    9900012    2    1    2    0    0  0.63281094813E+01  0.21032501566E+01  0.17498847964E+02  0.72461593220E+02  0.70000029865E+02 0.  0.
         12    1    1    2    0    0 -0.63281094813E+01 -0.21032501566E+01 -0.17498847964E+02  0.18726406780E+02  0.00000000000E+00 0. -1.
         11    1    3    3    0    0  0.10839612680E+02  0.14245648046E+01 -0.39646088069E+01  0.11629475963E+02  0.51100000000E-03 0. -1.
        -11    1    3    3    0    0 -0.21783844588E+02  0.20678179552E+02  0.15253317329E+02  0.33686595025E+02  0.51100000000E-03 0.  1.
         12    1    3    3    0    0  0.17272341389E+02 -0.19999494200E+02  0.62101394424E+01  0.27145522231E+02  0.00000000000E+00 0. -1.
</event>
<event>
 7    1  0.3027254E-013  0.7246155E+02  0.7816164E-02  0.1226708E+00
        -11   -1    0    0    0    0  0.00000000000E+00  0.00000000000E+00  0.45593999997E+02  0.45594000000E+02  0.51100000000E-03 0. -1.
         11   -1    0    0    0    0 -0.00000000000E+00 -0.00000000000E+00 -0.45593999997E+02  0.45594000000E+02  0.51100000000E-03 0.  1.
    9900012    2    1    2    0    0 -0.84158257571E+01 -0.91683796544E+01 -0.13992660646E+02  0.72461551842E+02  0.69999975962E+02 0.  0.
         12    1    1    2    0    0  0.84158257571E+01  0.91683796544E+01  0.13992660646E+02  0.18726448158E+02  0.00000000000E+00 0. -1.
         11    1    3    3    0    0 -0.11975292130E+02  0.41336401425E+01 -0.17467951978E+02  0.21578321274E+02  0.51100000000E-03 0. -1.
        -11    1    3    3    0    0 -0.50989100865E+01 -0.28455582982E+02  0.12192266147E+02  0.31374678340E+02  0.51100000000E-03 0.  1.
         12    1    3    3    0    0  0.86583764596E+01  0.15153563185E+02 -0.87169748146E+01  0.19508552228E+02  0.00000000000E+00 0. -1.
</event>
<event>
 7    1  0.3027254E-013  0.7246155E+02  0.7816164E-02  0.1226708E+00
        -11   -1    0    0    0    0  0.00000000000E+00  0.00000000000E+00  0.45593999997E+02  0.45594000000E+02  0.51100000000E-03 0. -1.
         11   -1    0    0    0    0 -0.00000000000E+00 -0.00000000000E+00 -0.45593999997E+02  0.45594000000E+02  0.51100000000E-03 0.  1.
    9900012    2    1    2    0    0 -0.57174682026E+01 -0.43463009180E+00 -0.17826990469E+02  0.72461549852E+02  0.69999973369E+02 0.  0.
         12    1    1    2    0    0  0.57174682026E+01  0.43463009180E+00  0.17826990469E+02  0.18726450148E+02  0.00000000000E+00 0. -1.
         11    1    3    3    0    0  0.12812945749E+02 -0.11898736159E+02 -0.14426402946E+02  0.22668758307E+02  0.51100000000E-03 0. -1.
        -11    1    3    3    0    0 -0.17579722799E+02 -0.11071139428E+02 -0.13814887458E+02  0.24949306557E+02  0.51100000000E-03 0.  1.
         12    1    3    3    0    0 -0.95069115278E+00  0.22535245496E+02  0.10414299935E+02  0.24843484988E+02  0.00000000000E+00 0. -1.
</event>
<event>
 7    1  0.3027254E-013  0.7246152E+02  0.7816164E-02  0.1226708E+00
        -11   -1    0    0    0    0  0.00000000000E+00  0.00000000000E+00  0.45593999997E+02  0.45594000000E+02  0.51100000000E-03 0. -1.
         11   -1    0    0    0    0 -0.00000000000E+00 -0.00000000000E+00 -0.45593999997E+02  0.45594000000E+02  0.51100000000E-03 0.  1.
    9900012    2    1    2    0    0 -0.67012070295E+01  0.13045231449E+01 -0.17437690121E+02  0.72461521606E+02  0.69999936574E+02 0.  0.
         12    1    1    2    0    0  0.67012070295E+01 -0.13045231449E+01  0.17437690121E+02  0.18726478394E+02  0.00000000000E+00 0. -1.
         11    1    3    3    0    0 -0.27364971432E+02  0.30931359545E+01  0.10105506534E+02  0.29334798688E+02  0.51100000000E-03 0. -1.
        -11    1    3    3    0    0 -0.45019970363E+01 -0.44582184146E+01 -0.11596633695E+02  0.13214598067E+02  0.51100000000E-03 0.  1.
         12    1    3    3    0    0  0.25165761438E+02  0.26696056049E+01 -0.15946562961E+02  0.29912124851E+02  0.00000000000E+00 0. -1.
</event>
<event>
 7    1  0.3027254E-013  0.7246157E+02  0.7816164E-02  0.1226708E+00
        -11   -1    0    0    0    0  0.00000000000E+00  0.00000000000E+00  0.45593999997E+02  0.45594000000E+02  0.51100000000E-03 0. -1.
         11   -1    0    0    0    0 -0.00000000000E+00 -0.00000000000E+00 -0.45593999997E+02  0.45594000000E+02  0.51100000000E-03 0.  1.
    9900012    2    1    2    0    0  0.38186403163E+01  0.18129518210E+02  0.27235554056E+01  0.72461569522E+02  0.69999998994E+02 0.  0.
         12    1    1    2    0    0 -0.38186403163E+01 -0.18129518210E+02 -0.27235554056E+01  0.18726430478E+02  0.00000000000E+00 0. -1.
         11    1    3    3    0    0 -0.11230884523E+02  0.38875557820E+02  0.39135503090E+01  0.40654122045E+02  0.51100000000E-03 0. -1.
        -11    1    3    3    0    0 -0.14181721421E+01  0.27203914446E+01  0.40802036787E+00  0.30948703879E+01  0.51100000000E-03 0.  1.
        -12    1    3    3    0    0  0.16467696981E+02 -0.23466431054E+02 -0.15980152712E+01  0.28712577089E+02  0.00000000000E+00 0.  1.
</event>
<event>
 7    1  0.3027254E-013  0.7246155E+02  0.7816164E-02  0.1226708E+00
        -11   -1    0    0    0    0  0.00000000000E+00  0.00000000000E+00  0.45593999997E+02  0.45594000000E+02  0.51100000000E-03 0. -1.
         11   -1    0    0    0    0 -0.00000000000E+00 -0.00000000000E+00 -0.45593999997E+02  0.45594000000E+02  0.51100000000E-03 0.  1.
    9900012    2    1    2    0    0  0.18340482490E+02  0.32226520805E+01 -0.19801545156E+01  0.72461553559E+02  0.69999978200E+02 0.  0.
         12    1    1    2    0    0 -0.18340482490E+02 -0.32226520805E+01  0.19801545156E+01  0.18726446441E+02  0.00000000000E+00 0. -1.
         11    1    3    3    0    0  0.29140675490E+02  0.27744938118E+01  0.10994081979E+02  0.31268940225E+02  0.51100000000E-03 0. -1.
        -11    1    3    3    0    0  0.10731861098E+02 -0.24446064617E+00  0.61620797348E+01  0.12377553496E+02  0.51100000000E-03 0.  1.
        -12    1    3    3    0    0 -0.21532054098E+02  0.69261891483E+00 -0.19136316230E+02  0.28815059839E+02  0.00000000000E+00 0.  1.
</event>
<event>
 7    1  0.3027254E-013  0.7246204E+02  0.7816164E-02  0.1226707E+00
        -11   -1    0    0    0    0  0.00000000000E+00  0.00000000000E+00  0.45593999997E+02  0.45594000000E+02  0.51100000000E-03 0.  1.
         11   -1    0    0    0    0 -0.00000000000E+00 -0.00000000000E+00 -0.45593999997E+02  0.45594000000E+02  0.51100000000E-03 0. -1.
    9900012    2    1    2    0    0 -0.14411935852E+02 -0.11776930963E+02  0.20643572074E+01  0.72462040249E+02  0.70000612201E+02 0.  0.
         12    1    1    2    0    0  0.14411935852E+02  0.11776930963E+02 -0.20643572074E+01  0.18725959751E+02  0.00000000000E+00 0. -1.
         11    1    3    3    0    0 -0.66556250594E+01 -0.15181517879E+01 -0.87857840416E+01  0.11126191229E+02  0.51100000000E-03 0. -1.
        -11    1    3    3    0    0  0.23249573034E+02  0.15217369365E+01 -0.61038329142E+01  0.24085578798E+02  0.51100000000E-03 0.  1.
        -12    1    3    3    0    0 -0.31005883826E+02 -0.11780516112E+02  0.16953974163E+02  0.37250270222E+02  0.00000000000E+00 0.  1.
</event>
<event>
 7    1  0.3027254E-013  0.7246162E+02  0.7816164E-02  0.1226708E+00
        -11   -1    0    0    0    0  0.00000000000E+00  0.00000000000E+00  0.45593999997E+02  0.45594000000E+02  0.51100000000E-03 0.  1.
         11   -1    0    0    0    0 -0.00000000000E+00 -0.00000000000E+00 -0.45593999997E+02  0.45594000000E+02  0.51100000000E-03 0. -1.
    9900012    2    1    2    0    0 -0.44827609247E+01  0.11691142652E+02  0.13924768250E+02  0.72461624675E+02  0.70000070840E+02 0.  0.
         12    1    1    2    0    0  0.44827609247E+01 -0.11691142652E+02 -0.13924768250E+02  0.18726375325E+02  0.00000000000E+00 0. -1.
         11    1    3    3    0    0 -0.11149550705E+01 -0.13884169458E+02 -0.84981987030E+01  0.16316637760E+02  0.51100000000E-03 0. -1.
        -11    1    3    3    0    0  0.75007689696E+01 -0.89473542620E-01  0.26891187092E+02  0.27917834517E+02  0.51100000000E-03 0.  1.
         12    1    3    3    0    0 -0.10868574824E+02  0.25664785652E+02 -0.44682201390E+01  0.28227152398E+02  0.00000000000E+00 0. -1.
</event>
<event>
 7    1  0.3027254E-013  0.7246155E+02  0.7816164E-02  0.1226708E+00
        -11   -1    0    0    0    0  0.00000000000E+00  0.00000000000E+00  0.45593999997E+02  0.45594000000E+02  0.51100000000E-03 0.  1.
         11   -1    0    0    0    0 -0.00000000000E+00 -0.00000000000E+00 -0.45593999997E+02  0.45594000000E+02  0.51100000000E-03 0. -1.
    9900012    2    1    2    0    0  0.16856677918E+02 -0.74697106223E+01 -0.32765515245E+01  0.72461549266E+02  0.69999972606E+02 0.  0.
         12    1    1    2    0    0 -0.16856677918E+02  0.74697106223E+01  0.32765515245E+01  0.18726450734E+02  0.00000000000E+00 0. -1.
         11    1    3    3    0    0 -0.22644706691E+01 -0.11804737153E+01  0.17740095422E+01  0.31094140478E+01  0.51100000000E-03 0. -1.
        -11    1    3    3    0    0 -0.17054664452E+02 -0.10647763866E+02  0.17369622123E+02  0.26569535711E+02  0.51100000000E-03 0.  1.
         12    1    3    3    0    0  0.36175813039E+02  0.43585269594E+01 -0.22420183190E+02  0.42782599507E+02  0.00000000000E+00 0. -1.
</event>
<event>
 7    1  0.3027254E-013  0.7246191E+02  0.7816164E-02  0.1226707E+00
        -11   -1    0    0    0    0  0.00000000000E+00  0.00000000000E+00  0.45593999997E+02  0.45594000000E+02  0.51100000000E-03 0.  1.
         11   -1    0    0    0    0 -0.00000000000E+00 -0.00000000000E+00 -0.45593999997E+02  0.45594000000E+02  0.51100000000E-03 0. -1.
    9900012    2    1    2    0    0 -0.15583604699E+02  0.99450923673E+01  0.29854373646E+01  0.72461910342E+02  0.70000442974E+02 0.  0.
         12    1    1    2    0    0  0.15583604699E+02 -0.99450923673E+01 -0.29854373646E+01  0.18726089658E+02  0.00000000000E+00 0. -1.
         11    1    3    3    0    0 -0.18123820272E+02  0.36150685432E+01  0.90853638575E+01  0.20593334322E+02  0.51100000000E-03 0. -1.
        -11    1    3    3    0    0 -0.37289879745E+01  0.20825353642E+02  0.14692836848E+02  0.25758108636E+02  0.51100000000E-03 0.  1.
         12    1    3    3    0    0  0.62692035478E+01 -0.14495329817E+02 -0.20792763341E+02  0.26110467384E+02  0.00000000000E+00 0. -1.
</event>
<event>
 7    1  0.3027254E-013  0.7246163E+02  0.7816164E-02  0.1226708E+00
        -11   -1    0    0    0    0  0.00000000000E+00  0.00000000000E+00  0.45593999997E+02  0.45594000000E+02  0.51100000000E-03 0. -1.
         11   -1    0    0    0    0 -0.00000000000E+00 -0.00000000000E+00 -0.45593999997E+02  0.45594000000E+02  0.51100000000E-03 0.  1.
    9900012    2    1    2    0    0  0.13322019397E+02 -0.70462888458E+01 -0.11115334249E+02  0.72461627079E+02  0.70000073973E+02 0.  0.
         12    1    1    2    0    0 -0.13322019397E+02  0.70462888458E+01  0.11115334249E+02  0.18726372921E+02  0.00000000000E+00 0. -1.
         11    1    3    3    0    0  0.21678040842E+01  0.13676554128E+02  0.10787784146E+02  0.17553455341E+02  0.51100000000E-03 0. -1.
        -11    1    3    3    0    0  0.16264440197E+02 -0.71629444385E+01  0.96238895349E+01  0.20210369566E+02  0.51100000000E-03 0.  1.
        -12    1    3    3    0    0 -0.51102248838E+01 -0.13559898535E+02 -0.31527007929E+02  0.34697802173E+02  0.00000000000E+00 0.  1.
</event>
<event>
 7    1  0.3027254E-013  0.7246156E+02  0.7816164E-02  0.1226708E+00
        -11   -1    0    0    0    0  0.00000000000E+00  0.00000000000E+00  0.45593999997E+02  0.45594000000E+02  0.51100000000E-03 0. -1.
         11   -1    0    0    0    0 -0.00000000000E+00 -0.00000000000E+00 -0.45593999997E+02  0.45594000000E+02  0.51100000000E-03 0.  1.
    9900012    2    1    2    0    0 -0.18001769464E+02  0.24154334162E+01 -0.45586762186E+01  0.72461560101E+02  0.69999986721E+02 0.  0.
         12    1    1    2    0    0  0.18001769464E+02 -0.24154334162E+01  0.45586762186E+01  0.18726439899E+02  0.00000000000E+00 0. -1.
         11    1    3    3    0    0 -0.53046334305E+01  0.15613276680E+01  0.11784793142E+02  0.13017612284E+02  0.51100000000E-03 0. -1.
        -11    1    3    3    0    0 -0.33774242733E+02  0.64023267560E+01 -0.45874852006E+01  0.34680459639E+02  0.51100000000E-03 0.  1.
         12    1    3    3    0    0  0.21077106699E+02 -0.55482210078E+01 -0.11755984160E+02  0.24763488178E+02  0.00000000000E+00 0. -1.
</event>
<event>
 7    1  0.3027254E-013  0.7246148E+02  0.7816164E-02  0.1226708E+00
        -11   -1    0    0    0    0  0.00000000000E+00  0.00000000000E+00  0.45593999997E+02  0.45594000000E+02  0.51100000000E-03 0.  1.
         11   -1    0    0    0    0 -0.00000000000E+00 -0.00000000000E+00 -0.45593999997E+02  0.45594000000E+02  0.51100000000E-03 0. -1.
    9900012    2    1    2    0    0  0.13663780703E+02  0.31319111290E+01  0.12416714413E+02  0.72461479575E+02  0.69999881821E+02 0.  0.
         12    1    1    2    0    0 -0.13663780703E+02 -0.31319111290E+01 -0.12416714413E+02  0.18726520425E+02  0.00000000000E+00 0. -1.
         11    1    3    3    0    0 -0.75502007458E+01 -0.17324566679E+01  0.57646756281E+01  0.96560044929E+01  0.51100000000E-03 0. -1.
        -11    1    3    3    0    0 -0.42347313131E+00  0.27761646131E+02 -0.67439853762E+01  0.28572183403E+02  0.51100000000E-03 0.  1.
         12    1    3    3    0    0  0.21637454580E+02 -0.22897278334E+02  0.13396024161E+02  0.34233291679E+02  0.00000000000E+00 0. -1.
</event>
<event>
 7    1  0.3027254E-013  0.7246161E+02  0.7816164E-02  0.1226708E+00
        -11   -1    0    0    0    0  0.00000000000E+00  0.00000000000E+00  0.45593999997E+02  0.45594000000E+02  0.51100000000E-03 0.  1.
         11   -1    0    0    0    0 -0.00000000000E+00 -0.00000000000E+00 -0.45593999997E+02  0.45594000000E+02  0.51100000000E-03 0. -1.
    9900012    2    1    2    0    0  0.17332015150E+02  0.60448643543E+01  0.37065523675E+01  0.72461610474E+02  0.70000052341E+02 0.  0.
         12    1    1    2    0    0 -0.17332015150E+02 -0.60448643543E+01 -0.37065523675E+01  0.18726389526E+02  0.00000000000E+00 0. -1.
         11    1    3    3    0    0  0.16530285848E+02  0.59900937290E+00 -0.31901214944E+02  0.35934616703E+02  0.51100000000E-03 0. -1.
        -11    1    3    3    0    0  0.10523205761E+01 -0.90830995605E+00  0.30200500731E+01  0.33246215238E+01  0.51100000000E-03 0.  1.
        -12    1    3    3    0    0 -0.25059127413E+00  0.63541649374E+01  0.32587717238E+02  0.33202372247E+02  0.00000000000E+00 0.  1.
</event>
<event>
 7    1  0.3027254E-013  0.7246160E+02  0.7816164E-02  0.1226708E+00
        -11   -1    0    0    0    0  0.00000000000E+00  0.00000000000E+00  0.45593999997E+02  0.45594000000E+02  0.51100000000E-03 0.  1.
         11   -1    0    0    0    0 -0.00000000000E+00 -0.00000000000E+00 -0.45593999997E+02  0.45594000000E+02  0.51100000000E-03 0. -1.
    9900012    2    1    2    0    0 -0.46345940870E+01 -0.91406476988E+01  0.15673131054E+02  0.72461603130E+02  0.70000042775E+02 0.  0.
         12    1    1    2    0    0  0.46345940870E+01  0.91406476988E+01 -0.15673131054E+02  0.18726396870E+02  0.00000000000E+00 0. -1.
         11    1    3    3    0    0 -0.17949041049E+02  0.87445324665E+01 -0.16945789225E+02  0.26187682130E+02  0.51100000000E-03 0. -1.
        -11    1    3    3    0    0 -0.51516457128E+01 -0.10995883416E+02  0.72284486576E+01  0.14131502960E+02  0.51100000000E-03 0.  1.
         12    1    3    3    0    0  0.18466092675E+02 -0.68892967497E+01  0.25390471621E+02  0.32142418041E+02  0.00000000000E+00 0. -1.
</event>
<event>
 7    1  0.3027254E-013  0.7246195E+02  0.7816164E-02  0.1226707E+00
        -11   -1    0    0    0    0  0.00000000000E+00  0.00000000000E+00  0.45593999997E+02  0.45594000000E+02  0.51100000000E-03 0.  1.
         11   -1    0    0    0    0 -0.00000000000E+00 -0.00000000000E+00 -0.45593999997E+02  0.45594000000E+02  0.51100000000E-03 0. -1.
    9900012    2    1    2    0    0 -0.16876634496E+02  0.52715647224E+01 -0.61688570490E+01  0.72461949059E+02  0.70000493410E+02 0.  0.
         12    1    1    2    0    0  0.16876634496E+02 -0.52715647224E+01  0.61688570490E+01  0.18726050941E+02  0.00000000000E+00 0. -1.
         11    1    3    3    0    0  0.16967815536E+02  0.10864067843E+01  0.81832514616E+01  0.18869357395E+02  0.51100000000E-03 0. -1.
        -11    1    3    3    0    0 -0.14175425148E+02  0.20327951710E+02 -0.13299650659E+02  0.28125593447E+02  0.51100000000E-03 0.  1.
        -12    1    3    3    0    0 -0.19669024884E+02 -0.16142793771E+02 -0.10524578521E+01  0.25466998217E+02  0.00000000000E+00 0.  1.
</event>
<event>
 7    1  0.3027254E-013  0.7246159E+02  0.7816164E-02  0.1226708E+00
        -11   -1    0    0    0    0  0.00000000000E+00  0.00000000000E+00  0.45593999997E+02  0.45594000000E+02  0.51100000000E-03 0. -1.
         11   -1    0    0    0    0 -0.00000000000E+00 -0.00000000000E+00 -0.45593999997E+02  0.45594000000E+02  0.51100000000E-03 0.  1.
    9900012    2    1    2    0    0  0.17848111246E+02 -0.16762323804E+01 -0.54142190318E+01  0.72461585560E+02  0.70000019886E+02 0.  0.
         12    1    1    2    0    0 -0.17848111246E+02  0.16762323804E+01  0.54142190318E+01  0.18726414440E+02  0.00000000000E+00 0. -1.
         11    1    3    3    0    0  0.30744803944E+01  0.74810053016E+01  0.25367441155E+02  0.26625644424E+02  0.51100000000E-03 0. -1.
        -11    1    3    3    0    0  0.14107957399E+01  0.10096231521E+02 -0.12389580979E+02  0.16044499140E+02  0.51100000000E-03 0.  1.
        -12    1    3    3    0    0  0.13362835112E+02 -0.19253469203E+02 -0.18392079208E+02  0.29791441996E+02  0.00000000000E+00 0.  1.
</event>
<event>
 7    1  0.3027254E-013  0.7246155E+02  0.7816164E-02  0.1226708E+00
        -11   -1    0    0    0    0  0.00000000000E+00  0.00000000000E+00  0.45593999997E+02  0.45594000000E+02  0.51100000000E-03 0. -1.
         11   -1    0    0    0    0 -0.00000000000E+00 -0.00000000000E+00 -0.45593999997E+02  0.45594000000E+02  0.51100000000E-03 0.  1.
    9900012    2    1    2    0    0 -0.32976154269E+00  0.79641504372E+01 -0.16945309792E+02  0.72461549221E+02  0.69999972548E+02 0.  0.
         12    1    1    2    0    0  0.32976154269E+00 -0.79641504372E+01  0.16945309792E+02  0.18726450779E+02  0.00000000000E+00 0. -1.
         11    1    3    3    0    0  0.18286015439E+02  0.10946968138E+02 -0.18359537482E+02  0.28129825610E+02  0.51100000000E-03 0. -1.
        -11    1    3    3    0    0  0.41626837258E+01  0.14016451196E+02 -0.45043759840E+01  0.15299615786E+02  0.51100000000E-03 0.  1.
        -12    1    3    3    0    0 -0.22778460707E+02 -0.16999268897E+02  0.59186036744E+01  0.29032107824E+02  0.00000000000E+00 0.  1.
</event>
<event>
 7    1  0.3027254E-013  0.7246164E+02  0.7816164E-02  0.1226708E+00
        -11   -1    0    0    0    0  0.00000000000E+00  0.00000000000E+00  0.45593999997E+02  0.45594000000E+02  0.51100000000E-03 0.  1.
         11   -1    0    0    0    0 -0.00000000000E+00 -0.00000000000E+00 -0.45593999997E+02  0.45594000000E+02  0.51100000000E-03 0. -1.
    9900012    2    1    2    0    0  0.16146178424E+02  0.82753803782E+01 -0.46363203268E+01  0.72461642525E+02  0.70000094094E+02 0.  0.
         12    1    1    2    0    0 -0.16146178424E+02 -0.82753803782E+01  0.46363203268E+01  0.18726357475E+02  0.00000000000E+00 0. -1.
         11    1    3    3    0    0  0.59685466416E+01 -0.60852646177E+01  0.35490794155E+01  0.92330904598E+01  0.51100000000E-03 0. -1.
        -11    1    3    3    0    0  0.33539183396E+02 -0.16724758687E+01  0.52763467718E+00  0.33585002561E+02  0.51100000000E-03 0.  1.
        -12    1    3    3    0    0 -0.23361551613E+02  0.16033120865E+02 -0.87130344196E+01  0.29643549505E+02  0.00000000000E+00 0.  1.
</event>
<event>
 7    1  0.3027254E-013  0.7246158E+02  0.7816164E-02  0.1226708E+00
        -11   -1    0    0    0    0  0.00000000000E+00  0.00000000000E+00  0.45593999997E+02  0.45594000000E+02  0.51100000000E-03 0.  1.
         11   -1    0    0    0    0 -0.00000000000E+00 -0.00000000000E+00 -0.45593999997E+02  0.45594000000E+02  0.51100000000E-03 0. -1.
    9900012    2    1    2    0    0 -0.16353551385E+02 -0.22225944065E+01  0.88487436533E+01  0.72461579279E+02  0.70000011704E+02 0.  0.
         12    1    1    2    0    0  0.16353551385E+02  0.22225944065E+01 -0.88487436533E+01  0.18726420721E+02  0.00000000000E+00 0. -1.
         11    1    3    3    0    0  0.15777339139E+02  0.89216188039E+01  0.10328480427E+02  0.20861381080E+02  0.51100000000E-03 0. -1.
        -11    1    3    3    0    0 -0.13349659247E+02  0.14480814138E+02 -0.22259098289E+01  0.19820748092E+02  0.51100000000E-03 0.  1.
        -12    1    3    3    0    0 -0.18781231276E+02 -0.25625027348E+02  0.74617305571E+00  0.31779450106E+02  0.00000000000E+00 0.  1.
</event>
<event>
 7    1  0.3027254E-013  0.7246157E+02  0.7816164E-02  0.1226708E+00
        -11   -1    0    0    0    0  0.00000000000E+00  0.00000000000E+00  0.45593999997E+02  0.45594000000E+02  0.51100000000E-03 0.  1.
         11   -1    0    0    0    0 -0.00000000000E+00 -0.00000000000E+00 -0.45593999997E+02  0.45594000000E+02  0.51100000000E-03 0. -1.
    9900012    2    1    2    0    0  0.55050644124E+01  0.11472664088E+02  0.13738681720E+02  0.72461571327E+02  0.70000001345E+02 0.  0.
         12    1    1    2    0    0 -0.55050644124E+01 -0.11472664088E+02 -0.13738681720E+02  0.18726428673E+02  0.00000000000E+00 0. -1.
         11    1    3    3    0    0  0.21957588340E+02 -0.12706198244E+02  0.23110375139E+02  0.34317234720E+02  0.51100000000E-03 0. -1.
        -11    1    3    3    0    0 -0.15324174323E+02  0.44669583373E+01  0.70480974768E+00  0.15977508958E+02  0.51100000000E-03 0.  1.
        -12    1    3    3    0    0 -0.11283496048E+01  0.19711903995E+02 -0.10076503167E+02  0.22166827648E+02  0.00000000000E+00 0.  1.
</event>
<event>
 7    1  0.3027254E-013  0.7246156E+02  0.7816164E-02  0.1226708E+00
        -11   -1    0    0    0    0  0.00000000000E+00  0.00000000000E+00  0.45593999997E+02  0.45594000000E+02  0.51100000000E-03 0.  1.
         11   -1    0    0    0    0 -0.00000000000E+00 -0.00000000000E+00 -0.45593999997E+02  0.45594000000E+02  0.51100000000E-03 0. -1.
    9900012    2    1    2    0    0  0.58995805463E+01  0.15629910311E+01  0.17703996140E+02  0.72461562247E+02  0.69999989517E+02 0.  0.
         12    1    1    2    0    0 -0.58995805463E+01 -0.15629910311E+01 -0.17703996140E+02  0.18726437753E+02  0.00000000000E+00 0. -1.
         11    1    3    3    0    0  0.22929815896E+02 -0.20659796094E+02  0.11838181380E+02  0.33056711426E+02  0.51100000000E-03 0. -1.
        -11    1    3    3    0    0  0.33648071432E+01  0.19161556388E+01  0.96299146399E+01  0.10379250251E+02  0.51100000000E-03 0.  1.
         12    1    3    3    0    0 -0.20395042492E+02  0.20306631486E+02 -0.37640998796E+01  0.29025600571E+02  0.00000000000E+00 0. -1.
</event>
<event>
 7    1  0.3027254E-013  0.7246152E+02  0.7816164E-02  0.1226708E+00
        -11   -1    0    0    0    0  0.00000000000E+00  0.00000000000E+00  0.45593999997E+02  0.45594000000E+02  0.51100000000E-03 0.  1.
         11   -1    0    0    0    0 -0.00000000000E+00 -0.00000000000E+00 -0.45593999997E+02  0.45594000000E+02  0.51100000000E-03 0. -1.
    9900012    2    1    2    0    0 -0.16682541246E+02  0.15517479712E+01  0.83645717531E+01  0.72461517020E+02  0.69999930600E+02 0.  0.
         12    1    1    2    0    0  0.16682541246E+02 -0.15517479712E+01 -0.83645717531E+01  0.18726482980E+02  0.00000000000E+00 0. -1.
         11    1    3    3    0    0 -0.82416522539E+01 -0.13722339586E+02 -0.77597909580E+01  0.17788810853E+02  0.51100000000E-03 0. -1.
        -11    1    3    3    0    0 -0.14960980562E+02 -0.47092236863E+01  0.26833927913E+02  0.31081625031E+02  0.51100000000E-03 0.  1.
         12    1    3    3    0    0  0.65200915699E+01  0.19983311243E+02 -0.10709565202E+02  0.23591081135E+02  0.00000000000E+00 0. -1.
</event>
<event>
 7    1  0.3027254E-013  0.7246163E+02  0.7816164E-02  0.1226708E+00
        -11   -1    0    0    0    0  0.00000000000E+00  0.00000000000E+00  0.45593999997E+02  0.45594000000E+02  0.51100000000E-03 0. -1.
         11   -1    0    0    0    0 -0.00000000000E+00 -0.00000000000E+00 -0.45593999997E+02  0.45594000000E+02  0.51100000000E-03 0.  1.
    9900012    2    1    2    0    0 -0.16301520899E+02 -0.35065279239E+01 -0.85230010290E+01  0.72461631739E+02  0.70000080043E+02 0.  0.
         12    1    1    2    0    0  0.16301520899E+02  0.35065279239E+01  0.85230010290E+01  0.18726368261E+02  0.00000000000E+00 0. -1.
         11    1    3    3    0    0  0.87899825907E+01  0.33844973951E+01  0.66342973290E+01  0.11520959937E+02  0.51100000000E-03 0. -1.
        -11    1    3    3    0    0  0.16446831789E+02 -0.56705586123E+01 -0.58570662157E+01  0.18356435814E+02  0.51100000000E-03 0.  1.
         12    1    3    3    0    0 -0.41538335279E+02 -0.12204667067E+01 -0.93002321423E+01  0.42584235988E+02  0.00000000000E+00 0. -1.
</event>
<event>
 7    1  0.3027254E-013  0.7246157E+02  0.7816164E-02  0.1226708E+00
        -11   -1    0    0    0    0  0.00000000000E+00  0.00000000000E+00  0.45593999997E+02  0.45594000000E+02  0.51100000000E-03 0. -1.
         11   -1    0    0    0    0 -0.00000000000E+00 -0.00000000000E+00 -0.45593999997E+02  0.45594000000E+02  0.51100000000E-03 0.  1.
    9900012    2    1    2    0    0 -0.13167095200E+02  0.46701541970E+01 -0.12469815366E+02  0.72461573980E+02  0.70000004801E+02 0.  0.
         12    1    1    2    0    0  0.13167095200E+02 -0.46701541970E+01  0.12469815366E+02  0.18726426020E+02  0.00000000000E+00 0. -1.
         11    1    3    3    0    0  0.74972912451E+00  0.20465709455E+02  0.67511395355E+01  0.21563516470E+02  0.51100000000E-03 0. -1.
        -11    1    3    3    0    0 -0.22029724655E+02  0.66285726985E+01 -0.66838184342E+01  0.23956631097E+02  0.51100000000E-03 0.  1.
        -12    1    3    3    0    0  0.81129003303E+01 -0.22424127956E+02 -0.12537136468E+02  0.26941426413E+02  0.00000000000E+00 0.  1.
</event>
<event>
 7    1  0.3027254E-013  0.7246160E+02  0.7816164E-02  0.1226708E+00
        -11   -1    0    0    0    0  0.00000000000E+00  0.00000000000E+00  0.45593999997E+02  0.45594000000E+02  0.51100000000E-03 0.  1.
         11   -1    0    0    0    0 -0.00000000000E+00 -0.00000000000E+00 -0.45593999997E+02  0.45594000000E+02  0.51100000000E-03 0. -1.
    9900012    2    1    2    0    0 -0.72333741685E+01  0.17128833050E+02  0.22270014333E+01  0.72461597278E+02  0.70000035151E+02 0.  0.
         12    1    1    2    0    0  0.72333741685E+01 -0.17128833050E+02 -0.22270014333E+01  0.18726402722E+02  0.00000000000E+00 0. -1.
         11    1    3    3    0    0 -0.13000888372E+02  0.24653902492E+02 -0.84778751585E+01  0.29132668502E+02  0.51100000000E-03 0. -1.
        -11    1    3    3    0    0 -0.15844322792E+02 -0.84919903392E+01 -0.22442612046E+01  0.18116102596E+02  0.51100000000E-03 0.  1.
         12    1    3    3    0    0  0.21611836995E+02  0.96692089694E+00  0.12949137796E+02  0.25212826181E+02  0.00000000000E+00 0. -1.
</event>
<event>
 7    1  0.3027254E-013  0.7246155E+02  0.7816164E-02  0.1226708E+00
        -11   -1    0    0    0    0  0.00000000000E+00  0.00000000000E+00  0.45593999997E+02  0.45594000000E+02  0.51100000000E-03 0.  1.
         11   -1    0    0    0    0 -0.00000000000E+00 -0.00000000000E+00 -0.45593999997E+02  0.45594000000E+02  0.51100000000E-03 0. -1.
    9900012    2    1    2    0    0  0.97851343549E+01 -0.14160706682E+02 -0.73760040729E+01  0.72461550679E+02  0.69999974448E+02 0.  0.
         12    1    1    2    0    0 -0.97851343549E+01  0.14160706682E+02  0.73760040729E+01  0.18726449321E+02  0.00000000000E+00 0. -1.
         11    1    3    3    0    0 -0.67901516944E+01  0.96592726351E+01  0.73652009334E+01  0.13915958211E+02  0.51100000000E-03 0. -1.
        -11    1    3    3    0    0 -0.15281408128E+02 -0.14507614296E+02  0.23707705808E+01  0.21204076503E+02  0.51100000000E-03 0.  1.
         12    1    3    3    0    0  0.31856694177E+02 -0.93123650209E+01 -0.17111975587E+02  0.37341515966E+02  0.00000000000E+00 0. -1.
</event>
<event>
 7    1  0.3027254E-013  0.7246161E+02  0.7816164E-02  0.1226708E+00
        -11   -1    0    0    0    0  0.00000000000E+00  0.00000000000E+00  0.45593999997E+02  0.45594000000E+02  0.51100000000E-03 0.  1.
         11   -1    0    0    0    0 -0.00000000000E+00 -0.00000000000E+00 -0.45593999997E+02  0.45594000000E+02  0.51100000000E-03 0. -1.
    9900012    2    1    2    0    0  0.14811776474E+02  0.30402848904E+01  0.11047424468E+02  0.72461611082E+02  0.70000053134E+02 0.  0.
         12    1    1    2    0    0 -0.14811776474E+02 -0.30402848904E+01 -0.11047424468E+02  0.18726388918E+02  0.00000000000E+00 0. -1.
         11    1    3    3    0    0  0.67428357193E+01  0.52470605709E+01  0.27354384646E+01  0.89710702832E+01  0.51100000000E-03 0. -1.
        -11    1    3    3    0    0  0.18512072559E+02 -0.17161928638E+02  0.27285203768E+02  0.37171372989E+02  0.51100000000E-03 0.  1.
         12    1    3    3    0    0 -0.10443131804E+02  0.14955152958E+02 -0.18973217765E+02  0.26319167810E+02  0.00000000000E+00 0. -1.
</event>
<event>
 7    1  0.3027254E-013  0.7246159E+02  0.7816164E-02  0.1226708E+00
        -11   -1    0    0    0    0  0.00000000000E+00  0.00000000000E+00  0.45593999997E+02  0.45594000000E+02  0.51100000000E-03 0.  1.
         11   -1    0    0    0    0 -0.00000000000E+00 -0.00000000000E+00 -0.45593999997E+02  0.45594000000E+02  0.51100000000E-03 0. -1.
    9900012    2    1    2    0    0  0.11256531084E+02  0.37604329869E+01  0.14485438976E+02  0.72461593761E+02  0.70000030570E+02 0.  0.
         12    1    1    2    0    0 -0.11256531084E+02 -0.37604329869E+01 -0.14485438976E+02  0.18726406239E+02  0.00000000000E+00 0. -1.
         11    1    3    3    0    0  0.25847721329E+01  0.35684760336E+01 -0.12917844310E+02  0.13648654514E+02  0.51100000000E-03 0. -1.
        -11    1    3    3    0    0  0.68537791467E+01  0.27685984606E+01 -0.14772906817E+02  0.16519025459E+02  0.51100000000E-03 0.  1.
        -12    1    3    3    0    0  0.18179798043E+01 -0.25766415074E+01  0.42176190102E+02  0.42293913789E+02  0.00000000000E+00 0.  1.
</event>
<event>
 7    1  0.3027254E-013  0.7246159E+02  0.7816164E-02  0.1226708E+00
        -11   -1    0    0    0    0  0.00000000000E+00  0.00000000000E+00  0.45593999997E+02  0.45594000000E+02  0.51100000000E-03 0.  1.
         11   -1    0    0    0    0 -0.00000000000E+00 -0.00000000000E+00 -0.45593999997E+02  0.45594000000E+02  0.51100000000E-03 0. -1.
    9900012    2    1    2    0    0  0.10907530608E+02  0.14195896987E+02  0.54936983904E+01  0.72461589846E+02  0.70000025470E+02 0.  0.
         12    1    1    2    0    0 -0.10907530608E+02 -0.14195896987E+02 -0.54936983904E+01  0.18726410154E+02  0.00000000000E+00 0. -1.
         11    1    3    3    0    0  0.19824427545E+02  0.64363032355E+01  0.87464752833E+01  0.22603865974E+02  0.51100000000E-03 0. -1.
        -11    1    3    3    0    0 -0.63663743320E+00  0.25778423862E+01  0.22322867820E+02  0.22480235910E+02  0.51100000000E-03 0.  1.
         12    1    3    3    0    0 -0.82802595038E+01  0.51817513654E+01 -0.25575644713E+02  0.27377487962E+02  0.00000000000E+00 0. -1.
</event>
<event>
 7    1  0.3027254E-013  0.7246161E+02  0.7816164E-02  0.1226708E+00
        -11   -1    0    0    0    0  0.00000000000E+00  0.00000000000E+00  0.45593999997E+02  0.45594000000E+02  0.51100000000E-03 0.  1.
         11   -1    0    0    0    0 -0.00000000000E+00 -0.00000000000E+00 -0.45593999997E+02  0.45594000000E+02  0.51100000000E-03 0. -1.
    9900012    2    1    2    0    0  0.11465139831E+02 -0.15398751347E+01 -0.14726066088E+02  0.72461610353E+02  0.70000052184E+02 0.  0.
         12    1    1    2    0    0 -0.11465139831E+02  0.15398751347E+01  0.14726066088E+02  0.18726389647E+02  0.00000000000E+00 0. -1.
         11    1    3    3    0    0  0.12141490499E+02 -0.99622505805E+01 -0.21564596347E+02  0.26677594420E+02  0.51100000000E-03 0. -1.
        -11    1    3    3    0    0 -0.18203051596E+02 -0.25161293072E+01  0.14848685030E+02  0.23625525211E+02  0.51100000000E-03 0.  1.
         12    1    3    3    0    0  0.17526700928E+02  0.10938504753E+02 -0.80101547714E+01  0.22158490722E+02  0.00000000000E+00 0. -1.
</event>
<event>
 7    1  0.3027254E-013  0.7246150E+02  0.7816164E-02  0.1226708E+00
        -11   -1    0    0    0    0  0.00000000000E+00  0.00000000000E+00  0.45593999997E+02  0.45594000000E+02  0.51100000000E-03 0. -1.
         11   -1    0    0    0    0 -0.00000000000E+00 -0.00000000000E+00 -0.45593999997E+02  0.45594000000E+02  0.51100000000E-03 0.  1.
    9900012    2    1    2    0    0  0.13260178098E+02 -0.12764678145E+02 -0.34514447906E+01  0.72461499994E+02  0.69999908420E+02 0.  0.
         12    1    1    2    0    0 -0.13260178098E+02  0.12764678145E+02  0.34514447906E+01  0.18726500006E+02  0.00000000000E+00 0. -1.
         11    1    3    3    0    0  0.69552904217E+00 -0.10202541094E+02  0.28974244210E+02  0.30725924449E+02  0.51100000000E-03 0. -1.
        -11    1    3    3    0    0 -0.64282366322E+01 -0.33451949720E+01 -0.82236187649E+01  0.10960860434E+02  0.51100000000E-03 0.  1.
        -12    1    3    3    0    0  0.18992885688E+02  0.78305792059E+00 -0.24202070236E+02  0.30774715111E+02  0.00000000000E+00 0.  1.
</event>
<event>
 7    1  0.3027254E-013  0.7246152E+02  0.7816164E-02  0.1226708E+00
        -11   -1    0    0    0    0  0.00000000000E+00  0.00000000000E+00  0.45593999997E+02  0.45594000000E+02  0.51100000000E-03 0. -1.
         11   -1    0    0    0    0 -0.00000000000E+00 -0.00000000000E+00 -0.45593999997E+02  0.45594000000E+02  0.51100000000E-03 0.  1.
    9900012    2    1    2    0    0 -0.43891634179E+01 -0.12237892328E+02 -0.13477776542E+02  0.72461515422E+02  0.69999928519E+02 0.  0.
         12    1    1    2    0    0  0.43891634179E+01  0.12237892328E+02  0.13477776542E+02  0.18726484578E+02  0.00000000000E+00 0. -1.
         11    1    3    3    0    0  0.16497418573E+02 -0.18354730016E+02 -0.11210011911E+01  0.24704606401E+02  0.51100000000E-03 0. -1.
        -11    1    3    3    0    0 -0.13674063135E+02 -0.12267264437E+02 -0.19468309652E+02  0.26767160110E+02  0.51100000000E-03 0.  1.
         12    1    3    3    0    0 -0.72125188561E+01  0.18384102125E+02  0.71115343019E+01  0.20989748911E+02  0.00000000000E+00 0. -1.
</event>
<event>
 7    1  0.3027254E-013  0.7246119E+02  0.7816164E-02  0.1226709E+00
        -11   -1    0    0    0    0  0.00000000000E+00  0.00000000000E+00  0.45593999997E+02  0.45594000000E+02  0.51100000000E-03 0. -1.
         11   -1    0    0    0    0 -0.00000000000E+00 -0.00000000000E+00 -0.45593999997E+02  0.45594000000E+02  0.51100000000E-03 0.  1.
    9900012    2    1    2    0    0 -0.13631492339E+02  0.24106499488E+00 -0.12838132321E+02  0.72461192018E+02  0.69999507223E+02 0.  0.
         12    1    1    2    0    0  0.13631492339E+02 -0.24106499488E+00  0.12838132321E+02  0.18726807982E+02  0.00000000000E+00 0. -1.
         11    1    3    3    0    0  0.39599188565E+01  0.76088475358E+00  0.20178099372E+01  0.45090420449E+01  0.51100000000E-03 0. -1.
        -11    1    3    3    0    0  0.84512105244E+01 -0.24047601994E+02 -0.20106298878E+02  0.32464956119E+02  0.51100000000E-03 0.  1.
         12    1    3    3    0    0 -0.26042621720E+02  0.23527782236E+02  0.52503566193E+01  0.35487193853E+02  0.00000000000E+00 0. -1.
</event>
<event>
 7    1  0.3027254E-013  0.7246158E+02  0.7816164E-02  0.1226708E+00
        -11   -1    0    0    0    0  0.00000000000E+00  0.00000000000E+00  0.45593999997E+02  0.45594000000E+02  0.51100000000E-03 0. -1.
         11   -1    0    0    0    0 -0.00000000000E+00 -0.00000000000E+00 -0.45593999997E+02  0.45594000000E+02  0.51100000000E-03 0.  1.
    9900012    2    1    2    0    0  0.32499085806E+01  0.11747588993E+02 -0.14216574700E+02  0.72461581519E+02  0.70000014622E+02 0.  0.
         12    1    1    2    0    0 -0.32499085806E+01 -0.11747588993E+02  0.14216574700E+02  0.18726418481E+02  0.00000000000E+00 0. -1.
         11    1    3    3    0    0  0.16988137723E+02 -0.85745373669E+01 -0.32596491933E+02  0.37744546638E+02  0.51100000000E-03 0.  1.
        -11    1    3    3    0    0  0.13348540744E+00  0.13938844365E+02  0.11001697289E+02  0.17757999439E+02  0.51100000000E-03 0. -1.
        -12    1    3    3    0    0 -0.13871714549E+02  0.63832819949E+01  0.73782199432E+01  0.16959035441E+02  0.00000000000E+00 0.  1.
</event>
<event>
 7    1  0.3027254E-013  0.7246155E+02  0.7816164E-02  0.1226708E+00
        -11   -1    0    0    0    0  0.00000000000E+00  0.00000000000E+00  0.45593999997E+02  0.45594000000E+02  0.51100000000E-03 0. -1.
         11   -1    0    0    0    0 -0.00000000000E+00 -0.00000000000E+00 -0.45593999997E+02  0.45594000000E+02  0.51100000000E-03 0.  1.
    9900012    2    1    2    0    0 -0.15506783869E+02 -0.16014369181E+00  0.10497327084E+02  0.72461551648E+02  0.69999975710E+02 0.  0.
         12    1    1    2    0    0  0.15506783869E+02  0.16014369181E+00 -0.10497327084E+02  0.18726448352E+02  0.00000000000E+00 0. -1.
         11    1    3    3    0    0  0.11999797926E+02 -0.13126375528E+02  0.16001200504E+02  0.23923530312E+02  0.51100000000E-03 0. -1.
        -11    1    3    3    0    0 -0.21577785410E+02 -0.47203890213E+01  0.10034257273E+02  0.24260445482E+02  0.51100000000E-03 0.  1.
         12    1    3    3    0    0 -0.59287963855E+01  0.17686620857E+02 -0.15538130693E+02  0.24277575854E+02  0.00000000000E+00 0. -1.
</event>
<event>
 7    1  0.3027254E-013  0.7246161E+02  0.7816164E-02  0.1226708E+00
        -11   -1    0    0    0    0  0.00000000000E+00  0.00000000000E+00  0.45593999997E+02  0.45594000000E+02  0.51100000000E-03 0. -1.
         11   -1    0    0    0    0 -0.00000000000E+00 -0.00000000000E+00 -0.45593999997E+02  0.45594000000E+02  0.51100000000E-03 0.  1.
    9900012    2    1    2    0    0 -0.13496051484E+02  0.72360296744E+01 -0.10778409374E+02  0.72461611140E+02  0.70000053209E+02 0.  0.
         12    1    1    2    0    0  0.13496051484E+02 -0.72360296744E+01  0.10778409374E+02  0.18726388860E+02  0.00000000000E+00 0. -1.
         11    1    3    3    0    0  0.94515826419E+01  0.20619974751E+01  0.14982647182E+02  0.17834347896E+02  0.51100000000E-03 0. -1.
        -11    1    3    3    0    0  0.10652204512E+02  0.83948854646E+01 -0.12229460635E+02  0.18262071915E+02  0.51100000000E-03 0.  1.
         12    1    3    3    0    0 -0.33599838638E+02 -0.32208532653E+01 -0.13531595921E+02  0.36365191329E+02  0.00000000000E+00 0. -1.
</event>
<event>
 7    1  0.3027254E-013  0.7246161E+02  0.7816164E-02  0.1226708E+00
        -11   -1    0    0    0    0  0.00000000000E+00  0.00000000000E+00  0.45593999997E+02  0.45594000000E+02  0.51100000000E-03 0. -1.
         11   -1    0    0    0    0 -0.00000000000E+00 -0.00000000000E+00 -0.45593999997E+02  0.45594000000E+02  0.51100000000E-03 0.  1.
    9900012    2    1    2    0    0 -0.11371333849E+02 -0.26815183180E+01 -0.14634884348E+02  0.72461611831E+02  0.70000054109E+02 0.  0.
         12    1    1    2    0    0  0.11371333849E+02  0.26815183180E+01  0.14634884348E+02  0.18726388169E+02  0.00000000000E+00 0. -1.
         11    1    3    3    0    0 -0.11923917525E+02  0.97507628238E+01  0.59665437284E+01  0.16518378526E+02  0.51100000000E-03 0. -1.
        -11    1    3    3    0    0 -0.21505389553E+02  0.68677419011E+01 -0.70336574064E+01  0.23645718332E+02  0.51100000000E-03 0.  1.
        -12    1    3    3    0    0  0.22057973230E+02 -0.19300023043E+02 -0.13567770670E+02  0.32297514973E+02  0.00000000000E+00 0.  1.
</event>
<event>
 7    1  0.3027254E-013  0.7246161E+02  0.7816164E-02  0.1226708E+00
        -11   -1    0    0    0    0  0.00000000000E+00  0.00000000000E+00  0.45593999997E+02  0.45594000000E+02  0.51100000000E-03 0.  1.
         11   -1    0    0    0    0 -0.00000000000E+00 -0.00000000000E+00 -0.45593999997E+02  0.45594000000E+02  0.51100000000E-03 0. -1.
    9900012    2    1    2    0    0 -0.62719111844E+01  0.45495302718E+01  0.17048247883E+02  0.72461605487E+02  0.70000045844E+02 0.  0.
         12    1    1    2    0    0  0.62719111844E+01 -0.45495302718E+01 -0.17048247883E+02  0.18726394513E+02  0.00000000000E+00 0. -1.
         11    1    3    3    0    0  0.42474838548E+01 -0.24503581062E+02  0.14829371566E+02  0.28954738217E+02  0.51100000000E-03 0. -1.
        -11    1    3    3    0    0 -0.10969405459E+02  0.38394265801E+00 -0.74297148412E+01  0.13254279723E+02  0.51100000000E-03 0.  1.
        -12    1    3    3    0    0  0.45001041954E+00  0.28669168675E+02  0.96485911581E+01  0.30252587546E+02  0.00000000000E+00 0.  1.
</event>
<event>
 7    1  0.3027254E-013  0.7246165E+02  0.7816164E-02  0.1226708E+00
        -11   -1    0    0    0    0  0.00000000000E+00  0.00000000000E+00  0.45593999997E+02  0.45594000000E+02  0.51100000000E-03 0.  1.
         11   -1    0    0    0    0 -0.00000000000E+00 -0.00000000000E+00 -0.45593999997E+02  0.45594000000E+02  0.51100000000E-03 0. -1.
    9900012    2    1    2    0    0  0.15547550072E+02  0.49404136646E+01  0.91946878058E+01  0.72461647331E+02  0.70000100355E+02 0.  0.
         12    1    1    2    0    0 -0.15547550072E+02 -0.49404136646E+01 -0.91946878058E+01  0.18726352669E+02  0.00000000000E+00 0. -1.
         11    1    3    3    0    0 -0.89018541093E+00  0.36721552584E+01 -0.82551424043E+01  0.90787956626E+01  0.51100000000E-03 0. -1.
        -11    1    3    3    0    0 -0.59008477265E+00 -0.27311717938E+02  0.11240762421E+02  0.29540360133E+02  0.51100000000E-03 0.  1.
         12    1    3    3    0    0  0.17027820256E+02  0.28579976344E+02  0.62090677896E+01  0.33842491535E+02  0.00000000000E+00 0. -1.
</event>
<event>
 7    1  0.3027254E-013  0.7246157E+02  0.7816164E-02  0.1226708E+00
        -11   -1    0    0    0    0  0.00000000000E+00  0.00000000000E+00  0.45593999997E+02  0.45594000000E+02  0.51100000000E-03 0.  1.
         11   -1    0    0    0    0 -0.00000000000E+00 -0.00000000000E+00 -0.45593999997E+02  0.45594000000E+02  0.51100000000E-03 0. -1.
    9900012    2    1    2    0    0  0.64036163561E+01  0.17589975803E+02  0.51548901802E+00  0.72461567341E+02  0.69999996153E+02 0.  0.
         12    1    1    2    0    0 -0.64036163561E+01 -0.17589975803E+02 -0.51548901802E+00  0.18726432659E+02  0.00000000000E+00 0. -1.
         11    1    3    3    0    0  0.16168086513E+02  0.55339241190E+01  0.18355230057E+02  0.25078792004E+02  0.51100000000E-03 0. -1.
        -11    1    3    3    0    0 -0.22325201417E+02 -0.12262981745E+01 -0.77109479355E+00  0.22372148152E+02  0.51100000000E-03 0.  1.
         12    1    3    3    0    0  0.12560731260E+02  0.13282349858E+02 -0.17068646246E+02  0.25010627185E+02  0.00000000000E+00 0. -1.
</event>
<event>
 7    1  0.3027254E-013  0.7246159E+02  0.7816164E-02  0.1226708E+00
        -11   -1    0    0    0    0  0.00000000000E+00  0.00000000000E+00  0.45593999997E+02  0.45594000000E+02  0.51100000000E-03 0.  1.
         11   -1    0    0    0    0 -0.00000000000E+00 -0.00000000000E+00 -0.45593999997E+02  0.45594000000E+02  0.51100000000E-03 0. -1.
    9900012    2    1    2    0    0  0.60412972111E+01 -0.16806764573E+02 -0.56315040919E+01  0.72461589619E+02  0.70000025174E+02 0.  0.
         12    1    1    2    0    0 -0.60412972111E+01  0.16806764573E+02  0.56315040919E+01  0.18726410381E+02  0.00000000000E+00 0. -1.
         11    1    3    3    0    0 -0.22923491299E+01  0.48840095189E+01 -0.27140341803E+02  0.27671403415E+02  0.51100000000E-03 0. -1.
        -11    1    3    3    0    0 -0.94148984185E+01 -0.63734766222E+01  0.17702488558E+02  0.21039002302E+02  0.51100000000E-03 0.  1.
        -12    1    3    3    0    0  0.17748544760E+02 -0.15317297470E+02  0.38063491537E+01  0.23751183902E+02  0.00000000000E+00 0.  1.
</event>
<event>
 7    1  0.3027254E-013  0.7246157E+02  0.7816164E-02  0.1226708E+00
        -11   -1    0    0    0    0  0.00000000000E+00  0.00000000000E+00  0.45593999997E+02  0.45594000000E+02  0.51100000000E-03 0.  1.
         11   -1    0    0    0    0 -0.00000000000E+00 -0.00000000000E+00 -0.45593999997E+02  0.45594000000E+02  0.51100000000E-03 0. -1.
    9900012    2    1    2    0    0  0.17146224176E+02 -0.71975266334E+01  0.22095175132E+01  0.72461565188E+02  0.69999993348E+02 0.  0.
         12    1    1    2    0    0 -0.17146224176E+02  0.71975266334E+01 -0.22095175132E+01  0.18726434812E+02  0.00000000000E+00 0. -1.
         11    1    3    3    0    0 -0.32361719512E+01  0.22090024560E+01  0.93963412591E+01  0.10180556471E+02  0.51100000000E-03 0. -1.
        -11    1    3    3    0    0  0.17677299866E+02  0.49268267269E+01  0.22601368052E+02  0.29113268285E+02  0.51100000000E-03 0.  1.
         12    1    3    3    0    0  0.27050962612E+01 -0.14333355816E+02 -0.29788191798E+02  0.33167740431E+02  0.00000000000E+00 0. -1.
</event>
<event>
 7    1  0.3027254E-013  0.7246158E+02  0.7816164E-02  0.1226708E+00
        -11   -1    0    0    0    0  0.00000000000E+00  0.00000000000E+00  0.45593999997E+02  0.45594000000E+02  0.51100000000E-03 0.  1.
         11   -1    0    0    0    0 -0.00000000000E+00 -0.00000000000E+00 -0.45593999997E+02  0.45594000000E+02  0.51100000000E-03 0. -1.
    9900012    2    1    2    0    0 -0.94012009258E+01  0.16156298944E+02 -0.11271197863E+01  0.72461575530E+02  0.70000006821E+02 0.  0.
         12    1    1    2    0    0  0.94012009258E+01 -0.16156298944E+02  0.11271197863E+01  0.18726424470E+02  0.00000000000E+00 0. -1.
         11    1    3    3    0    0 -0.10295053858E+02  0.71555990289E+00  0.16673840052E+00  0.10321238388E+02  0.51100000000E-03 0. -1.
        -11    1    3    3    0    0  0.17055642367E+02 -0.60438277053E+01  0.20636083945E+02  0.27445778377E+02  0.51100000000E-03 0.  1.
         12    1    3    3    0    0 -0.16161789435E+02  0.21484566746E+02 -0.21929942131E+02  0.34694558765E+02  0.00000000000E+00 0. -1.
</event>
<event>
 7    1  0.3027254E-013  0.7246174E+02  0.7816164E-02  0.1226708E+00
        -11   -1    0    0    0    0  0.00000000000E+00  0.00000000000E+00  0.45593999997E+02  0.45594000000E+02  0.51100000000E-03 0.  1.
         11   -1    0    0    0    0 -0.00000000000E+00 -0.00000000000E+00 -0.45593999997E+02  0.45594000000E+02  0.51100000000E-03 0. -1.
    9900012    2    1    2    0    0 -0.52230694314E+01 -0.99884132192E+01  0.14954058314E+02  0.72461742686E+02  0.70000224572E+02 0.  0.
         12    1    1    2    0    0  0.52230694314E+01  0.99884132192E+01 -0.14954058314E+02  0.18726257314E+02  0.00000000000E+00 0. -1.
         11    1    3    3    0    0 -0.13086156773E+02 -0.43611696239E+01 -0.31439303720E+00  0.13797323756E+02  0.51100000000E-03 0. -1.
        -11    1    3    3    0    0  0.26519258306E+02  0.32322718621E+01  0.24308602312E+02  0.36119617788E+02  0.51100000000E-03 0.  1.
         12    1    3    3    0    0 -0.18656170964E+02 -0.88595154573E+01 -0.90401509613E+01  0.22544801143E+02  0.00000000000E+00 0. -1.
</event>
<event>
 7    1  0.3027254E-013  0.7246157E+02  0.7816164E-02  0.1226708E+00
        -11   -1    0    0    0    0  0.00000000000E+00  0.00000000000E+00  0.45593999997E+02  0.45594000000E+02  0.51100000000E-03 0. -1.
         11   -1    0    0    0    0 -0.00000000000E+00 -0.00000000000E+00 -0.45593999997E+02  0.45594000000E+02  0.51100000000E-03 0.  1.
    9900012    2    1    2    0    0  0.41246317394E+01  0.32930407349E+01 -0.17967263239E+02  0.72461568077E+02  0.69999997112E+02 0.  0.
         12    1    1    2    0    0 -0.41246317394E+01 -0.32930407349E+01  0.17967263239E+02  0.18726431923E+02  0.00000000000E+00 0. -1.
         11    1    3    3    0    0  0.10864052806E+01 -0.22680495395E+01 -0.17748320142E+01  0.30780438735E+01  0.51100000000E-03 0. -1.
        -11    1    3    3    0    0  0.83450296642E+01 -0.14550558867E+02 -0.36589692450E+02  0.40251259325E+02  0.51100000000E-03 0.  1.
         12    1    3    3    0    0 -0.53068032054E+01  0.20111649141E+02  0.20397261225E+02  0.29132264878E+02  0.00000000000E+00 0. -1.
</event>
<event>
 7    1  0.3027254E-013  0.7246157E+02  0.7816164E-02  0.1226708E+00
        -11   -1    0    0    0    0  0.00000000000E+00  0.00000000000E+00  0.45593999997E+02  0.45594000000E+02  0.51100000000E-03 0. -1.
         11   -1    0    0    0    0 -0.00000000000E+00 -0.00000000000E+00 -0.45593999997E+02  0.45594000000E+02  0.51100000000E-03 0.  1.
    9900012    2    1    2    0    0 -0.81407304808E+01 -0.86563882942E+01 -0.14473236626E+02  0.72461571363E+02  0.70000001392E+02 0.  0.
         12    1    1    2    0    0  0.81407304808E+01  0.86563882942E+01  0.14473236626E+02  0.18726428637E+02  0.00000000000E+00 0. -1.
         11    1    3    3    0    0 -0.28543961371E+02  0.26839502149E+01 -0.61240379103E+01  0.29316636234E+02  0.51100000000E-03 0. -1.
        -11    1    3    3    0    0  0.19928045499E+01 -0.70722788759E+00 -0.19172014726E+02  0.19288275977E+02  0.51100000000E-03 0.  1.
         12    1    3    3    0    0  0.18410426340E+02 -0.10633110622E+02  0.10822816010E+02  0.23856659152E+02  0.00000000000E+00 0. -1.
</event>
<event>
 7    1  0.3027254E-013  0.7246150E+02  0.7816164E-02  0.1226708E+00
        -11   -1    0    0    0    0  0.00000000000E+00  0.00000000000E+00  0.45593999997E+02  0.45594000000E+02  0.51100000000E-03 0. -1.
         11   -1    0    0    0    0 -0.00000000000E+00 -0.00000000000E+00 -0.45593999997E+02  0.45594000000E+02  0.51100000000E-03 0.  1.
    9900012    2    1    2    0    0  0.72969450892E+01  0.16822393107E+02 -0.38004371546E+01  0.72461504331E+02  0.69999914070E+02 0.  0.
         12    1    1    2    0    0 -0.72969450892E+01 -0.16822393107E+02  0.38004371546E+01  0.18726495669E+02  0.00000000000E+00 0. -1.
         11    1    3    3    0    0  0.14897129286E+02 -0.19384223099E+02 -0.13229694693E+02  0.27797434919E+02  0.51100000000E-03 0. -1.
        -11    1    3    3    0    0  0.12812068186E+01  0.58875159570E+01 -0.68504117004E+01  0.91231834237E+01  0.51100000000E-03 0.  1.
         12    1    3    3    0    0 -0.88813910156E+01  0.30319100249E+02  0.16279669239E+02  0.35540885988E+02  0.00000000000E+00 0. -1.
</event>
<event>
 7    1  0.3027254E-013  0.7246158E+02  0.7816164E-02  0.1226708E+00
        -11   -1    0    0    0    0  0.00000000000E+00  0.00000000000E+00  0.45593999997E+02  0.45594000000E+02  0.51100000000E-03 0.  1.
         11   -1    0    0    0    0 -0.00000000000E+00 -0.00000000000E+00 -0.45593999997E+02  0.45594000000E+02  0.51100000000E-03 0. -1.
    9900012    2    1    2    0    0  0.14643750332E+02  0.11660887523E+02  0.51289081688E+00  0.72461580732E+02  0.70000013597E+02 0.  0.
         12    1    1    2    0    0 -0.14643750332E+02 -0.11660887523E+02 -0.51289081688E+00  0.18726419268E+02  0.00000000000E+00 0. -1.
         11    1    3    3    0    0  0.13490106812E+01 -0.23395758728E+01  0.32179619478E+00  0.27197422920E+01  0.51100000000E-03 0. -1.
        -11    1    3    3    0    0 -0.22514899255E+01 -0.14433401754E+02  0.24982622955E+02  0.28940002471E+02  0.51100000000E-03 0.  1.
         12    1    3    3    0    0  0.15546229576E+02  0.28433865149E+02 -0.24791528333E+02  0.40801835969E+02  0.00000000000E+00 0. -1.
</event>
<event>
 7    1  0.3027254E-013  0.7246161E+02  0.7816164E-02  0.1226708E+00
        -11   -1    0    0    0    0  0.00000000000E+00  0.00000000000E+00  0.45593999997E+02  0.45594000000E+02  0.51100000000E-03 0. -1.
         11   -1    0    0    0    0 -0.00000000000E+00 -0.00000000000E+00 -0.45593999997E+02  0.45594000000E+02  0.51100000000E-03 0.  1.
    9900012    2    1    2    0    0 -0.91478909276E+01 -0.12563877136E+02 -0.10447139065E+02  0.72461611353E+02  0.70000053486E+02 0.  0.
         12    1    1    2    0    0  0.91478909276E+01  0.12563877136E+02  0.10447139065E+02  0.18726388647E+02  0.00000000000E+00 0. -1.
         11    1    3    3    0    0 -0.57713752935E+01 -0.35566110455E+01  0.19228267687E+01  0.70466671520E+01  0.51100000000E-03 0. -1.
        -11    1    3    3    0    0 -0.21017385590E+02 -0.30107119301E+02 -0.77595945588E+01  0.37528395085E+02  0.51100000000E-03 0.  1.
         12    1    3    3    0    0  0.17640869956E+02  0.21099853211E+02 -0.46103712751E+01  0.27886549116E+02  0.00000000000E+00 0. -1.
</event>
<event>
 7    1  0.3027254E-013  0.7246159E+02  0.7816164E-02  0.1226708E+00
        -11   -1    0    0    0    0  0.00000000000E+00  0.00000000000E+00  0.45593999997E+02  0.45594000000E+02  0.51100000000E-03 0.  1.
         11   -1    0    0    0    0 -0.00000000000E+00 -0.00000000000E+00 -0.45593999997E+02  0.45594000000E+02  0.51100000000E-03 0. -1.
    9900012    2    1    2    0    0  0.77714743759E+01 -0.10409804736E+02  0.13487716162E+02  0.72461592552E+02  0.70000028995E+02 0.  0.
         12    1    1    2    0    0 -0.77714743759E+01  0.10409804736E+02 -0.13487716162E+02  0.18726407448E+02  0.00000000000E+00 0. -1.
         11    1    3    3    0    0  0.23729667408E+02 -0.15369181423E+02  0.24979978742E+02  0.37726756966E+02  0.51100000000E-03 0. -1.
        -11    1    3    3    0    0 -0.10270536383E+02 -0.26390500766E+01  0.78471437939E+01  0.13191897850E+02  0.51100000000E-03 0.  1.
        -12    1    3    3    0    0 -0.56876566488E+01  0.75984267642E+01 -0.19339406373E+02  0.21542937737E+02  0.00000000000E+00 0.  1.
</event>
<event>
 7    1  0.3027254E-013  0.7246157E+02  0.7816164E-02  0.1226708E+00
        -11   -1    0    0    0    0  0.00000000000E+00  0.00000000000E+00  0.45593999997E+02  0.45594000000E+02  0.51100000000E-03 0.  1.
         11   -1    0    0    0    0 -0.00000000000E+00 -0.00000000000E+00 -0.45593999997E+02  0.45594000000E+02  0.51100000000E-03 0. -1.
    9900012    2    1    2    0    0 -0.15214019407E+02  0.13817916967E+01  0.10830672389E+02  0.72461569502E+02  0.69999998967E+02 0.  0.
         12    1    1    2    0    0  0.15214019407E+02 -0.13817916967E+01 -0.10830672389E+02  0.18726430498E+02  0.00000000000E+00 0. -1.
         11    1    3    3    0    0 -0.14826588252E+02  0.52058099929E+01  0.12857583085E+01  0.15766462874E+02  0.51100000000E-03 0. -1.
        -11    1    3    3    0    0 -0.36053611395E+01  0.22429132833E+02  0.17938371809E+02  0.28945635457E+02  0.51100000000E-03 0.  1.
         12    1    3    3    0    0  0.32179299840E+01 -0.26253151129E+02 -0.83934577285E+01  0.27749471170E+02  0.00000000000E+00 0. -1.
</event>
<event>
 7    1  0.3027254E-013  0.7246160E+02  0.7816164E-02  0.1226708E+00
        -11   -1    0    0    0    0  0.00000000000E+00  0.00000000000E+00  0.45593999997E+02  0.45594000000E+02  0.51100000000E-03 0.  1.
         11   -1    0    0    0    0 -0.00000000000E+00 -0.00000000000E+00 -0.45593999997E+02  0.45594000000E+02  0.51100000000E-03 0. -1.
    9900012    2    1    2    0    0  0.17876610634E+02  0.33289637985E+01  0.44747030942E+01  0.72461596834E+02  0.70000034573E+02 0.  0.
         12    1    1    2    0    0 -0.17876610634E+02 -0.33289637985E+01 -0.44747030942E+01  0.18726403166E+02  0.00000000000E+00 0. -1.
         11    1    3    3    0    0  0.56045096305E+01 -0.24078904326E+01 -0.11135704117E+02  0.12696943371E+02  0.51100000000E-03 0. -1.
        -11    1    3    3    0    0  0.12550813975E+02 -0.49537542092E+01  0.35061123016E+02  0.37567871375E+02  0.51100000000E-03 0.  1.
         12    1    3    3    0    0 -0.27871297152E+00  0.10690608440E+02 -0.19450715805E+02  0.22196782088E+02  0.00000000000E+00 0. -1.
</event>
<event>
 7    1  0.3027254E-013  0.7246161E+02  0.7816164E-02  0.1226708E+00
        -11   -1    0    0    0    0  0.00000000000E+00  0.00000000000E+00  0.45593999997E+02  0.45594000000E+02  0.51100000000E-03 0. -1.
         11   -1    0    0    0    0 -0.00000000000E+00 -0.00000000000E+00 -0.45593999997E+02  0.45594000000E+02  0.51100000000E-03 0.  1.
    9900012    2    1    2    0    0 -0.55788105766E+01  0.23267694345E+01 -0.17724015338E+02  0.72461609447E+02  0.70000051003E+02 0.  0.
         12    1    1    2    0    0  0.55788105766E+01 -0.23267694345E+01  0.17724015338E+02  0.18726390553E+02  0.00000000000E+00 0. -1.
         11    1    3    3    0    0 -0.19972756609E+02  0.60600892576E+00  0.56552250483E+01  0.20766796190E+02  0.51100000000E-03 0. -1.
        -11    1    3    3    0    0  0.28385588130E+01  0.22307636643E+02 -0.10858801119E+02  0.24972016954E+02  0.51100000000E-03 0.  1.
        -12    1    3    3    0    0  0.11555387220E+02 -0.20586876135E+02 -0.12520439267E+02  0.26722796302E+02  0.00000000000E+00 0.  1.
</event>
<event>
 7    1  0.3027254E-013  0.7246157E+02  0.7816164E-02  0.1226708E+00
        -11   -1    0    0    0    0  0.00000000000E+00  0.00000000000E+00  0.45593999997E+02  0.45594000000E+02  0.51100000000E-03 0.  1.
         11   -1    0    0    0    0 -0.00000000000E+00 -0.00000000000E+00 -0.45593999997E+02  0.45594000000E+02  0.51100000000E-03 0. -1.
    9900012    2    1    2    0    0  0.13476163989E+02  0.22155541090E+01  0.12812637919E+02  0.72461565040E+02  0.69999993155E+02 0.  0.
         12    1    1    2    0    0 -0.13476163989E+02 -0.22155541090E+01 -0.12812637919E+02  0.18726434960E+02  0.00000000000E+00 0. -1.
         11    1    3    3    0    0  0.12551920743E+02 -0.26628529774E+02 -0.25394220508E+01  0.29547892935E+02  0.51100000000E-03 0. -1.
        -11    1    3    3    0    0 -0.12600404670E+02  0.73710161125E+01  0.70630083292E+01  0.16216909795E+02  0.51100000000E-03 0.  1.
        -12    1    3    3    0    0  0.13524647916E+02  0.21473067771E+02  0.82890516407E+01  0.26696762310E+02  0.00000000000E+00 0.  1.
</event>
<event>
 7    1  0.3027254E-013  0.7246162E+02  0.7816164E-02  0.1226708E+00
        -11   -1    0    0    0    0  0.00000000000E+00  0.00000000000E+00  0.45593999997E+02  0.45594000000E+02  0.51100000000E-03 0. -1.
         11   -1    0    0    0    0 -0.00000000000E+00 -0.00000000000E+00 -0.45593999997E+02  0.45594000000E+02  0.51100000000E-03 0.  1.
    9900012    2    1    2    0    0  0.17689195193E+02  0.16156933998E+01 -0.59295111229E+01  0.72461623044E+02  0.70000068716E+02 0.  0.
         12    1    1    2    0    0 -0.17689195193E+02 -0.16156933998E+01  0.59295111229E+01  0.18726376956E+02  0.00000000000E+00 0. -1.
         11    1    3    3    0    0  0.16433425982E+02  0.67104368057E+01  0.16727629036E+02  0.24390592962E+02  0.51100000000E-03 0. -1.
        -11    1    3    3    0    0 -0.12710880051E+02 -0.87468434940E+01  0.55393100870E+01  0.16393831135E+02  0.51100000000E-03 0.  1.
        -12    1    3    3    0    0  0.13966649262E+02  0.36521000880E+01 -0.28196450246E+02  0.31677198947E+02  0.00000000000E+00 0.  1.
</event>
<event>
 7    1  0.3027254E-013  0.7246186E+02  0.7816164E-02  0.1226707E+00
        -11   -1    0    0    0    0  0.00000000000E+00  0.00000000000E+00  0.45593999997E+02  0.45594000000E+02  0.51100000000E-03 0.  1.
         11   -1    0    0    0    0 -0.00000000000E+00 -0.00000000000E+00 -0.45593999997E+02  0.45594000000E+02  0.51100000000E-03 0. -1.
    9900012    2    1    2    0    0 -0.47016016037E+01 -0.15709230097E+02 -0.90434167324E+01  0.72461859071E+02  0.70000376185E+02 0.  0.
         12    1    1    2    0    0  0.47016016037E+01  0.15709230097E+02  0.90434167324E+01  0.18726140929E+02  0.00000000000E+00 0. -1.
         11    1    3    3    0    0 -0.83370731302E+01  0.14467666730E+02  0.63642213937E+01  0.17869624596E+02  0.51100000000E-03 0. -1.
        -11    1    3    3    0    0 -0.42719254738E+01  0.42384500587E+01  0.95941387844E+01  0.11325250789E+02  0.51100000000E-03 0.  1.
         12    1    3    3    0    0  0.79073970004E+01 -0.34415346886E+02 -0.25001776911E+02  0.43266983686E+02  0.00000000000E+00 0. -1.
</event>
<event>
 7    1  0.3027254E-013  0.7246158E+02  0.7816164E-02  0.1226708E+00
        -11   -1    0    0    0    0  0.00000000000E+00  0.00000000000E+00  0.45593999997E+02  0.45594000000E+02  0.51100000000E-03 0.  1.
         11   -1    0    0    0    0 -0.00000000000E+00 -0.00000000000E+00 -0.45593999997E+02  0.45594000000E+02  0.51100000000E-03 0. -1.
    9900012    2    1    2    0    0  0.15562533748E+02 -0.95825213635E+01 -0.40818445317E+01  0.72461584776E+02  0.70000018865E+02 0.  0.
         12    1    1    2    0    0 -0.15562533748E+02  0.95825213635E+01  0.40818445317E+01  0.18726415224E+02  0.00000000000E+00 0. -1.
         11    1    3    3    0    0 -0.80896122207E+01  0.33662728058E+01 -0.22926821674E+02  0.24544098492E+02  0.51100000000E-03 0. -1.
        -11    1    3    3    0    0 -0.52440207434E+01 -0.40988765010E+00 -0.58682014176E+01  0.78805805358E+01  0.51100000000E-03 0.  1.
        -12    1    3    3    0    0  0.28896166713E+02 -0.12538906519E+02  0.24713178559E+02  0.40036905748E+02  0.00000000000E+00 0.  1.
</event>
<event>
 7    1  0.3027254E-013  0.7246159E+02  0.7816164E-02  0.1226708E+00
        -11   -1    0    0    0    0  0.00000000000E+00  0.00000000000E+00  0.45593999997E+02  0.45594000000E+02  0.51100000000E-03 0. -1.
         11   -1    0    0    0    0 -0.00000000000E+00 -0.00000000000E+00 -0.45593999997E+02  0.45594000000E+02  0.51100000000E-03 0.  1.
    9900012    2    1    2    0    0  0.18116124050E+02 -0.31278899829E+00 -0.47314521574E+01  0.72461590117E+02  0.70000025823E+02 0.  0.
         12    1    1    2    0    0 -0.18116124050E+02  0.31278899829E+00  0.47314521574E+01  0.18726409883E+02  0.00000000000E+00 0. -1.
         11    1    3    3    0    0  0.14079869685E+01 -0.87368814016E+01  0.18325055345E+02  0.20350016649E+02  0.51100000000E-03 0. -1.
        -11    1    3    3    0    0  0.22133826957E+02 -0.61944747234E+01  0.14884583970E+01  0.23032440633E+02  0.51100000000E-03 0.  1.
        -12    1    3    3    0    0 -0.54256898749E+01  0.14618567127E+02 -0.24544965900E+02  0.29079132836E+02  0.00000000000E+00 0.  1.
</event>
<event>
 7    1  0.3027254E-013  0.7246157E+02  0.7816164E-02  0.1226708E+00
        -11   -1    0    0    0    0  0.00000000000E+00  0.00000000000E+00  0.45593999997E+02  0.45594000000E+02  0.51100000000E-03 0.  1.
         11   -1    0    0    0    0 -0.00000000000E+00 -0.00000000000E+00 -0.45593999997E+02  0.45594000000E+02  0.51100000000E-03 0. -1.
    9900012    2    1    2    0    0  0.61863432421E+01  0.10390169734E+02  0.14298702614E+02  0.72461565041E+02  0.69999993157E+02 0.  0.
         12    1    1    2    0    0 -0.61863432421E+01 -0.10390169734E+02 -0.14298702614E+02  0.18726434959E+02  0.00000000000E+00 0. -1.
         11    1    3    3    0    0 -0.13192470340E+02 -0.18780512505E+00  0.25501955297E+02  0.28712824115E+02  0.51100000000E-03 0. -1.
        -11    1    3    3    0    0  0.30283274528E+01  0.20221995556E+02  0.21199273003E+01  0.20557090345E+02  0.51100000000E-03 0.  1.
        -12    1    3    3    0    0  0.16350486129E+02 -0.96440206965E+01 -0.13323179983E+02  0.23191650582E+02  0.00000000000E+00 0.  1.
</event>
<event>
 7    1  0.3027254E-013  0.7246138E+02  0.7816164E-02  0.1226709E+00
        -11   -1    0    0    0    0  0.00000000000E+00  0.00000000000E+00  0.45593999997E+02  0.45594000000E+02  0.51100000000E-03 0.  1.
         11   -1    0    0    0    0 -0.00000000000E+00 -0.00000000000E+00 -0.45593999997E+02  0.45594000000E+02  0.51100000000E-03 0. -1.
    9900012    2    1    2    0    0  0.19983891254E+01  0.17557728535E+02  0.61982889161E+01  0.72461383224E+02  0.69999756305E+02 0.  0.
         12    1    1    2    0    0 -0.19983891254E+01 -0.17557728535E+02 -0.61982889161E+01  0.18726616776E+02  0.00000000000E+00 0. -1.
         11    1    3    3    0    0 -0.23358924847E+02 -0.62871474789E+01  0.17274788563E+02  0.29725173062E+02  0.51100000000E-03 0. -1.
        -11    1    3    3    0    0 -0.29818904367E+01  0.59535284925E+01  0.16949724700E+01  0.68708881539E+01  0.51100000000E-03 0.  1.
        -12    1    3    3    0    0  0.28339204409E+02  0.17891347521E+02 -0.12771472117E+02  0.35865322007E+02  0.00000000000E+00 0.  1.
</event>
<event>
 7    1  0.3027254E-013  0.7246146E+02  0.7816164E-02  0.1226708E+00
        -11   -1    0    0    0    0  0.00000000000E+00  0.00000000000E+00  0.45593999997E+02  0.45594000000E+02  0.51100000000E-03 0.  1.
         11   -1    0    0    0    0 -0.00000000000E+00 -0.00000000000E+00 -0.45593999997E+02  0.45594000000E+02  0.51100000000E-03 0. -1.
    9900012    2    1    2    0    0  0.46108226199E+01 -0.12254234434E+02  0.13388698284E+02  0.72461462986E+02  0.69999860211E+02 0.  0.
         12    1    1    2    0    0 -0.46108226199E+01  0.12254234434E+02 -0.13388698284E+02  0.18726537014E+02  0.00000000000E+00 0. -1.
         11    1    3    3    0    0 -0.22860792159E+02  0.72854154037E+01 -0.55338531944E+00  0.23999986069E+02  0.51100000000E-03 0. -1.
        -11    1    3    3    0    0  0.14075809400E+02  0.41528839158E+01 -0.47710528020E+01  0.15431714104E+02  0.51100000000E-03 0.  1.
        -12    1    3    3    0    0  0.13395805379E+02 -0.23692533753E+02  0.18713136405E+02  0.33029762814E+02  0.00000000000E+00 0.  1.
</event>
<event>
 7    1  0.3027254E-013  0.7246157E+02  0.7816164E-02  0.1226708E+00
        -11   -1    0    0    0    0  0.00000000000E+00  0.00000000000E+00  0.45593999997E+02  0.45594000000E+02  0.51100000000E-03 0. -1.
         11   -1    0    0    0    0 -0.00000000000E+00 -0.00000000000E+00 -0.45593999997E+02  0.45594000000E+02  0.51100000000E-03 0.  1.
    9900012    2    1    2    0    0  0.14680739965E+02 -0.91666517087E+01 -0.71503522513E+01  0.72461570368E+02  0.70000000095E+02 0.  0.
         12    1    1    2    0    0 -0.14680739965E+02  0.91666517087E+01  0.71503522513E+01  0.18726429632E+02  0.00000000000E+00 0. -1.
         11    1    3    3    0    0  0.72463729837E+01 -0.72470024570E+00  0.14777798053E+02  0.16474781559E+02  0.51100000000E-03 0. -1.
        -11    1    3    3    0    0 -0.13573528369E+02 -0.18905469351E+02  0.83916850224E+00  0.23288659209E+02  0.51100000000E-03 0.  1.
         12    1    3    3    0    0  0.21007895350E+02  0.10463517888E+02 -0.22767318807E+02  0.32698129599E+02  0.00000000000E+00 0. -1.
</event>
<event>
 7    1  0.3027254E-013  0.7246155E+02  0.7816164E-02  0.1226708E+00
        -11   -1    0    0    0    0  0.00000000000E+00  0.00000000000E+00  0.45593999997E+02  0.45594000000E+02  0.51100000000E-03 0. -1.
         11   -1    0    0    0    0 -0.00000000000E+00 -0.00000000000E+00 -0.45593999997E+02  0.45594000000E+02  0.51100000000E-03 0.  1.
    9900012    2    1    2    0    0  0.17909914189E+02  0.21244623432E+01  0.50399996087E+01  0.72461549120E+02  0.69999972417E+02 0.  0.
         12    1    1    2    0    0 -0.17909914189E+02 -0.21244623432E+01 -0.50399996087E+01  0.18726450880E+02  0.00000000000E+00 0. -1.
         11    1    3    3    0    0  0.14059303799E+02  0.21869426477E+01 -0.77317932430E+01  0.16193435968E+02  0.51100000000E-03 0. -1.
        -11    1    3    3    0    0  0.20871943757E+02  0.13200622990E+02 -0.83531259685E+01  0.26070465996E+02  0.51100000000E-03 0.  1.
         12    1    3    3    0    0 -0.17021333367E+02 -0.13263103295E+02  0.21124918820E+02  0.30197647156E+02  0.00000000000E+00 0. -1.
</event>
<event>
 7    1  0.3027254E-013  0.7246155E+02  0.7816164E-02  0.1226708E+00
        -11   -1    0    0    0    0  0.00000000000E+00  0.00000000000E+00  0.45593999997E+02  0.45594000000E+02  0.51100000000E-03 0. -1.
         11   -1    0    0    0    0 -0.00000000000E+00 -0.00000000000E+00 -0.45593999997E+02  0.45594000000E+02  0.51100000000E-03 0.  1.
    9900012    2    1    2    0    0  0.21949708494E+00 -0.15990892405E+02  0.97428540628E+01  0.72461547475E+02  0.69999970274E+02 0.  0.
         12    1    1    2    0    0 -0.21949708494E+00  0.15990892405E+02 -0.97428540628E+01  0.18726452525E+02  0.00000000000E+00 0. -1.
         11    1    3    3    0    0  0.28022925739E+02 -0.69484071430E+01  0.28169681709E+01  0.29008620076E+02  0.51100000000E-03 0. -1.
        -11    1    3    3    0    0  0.59855425008E+00 -0.14858720154E+01  0.13286292768E+02  0.13382513165E+02  0.51100000000E-03 0.  1.
        -12    1    3    3    0    0 -0.28401982904E+02 -0.75566132463E+01 -0.63604068757E+01  0.30070414235E+02  0.00000000000E+00 0.  1.
</event>
<event>
 7    1  0.3027254E-013  0.7246158E+02  0.7816164E-02  0.1226708E+00
        -11   -1    0    0    0    0  0.00000000000E+00  0.00000000000E+00  0.45593999997E+02  0.45594000000E+02  0.51100000000E-03 0. -1.
         11   -1    0    0    0    0 -0.00000000000E+00 -0.00000000000E+00 -0.45593999997E+02  0.45594000000E+02  0.51100000000E-03 0.  1.
    9900012    2    1    2    0    0 -0.14723629849E+02 -0.77762755078E+01 -0.85687359052E+01  0.72461575576E+02  0.70000006880E+02 0.  0.
         12    1    1    2    0    0  0.14723629849E+02  0.77762755078E+01  0.85687359052E+01  0.18726424424E+02  0.00000000000E+00 0. -1.
         11    1    3    3    0    0  0.15737188949E+01  0.11449582115E+02  0.28297854097E+01  0.11898622084E+02  0.51100000000E-03 0. -1.
        -11    1    3    3    0    0  0.15467199285E+02 -0.63974177196E+01  0.10635787082E+02  0.19831318018E+02  0.51100000000E-03 0.  1.
        -12    1    3    3    0    0 -0.31764548029E+02 -0.12828439904E+02 -0.22034308396E+02  0.40731635474E+02  0.00000000000E+00 0.  1.
</event>
<event>
 7    1  0.3027254E-013  0.7246152E+02  0.7816164E-02  0.1226708E+00
        -11   -1    0    0    0    0  0.00000000000E+00  0.00000000000E+00  0.45593999997E+02  0.45594000000E+02  0.51100000000E-03 0.  1.
         11   -1    0    0    0    0 -0.00000000000E+00 -0.00000000000E+00 -0.45593999997E+02  0.45594000000E+02  0.51100000000E-03 0. -1.
    9900012    2    1    2    0    0  0.23848121940E+01  0.13293284112E+02  0.12972362744E+02  0.72461523373E+02  0.69999938876E+02 0.  0.
         12    1    1    2    0    0 -0.23848121940E+01 -0.13293284112E+02 -0.12972362744E+02  0.18726476627E+02  0.00000000000E+00 0. -1.
         11    1    3    3    0    0 -0.60693592962E+01  0.63793142437E+01 -0.13168859884E+02  0.15841453324E+02  0.51100000000E-03 0. -1.
        -11    1    3    3    0    0 -0.35198138498E+01  0.17132288470E+02  0.34585772661E+02  0.38756677729E+02  0.51100000000E-03 0.  1.
         12    1    3    3    0    0  0.11973985340E+02 -0.10218318601E+02 -0.84445500324E+01  0.17863392321E+02  0.00000000000E+00 0. -1.
</event>
<event>
 7    1  0.3027254E-013  0.7246152E+02  0.7816164E-02  0.1226708E+00
        -11   -1    0    0    0    0  0.00000000000E+00  0.00000000000E+00  0.45593999997E+02  0.45594000000E+02  0.51100000000E-03 0. -1.
         11   -1    0    0    0    0 -0.00000000000E+00 -0.00000000000E+00 -0.45593999997E+02  0.45594000000E+02  0.51100000000E-03 0.  1.
    9900012    2    1    2    0    0 -0.89799207405E+01 -0.16432842975E+02  0.60631836095E-01  0.72461521928E+02  0.69999936994E+02 0.  0.
         12    1    1    2    0    0  0.89799207405E+01  0.16432842975E+02 -0.60631836095E-01  0.18726478072E+02  0.00000000000E+00 0. -1.
         11    1    3    3    0    0 -0.55683371024E+00  0.56239554527E+00 -0.27723563529E-01  0.79190996161E+00  0.51100000000E-03 0. -1.
        -11    1    3    3    0    0 -0.12926492555E+02  0.78628939699E+01 -0.29263310191E+02  0.32943294234E+02  0.51100000000E-03 0.  1.
         12    1    3    3    0    0  0.45034055249E+01 -0.24858132490E+02  0.29351665591E+02  0.38726317733E+02  0.00000000000E+00 0. -1.
</event>
<event>
 7    1  0.3027254E-013  0.7246159E+02  0.7816164E-02  0.1226708E+00
        -11   -1    0    0    0    0  0.00000000000E+00  0.00000000000E+00  0.45593999997E+02  0.45594000000E+02  0.51100000000E-03 0.  1.
         11   -1    0    0    0    0 -0.00000000000E+00 -0.00000000000E+00 -0.45593999997E+02  0.45594000000E+02  0.51100000000E-03 0. -1.
    9900012    2    1    2    0    0 -0.73096390772E+01  0.89610264435E+01  0.14729139974E+02  0.72461591302E+02  0.70000027366E+02 0.  0.
         12    1    1    2    0    0  0.73096390772E+01 -0.89610264435E+01 -0.14729139974E+02  0.18726408698E+02  0.00000000000E+00 0. -1.
         11    1    3    3    0    0  0.10004618533E+02  0.94192646684E+00 -0.71969369758E+01  0.12360239462E+02  0.51100000000E-03 0. -1.
        -11    1    3    3    0    0 -0.88695959706E+01  0.30255301571E+02  0.16967307901E+02  0.35804225219E+02  0.51100000000E-03 0.  1.
         12    1    3    3    0    0 -0.84446616392E+01 -0.22236201595E+02  0.49587690492E+01  0.24297126621E+02  0.00000000000E+00 0. -1.
</event>
<event>
 7    1  0.3027254E-013  0.7246151E+02  0.7816164E-02  0.1226708E+00
        -11   -1    0    0    0    0  0.00000000000E+00  0.00000000000E+00  0.45593999997E+02  0.45594000000E+02  0.51100000000E-03 0. -1.
         11   -1    0    0    0    0 -0.00000000000E+00 -0.00000000000E+00 -0.45593999997E+02  0.45594000000E+02  0.51100000000E-03 0.  1.
    9900012    2    1    2    0    0  0.14628647047E+02 -0.10753042965E+02 -0.45887019523E+01  0.72461509858E+02  0.69999921270E+02 0.  0.
         12    1    1    2    0    0 -0.14628647047E+02  0.10753042965E+02  0.45887019523E+01  0.18726490142E+02  0.00000000000E+00 0. -1.
         11    1    3    3    0    0  0.88772415888E+01 -0.15111588216E+02  0.19302685586E+02  0.26072191847E+02  0.51100000000E-03 0. -1.
        -11    1    3    3    0    0  0.18308569999E+02 -0.23955549912E-01  0.81914738003E+00  0.18326901320E+02  0.51100000000E-03 0.  1.
        -12    1    3    3    0    0 -0.12557164541E+02  0.43825008007E+01 -0.24710534918E+02  0.28062416691E+02  0.00000000000E+00 0.  1.
</event>
<event>
 7    1  0.3027254E-013  0.7246154E+02  0.7816164E-02  0.1226708E+00
        -11   -1    0    0    0    0  0.00000000000E+00  0.00000000000E+00  0.45593999997E+02  0.45594000000E+02  0.51100000000E-03 0.  1.
         11   -1    0    0    0    0 -0.00000000000E+00 -0.00000000000E+00 -0.45593999997E+02  0.45594000000E+02  0.51100000000E-03 0. -1.
    9900012    2    1    2    0    0 -0.16601059687E+02  0.83053343271E+01 -0.24711315645E+01  0.72461541386E+02  0.69999962342E+02 0.  0.
         12    1    1    2    0    0  0.16601059687E+02 -0.83053343271E+01  0.24711315645E+01  0.18726458614E+02  0.00000000000E+00 0. -1.
         11    1    3    3    0    0  0.13256059084E+02  0.36023189166E+01 -0.17900380654E+02  0.22563763689E+02  0.51100000000E-03 0. -1.
        -11    1    3    3    0    0  0.30004368899E+01  0.30987832850E+00 -0.84961442683E+01  0.90157148245E+01  0.51100000000E-03 0.  1.
        -12    1    3    3    0    0 -0.32857555660E+02  0.43931370820E+01  0.23925393358E+02  0.40882062872E+02  0.00000000000E+00 0.  1.
</event>
<event>
 7    1  0.3027254E-013  0.7246156E+02  0.7816164E-02  0.1226708E+00
        -11   -1    0    0    0    0  0.00000000000E+00  0.00000000000E+00  0.45593999997E+02  0.45594000000E+02  0.51100000000E-03 0.  1.
         11   -1    0    0    0    0 -0.00000000000E+00 -0.00000000000E+00 -0.45593999997E+02  0.45594000000E+02  0.51100000000E-03 0. -1.
    9900012    2    1    2    0    0 -0.77052155893E+01 -0.10060743140E+02  0.13787338606E+02  0.72461558650E+02  0.69999984831E+02 0.  0.
         12    1    1    2    0    0  0.77052155893E+01  0.10060743140E+02 -0.13787338606E+02  0.18726441350E+02  0.00000000000E+00 0. -1.
         11    1    3    3    0    0 -0.14290783591E+02 -0.49925464225E+01 -0.74441217119E+01  0.16869112713E+02  0.51100000000E-03 0. -1.
        -11    1    3    3    0    0  0.24038569156E+01  0.22934465574E+02  0.99229306948E+01  0.25104437716E+02  0.51100000000E-03 0.  1.
         12    1    3    3    0    0  0.41817110858E+01 -0.28002662291E+02  0.11308529623E+02  0.30488008220E+02  0.00000000000E+00 0. -1.
</event>
<event>
 7    1  0.3027254E-013  0.7246160E+02  0.7816164E-02  0.1226708E+00
        -11   -1    0    0    0    0  0.00000000000E+00  0.00000000000E+00  0.45593999997E+02  0.45594000000E+02  0.51100000000E-03 0. -1.
         11   -1    0    0    0    0 -0.00000000000E+00 -0.00000000000E+00 -0.45593999997E+02  0.45594000000E+02  0.51100000000E-03 0.  1.
    9900012    2    1    2    0    0 -0.89726966472E+01  0.13261898510E+02 -0.97103530271E+01  0.72461596365E+02  0.70000033961E+02 0.  0.
         12    1    1    2    0    0  0.89726966472E+01 -0.13261898510E+02  0.97103530271E+01  0.18726403635E+02  0.00000000000E+00 0. -1.
         11    1    3    3    0    0 -0.87232291000E+00  0.16283630036E+01 -0.12230487325E+01  0.22154822938E+01  0.51100000000E-03 0. -1.
        -11    1    3    3    0    0 -0.13820636898E+02  0.19958518145E+02 -0.34589007968E+02  0.42258158068E+02  0.51100000000E-03 0.  1.
         12    1    3    3    0    0  0.57202631605E+01 -0.83249826391E+01  0.26101703674E+02  0.27987956003E+02  0.00000000000E+00 0. -1.
</event>
<event>
 7    1  0.3027254E-013  0.7246159E+02  0.7816164E-02  0.1226708E+00
        -11   -1    0    0    0    0  0.00000000000E+00  0.00000000000E+00  0.45593999997E+02  0.45594000000E+02  0.51100000000E-03 0.  1.
         11   -1    0    0    0    0 -0.00000000000E+00 -0.00000000000E+00 -0.45593999997E+02  0.45594000000E+02  0.51100000000E-03 0. -1.
    9900012    2    1    2    0    0 -0.38386926054E+01  0.51794691095E+01  0.17581691667E+02  0.72461592362E+02  0.70000028747E+02 0.  0.
         12    1    1    2    0    0  0.38386926054E+01 -0.51794691095E+01 -0.17581691667E+02  0.18726407638E+02  0.00000000000E+00 0. -1.
         11    1    3    3    0    0 -0.72337311477E+01  0.53063147754E+01  0.12373289074E+02  0.15283393784E+02  0.51100000000E-03 0. -1.
        -11    1    3    3    0    0 -0.17687259876E+02  0.14913065044E+02  0.17013252288E+02  0.28717406300E+02  0.51100000000E-03 0.  1.
         12    1    3    3    0    0  0.21082298418E+02 -0.15039910710E+02 -0.11804849695E+02  0.28460792277E+02  0.00000000000E+00 0. -1.
</event>
<event>
 7    1  0.3027254E-013  0.7246160E+02  0.7816164E-02  0.1226708E+00
        -11   -1    0    0    0    0  0.00000000000E+00  0.00000000000E+00  0.45593999997E+02  0.45594000000E+02  0.51100000000E-03 0. -1.
         11   -1    0    0    0    0 -0.00000000000E+00 -0.00000000000E+00 -0.45593999997E+02  0.45594000000E+02  0.51100000000E-03 0.  1.
    9900012    2    1    2    0    0  0.20790909692E+01  0.13765339738E+01 -0.18559649145E+02  0.72461600415E+02  0.70000039238E+02 0.  0.
         12    1    1    2    0    0 -0.20790909692E+01 -0.13765339738E+01  0.18559649145E+02  0.18726399585E+02  0.00000000000E+00 0. -1.
         11    1    3    3    0    0 -0.15660843677E+02 -0.83817766404E+01  0.64399447847E+01  0.18894155007E+02  0.51100000000E-03 0. -1.
        -11    1    3    3    0    0 -0.32931081609E+01  0.71189158244E+01  0.99632748892E+01  0.12680314296E+02  0.51100000000E-03 0.  1.
        -12    1    3    3    0    0  0.21033042807E+02  0.26393947898E+01 -0.34962868819E+02  0.40887131112E+02  0.00000000000E+00 0.  1.
</event>
<event>
 7    1  0.3027254E-013  0.7246159E+02  0.7816164E-02  0.1226708E+00
        -11   -1    0    0    0    0  0.00000000000E+00  0.00000000000E+00  0.45593999997E+02  0.45594000000E+02  0.51100000000E-03 0.  1.
         11   -1    0    0    0    0 -0.00000000000E+00 -0.00000000000E+00 -0.45593999997E+02  0.45594000000E+02  0.51100000000E-03 0. -1.
    9900012    2    1    2    0    0 -0.13082169484E-01  0.12132588183E+02  0.14264589182E+02  0.72461591597E+02  0.70000027750E+02 0.  0.
         12    1    1    2    0    0  0.13082169484E-01 -0.12132588183E+02 -0.14264589182E+02  0.18726408403E+02  0.00000000000E+00 0. -1.
         11    1    3    3    0    0  0.11368142949E+02 -0.14299689847E+02 -0.68929161540E+01  0.19525063308E+02  0.51100000000E-03 0. -1.
        -11    1    3    3    0    0 -0.90313006946E+00  0.34493898100E+02  0.19439883843E+02  0.39604971079E+02  0.51100000000E-03 0.  1.
         12    1    3    3    0    0 -0.10478095049E+02 -0.80616200712E+01  0.17176214937E+01  0.13331557210E+02  0.00000000000E+00 0. -1.
</event>
<event>
 7    1  0.3027254E-013  0.7246164E+02  0.7816164E-02  0.1226708E+00
        -11   -1    0    0    0    0  0.00000000000E+00  0.00000000000E+00  0.45593999997E+02  0.45594000000E+02  0.51100000000E-03 0. -1.
         11   -1    0    0    0    0 -0.00000000000E+00 -0.00000000000E+00 -0.45593999997E+02  0.45594000000E+02  0.51100000000E-03 0.  1.
    9900012    2    1    2    0    0 -0.13565024383E+02 -0.95837118754E+01 -0.86498135612E+01  0.72461636379E+02  0.70000086087E+02 0.  0.
         12    1    1    2    0    0  0.13565024383E+02  0.95837118754E+01  0.86498135612E+01  0.18726363621E+02  0.00000000000E+00 0. -1.
         11    1    3    3    0    0 -0.22892038559E+01  0.16095121552E+02  0.71373311665E+01  0.17754855351E+02  0.51100000000E-03 0. -1.
        -11    1    3    3    0    0 -0.59011622517E+01 -0.89060998667E+01 -0.30145635061E+02  0.31982833587E+02  0.51100000000E-03 0.  1.
         12    1    3    3    0    0 -0.53746582754E+01 -0.16772733561E+02  0.14358490333E+02  0.22723947442E+02  0.00000000000E+00 0. -1.
</event>
<event>
 7    1  0.3027254E-013  0.7246156E+02  0.7816164E-02  0.1226708E+00
        -11   -1    0    0    0    0  0.00000000000E+00  0.00000000000E+00  0.45593999997E+02  0.45594000000E+02  0.51100000000E-03 0.  1.
         11   -1    0    0    0    0 -0.00000000000E+00 -0.00000000000E+00 -0.45593999997E+02  0.45594000000E+02  0.51100000000E-03 0. -1.
    9900012    2    1    2    0    0 -0.17302669354E+02  0.11112084332E+01  0.70754821386E+01  0.72461558841E+02  0.69999985080E+02 0.  0.
         12    1    1    2    0    0  0.17302669354E+02 -0.11112084332E+01 -0.70754821386E+01  0.18726441159E+02  0.00000000000E+00 0. -1.
         11    1    3    3    0    0 -0.16075129060E+02 -0.11464671213E+02 -0.27081087859E+02  0.33514680071E+02  0.51100000000E-03 0. -1.
        -11    1    3    3    0    0  0.48898916634E+00  0.98335410024E+01  0.82676191145E+01  0.12856561171E+02  0.51100000000E-03 0.  1.
        -12    1    3    3    0    0 -0.17165294608E+01  0.27423386437E+01  0.25888950884E+02  0.26090317600E+02  0.00000000000E+00 0.  1.
</event>
<event>
 7    1  0.3027254E-013  0.7246134E+02  0.7816164E-02  0.1226709E+00
        -11   -1    0    0    0    0  0.00000000000E+00  0.00000000000E+00  0.45593999997E+02  0.45594000000E+02  0.51100000000E-03 0. -1.
         11   -1    0    0    0    0 -0.00000000000E+00 -0.00000000000E+00 -0.45593999997E+02  0.45594000000E+02  0.51100000000E-03 0.  1.
    9900012    2    1    2    0    0  0.60875747019E+01 -0.14195993193E+02 -0.10587872721E+02  0.72461338866E+02  0.69999698521E+02 0.  0.
         12    1    1    2    0    0 -0.60875747019E+01  0.14195993193E+02  0.10587872721E+02  0.18726661134E+02  0.00000000000E+00 0. -1.
         11    1    3    3    0    0  0.27225990313E+01  0.31070191667E+01 -0.55135873550E+01  0.68895398518E+01  0.51100000000E-03 0. -1.
        -11    1    3    3    0    0  0.60213384992E+01 -0.17307574924E+02 -0.32878776949E+02  0.37640704576E+02  0.51100000000E-03 0.  1.
         12    1    3    3    0    0 -0.26563628286E+01  0.45625642330E-02  0.27804491583E+02  0.27931094438E+02  0.00000000000E+00 0. -1.
</event>
<event>
 7    1  0.3027254E-013  0.7246165E+02  0.7816164E-02  0.1226708E+00
        -11   -1    0    0    0    0  0.00000000000E+00  0.00000000000E+00  0.45593999997E+02  0.45594000000E+02  0.51100000000E-03 0.  1.
         11   -1    0    0    0    0 -0.00000000000E+00 -0.00000000000E+00 -0.45593999997E+02  0.45594000000E+02  0.51100000000E-03 0. -1.
    9900012    2    1    2    0    0  0.15163747889E+02  0.29368189358E+01  0.10588305460E+02  0.72461645095E+02  0.70000097442E+02 0.  0.
         12    1    1    2    0    0 -0.15163747889E+02 -0.29368189358E+01 -0.10588305460E+02  0.18726354905E+02  0.00000000000E+00 0. -1.
         11    1    3    3    0    0  0.22515606816E+01  0.16627979368E+01  0.69516398306E+01  0.74939788548E+01  0.51100000000E-03 0. -1.
        -11    1    3    3    0    0  0.12178555789E+02 -0.75521398502E+01  0.32102597566E+02  0.35155779158E+02  0.51100000000E-03 0.  1.
         12    1    3    3    0    0  0.73363141790E+00  0.88261608493E+01 -0.28465931937E+02  0.29811887082E+02  0.00000000000E+00 0. -1.
</event>
<event>
 7    1  0.3027254E-013  0.7246155E+02  0.7816164E-02  0.1226708E+00
        -11   -1    0    0    0    0  0.00000000000E+00  0.00000000000E+00  0.45593999997E+02  0.45594000000E+02  0.51100000000E-03 0.  1.
         11   -1    0    0    0    0 -0.00000000000E+00 -0.00000000000E+00 -0.45593999997E+02  0.45594000000E+02  0.51100000000E-03 0. -1.
    9900012    2    1    2    0    0  0.76794856563E+01  0.13002935725E+02 -0.11073796677E+02  0.72461553187E+02  0.69999977714E+02 0.  0.
         12    1    1    2    0    0 -0.76794856563E+01 -0.13002935725E+02  0.11073796677E+02  0.18726446813E+02  0.00000000000E+00 0. -1.
         11    1    3    3    0    0 -0.89979982412E+01  0.30587267932E+01 -0.34178823117E+02  0.35475508902E+02  0.51100000000E-03 0. -1.
        -11    1    3    3    0    0  0.69748837572E+01  0.10806765415E+02  0.10851558810E+01  0.12907855968E+02  0.51100000000E-03 0.  1.
        -12    1    3    3    0    0  0.97026001403E+01 -0.86255648282E+00  0.22019870559E+02  0.24078188316E+02  0.00000000000E+00 0.  1.
</event>
<event>
 7    1  0.3027254E-013  0.7246167E+02  0.7816164E-02  0.1226708E+00
        -11   -1    0    0    0    0  0.00000000000E+00  0.00000000000E+00  0.45593999997E+02  0.45594000000E+02  0.51100000000E-03 0. -1.
         11   -1    0    0    0    0 -0.00000000000E+00 -0.00000000000E+00 -0.45593999997E+02  0.45594000000E+02  0.51100000000E-03 0.  1.
    9900012    2    1    2    0    0 -0.14933543387E+02  0.10789906919E+02 -0.33530102045E+01  0.72461668623E+02  0.70000128091E+02 0.  0.
         12    1    1    2    0    0  0.14933543387E+02 -0.10789906919E+02  0.33530102045E+01  0.18726331377E+02  0.00000000000E+00 0. -1.
         11    1    3    3    0    0  0.62125718846E+01  0.23337215557E+01 -0.21360391968E+01  0.69717264312E+01  0.51100000000E-03 0. -1.
        -11    1    3    3    0    0  0.20400013874E+02  0.33425590070E+01 -0.96109050150E+01  0.22796990202E+02  0.51100000000E-03 0.  1.
         12    1    3    3    0    0 -0.41546129146E+02  0.51136263562E+01  0.83939340073E+01  0.42692951990E+02  0.00000000000E+00 0. -1.
</event>
<event>
 7    1  0.3027254E-013  0.7246158E+02  0.7816164E-02  0.1226708E+00
        -11   -1    0    0    0    0  0.00000000000E+00  0.00000000000E+00  0.45593999997E+02  0.45594000000E+02  0.51100000000E-03 0.  1.
         11   -1    0    0    0    0 -0.00000000000E+00 -0.00000000000E+00 -0.45593999997E+02  0.45594000000E+02  0.51100000000E-03 0. -1.
    9900012    2    1    2    0    0 -0.16564495020E+02 -0.33211220315E+01  0.80787627321E+01  0.72461581387E+02  0.70000014450E+02 0.  0.
         12    1    1    2    0    0  0.16564495020E+02  0.33211220315E+01 -0.80787627321E+01  0.18726418613E+02  0.00000000000E+00 0. -1.
         11    1    3    3    0    0 -0.15298557266E+02  0.42281815033E+01  0.59615036227E+01  0.16954730873E+02  0.51100000000E-03 0. -1.
        -11    1    3    3    0    0  0.10555536181E+02  0.17194450069E+02  0.15066366587E+02  0.25180624688E+02  0.51100000000E-03 0.  1.
         12    1    3    3    0    0 -0.11821473934E+02 -0.24743753604E+02 -0.12949107478E+02  0.30326225826E+02  0.00000000000E+00 0. -1.
</event>
<event>
 7    1  0.3027254E-013  0.7246155E+02  0.7816164E-02  0.1226708E+00
        -11   -1    0    0    0    0  0.00000000000E+00  0.00000000000E+00  0.45593999997E+02  0.45594000000E+02  0.51100000000E-03 0.  1.
         11   -1    0    0    0    0 -0.00000000000E+00 -0.00000000000E+00 -0.45593999997E+02  0.45594000000E+02  0.51100000000E-03 0. -1.
    9900012    2    1    2    0    0 -0.68941521558E+01  0.75683778276E+01  0.15680244629E+02  0.72461554835E+02  0.69999979861E+02 0.  0.
         12    1    1    2    0    0  0.68941521558E+01 -0.75683778276E+01 -0.15680244629E+02  0.18726445165E+02  0.00000000000E+00 0. -1.
         11    1    3    3    0    0 -0.64109172292E+00  0.56852560993E+00  0.20462944772E+02  0.20480877153E+02  0.51100000000E-03 0. -1.
        -11    1    3    3    0    0 -0.15816078856E+02  0.18324880291E+02  0.14070230681E+02  0.27998588889E+02  0.51100000000E-03 0.  1.
         12    1    3    3    0    0  0.95630184230E+01 -0.11325028074E+02 -0.18852930824E+02  0.23982088793E+02  0.00000000000E+00 0. -1.
</event>
<event>
 7    1  0.3027254E-013  0.7246169E+02  0.7816164E-02  0.1226708E+00
        -11   -1    0    0    0    0  0.00000000000E+00  0.00000000000E+00  0.45593999997E+02  0.45594000000E+02  0.51100000000E-03 0.  1.
         11   -1    0    0    0    0 -0.00000000000E+00 -0.00000000000E+00 -0.45593999997E+02  0.45594000000E+02  0.51100000000E-03 0. -1.
    9900012    2    1    2    0    0 -0.21196377960E+00 -0.21647756020E+01  0.18599553758E+02  0.72461692782E+02  0.70000159562E+02 0.  0.
         12    1    1    2    0    0  0.21196377960E+00  0.21647756020E+01 -0.18599553758E+02  0.18726307218E+02  0.00000000000E+00 0. -1.
         11    1    3    3    0    0  0.24722129809E+02 -0.59407122713E+01  0.16199908810E+02  0.30148180879E+02  0.51100000000E-03 0. -1.
        -11    1    3    3    0    0 -0.11609891382E+01  0.13584091377E+02  0.82555388301E+01  0.15938298402E+02  0.51100000000E-03 0.  1.
         12    1    3    3    0    0 -0.23773104451E+02 -0.98081547079E+01 -0.58558938829E+01  0.26375213500E+02  0.00000000000E+00 0. -1.
</event>
<event>
 7    1  0.3027254E-013  0.7246158E+02  0.7816164E-02  0.1226708E+00
        -11   -1    0    0    0    0  0.00000000000E+00  0.00000000000E+00  0.45593999997E+02  0.45594000000E+02  0.51100000000E-03 0.  1.
         11   -1    0    0    0    0 -0.00000000000E+00 -0.00000000000E+00 -0.45593999997E+02  0.45594000000E+02  0.51100000000E-03 0. -1.
    9900012    2    1    2    0    0  0.45165955093E+01  0.13819612141E+02  0.11802434266E+02  0.72461580980E+02  0.70000013920E+02 0.  0.
         12    1    1    2    0    0 -0.45165955093E+01 -0.13819612141E+02 -0.11802434266E+02  0.18726419020E+02  0.00000000000E+00 0. -1.
         11    1    3    3    0    0  0.67176714826E+01 -0.85138357665E+01 -0.50953520198E+01  0.11982283675E+02  0.51100000000E-03 0. -1.
        -11    1    3    3    0    0 -0.19384453509E+02 -0.47889827516E+01 -0.62216555612E+01  0.20914119437E+02  0.51100000000E-03 0.  1.
         12    1    3    3    0    0  0.17183377535E+02  0.27122430659E+02  0.23119441847E+02  0.39565177868E+02  0.00000000000E+00 0. -1.
</event>
<event>
 7    1  0.3027254E-013  0.7246147E+02  0.7816164E-02  0.1226708E+00
        -11   -1    0    0    0    0  0.00000000000E+00  0.00000000000E+00  0.45593999997E+02  0.45594000000E+02  0.51100000000E-03 0. -1.
         11   -1    0    0    0    0 -0.00000000000E+00 -0.00000000000E+00 -0.45593999997E+02  0.45594000000E+02  0.51100000000E-03 0.  1.
    9900012    2    1    2    0    0  0.11873355918E+01  0.14527019394E+02 -0.11757508853E+02  0.72461466078E+02  0.69999864239E+02 0.  0.
         12    1    1    2    0    0 -0.11873355918E+01 -0.14527019394E+02  0.11757508853E+02  0.18726533922E+02  0.00000000000E+00 0. -1.
         11    1    3    3    0    0  0.63359282984E+01 -0.13379960416E+02 -0.39386712075E+01  0.15319283903E+02  0.51100000000E-03 0. -1.
        -11    1    3    3    0    0  0.20939830299E+02  0.15185297486E+02 -0.10663443168E+02  0.27978183879E+02  0.51100000000E-03 0.  1.
         12    1    3    3    0    0 -0.26088423005E+02  0.12721682324E+02  0.28446055223E+01  0.29163998297E+02  0.00000000000E+00 0. -1.
</event>
<event>
 7    1  0.3027254E-013  0.7246157E+02  0.7816164E-02  0.1226708E+00
        -11   -1    0    0    0    0  0.00000000000E+00  0.00000000000E+00  0.45593999997E+02  0.45594000000E+02  0.51100000000E-03 0.  1.
         11   -1    0    0    0    0 -0.00000000000E+00 -0.00000000000E+00 -0.45593999997E+02  0.45594000000E+02  0.51100000000E-03 0. -1.
    9900012    2    1    2    0    0  0.95602329223E+01 -0.15776073859E+02  0.32243826254E+01  0.72461569394E+02  0.69999998827E+02 0.  0.
         12    1    1    2    0    0 -0.95602329223E+01  0.15776073859E+02 -0.32243826254E+01  0.18726430606E+02  0.00000000000E+00 0. -1.
         11    1    3    3    0    0 -0.10451640691E+01  0.93871101610E+01  0.15998649805E+02  0.18578670591E+02  0.51100000000E-03 0. -1.
        -11    1    3    3    0    0  0.11641364799E+02 -0.43261507821E+01  0.14790494368E+02  0.19313096046E+02  0.51100000000E-03 0.  1.
         12    1    3    3    0    0 -0.10359678071E+01 -0.20837033238E+02 -0.27564761547E+02  0.34569802757E+02  0.00000000000E+00 0. -1.
</event>
<event>
 7    1  0.3027254E-013  0.7246146E+02  0.7816164E-02  0.1226708E+00
        -11   -1    0    0    0    0  0.00000000000E+00  0.00000000000E+00  0.45593999997E+02  0.45594000000E+02  0.51100000000E-03 0. -1.
         11   -1    0    0    0    0 -0.00000000000E+00 -0.00000000000E+00 -0.45593999997E+02  0.45594000000E+02  0.51100000000E-03 0.  1.
    9900012    2    1    2    0    0  0.16149950550E+02 -0.50397699770E+01 -0.80288911117E+01  0.72461460632E+02  0.69999857145E+02 0.  0.
         12    1    1    2    0    0 -0.16149950550E+02  0.50397699770E+01  0.80288911117E+01  0.18726539368E+02  0.00000000000E+00 0. -1.
         11    1    3    3    0    0 -0.12270201096E+02 -0.23961484926E+02 -0.95532705557E+01  0.28565286159E+02  0.51100000000E-03 0. -1.
        -11    1    3    3    0    0 -0.50781845568E+01  0.15550776919E+01  0.30656548117E+01  0.61322479325E+01  0.51100000000E-03 0.  1.
        -12    1    3    3    0    0  0.33498336203E+02  0.17366637257E+02 -0.15412753677E+01  0.37763926540E+02  0.00000000000E+00 0.  1.
</event>
<event>
 7    1  0.3027254E-013  0.7246154E+02  0.7816164E-02  0.1226708E+00
        -11   -1    0    0    0    0  0.00000000000E+00  0.00000000000E+00  0.45593999997E+02  0.45594000000E+02  0.51100000000E-03 0.  1.
         11   -1    0    0    0    0 -0.00000000000E+00 -0.00000000000E+00 -0.45593999997E+02  0.45594000000E+02  0.51100000000E-03 0. -1.
    9900012    2    1    2    0    0 -0.13264815557E+02 -0.21908552121E+01  0.13035536841E+02  0.72461537466E+02  0.69999957234E+02 0.  0.
         12    1    1    2    0    0  0.13264815557E+02  0.21908552121E+01 -0.13035536841E+02  0.18726462534E+02  0.00000000000E+00 0. -1.
         11    1    3    3    0    0 -0.21012055503E+02  0.10082601817E+01 -0.10469862820E+02  0.23497682711E+02  0.51100000000E-03 0. -1.
        -11    1    3    3    0    0 -0.15577523028E+02 -0.10106038629E+02  0.89140532083E+01  0.20597368408E+02  0.51100000000E-03 0.  1.
        -12    1    3    3    0    0  0.23324762974E+02  0.69069232353E+01  0.14591346453E+02  0.28366486347E+02  0.00000000000E+00 0.  1.
</event>
<event>
 7    1  0.3027254E-013  0.7246172E+02  0.7816164E-02  0.1226708E+00
        -11   -1    0    0    0    0  0.00000000000E+00  0.00000000000E+00  0.45593999997E+02  0.45594000000E+02  0.51100000000E-03 0.  1.
         11   -1    0    0    0    0 -0.00000000000E+00 -0.00000000000E+00 -0.45593999997E+02  0.45594000000E+02  0.51100000000E-03 0. -1.
    9900012    2    1    2    0    0  0.17967515436E+02 -0.49713574603E+01 -0.17685389233E+01  0.72461715375E+02  0.70000188995E+02 0.  0.
         12    1    1    2    0    0 -0.17967515436E+02  0.49713574603E+01  0.17685389233E+01  0.18726284625E+02  0.00000000000E+00 0. -1.
         11    1    3    3    0    0  0.15493683979E+02  0.53817683845E+01 -0.13636392333E+02  0.21329999304E+02  0.51100000000E-03 0. -1.
        -11    1    3    3    0    0  0.76539478312E+01  0.68732883212E+01  0.26190125885E+02  0.28138011726E+02  0.51100000000E-03 0.  1.
         12    1    3    3    0    0 -0.51801163746E+01 -0.17226414166E+02 -0.14322272475E+02  0.22993704346E+02  0.00000000000E+00 0. -1.
</event>
<event>
 7    1  0.3027254E-013  0.7246155E+02  0.7816164E-02  0.1226708E+00
        -11   -1    0    0    0    0  0.00000000000E+00  0.00000000000E+00  0.45593999997E+02  0.45594000000E+02  0.51100000000E-03 0.  1.
         11   -1    0    0    0    0 -0.00000000000E+00 -0.00000000000E+00 -0.45593999997E+02  0.45594000000E+02  0.51100000000E-03 0. -1.
    9900012    2    1    2    0    0  0.14217882155E+02  0.10253905097E+02  0.65870347423E+01  0.72461554277E+02  0.69999979135E+02 0.  0.
         12    1    1    2    0    0 -0.14217882155E+02 -0.10253905097E+02 -0.65870347423E+01  0.18726445723E+02  0.00000000000E+00 0. -1.
         11    1    3    3    0    0  0.47708094712E+01 -0.23375763788E+02  0.10479155711E+02  0.26057621924E+02  0.51100000000E-03 0. -1.
        -11    1    3    3    0    0 -0.47122134081E+01  0.61033326128E+01 -0.12128759061E+02  0.14372279597E+02  0.51100000000E-03 0.  1.
        -12    1    3    3    0    0  0.14159286092E+02  0.27526336272E+02  0.82366380928E+01  0.32031652756E+02  0.00000000000E+00 0.  1.
</event>
<event>
 7    1  0.3027254E-013  0.7246159E+02  0.7816164E-02  0.1226708E+00
        -11   -1    0    0    0    0  0.00000000000E+00  0.00000000000E+00  0.45593999997E+02  0.45594000000E+02  0.51100000000E-03 0.  1.
         11   -1    0    0    0    0 -0.00000000000E+00 -0.00000000000E+00 -0.45593999997E+02  0.45594000000E+02  0.51100000000E-03 0. -1.
    9900012    2    1    2    0    0 -0.18062245772E+02  0.44803584440E+01  0.20880715418E+01  0.72461591459E+02  0.70000027570E+02 0.  0.
         12    1    1    2    0    0  0.18062245772E+02 -0.44803584440E+01 -0.20880715418E+01  0.18726408541E+02  0.00000000000E+00 0. -1.
         11    1    3    3    0    0 -0.17657844696E+02  0.21871836044E+02 -0.90091841035E+01  0.29518504192E+02  0.51100000000E-03 0. -1.
        -11    1    3    3    0    0  0.17654928917E+00  0.30280637199E+01  0.20309066112E+02  0.20534325072E+02  0.51100000000E-03 0.  1.
        -12    1    3    3    0    0 -0.58095036438E+00 -0.20419541319E+02 -0.92118104671E+01  0.22408762195E+02  0.00000000000E+00 0.  1.
</event>
<event>
 7    1  0.3027254E-013  0.7246161E+02  0.7816164E-02  0.1226708E+00
        -11   -1    0    0    0    0  0.00000000000E+00  0.00000000000E+00  0.45593999997E+02  0.45594000000E+02  0.51100000000E-03 0. -1.
         11   -1    0    0    0    0 -0.00000000000E+00 -0.00000000000E+00 -0.45593999997E+02  0.45594000000E+02  0.51100000000E-03 0.  1.
    9900012    2    1    2    0    0 -0.17554996188E+02 -0.38515241141E+01 -0.52598038472E+01  0.72461610448E+02  0.70000052307E+02 0.  0.
         12    1    1    2    0    0  0.17554996188E+02  0.38515241141E+01  0.52598038472E+01  0.18726389552E+02  0.00000000000E+00 0. -1.
         11    1    3    3    0    0 -0.26061364292E+02 -0.10541006634E+02  0.35847093982E+01  0.28340036544E+02  0.51100000000E-03 0. -1.
        -11    1    3    3    0    0 -0.14071798570E+02  0.30071606545E+01 -0.14634434001E+02  0.20523771315E+02  0.51100000000E-03 0.  1.
        -12    1    3    3    0    0  0.22578166674E+02  0.36823218655E+01  0.57899207555E+01  0.23597802589E+02  0.00000000000E+00 0.  1.
</event>
<event>
 7    1  0.3027254E-013  0.7246157E+02  0.7816164E-02  0.1226708E+00
        -11   -1    0    0    0    0  0.00000000000E+00  0.00000000000E+00  0.45593999997E+02  0.45594000000E+02  0.51100000000E-03 0. -1.
         11   -1    0    0    0    0 -0.00000000000E+00 -0.00000000000E+00 -0.45593999997E+02  0.45594000000E+02  0.51100000000E-03 0.  1.
    9900012    2    1    2    0    0 -0.19325507304E+01 -0.66939014762E+01 -0.17382059363E+02  0.72461573298E+02  0.70000003913E+02 0.  0.
         12    1    1    2    0    0  0.19325507304E+01  0.66939014762E+01  0.17382059363E+02  0.18726426702E+02  0.00000000000E+00 0. -1.
         11    1    3    3    0    0 -0.66858441946E+01  0.74142047607E+01 -0.22792062323E+02  0.24882705842E+02  0.51100000000E-03 0. -1.
        -11    1    3    3    0    0  0.11602501407E+02  0.10660201290E+02  0.13382797808E+02  0.20672619763E+02  0.51100000000E-03 0.  1.
         12    1    3    3    0    0 -0.68492079431E+01 -0.24768307527E+02 -0.79727948483E+01  0.26906247693E+02  0.00000000000E+00 0. -1.
</event>
<event>
 7    1  0.3027254E-013  0.7246157E+02  0.7816164E-02  0.1226708E+00
        -11   -1    0    0    0    0  0.00000000000E+00  0.00000000000E+00  0.45593999997E+02  0.45594000000E+02  0.51100000000E-03 0.  1.
         11   -1    0    0    0    0 -0.00000000000E+00 -0.00000000000E+00 -0.45593999997E+02  0.45594000000E+02  0.51100000000E-03 0. -1.
    9900012    2    1    2    0    0 -0.13669482280E+02 -0.12787016533E+02  0.56265065387E+00  0.72461571793E+02  0.70000001953E+02 0.  0.
         12    1    1    2    0    0  0.13669482280E+02  0.12787016533E+02 -0.56265065387E+00  0.18726428207E+02  0.00000000000E+00 0. -1.
         11    1    3    3    0    0  0.71834184218E+01  0.14195771270E+02 -0.20170092011E+02  0.25689570533E+02  0.51100000000E-03 0. -1.
        -11    1    3    3    0    0 -0.10479660325E+02  0.22878722371E+01  0.70566835259E+01  0.12839564734E+02  0.51100000000E-03 0.  1.
         12    1    3    3    0    0 -0.10373240377E+02 -0.29270660040E+02  0.13676059139E+02  0.33932436527E+02  0.00000000000E+00 0. -1.
</event>
<event>
 7    1  0.3027254E-013  0.7246150E+02  0.7816164E-02  0.1226708E+00
        -11   -1    0    0    0    0  0.00000000000E+00  0.00000000000E+00  0.45593999997E+02  0.45594000000E+02  0.51100000000E-03 0.  1.
         11   -1    0    0    0    0 -0.00000000000E+00 -0.00000000000E+00 -0.45593999997E+02  0.45594000000E+02  0.51100000000E-03 0. -1.
    9900012    2    1    2    0    0 -0.21637967446E+01  0.43096193068E+01  0.18094942412E+02  0.72461500706E+02  0.69999909348E+02 0.  0.
         12    1    1    2    0    0  0.21637967446E+01 -0.43096193068E+01 -0.18094942412E+02  0.18726499294E+02  0.00000000000E+00 0. -1.
         11    1    3    3    0    0 -0.71868114654E+01  0.14615851504E+02  0.42726224870E+01  0.16838309814E+02  0.51100000000E-03 0. -1.
        -11    1    3    3    0    0  0.15007242005E+01  0.21663330846E+02  0.56340049482E+01  0.22434216912E+02  0.51100000000E-03 0.  1.
         12    1    3    3    0    0  0.35222905204E+01 -0.31969563043E+02  0.81883149768E+01  0.33188973979E+02  0.00000000000E+00 0. -1.
</event>
<event>
 7    1  0.3027254E-013  0.7246157E+02  0.7816164E-02  0.1226708E+00
        -11   -1    0    0    0    0  0.00000000000E+00  0.00000000000E+00  0.45593999997E+02  0.45594000000E+02  0.51100000000E-03 0.  1.
         11   -1    0    0    0    0 -0.00000000000E+00 -0.00000000000E+00 -0.45593999997E+02  0.45594000000E+02  0.51100000000E-03 0. -1.
    9900012    2    1    2    0    0  0.80151149157E+01  0.19123237763E+01  0.16816068536E+02  0.72461569204E+02  0.69999998580E+02 0.  0.
         12    1    1    2    0    0 -0.80151149157E+01 -0.19123237763E+01 -0.16816068536E+02  0.18726430796E+02  0.00000000000E+00 0. -1.
         11    1    3    3    0    0 -0.11028310506E+01  0.11276932730E+02 -0.25504957639E+02  0.27908570593E+02  0.51100000000E-03 0. -1.
        -11    1    3    3    0    0 -0.42721668795E+00 -0.80151513310E+00  0.52195080696E+01  0.52979435026E+01  0.51100000000E-03 0.  1.
        -12    1    3    3    0    0  0.95451626542E+01 -0.85630938202E+01  0.37101518105E+02  0.39255055109E+02  0.00000000000E+00 0.  1.
</event>
<event>
 7    1  0.3027254E-013  0.7246156E+02  0.7816164E-02  0.1226708E+00
        -11   -1    0    0    0    0  0.00000000000E+00  0.00000000000E+00  0.45593999997E+02  0.45594000000E+02  0.51100000000E-03 0.  1.
         11   -1    0    0    0    0 -0.00000000000E+00 -0.00000000000E+00 -0.45593999997E+02  0.45594000000E+02  0.51100000000E-03 0. -1.
    9900012    2    1    2    0    0  0.13559635622E+02  0.11577636658E+02  0.57248592900E+01  0.72461564069E+02  0.69999991890E+02 0.  0.
         12    1    1    2    0    0 -0.13559635622E+02 -0.11577636658E+02 -0.57248592900E+01  0.18726435931E+02  0.00000000000E+00 0. -1.
         11    1    3    3    0    0 -0.37655406741E+00 -0.13840898219E+02 -0.24184784323E+02  0.27867831804E+02  0.51100000000E-03 0. -1.
        -11    1    3    3    0    0 -0.73874889183E+00  0.85807091552E+00 -0.16466110390E+01  0.19983402604E+01  0.51100000000E-03 0.  1.
        -12    1    3    3    0    0  0.14674938581E+02  0.24560463961E+02  0.31556254652E+02  0.42595392004E+02  0.00000000000E+00 0.  1.
</event>
<event>
 7    1  0.3027254E-013  0.7246159E+02  0.7816164E-02  0.1226708E+00
        -11   -1    0    0    0    0  0.00000000000E+00  0.00000000000E+00  0.45593999997E+02  0.45594000000E+02  0.51100000000E-03 0.  1.
         11   -1    0    0    0    0 -0.00000000000E+00 -0.00000000000E+00 -0.45593999997E+02  0.45594000000E+02  0.51100000000E-03 0. -1.
    9900012    2    1    2    0    0 -0.25867701359E+01 -0.11193869718E+02  0.14787976630E+02  0.72461592127E+02  0.70000028441E+02 0.  0.
         12    1    1    2    0    0  0.25867701359E+01  0.11193869718E+02 -0.14787976630E+02  0.18726407873E+02  0.00000000000E+00 0. -1.
         11    1    3    3    0    0 -0.17186088826E+02  0.75101997678E-01  0.77296627458E+01  0.18844494577E+02  0.51100000000E-03 0. -1.
        -11    1    3    3    0    0  0.12418355782E+02 -0.26389049419E+02 -0.98935412888E+01  0.30797396790E+02  0.51100000000E-03 0.  1.
         12    1    3    3    0    0  0.21809629079E+01  0.15120077703E+02  0.16951855173E+02  0.22819700760E+02  0.00000000000E+00 0. -1.
</event>
<event>
 7    1  0.3027254E-013  0.7246151E+02  0.7816164E-02  0.1226708E+00
        -11   -1    0    0    0    0  0.00000000000E+00  0.00000000000E+00  0.45593999997E+02  0.45594000000E+02  0.51100000000E-03 0.  1.
         11   -1    0    0    0    0 -0.00000000000E+00 -0.00000000000E+00 -0.45593999997E+02  0.45594000000E+02  0.51100000000E-03 0. -1.
    9900012    2    1    2    0    0  0.51777490025E+01 -0.13076823646E+02  0.12364022970E+02  0.72461508994E+02  0.69999920144E+02 0.  0.
         12    1    1    2    0    0 -0.51777490025E+01  0.13076823646E+02 -0.12364022970E+02  0.18726491006E+02  0.00000000000E+00 0. -1.
         11    1    3    3    0    0  0.20816576709E+01 -0.49566823903E+01  0.10559172075E+02  0.11848971016E+02  0.51100000000E-03 0. -1.
        -11    1    3    3    0    0 -0.61326806974E+01 -0.27460736394E+02  0.18304233388E+02  0.33567048962E+02  0.51100000000E-03 0.  1.
         12    1    3    3    0    0  0.92287720290E+01  0.19340595138E+02 -0.16499382492E+02  0.27045489015E+02  0.00000000000E+00 0. -1.
</event>
<event>
 7    1  0.3027254E-013  0.7246156E+02  0.7816164E-02  0.1226708E+00
        -11   -1    0    0    0    0  0.00000000000E+00  0.00000000000E+00  0.45593999997E+02  0.45594000000E+02  0.51100000000E-03 0.  1.
         11   -1    0    0    0    0 -0.00000000000E+00 -0.00000000000E+00 -0.45593999997E+02  0.45594000000E+02  0.51100000000E-03 0. -1.
    9900012    2    1    2    0    0  0.16245213116E+02 -0.88072301329E+01  0.30340538922E+01  0.72461555201E+02  0.69999980338E+02 0.  0.
         12    1    1    2    0    0 -0.16245213116E+02  0.88072301329E+01 -0.30340538922E+01  0.18726444799E+02  0.00000000000E+00 0. -1.
         11    1    3    3    0    0  0.58898710639E+01  0.53919597325E+01 -0.25028821917E+01  0.83682871864E+01  0.51100000000E-03 0. -1.
        -11    1    3    3    0    0  0.30061343781E+02  0.42791589546E+01 -0.11142867434E+02  0.32344382606E+02  0.51100000000E-03 0.  1.
        -12    1    3    3    0    0 -0.19706001729E+02 -0.18478348820E+02  0.16679803518E+02  0.31748885408E+02  0.00000000000E+00 0.  1.
</event>
<event>
 7    1  0.3027254E-013  0.7246159E+02  0.7816164E-02  0.1226708E+00
        -11   -1    0    0    0    0  0.00000000000E+00  0.00000000000E+00  0.45593999997E+02  0.45594000000E+02  0.51100000000E-03 0.  1.
         11   -1    0    0    0    0 -0.00000000000E+00 -0.00000000000E+00 -0.45593999997E+02  0.45594000000E+02  0.51100000000E-03 0. -1.
    9900012    2    1    2    0    0  0.15670964991E+02 -0.62283757024E+01  0.81428902392E+01  0.72461588996E+02  0.70000024362E+02 0.  0.
         12    1    1    2    0    0 -0.15670964991E+02  0.62283757024E+01 -0.81428902392E+01  0.18726411004E+02  0.00000000000E+00 0. -1.
         11    1    3    3    0    0  0.36384434888E+01  0.72952489047E+01 -0.25095341170E+02  0.26386266812E+02  0.51100000000E-03 0. -1.
        -11    1    3    3    0    0 -0.26134529813E+01  0.14963633616E+01 -0.29693723384E+01  0.42292330440E+01  0.51100000000E-03 0.  1.
        -12    1    3    3    0    0  0.14645974484E+02 -0.15019987969E+02  0.36207603747E+02  0.41846089140E+02  0.00000000000E+00 0.  1.
</event>
<event>
 7    1  0.3027254E-013  0.7246158E+02  0.7816164E-02  0.1226708E+00
        -11   -1    0    0    0    0  0.00000000000E+00  0.00000000000E+00  0.45593999997E+02  0.45594000000E+02  0.51100000000E-03 0.  1.
         11   -1    0    0    0    0 -0.00000000000E+00 -0.00000000000E+00 -0.45593999997E+02  0.45594000000E+02  0.51100000000E-03 0. -1.
    9900012    2    1    2    0    0 -0.94384064830E+01  0.50019343785E+01  0.15381024390E+02  0.72461580808E+02  0.70000013696E+02 0.  0.
         12    1    1    2    0    0  0.94384064830E+01 -0.50019343785E+01 -0.15381024390E+02  0.18726419192E+02  0.00000000000E+00 0. -1.
         11    1    3    3    0    0  0.31270285677E+01 -0.13895143402E+02 -0.12717193480E+02  0.19093986700E+02  0.51100000000E-03 0. -1.
        -11    1    3    3    0    0 -0.18561725943E+01  0.11859769771E+02 -0.84223283143E+01  0.14664076180E+02  0.51100000000E-03 0.  1.
        -12    1    3    3    0    0 -0.10709262456E+02  0.70373080098E+01  0.36520546184E+02  0.38703517928E+02  0.00000000000E+00 0.  1.
</event>
<event>
 7    1  0.3027254E-013  0.7246165E+02  0.7816164E-02  0.1226708E+00
        -11   -1    0    0    0    0  0.00000000000E+00  0.00000000000E+00  0.45593999997E+02  0.45594000000E+02  0.51100000000E-03 0.  1.
         11   -1    0    0    0    0 -0.00000000000E+00 -0.00000000000E+00 -0.45593999997E+02  0.45594000000E+02  0.51100000000E-03 0. -1.
    9900012    2    1    2    0    0 -0.55919597754E+01 -0.17100631001E+02  0.51937144854E+01  0.72461647848E+02  0.70000101028E+02 0.  0.
         12    1    1    2    0    0  0.55919597754E+01  0.17100631001E+02 -0.51937144854E+01  0.18726352152E+02  0.00000000000E+00 0. -1.
         11    1    3    3    0    0 -0.12453015241E+02  0.17953851127E+01  0.46164233084E+01  0.13401953616E+02  0.51100000000E-03 0. -1.
        -11    1    3    3    0    0 -0.76370029889E+01 -0.35870543755E+02 -0.92239611316E+00  0.36686108253E+02  0.51100000000E-03 0.  1.
         12    1    3    3    0    0  0.14498058455E+02  0.16974527641E+02  0.14996872902E+01  0.22373585979E+02  0.00000000000E+00 0. -1.
</event>
<event>
 7    1  0.3027254E-013  0.7246158E+02  0.7816164E-02  0.1226708E+00
        -11   -1    0    0    0    0  0.00000000000E+00  0.00000000000E+00  0.45593999997E+02  0.45594000000E+02  0.51100000000E-03 0.  1.
         11   -1    0    0    0    0 -0.00000000000E+00 -0.00000000000E+00 -0.45593999997E+02  0.45594000000E+02  0.51100000000E-03 0. -1.
    9900012    2    1    2    0    0  0.12137546735E+02 -0.13426365037E+02  0.48053481314E+01  0.72461583111E+02  0.70000016696E+02 0.  0.
         12    1    1    2    0    0 -0.12137546735E+02  0.13426365037E+02 -0.48053481314E+01  0.18726416889E+02  0.00000000000E+00 0. -1.
         11    1    3    3    0    0  0.49523341309E+01  0.66602995562E+01 -0.32211124164E+01  0.89028517331E+01  0.51100000000E-03 0. -1.
        -11    1    3    3    0    0 -0.81633231129E+01  0.17471529100E+02  0.12123929280E+02  0.22779021813E+02  0.51100000000E-03 0.  1.
         12    1    3    3    0    0  0.15348535717E+02 -0.37558193693E+02 -0.40974687323E+01  0.40779709564E+02  0.00000000000E+00 0. -1.
</event>
<event>
 7    1  0.3027254E-013  0.7246167E+02  0.7816164E-02  0.1226708E+00
        -11   -1    0    0    0    0  0.00000000000E+00  0.00000000000E+00  0.45593999997E+02  0.45594000000E+02  0.51100000000E-03 0. -1.
         11   -1    0    0    0    0 -0.00000000000E+00 -0.00000000000E+00 -0.45593999997E+02  0.45594000000E+02  0.51100000000E-03 0.  1.
    9900012    2    1    2    0    0 -0.92428557722E+01 -0.69543774286E+01 -0.14726900646E+02  0.72461672254E+02  0.70000132821E+02 0.  0.
         12    1    1    2    0    0  0.92428557722E+01  0.69543774286E+01  0.14726900646E+02  0.18726327746E+02  0.00000000000E+00 0. -1.
         11    1    3    3    0    0 -0.10453767302E+02  0.91164612893E+01 -0.86083256421E+01  0.16324655827E+02  0.51100000000E-03 0. -1.
        -11    1    3    3    0    0 -0.25098067455E+02 -0.11864663121E+02  0.31238036487E+01  0.27936380769E+02  0.51100000000E-03 0.  1.
         12    1    3    3    0    0  0.26308978985E+02 -0.42061755967E+01 -0.92423786521E+01  0.28200635658E+02  0.00000000000E+00 0. -1.
</event>
<event>
 7    1  0.3027254E-013  0.7246157E+02  0.7816164E-02  0.1226708E+00
        -11   -1    0    0    0    0  0.00000000000E+00  0.00000000000E+00  0.45593999997E+02  0.45594000000E+02  0.51100000000E-03 0. -1.
         11   -1    0    0    0    0 -0.00000000000E+00 -0.00000000000E+00 -0.45593999997E+02  0.45594000000E+02  0.51100000000E-03 0.  1.
    9900012    2    1    2    0    0 -0.18171965958E+02 -0.43469144648E+01  0.12503257022E+01  0.72461566102E+02  0.69999994539E+02 0.  0.
         12    1    1    2    0    0  0.18171965958E+02  0.43469144648E+01 -0.12503257022E+01  0.18726433898E+02  0.00000000000E+00 0. -1.
         11    1    3    3    0    0  0.13492009823E+02  0.97018961334E+01 -0.20616275471E+01  0.16745489723E+02  0.51100000000E-03 0. -1.
        -11    1    3    3    0    0  0.47195269443E+01 -0.79418355585E+01  0.14474881228E+02  0.17171746371E+02  0.51100000000E-03 0.  1.
        -12    1    3    3    0    0 -0.36383502726E+02 -0.61069750397E+01 -0.11162927979E+02  0.38544330008E+02  0.00000000000E+00 0.  1.
</event>
<event>
 7    1  0.3027254E-013  0.7246173E+02  0.7816164E-02  0.1226708E+00
        -11   -1    0    0    0    0  0.00000000000E+00  0.00000000000E+00  0.45593999997E+02  0.45594000000E+02  0.51100000000E-03 0.  1.
         11   -1    0    0    0    0 -0.00000000000E+00 -0.00000000000E+00 -0.45593999997E+02  0.45594000000E+02  0.51100000000E-03 0. -1.
    9900012    2    1    2    0    0  0.16655366264E+02  0.26704498059E+01 -0.81326999782E+01  0.72461726038E+02  0.70000202885E+02 0.  0.
         12    1    1    2    0    0 -0.16655366264E+02 -0.26704498059E+01  0.81326999782E+01  0.18726273962E+02  0.00000000000E+00 0. -1.
         11    1    3    3    0    0 -0.22540767747E+02  0.51797389726E+01 -0.13975096673E+02  0.27022568970E+02  0.51100000000E-03 0. -1.
        -11    1    3    3    0    0  0.23349068087E+01 -0.73712832033E+01 -0.38001894620E+00  0.77415773929E+01  0.51100000000E-03 0.  1.
        -12    1    3    3    0    0  0.36861227203E+02  0.48619940366E+01  0.62224156413E+01  0.37697579675E+02  0.00000000000E+00 0.  1.
</event>
<event>
 7    1  0.3027254E-013  0.7246155E+02  0.7816164E-02  0.1226708E+00
        -11   -1    0    0    0    0  0.00000000000E+00  0.00000000000E+00  0.45593999997E+02  0.45594000000E+02  0.51100000000E-03 0. -1.
         11   -1    0    0    0    0 -0.00000000000E+00 -0.00000000000E+00 -0.45593999997E+02  0.45594000000E+02  0.51100000000E-03 0.  1.
    9900012    2    1    2    0    0 -0.14520112575E+02  0.11539746602E+02 -0.25846932584E+01  0.72461546517E+02  0.69999969025E+02 0.  0.
         12    1    1    2    0    0  0.14520112575E+02 -0.11539746602E+02  0.25846932584E+01  0.18726453483E+02  0.00000000000E+00 0. -1.
         11    1    3    3    0    0 -0.27203089704E+02  0.16421898165E+02 -0.14609017668E+02  0.34972992813E+02  0.51100000000E-03 0. -1.
        -11    1    3    3    0    0  0.94399224320E-01  0.11889882855E+02  0.11454388703E+02  0.16510034717E+02  0.51100000000E-03 0.  1.
         12    1    3    3    0    0  0.12588577905E+02 -0.16772034418E+02  0.56993570656E+00  0.20978518987E+02  0.00000000000E+00 0. -1.
</event>
<event>
 7    1  0.3027254E-013  0.7246158E+02  0.7816164E-02  0.1226708E+00
        -11   -1    0    0    0    0  0.00000000000E+00  0.00000000000E+00  0.45593999997E+02  0.45594000000E+02  0.51100000000E-03 0. -1.
         11   -1    0    0    0    0 -0.00000000000E+00 -0.00000000000E+00 -0.45593999997E+02  0.45594000000E+02  0.51100000000E-03 0.  1.
    9900012    2    1    2    0    0 -0.17175277460E+02  0.71258082285E+01  0.22162222870E+01  0.72461576424E+02  0.70000007985E+02 0.  0.
         12    1    1    2    0    0  0.17175277460E+02 -0.71258082285E+01 -0.22162222870E+01  0.18726423576E+02  0.00000000000E+00 0. -1.
         11    1    3    3    0    0  0.79208387825E+01 -0.11772453379E+02 -0.13004451494E+02  0.19246976502E+02  0.51100000000E-03 0. -1.
        -11    1    3    3    0    0 -0.58224686423E+01 -0.12222934607E+02  0.85305473858E+01  0.16002234546E+02  0.51100000000E-03 0.  1.
        -12    1    3    3    0    0 -0.19273647600E+02  0.31121196215E+02  0.66901263949E+01  0.37212365375E+02  0.00000000000E+00 0.  1.
</event>
<event>
 7    1  0.3027254E-013  0.7246152E+02  0.7816164E-02  0.1226708E+00
        -11   -1    0    0    0    0  0.00000000000E+00  0.00000000000E+00  0.45593999997E+02  0.45594000000E+02  0.51100000000E-03 0.  1.
         11   -1    0    0    0    0 -0.00000000000E+00 -0.00000000000E+00 -0.45593999997E+02  0.45594000000E+02  0.51100000000E-03 0. -1.
    9900012    2    1    2    0    0  0.12450090972E+02 -0.66373214799E+01  0.12313504947E+02  0.72461515927E+02  0.69999929177E+02 0.  0.
         12    1    1    2    0    0 -0.12450090972E+02  0.66373214799E+01 -0.12313504947E+02  0.18726484073E+02  0.00000000000E+00 0. -1.
         11    1    3    3    0    0  0.18233661550E+02 -0.18038711230E+02  0.99218819325E+01  0.27501004667E+02  0.51100000000E-03 0. -1.
        -11    1    3    3    0    0 -0.14453396893E+01 -0.24948915801E+01  0.21077161794E+02  0.21273463290E+02  0.51100000000E-03 0.  1.
         12    1    3    3    0    0 -0.43382308886E+01  0.13896281331E+02 -0.18685538779E+02  0.23687047970E+02  0.00000000000E+00 0. -1.
</event>
<event>
 7    1  0.3027254E-013  0.7246158E+02  0.7816164E-02  0.1226708E+00
        -11   -1    0    0    0    0  0.00000000000E+00  0.00000000000E+00  0.45593999997E+02  0.45594000000E+02  0.51100000000E-03 0.  1.
         11   -1    0    0    0    0 -0.00000000000E+00 -0.00000000000E+00 -0.45593999997E+02  0.45594000000E+02  0.51100000000E-03 0. -1.
    9900012    2    1    2    0    0  0.63301661803E+01  0.14330138212E+02 -0.10259385589E+02  0.72461578620E+02  0.70000010846E+02 0.  0.
         12    1    1    2    0    0 -0.63301661803E+01 -0.14330138212E+02  0.10259385589E+02  0.18726421380E+02  0.00000000000E+00 0. -1.
         11    1    3    3    0    0  0.48445337838E+01  0.37753190121E+02  0.13588144051E+01  0.38086995796E+02  0.51100000000E-03 0. -1.
        -11    1    3    3    0    0 -0.98121636258E+01 -0.13274457428E+02 -0.94866671511E+01  0.19039081620E+02  0.51100000000E-03 0.  1.
        -12    1    3    3    0    0  0.11297796022E+02 -0.10148594482E+02 -0.21315328434E+01  0.15335501204E+02  0.00000000000E+00 0.  1.
</event>
<event>
 7    1  0.3027254E-013  0.7246169E+02  0.7816164E-02  0.1226708E+00
        -11   -1    0    0    0    0  0.00000000000E+00  0.00000000000E+00  0.45593999997E+02  0.45594000000E+02  0.51100000000E-03 0.  1.
         11   -1    0    0    0    0 -0.00000000000E+00 -0.00000000000E+00 -0.45593999997E+02  0.45594000000E+02  0.51100000000E-03 0. -1.
    9900012    2    1    2    0    0 -0.36031107334E+01 -0.79212179004E+01  0.16581508816E+02  0.72461694048E+02  0.70000161213E+02 0.  0.
         12    1    1    2    0    0  0.36031107334E+01  0.79212179004E+01 -0.16581508816E+02  0.18726305952E+02  0.00000000000E+00 0. -1.
         11    1    3    3    0    0  0.51864846201E+01 -0.32464249260E+01  0.13984238712E+02  0.15264266446E+02  0.51100000000E-03 0. -1.
        -11    1    3    3    0    0  0.76904791287E+01 -0.13264082098E+02  0.24232930587E+02  0.28676022532E+02  0.51100000000E-03 0.  1.
         12    1    3    3    0    0 -0.16480074482E+02  0.85892891242E+01 -0.21635660484E+02  0.28521405070E+02  0.00000000000E+00 0. -1.
</event>
<event>
 7    1  0.3027254E-013  0.7246155E+02  0.7816164E-02  0.1226708E+00
        -11   -1    0    0    0    0  0.00000000000E+00  0.00000000000E+00  0.45593999997E+02  0.45594000000E+02  0.51100000000E-03 0.  1.
         11   -1    0    0    0    0 -0.00000000000E+00 -0.00000000000E+00 -0.45593999997E+02  0.45594000000E+02  0.51100000000E-03 0. -1.
    9900012    2    1    2    0    0  0.11160260416E+02  0.10847127992E+02  0.10414805142E+02  0.72461554411E+02  0.69999979309E+02 0.  0.
         12    1    1    2    0    0 -0.11160260416E+02 -0.10847127992E+02 -0.10414805142E+02  0.18726445589E+02  0.00000000000E+00 0. -1.
         11    1    3    3    0    0 -0.21811833366E+00 -0.73488717470E+01 -0.19003214332E+01  0.75937285554E+01  0.51100000000E-03 0. -1.
        -11    1    3    3    0    0  0.19786426335E+02 -0.10513996255E+02  0.23924352880E+02  0.32778368559E+02  0.51100000000E-03 0.  1.
         12    1    3    3    0    0 -0.84080475852E+01  0.28709995995E+02 -0.11609226304E+02  0.32089457297E+02  0.00000000000E+00 0. -1.
</event>
<event>
 7    1  0.3027254E-013  0.7246152E+02  0.7816164E-02  0.1226708E+00
        -11   -1    0    0    0    0  0.00000000000E+00  0.00000000000E+00  0.45593999997E+02  0.45594000000E+02  0.51100000000E-03 0. -1.
         11   -1    0    0    0    0 -0.00000000000E+00 -0.00000000000E+00 -0.45593999997E+02  0.45594000000E+02  0.51100000000E-03 0.  1.
    9900012    2    1    2    0    0 -0.16900204870E+02 -0.76503556010E+01  0.25566046953E+01  0.72461518936E+02  0.69999933097E+02 0.  0.
         12    1    1    2    0    0  0.16900204870E+02  0.76503556010E+01 -0.25566046953E+01  0.18726481064E+02  0.00000000000E+00 0. -1.
         11    1    3    3    0    0 -0.14426967156E+02  0.21877000756E+02  0.17195839501E+02  0.31343858087E+02  0.51100000000E-03 0. -1.
        -11    1    3    3    0    0 -0.95228262821E+01 -0.19141294809E+02  0.58321574446E+00  0.21387228157E+02  0.51100000000E-03 0.  1.
        -12    1    3    3    0    0  0.70495885687E+01 -0.10386061548E+02 -0.15222450550E+02  0.19730432692E+02  0.00000000000E+00 0.  1.
</event>
<event>
 7    1  0.3027254E-013  0.7246155E+02  0.7816164E-02  0.1226708E+00
        -11   -1    0    0    0    0  0.00000000000E+00  0.00000000000E+00  0.45593999997E+02  0.45594000000E+02  0.51100000000E-03 0.  1.
         11   -1    0    0    0    0 -0.00000000000E+00 -0.00000000000E+00 -0.45593999997E+02  0.45594000000E+02  0.51100000000E-03 0. -1.
    9900012    2    1    2    0    0  0.86664939474E+01  0.15584715625E+02  0.57173703404E+01  0.72461553406E+02  0.69999977999E+02 0.  0.
         12    1    1    2    0    0 -0.86664939474E+01 -0.15584715625E+02 -0.57173703404E+01  0.18726446594E+02  0.00000000000E+00 0. -1.
         11    1    3    3    0    0  0.36868569560E+01  0.17891520506E+00 -0.20961297395E+02  0.21283818116E+02  0.51100000000E-03 0. -1.
        -11    1    3    3    0    0  0.10621702684E+02 -0.50877888735E+01 -0.51903648494E+01  0.12870355514E+02  0.51100000000E-03 0.  1.
        -12    1    3    3    0    0 -0.56420656930E+01  0.20493589293E+02  0.31869032584E+02  0.38307379775E+02  0.00000000000E+00 0.  1.
</event>
<event>
 7    1  0.3027254E-013  0.7246158E+02  0.7816164E-02  0.1226708E+00
        -11   -1    0    0    0    0  0.00000000000E+00  0.00000000000E+00  0.45593999997E+02  0.45594000000E+02  0.51100000000E-03 0.  1.
         11   -1    0    0    0    0 -0.00000000000E+00 -0.00000000000E+00 -0.45593999997E+02  0.45594000000E+02  0.51100000000E-03 0. -1.
    9900012    2    1    2    0    0  0.32417643154E+01  0.18109769917E+02  0.34937082421E+01  0.72461580171E+02  0.70000012866E+02 0.  0.
         12    1    1    2    0    0 -0.32417643154E+01 -0.18109769917E+02 -0.34937082421E+01  0.18726419829E+02  0.00000000000E+00 0. -1.
         11    1    3    3    0    0 -0.10184248751E+00  0.11387510713E+02 -0.51284473318E+01  0.12489465338E+02  0.51100000000E-03 0. -1.
        -11    1    3    3    0    0 -0.91009566862E+01  0.29342117754E+02 -0.44372154219E+01  0.31039912497E+02  0.51100000000E-03 0.  1.
         12    1    3    3    0    0  0.12444563489E+02 -0.22619858549E+02  0.13059370996E+02  0.28932202336E+02  0.00000000000E+00 0. -1.
</event>
<event>
 7    1  0.3027254E-013  0.7246078E+02  0.7816164E-02  0.1226710E+00
        -11   -1    0    0    0    0  0.00000000000E+00  0.00000000000E+00  0.45593999997E+02  0.45594000000E+02  0.51100000000E-03 0.  1.
         11   -1    0    0    0    0 -0.00000000000E+00 -0.00000000000E+00 -0.45593999997E+02  0.45594000000E+02  0.51100000000E-03 0. -1.
    9900012    2    1    2    0    0 -0.54024632046E+01  0.16844423886E+02 -0.61471466158E+01  0.72460783542E+02  0.69998975102E+02 0.  0.
         12    1    1    2    0    0  0.54024632046E+01 -0.16844423886E+02  0.61471466158E+01  0.18727216458E+02  0.00000000000E+00 0. -1.
         11    1    3    3    0    0 -0.27965700227E+01  0.39924179611E+02 -0.82103681080E+01  0.40855490038E+02  0.51100000000E-03 0. -1.
        -11    1    3    3    0    0 -0.61571129376E+01 -0.31022588132E+01 -0.65984025767E+01  0.95432157209E+01  0.51100000000E-03 0.  1.
        -12    1    3    3    0    0  0.35512197557E+01 -0.19977496912E+02  0.86616240689E+01  0.22062077783E+02  0.00000000000E+00 0.  1.
</event>
<event>
 7    1  0.3027254E-013  0.7246164E+02  0.7816164E-02  0.1226708E+00
        -11   -1    0    0    0    0  0.00000000000E+00  0.00000000000E+00  0.45593999997E+02  0.45594000000E+02  0.51100000000E-03 0.  1.
         11   -1    0    0    0    0 -0.00000000000E+00 -0.00000000000E+00 -0.45593999997E+02  0.45594000000E+02  0.51100000000E-03 0. -1.
    9900012    2    1    2    0    0 -0.10746489266E+02 -0.12308291518E+02  0.91485136578E+01  0.72461644941E+02  0.70000097241E+02 0.  0.
         12    1    1    2    0    0  0.10746489266E+02  0.12308291518E+02 -0.91485136578E+01  0.18726355059E+02  0.00000000000E+00 0. -1.
         11    1    3    3    0    0  0.55071092650E+01 -0.87398940765E+01  0.61486590742E+01  0.12021647541E+02  0.51100000000E-03 0. -1.
        -11    1    3    3    0    0  0.35894657450E+01 -0.27016683165E+02  0.98292541579E+01  0.28972394985E+02  0.51100000000E-03 0.  1.
         12    1    3    3    0    0 -0.19843064276E+02  0.23448285724E+02 -0.68293995743E+01  0.31467602415E+02  0.00000000000E+00 0. -1.
</event>
<event>
 7    1  0.3027254E-013  0.7246169E+02  0.7816164E-02  0.1226708E+00
        -11   -1    0    0    0    0  0.00000000000E+00  0.00000000000E+00  0.45593999997E+02  0.45594000000E+02  0.51100000000E-03 0.  1.
         11   -1    0    0    0    0 -0.00000000000E+00 -0.00000000000E+00 -0.45593999997E+02  0.45594000000E+02  0.51100000000E-03 0. -1.
    9900012    2    1    2    0    0  0.10218941634E+02 -0.98694692425E+00  0.15661221262E+02  0.72461690066E+02  0.70000156024E+02 0.  0.
         12    1    1    2    0    0 -0.10218941634E+02  0.98694692425E+00 -0.15661221262E+02  0.18726309934E+02  0.00000000000E+00 0. -1.
         11    1    3    3    0    0 -0.20684278016E+01 -0.19083293450E+02 -0.10632885258E+01  0.19224491287E+02  0.51100000000E-03 0. -1.
        -11    1    3    3    0    0 -0.26662252507E+01 -0.13914143337E+02  0.46069701963E-01  0.14167366184E+02  0.51100000000E-03 0.  1.
        -12    1    3    3    0    0  0.14953594687E+02  0.32010489863E+02  0.16678440085E+02  0.39069832595E+02  0.00000000000E+00 0.  1.
</event>
<event>
 7    1  0.3027254E-013  0.7246178E+02  0.7816164E-02  0.1226707E+00
        -11   -1    0    0    0    0  0.00000000000E+00  0.00000000000E+00  0.45593999997E+02  0.45594000000E+02  0.51100000000E-03 0.  1.
         11   -1    0    0    0    0 -0.00000000000E+00 -0.00000000000E+00 -0.45593999997E+02  0.45594000000E+02  0.51100000000E-03 0. -1.
    9900012    2    1    2    0    0 -0.15184972869E+02 -0.10549537789E+02  0.29656955721E+01  0.72461775104E+02  0.70000266803E+02 0.  0.
         12    1    1    2    0    0  0.15184972869E+02  0.10549537789E+02 -0.29656955721E+01  0.18726224896E+02  0.00000000000E+00 0. -1.
         11    1    3    3    0    0 -0.70230118341E+01 -0.45673038376E+01 -0.52701358141E+01  0.98973375877E+01  0.51100000000E-03 0. -1.
        -11    1    3    3    0    0 -0.10428436356E+02  0.42275001291E+01 -0.25164066872E+02  0.27565454902E+02  0.51100000000E-03 0.  1.
        -12    1    3    3    0    0  0.22664753205E+01 -0.10209734081E+02  0.33399898258E+02  0.34998982614E+02  0.00000000000E+00 0.  1.
</event>
<event>
 7    1  0.3027254E-013  0.7246156E+02  0.7816164E-02  0.1226708E+00
        -11   -1    0    0    0    0  0.00000000000E+00  0.00000000000E+00  0.45593999997E+02  0.45594000000E+02  0.51100000000E-03 0. -1.
         11   -1    0    0    0    0 -0.00000000000E+00 -0.00000000000E+00 -0.45593999997E+02  0.45594000000E+02  0.51100000000E-03 0.  1.
    9900012    2    1    2    0    0 -0.38630264149E+01  0.56413160998E+00 -0.18314972103E+02  0.72461563588E+02  0.69999991264E+02 0.  0.
         12    1    1    2    0    0  0.38630264149E+01 -0.56413160998E+00  0.18314972103E+02  0.18726436412E+02  0.00000000000E+00 0. -1.
         11    1    3    3    0    0 -0.30952627948E+02 -0.60240427768E+01 -0.31929825650E+01  0.31694627403E+02  0.51100000000E-03 0. -1.
        -11    1    3    3    0    0  0.24524559390E+01  0.10167397826E+02  0.18704018419E+01  0.10624919858E+02  0.51100000000E-03 0.  1.
        -12    1    3    3    0    0  0.24637145594E+02 -0.35792234391E+01 -0.16992391380E+02  0.30142016327E+02  0.00000000000E+00 0.  1.
</event>
<event>
 7    1  0.3027254E-013  0.7246151E+02  0.7816164E-02  0.1226708E+00
        -11   -1    0    0    0    0  0.00000000000E+00  0.00000000000E+00  0.45593999997E+02  0.45594000000E+02  0.51100000000E-03 0.  1.
         11   -1    0    0    0    0 -0.00000000000E+00 -0.00000000000E+00 -0.45593999997E+02  0.45594000000E+02  0.51100000000E-03 0. -1.
    9900012    2    1    2    0    0  0.43887440355E+01 -0.46579671169E+01  0.17598969550E+02  0.72461509109E+02  0.69999920295E+02 0.  0.
         12    1    1    2    0    0 -0.43887440355E+01  0.46579671169E+01 -0.17598969550E+02  0.18726490891E+02  0.00000000000E+00 0. -1.
         11    1    3    3    0    0  0.15475554979E+02 -0.18094466051E+02 -0.63379919533E+01  0.24638844247E+02  0.51100000000E-03 0. -1.
        -11    1    3    3    0    0 -0.17175979408E+01 -0.12548953583E+02  0.12893518011E+02  0.18073991968E+02  0.51100000000E-03 0.  1.
        -12    1    3    3    0    0 -0.93692130026E+01  0.25985452517E+02  0.11043443492E+02  0.29748672894E+02  0.00000000000E+00 0.  1.
</event>
<event>
 7    1  0.3027254E-013  0.7246153E+02  0.7816164E-02  0.1226708E+00
        -11   -1    0    0    0    0  0.00000000000E+00  0.00000000000E+00  0.45593999997E+02  0.45594000000E+02  0.51100000000E-03 0.  1.
         11   -1    0    0    0    0 -0.00000000000E+00 -0.00000000000E+00 -0.45593999997E+02  0.45594000000E+02  0.51100000000E-03 0. -1.
    9900012    2    1    2    0    0  0.46504428606E+01  0.10079135334E+01  0.18111825682E+02  0.72461528415E+02  0.69999945444E+02 0.  0.
         12    1    1    2    0    0 -0.46504428606E+01 -0.10079135334E+01 -0.18111825682E+02  0.18726471585E+02  0.00000000000E+00 0. -1.
         11    1    3    3    0    0 -0.63287007946E+01  0.18485575263E+02  0.13635768690E+02  0.23826521664E+02  0.51100000000E-03 0. -1.
        -11    1    3    3    0    0 -0.55525557698E+01 -0.25847994172E+02 -0.63292666527E+01  0.27184725397E+02  0.51100000000E-03 0.  1.
         12    1    3    3    0    0  0.16531699425E+02  0.83703324429E+01  0.10805323645E+02  0.21450281354E+02  0.00000000000E+00 0. -1.
</event>
<event>
 7    1  0.3027254E-013  0.7246159E+02  0.7816164E-02  0.1226708E+00
        -11   -1    0    0    0    0  0.00000000000E+00  0.00000000000E+00  0.45593999997E+02  0.45594000000E+02  0.51100000000E-03 0.  1.
         11   -1    0    0    0    0 -0.00000000000E+00 -0.00000000000E+00 -0.45593999997E+02  0.45594000000E+02  0.51100000000E-03 0. -1.
    9900012    2    1    2    0    0 -0.14777046593E+02  0.86173638709E+01 -0.76195936845E+01  0.72461594205E+02  0.70000031148E+02 0.  0.
         12    1    1    2    0    0  0.14777046593E+02 -0.86173638709E+01  0.76195936845E+01  0.18726405795E+02  0.00000000000E+00 0. -1.
         11    1    3    3    0    0  0.19782208681E+01 -0.17878471166E+02  0.12310513924E+02  0.21796831016E+02  0.51100000000E-03 0. -1.
        -11    1    3    3    0    0 -0.53256581659E+00 -0.75894694573E+01  0.71060554046E+00  0.76412455455E+01  0.51100000000E-03 0.  1.
         12    1    3    3    0    0 -0.16222701644E+02  0.34085304494E+02 -0.20640713149E+02  0.43023517643E+02  0.00000000000E+00 0. -1.
</event>
<event>
 7    1  0.3027254E-013  0.7246155E+02  0.7816164E-02  0.1226708E+00
        -11   -1    0    0    0    0  0.00000000000E+00  0.00000000000E+00  0.45593999997E+02  0.45594000000E+02  0.51100000000E-03 0. -1.
         11   -1    0    0    0    0 -0.00000000000E+00 -0.00000000000E+00 -0.45593999997E+02  0.45594000000E+02  0.51100000000E-03 0.  1.
    9900012    2    1    2    0    0  0.49279475227E+01 -0.12404735258E+02 -0.13134598194E+02  0.72461553638E+02  0.69999978303E+02 0.  0.
         12    1    1    2    0    0 -0.49279475227E+01  0.12404735258E+02  0.13134598194E+02  0.18726446362E+02  0.00000000000E+00 0. -1.
         11    1    3    3    0    0 -0.65644937267E+01  0.56149583096E+01  0.24059734226E+02  0.25563472886E+02  0.51100000000E-03 0. -1.
        -11    1    3    3    0    0  0.10775284773E+02 -0.14905730047E+02 -0.13071180077E+02  0.22564203931E+02  0.51100000000E-03 0.  1.
        -12    1    3    3    0    0  0.71715647674E+00 -0.31139635208E+01 -0.24123152343E+02  0.24333876822E+02  0.00000000000E+00 0.  1.
</event>
<event>
 7    1  0.3027254E-013  0.7246160E+02  0.7816164E-02  0.1226708E+00
        -11   -1    0    0    0    0  0.00000000000E+00  0.00000000000E+00  0.45593999997E+02  0.45594000000E+02  0.51100000000E-03 0.  1.
         11   -1    0    0    0    0 -0.00000000000E+00 -0.00000000000E+00 -0.45593999997E+02  0.45594000000E+02  0.51100000000E-03 0. -1.
    9900012    2    1    2    0    0  0.14546913755E+02  0.11673759585E+02  0.16699748343E+01  0.72461596752E+02  0.70000034466E+02 0.  0.
         12    1    1    2    0    0 -0.14546913755E+02 -0.11673759585E+02 -0.16699748343E+01  0.18726403248E+02  0.00000000000E+00 0. -1.
         11    1    3    3    0    0  0.69488120330E+01 -0.13094242350E+02 -0.27695699652E+02  0.31413324416E+02  0.51100000000E-03 0. -1.
        -11    1    3    3    0    0  0.28352278954E+01 -0.39143440446E+00  0.16051425477E+01  0.32814967578E+01  0.51100000000E-03 0.  1.
        -12    1    3    3    0    0  0.47628738267E+01  0.25159436340E+02  0.27760531939E+02  0.37766775578E+02  0.00000000000E+00 0.  1.
</event>
<event>
 7    1  0.3139477E-013  0.7246163E+02  0.7816164E-02  0.1226708E+00
        -11   -1    0    0    0    0  0.00000000000E+00  0.00000000000E+00  0.45593999997E+02  0.45594000000E+02  0.51100000000E-03 0. -1.
         11   -1    0    0    0    0 -0.00000000000E+00 -0.00000000000E+00 -0.45593999997E+02  0.45594000000E+02  0.51100000000E-03 0.  1.
    9900012    2    1    2    0    0  0.14944374222E+02  0.83715413814E+01 -0.75670193743E+01  0.72461633342E+02  0.70000082131E+02 0.  0.
         12    1    1    2    0    0 -0.14944374222E+02 -0.83715413814E+01  0.75670193743E+01  0.18726366658E+02  0.00000000000E+00 0. -1.
         11    1    3    3    0    0 -0.21047271544E+02 -0.53845383539E+00  0.18042732715E+01  0.21131326847E+02  0.51100000000E-03 0. -1.
        -11    1    3    3    0    0  0.19545784544E+01  0.14381099376E+02 -0.85541312501E+01  0.16846648269E+02  0.51100000000E-03 0.  1.
        -12    1    3    3    0    0  0.34037067312E+02 -0.54711041588E+01 -0.81716139575E+00  0.34483658227E+02  0.00000000000E+00 0.  1.
</event>
<event>
 7    1  0.3027254E-013  0.7246176E+02  0.7816164E-02  0.1226708E+00
        -11   -1    0    0    0    0  0.00000000000E+00  0.00000000000E+00  0.45593999997E+02  0.45594000000E+02  0.51100000000E-03 0.  1.
         11   -1    0    0    0    0 -0.00000000000E+00 -0.00000000000E+00 -0.45593999997E+02  0.45594000000E+02  0.51100000000E-03 0. -1.
    9900012    2    1    2    0    0 -0.36109339035E+01 -0.15490589132E+02  0.98830677664E+01  0.72461755748E+02  0.70000241587E+02 0.  0.
         12    1    1    2    0    0  0.36109339035E+01  0.15490589132E+02 -0.98830677664E+01  0.18726244252E+02  0.00000000000E+00 0. -1.
         11    1    3    3    0    0 -0.17584347413E+02  0.79402029878E+01  0.36623015196E+01  0.19638445716E+02  0.51100000000E-03 0. -1.
        -11    1    3    3    0    0  0.14546871377E+02  0.68829976546E+01  0.14210348551E+02  0.21469073799E+02  0.51100000000E-03 0.  1.
         12    1    3    3    0    0 -0.57345786717E+00 -0.30313789774E+02 -0.79895823042E+01  0.31354236234E+02  0.00000000000E+00 0. -1.
</event>
<event>
 7    1  0.3027254E-013  0.7246159E+02  0.7816164E-02  0.1226708E+00
        -11   -1    0    0    0    0  0.00000000000E+00  0.00000000000E+00  0.45593999997E+02  0.45594000000E+02  0.51100000000E-03 0. -1.
         11   -1    0    0    0    0 -0.00000000000E+00 -0.00000000000E+00 -0.45593999997E+02  0.45594000000E+02  0.51100000000E-03 0.  1.
    9900012    2    1    2    0    0 -0.41716622804E+01  0.16707497480E+02 -0.73576508500E+01  0.72461594465E+02  0.70000031487E+02 0.  0.
         12    1    1    2    0    0  0.41716622804E+01 -0.16707497480E+02  0.73576508500E+01  0.18726405535E+02  0.00000000000E+00 0. -1.
         11    1    3    3    0    0  0.13304747262E+02 -0.35088658540E+01 -0.40393021800E+01  0.14340306888E+02  0.51100000000E-03 0. -1.
        -11    1    3    3    0    0  0.43122842166E+01 -0.15379435978E+02  0.17998270534E+01  0.16073649985E+02  0.51100000000E-03 0.  1.
        -12    1    3    3    0    0 -0.21788693759E+02  0.35595799311E+02 -0.51181757234E+01  0.42047637592E+02  0.00000000000E+00 0.  1.
</event>
<event>
 7    1  0.3027254E-013  0.7246145E+02  0.7816164E-02  0.1226708E+00
        -11   -1    0    0    0    0  0.00000000000E+00  0.00000000000E+00  0.45593999997E+02  0.45594000000E+02  0.51100000000E-03 0. -1.
         11   -1    0    0    0    0 -0.00000000000E+00 -0.00000000000E+00 -0.45593999997E+02  0.45594000000E+02  0.51100000000E-03 0.  1.
    9900012    2    1    2    0    0  0.12755516696E+02  0.13351909674E+02  0.31156059362E+01  0.72461449370E+02  0.69999842474E+02 0.  0.
         12    1    1    2    0    0 -0.12755516696E+02 -0.13351909674E+02 -0.31156059362E+01  0.18726550630E+02  0.00000000000E+00 0. -1.
         11    1    3    3    0    0 -0.25240273547E+01  0.14754031899E+00 -0.12008389682E+02  0.12271670842E+02  0.51100000000E-03 0. -1.
        -11    1    3    3    0    0  0.25278502400E+02  0.27927791055E+02  0.13650821871E+01  0.37693867491E+02  0.51100000000E-03 0.  1.
         12    1    3    3    0    0 -0.99989583489E+01 -0.14723421700E+02  0.13758913431E+02  0.22495911038E+02  0.00000000000E+00 0. -1.
</event>
<event>
 7    1  0.3027254E-013  0.7246159E+02  0.7816164E-02  0.1226708E+00
        -11   -1    0    0    0    0  0.00000000000E+00  0.00000000000E+00  0.45593999997E+02  0.45594000000E+02  0.51100000000E-03 0.  1.
         11   -1    0    0    0    0 -0.00000000000E+00 -0.00000000000E+00 -0.45593999997E+02  0.45594000000E+02  0.51100000000E-03 0. -1.
    9900012    2    1    2    0    0 -0.16672670214E+02 -0.39838349520E+01 -0.75385345597E+01  0.72461591474E+02  0.70000027590E+02 0.  0.
         12    1    1    2    0    0  0.16672670214E+02  0.39838349520E+01  0.75385345597E+01  0.18726408526E+02  0.00000000000E+00 0. -1.
         11    1    3    3    0    0  0.91413637822E+01  0.30871753595E+01 -0.19458637947E+02  0.21719433107E+02  0.51100000000E-03 0. -1.
        -11    1    3    3    0    0  0.46348299648E+01 -0.38907151627E+01 -0.10961913556E+02  0.12521296353E+02  0.51100000000E-03 0.  1.
        -12    1    3    3    0    0 -0.30448863961E+02 -0.31802951488E+01  0.22882016943E+02  0.38220862014E+02  0.00000000000E+00 0.  1.
</event>
<event>
 7    1  0.3027254E-013  0.7246157E+02  0.7816164E-02  0.1226708E+00
        -11   -1    0    0    0    0  0.00000000000E+00  0.00000000000E+00  0.45593999997E+02  0.45594000000E+02  0.51100000000E-03 0.  1.
         11   -1    0    0    0    0 -0.00000000000E+00 -0.00000000000E+00 -0.45593999997E+02  0.45594000000E+02  0.51100000000E-03 0. -1.
    9900012    2    1    2    0    0 -0.14502056944E+02 -0.82339285021E+01  0.85189235907E+01  0.72461566988E+02  0.69999995693E+02 0.  0.
         12    1    1    2    0    0  0.14502056944E+02  0.82339285021E+01 -0.85189235907E+01  0.18726433012E+02  0.00000000000E+00 0. -1.
         11    1    3    3    0    0 -0.36006865007E+01  0.16247356976E+02 -0.10661243773E+02  0.19763695784E+02  0.51100000000E-03 0. -1.
        -11    1    3    3    0    0  0.41270914377E+01 -0.65035753473E+01 -0.11654738208E+02  0.13970050071E+02  0.51100000000E-03 0.  1.
        -12    1    3    3    0    0 -0.15028461881E+02 -0.17977710131E+02  0.30834905572E+02  0.38727821133E+02  0.00000000000E+00 0.  1.
</event>
<event>
 7    1  0.3027254E-013  0.7246158E+02  0.7816164E-02  0.1226708E+00
        -11   -1    0    0    0    0  0.00000000000E+00  0.00000000000E+00  0.45593999997E+02  0.45594000000E+02  0.51100000000E-03 0. -1.
         11   -1    0    0    0    0 -0.00000000000E+00 -0.00000000000E+00 -0.45593999997E+02  0.45594000000E+02  0.51100000000E-03 0.  1.
    9900012    2    1    2    0    0 -0.13227253088E+02 -0.50721975860E+01  0.12247100216E+02  0.72461578123E+02  0.70000010198E+02 0.  0.
         12    1    1    2    0    0  0.13227253088E+02  0.50721975860E+01 -0.12247100216E+02  0.18726421877E+02  0.00000000000E+00 0. -1.
         11    1    3    3    0    0  0.79312837876E+01 -0.10066964617E+02  0.10989043183E+02  0.16882183196E+02  0.51100000000E-03 0. -1.
        -11    1    3    3    0    0 -0.14468336493E+02 -0.16840998894E+02  0.16896424393E+02  0.27900558456E+02  0.51100000000E-03 0.  1.
        -12    1    3    3    0    0 -0.66902003829E+01  0.21835765925E+02 -0.15638367360E+02  0.27678836471E+02  0.00000000000E+00 0.  1.
</event>
<event>
 7    1  0.3027254E-013  0.7246175E+02  0.7816164E-02  0.1226708E+00
        -11   -1    0    0    0    0  0.00000000000E+00  0.00000000000E+00  0.45593999997E+02  0.45594000000E+02  0.51100000000E-03 0.  1.
         11   -1    0    0    0    0 -0.00000000000E+00 -0.00000000000E+00 -0.45593999997E+02  0.45594000000E+02  0.51100000000E-03 0. -1.
    9900012    2    1    2    0    0 -0.14756965768E+02 -0.83830309553E+01  0.79138704626E+01  0.72461745907E+02  0.70000228767E+02 0.  0.
         12    1    1    2    0    0  0.14756965768E+02  0.83830309553E+01 -0.79138704626E+01  0.18726254093E+02  0.00000000000E+00 0. -1.
         11    1    3    3    0    0 -0.69921689452E+01 -0.13404271113E+02 -0.19649738391E+02  0.24792682988E+02  0.51100000000E-03 0. -1.
        -11    1    3    3    0    0  0.57948228665E+01 -0.11735810848E+02  0.53791359972E+00  0.13099564101E+02  0.51100000000E-03 0.  1.
        -12    1    3    3    0    0 -0.13559619689E+02  0.16757051006E+02  0.27025695254E+02  0.34569498818E+02  0.00000000000E+00 0.  1.
</event>
<event>
 7    1  0.3027254E-013  0.7246201E+02  0.7816164E-02  0.1226707E+00
        -11   -1    0    0    0    0  0.00000000000E+00  0.00000000000E+00  0.45593999997E+02  0.45594000000E+02  0.51100000000E-03 0. -1.
         11   -1    0    0    0    0 -0.00000000000E+00 -0.00000000000E+00 -0.45593999997E+02  0.45594000000E+02  0.51100000000E-03 0.  1.
    9900012    2    1    2    0    0 -0.77927273580E+01  0.12070949939E+01 -0.16984672258E+02  0.72462008178E+02  0.70000570423E+02 0.  0.
         12    1    1    2    0    0  0.77927273580E+01 -0.12070949939E+01  0.16984672258E+02  0.18725991822E+02  0.00000000000E+00 0. -1.
         11    1    3    3    0    0  0.15799653632E+02  0.21490855765E+02 -0.16692203798E+02  0.31466102465E+02  0.51100000000E-03 0. -1.
        -11    1    3    3    0    0  0.46558923915E+00  0.23705286801E+01 -0.68873889939E+01  0.72987880485E+01  0.51100000000E-03 0.  1.
         12    1    3    3    0    0 -0.24057970229E+02 -0.22654289451E+02  0.65949205346E+01  0.33697117665E+02  0.00000000000E+00 0. -1.
</event>
<event>
 7    1  0.3027254E-013  0.7246162E+02  0.7816164E-02  0.1226708E+00
        -11   -1    0    0    0    0  0.00000000000E+00  0.00000000000E+00  0.45593999997E+02  0.45594000000E+02  0.51100000000E-03 0. -1.
         11   -1    0    0    0    0 -0.00000000000E+00 -0.00000000000E+00 -0.45593999997E+02  0.45594000000E+02  0.51100000000E-03 0.  1.
    9900012    2    1    2    0    0 -0.14018043767E+02  0.11428632475E+02 -0.48536671096E+01  0.72461620859E+02  0.70000065870E+02 0.  0.
         12    1    1    2    0    0  0.14018043767E+02 -0.11428632475E+02  0.48536671096E+01  0.18726379141E+02  0.00000000000E+00 0. -1.
         11    1    3    3    0    0 -0.45696777345E+01  0.84290059302E+00  0.54315813132E+01  0.71480425173E+01  0.51100000000E-03 0. -1.
        -11    1    3    3    0    0 -0.29401073473E+02 -0.50230071791E+01  0.11435338062E+02  0.31944024157E+02  0.51100000000E-03 0.  1.
         12    1    3    3    0    0  0.19952707440E+02  0.15608739061E+02 -0.21720586485E+02  0.33369554185E+02  0.00000000000E+00 0. -1.
</event>
<event>
 7    1  0.3027254E-013  0.7246162E+02  0.7816164E-02  0.1226708E+00
        -11   -1    0    0    0    0  0.00000000000E+00  0.00000000000E+00  0.45593999997E+02  0.45594000000E+02  0.51100000000E-03 0. -1.
         11   -1    0    0    0    0 -0.00000000000E+00 -0.00000000000E+00 -0.45593999997E+02  0.45594000000E+02  0.51100000000E-03 0.  1.
    9900012    2    1    2    0    0  0.14549411282E+02  0.11552685597E+02 -0.23510297269E+01  0.72461621441E+02  0.70000066628E+02 0.  0.
         12    1    1    2    0    0 -0.14549411282E+02 -0.11552685597E+02  0.23510297269E+01  0.18726378559E+02  0.00000000000E+00 0. -1.
         11    1    3    3    0    0  0.89622987200E+01  0.70663362912E+00  0.16245722947E+02  0.18567327319E+02  0.51100000000E-03 0. -1.
        -11    1    3    3    0    0  0.16171832971E+02  0.15625175301E+02  0.87921257520E+01  0.24144890978E+02  0.51100000000E-03 0.  1.
        -12    1    3    3    0    0 -0.10584720408E+02 -0.47791233336E+01 -0.27388878426E+02  0.29749403144E+02  0.00000000000E+00 0.  1.
</event>
<event>
 7    1  0.3027254E-013  0.7246147E+02  0.7816164E-02  0.1226708E+00
        -11   -1    0    0    0    0  0.00000000000E+00  0.00000000000E+00  0.45593999997E+02  0.45594000000E+02  0.51100000000E-03 0.  1.
         11   -1    0    0    0    0 -0.00000000000E+00 -0.00000000000E+00 -0.45593999997E+02  0.45594000000E+02  0.51100000000E-03 0. -1.
    9900012    2    1    2    0    0  0.26047552748E+01  0.15304711273E+02  0.10472061415E+02  0.72461467821E+02  0.69999866509E+02 0.  0.
         12    1    1    2    0    0 -0.26047552748E+01 -0.15304711273E+02 -0.10472061415E+02  0.18726532179E+02  0.00000000000E+00 0. -1.
         11    1    3    3    0    0 -0.49117736613E+01  0.23875286057E+02 -0.35528941619E+00  0.24377880048E+02  0.51100000000E-03 0. -1.
        -11    1    3    3    0    0  0.12958112683E+02  0.13473068286E+02  0.16217058110E+02  0.24747307477E+02  0.51100000000E-03 0.  1.
         12    1    3    3    0    0 -0.54415837471E+01 -0.22043643070E+02 -0.53897072791E+01  0.23336280296E+02  0.00000000000E+00 0. -1.
</event>
<event>
 7    1  0.3027254E-013  0.7246150E+02  0.7816164E-02  0.1226708E+00
        -11   -1    0    0    0    0  0.00000000000E+00  0.00000000000E+00  0.45593999997E+02  0.45594000000E+02  0.51100000000E-03 0.  1.
         11   -1    0    0    0    0 -0.00000000000E+00 -0.00000000000E+00 -0.45593999997E+02  0.45594000000E+02  0.51100000000E-03 0. -1.
    9900012    2    1    2    0    0 -0.27129783708E+01 -0.18523023012E+02 -0.46822189707E+00  0.72461498328E+02  0.69999906250E+02 0.  0.
         12    1    1    2    0    0  0.27129783708E+01  0.18523023012E+02  0.46822189707E+00  0.18726501672E+02  0.00000000000E+00 0. -1.
         11    1    3    3    0    0  0.14378835485E+02  0.16088528316E+01 -0.12151322406E+02  0.18894283628E+02  0.51100000000E-03 0. -1.
        -11    1    3    3    0    0  0.54890079120E+01 -0.15397522203E+02 -0.12171717362E+02  0.20380471085E+02  0.51100000000E-03 0.  1.
        -12    1    3    3    0    0 -0.22580821768E+02 -0.47343536403E+01  0.23854817871E+02  0.33186743615E+02  0.00000000000E+00 0.  1.
</event>
<event>
 7    1  0.3027254E-013  0.7246156E+02  0.7816164E-02  0.1226708E+00
        -11   -1    0    0    0    0  0.00000000000E+00  0.00000000000E+00  0.45593999997E+02  0.45594000000E+02  0.51100000000E-03 0. -1.
         11   -1    0    0    0    0 -0.00000000000E+00 -0.00000000000E+00 -0.45593999997E+02  0.45594000000E+02  0.51100000000E-03 0.  1.
    9900012    2    1    2    0    0 -0.59034084982E+00 -0.27272410371E+01 -0.18517377053E+02  0.72461558829E+02  0.69999985064E+02 0.  0.
         12    1    1    2    0    0  0.59034084982E+00  0.27272410371E+01  0.18517377053E+02  0.18726441171E+02  0.00000000000E+00 0. -1.
         11    1    3    3    0    0 -0.28018123039E+01 -0.96765748856E+01 -0.61132856791E+01  0.11783824326E+02  0.51100000000E-03 0. -1.
        -11    1    3    3    0    0 -0.14166105578E+02 -0.50531503995E+01 -0.30161460261E+02  0.33703509632E+02  0.51100000000E-03 0.  1.
         12    1    3    3    0    0  0.16377577032E+02  0.12002484248E+02  0.17757368886E+02  0.26974224870E+02  0.00000000000E+00 0. -1.
</event>
<event>
 7    1  0.3027254E-013  0.7246145E+02  0.7816164E-02  0.1226708E+00
        -11   -1    0    0    0    0  0.00000000000E+00  0.00000000000E+00  0.45593999997E+02  0.45594000000E+02  0.51100000000E-03 0.  1.
         11   -1    0    0    0    0 -0.00000000000E+00 -0.00000000000E+00 -0.45593999997E+02  0.45594000000E+02  0.51100000000E-03 0. -1.
    9900012    2    1    2    0    0  0.53925483935E+01 -0.17683699445E+02  0.29817504253E+01  0.72461450936E+02  0.69999844514E+02 0.  0.
         12    1    1    2    0    0 -0.53925483935E+01  0.17683699445E+02 -0.29817504253E+01  0.18726549064E+02  0.00000000000E+00 0. -1.
         11    1    3    3    0    0 -0.82865422318E+01  0.10203283402E+02  0.11695997381E+02  0.17594605120E+02  0.51100000000E-03 0. -1.
        -11    1    3    3    0    0  0.78918139036E+01  0.72748023182E+01 -0.15239071677E+02  0.18639548849E+02  0.51100000000E-03 0.  1.
        -12    1    3    3    0    0  0.57872767217E+01 -0.35161785165E+02  0.65248247214E+01  0.36227296967E+02  0.00000000000E+00 0.  1.
</event>
<event>
 7    1  0.3027254E-013  0.7246157E+02  0.7816164E-02  0.1226708E+00
        -11   -1    0    0    0    0  0.00000000000E+00  0.00000000000E+00  0.45593999997E+02  0.45594000000E+02  0.51100000000E-03 0. -1.
         11   -1    0    0    0    0 -0.00000000000E+00 -0.00000000000E+00 -0.45593999997E+02  0.45594000000E+02  0.51100000000E-03 0.  1.
    9900012    2    1    2    0    0 -0.17090176710E+02  0.76549968724E+01 -0.77290317995E-01  0.72461572394E+02  0.70000002736E+02 0.  0.
         12    1    1    2    0    0  0.17090176710E+02 -0.76549968724E+01  0.77290317995E-01  0.18726427606E+02  0.00000000000E+00 0. -1.
         11    1    3    3    0    0 -0.34228018643E+02  0.12197444132E+02  0.16939551234E+02  0.40090937877E+02  0.51100000000E-03 0. -1.
        -11    1    3    3    0    0 -0.35129240588E+01 -0.32627664471E+00 -0.92642192511E+01  0.99132663883E+01  0.51100000000E-03 0.  1.
        -12    1    3    3    0    0  0.20650765992E+02 -0.42161706153E+01 -0.77526223011E+01  0.22457368129E+02  0.00000000000E+00 0.  1.
</event>
<event>
 7    1  0.3027254E-013  0.7246153E+02  0.7816164E-02  0.1226708E+00
        -11   -1    0    0    0    0  0.00000000000E+00  0.00000000000E+00  0.45593999997E+02  0.45594000000E+02  0.51100000000E-03 0.  1.
         11   -1    0    0    0    0 -0.00000000000E+00 -0.00000000000E+00 -0.45593999997E+02  0.45594000000E+02  0.51100000000E-03 0. -1.
    9900012    2    1    2    0    0 -0.17552434236E+02  0.56844737536E+01  0.32061583123E+01  0.72461531017E+02  0.69999948834E+02 0.  0.
         12    1    1    2    0    0  0.17552434236E+02 -0.56844737536E+01 -0.32061583123E+01  0.18726468983E+02  0.00000000000E+00 0. -1.
         11    1    3    3    0    0  0.15128008738E+01 -0.25743805503E+01  0.12878244833E+02  0.13219878666E+02  0.51100000000E-03 0. -1.
        -11    1    3    3    0    0 -0.10085496764E+02 -0.14206989470E+02  0.16220566652E+02  0.23804675540E+02  0.51100000000E-03 0.  1.
         12    1    3    3    0    0 -0.89797383455E+01  0.22465843774E+02 -0.25892653172E+02  0.35436976811E+02  0.00000000000E+00 0. -1.
</event>
<event>
 7    1  0.3027254E-013  0.7246145E+02  0.7816164E-02  0.1226708E+00
        -11   -1    0    0    0    0  0.00000000000E+00  0.00000000000E+00  0.45593999997E+02  0.45594000000E+02  0.51100000000E-03 0.  1.
         11   -1    0    0    0    0 -0.00000000000E+00 -0.00000000000E+00 -0.45593999997E+02  0.45594000000E+02  0.51100000000E-03 0. -1.
    9900012    2    1    2    0    0  0.16143943490E+01 -0.16294566061E+02  0.90864971385E+01  0.72461452467E+02  0.69999846508E+02 0.  0.
         12    1    1    2    0    0 -0.16143943490E+01  0.16294566061E+02 -0.90864971385E+01  0.18726547533E+02  0.00000000000E+00 0. -1.
         11    1    3    3    0    0  0.18716365128E+02 -0.19534859816E+02 -0.14896009962E+02  0.30883720383E+02  0.51100000000E-03 0. -1.
        -11    1    3    3    0    0  0.23264238803E+01 -0.89042195581E+01  0.13604808399E+02  0.16425230161E+02  0.51100000000E-03 0.  1.
         12    1    3    3    0    0 -0.19428394660E+02  0.12144513312E+02  0.10377698702E+02  0.25152501923E+02  0.00000000000E+00 0. -1.
</event>
<event>
 7    1  0.3027254E-013  0.7246151E+02  0.7816164E-02  0.1226708E+00
        -11   -1    0    0    0    0  0.00000000000E+00  0.00000000000E+00  0.45593999997E+02  0.45594000000E+02  0.51100000000E-03 0.  1.
         11   -1    0    0    0    0 -0.00000000000E+00 -0.00000000000E+00 -0.45593999997E+02  0.45594000000E+02  0.51100000000E-03 0. -1.
    9900012    2    1    2    0    0  0.17350270488E+02  0.68138764670E+01 -0.17945992416E+01  0.72461511142E+02  0.69999922943E+02 0.  0.
         12    1    1    2    0    0 -0.17350270488E+02 -0.68138764670E+01  0.17945992416E+01  0.18726488858E+02  0.00000000000E+00 0. -1.
         11    1    3    3    0    0  0.13969266847E+01 -0.79438550552E+01  0.21756135357E+02  0.23203139082E+02  0.51100000000E-03 0. -1.
        -11    1    3    3    0    0  0.29546552962E+01  0.62418656455E+01  0.10075506418E+02  0.12215019627E+02  0.51100000000E-03 0.  1.
         12    1    3    3    0    0  0.12998688507E+02  0.85158658767E+01 -0.33626241017E+02  0.37043352433E+02  0.00000000000E+00 0. -1.
</event>
<event>
 7    1  0.3027254E-013  0.7246152E+02  0.7816164E-02  0.1226708E+00
        -11   -1    0    0    0    0  0.00000000000E+00  0.00000000000E+00  0.45593999997E+02  0.45594000000E+02  0.51100000000E-03 0.  1.
         11   -1    0    0    0    0 -0.00000000000E+00 -0.00000000000E+00 -0.45593999997E+02  0.45594000000E+02  0.51100000000E-03 0. -1.
    9900012    2    1    2    0    0  0.17205230805E+02  0.71139930014E+01 -0.20129632533E+01  0.72461524503E+02  0.69999940348E+02 0.  0.
         12    1    1    2    0    0 -0.17205230805E+02 -0.71139930014E+01  0.20129632533E+01  0.18726475497E+02  0.00000000000E+00 0. -1.
         11    1    3    3    0    0 -0.20550143650E+02 -0.10296367709E+01  0.60487162336E+01  0.21446573719E+02  0.51100000000E-03 0. -1.
        -11    1    3    3    0    0 -0.56770481152E+01  0.35583936392E+01 -0.10410753779E+01  0.67804777706E+01  0.51100000000E-03 0.  1.
         12    1    3    3    0    0  0.43432422571E+02  0.45852361331E+01 -0.70206041091E+01  0.44234473014E+02  0.00000000000E+00 0. -1.
</event>
<event>
 7    1  0.3027254E-013  0.7246153E+02  0.7816164E-02  0.1226708E+00
        -11   -1    0    0    0    0  0.00000000000E+00  0.00000000000E+00  0.45593999997E+02  0.45594000000E+02  0.51100000000E-03 0.  1.
         11   -1    0    0    0    0 -0.00000000000E+00 -0.00000000000E+00 -0.45593999997E+02  0.45594000000E+02  0.51100000000E-03 0. -1.
    9900012    2    1    2    0    0  0.80990242860E+01 -0.26430557717E+01 -0.16676350122E+02  0.72461532325E+02  0.69999950537E+02 0.  0.
         12    1    1    2    0    0 -0.80990242860E+01  0.26430557717E+01  0.16676350122E+02  0.18726467675E+02  0.00000000000E+00 0. -1.
         11    1    3    3    0    0 -0.44368706010E+01 -0.54263881909E+01  0.85442669032E+01  0.11051516036E+02  0.51100000000E-03 0. -1.
        -11    1    3    3    0    0  0.26222193824E+02  0.26943874538E+01  0.62508651681E+01  0.27091262213E+02  0.51100000000E-03 0.  1.
         12    1    3    3    0    0 -0.13686298937E+02  0.88944965359E-01 -0.31471482194E+02  0.34318754075E+02  0.00000000000E+00 0. -1.
</event>
<event>
 7    1  0.3027254E-013  0.7246181E+02  0.7816164E-02  0.1226707E+00
        -11   -1    0    0    0    0  0.00000000000E+00  0.00000000000E+00  0.45593999997E+02  0.45594000000E+02  0.51100000000E-03 0. -1.
         11   -1    0    0    0    0 -0.00000000000E+00 -0.00000000000E+00 -0.45593999997E+02  0.45594000000E+02  0.51100000000E-03 0.  1.
    9900012    2    1    2    0    0 -0.14119433685E+01  0.39149441221E+01 -0.18257871330E+02  0.72461808794E+02  0.70000310690E+02 0.  0.
         12    1    1    2    0    0  0.14119433685E+01 -0.39149441221E+01  0.18257871330E+02  0.18726191206E+02  0.00000000000E+00 0. -1.
         11    1    3    3    0    0  0.40466058790E+01 -0.87135454092E+01  0.75307836494E+01  0.12207112491E+02  0.51100000000E-03 0. -1.
        -11    1    3    3    0    0  0.21773928423E+02  0.15481758803E+02 -0.16189981245E+02  0.31239467146E+02  0.51100000000E-03 0.  1.
         12    1    3    3    0    0 -0.27232477670E+02 -0.28532692716E+01 -0.95986737349E+01  0.29015229157E+02  0.00000000000E+00 0. -1.
</event>
<event>
 7    1  0.3027254E-013  0.7246160E+02  0.7816164E-02  0.1226708E+00
        -11   -1    0    0    0    0  0.00000000000E+00  0.00000000000E+00  0.45593999997E+02  0.45594000000E+02  0.51100000000E-03 0. -1.
         11   -1    0    0    0    0 -0.00000000000E+00 -0.00000000000E+00 -0.45593999997E+02  0.45594000000E+02  0.51100000000E-03 0.  1.
    9900012    2    1    2    0    0  0.91854080344E+01 -0.77001111314E+01 -0.14388008459E+02  0.72461595657E+02  0.70000033040E+02 0.  0.
         12    1    1    2    0    0 -0.91854080344E+01  0.77001111314E+01  0.14388008459E+02  0.18726404343E+02  0.00000000000E+00 0. -1.
         11    1    3    3    0    0  0.42574240948E+01  0.38458328621E+01 -0.10046242894E+02  0.11569057303E+02  0.51100000000E-03 0. -1.
        -11    1    3    3    0    0  0.10340886112E+02 -0.26806785468E+02 -0.22551022208E+02  0.36525145799E+02  0.51100000000E-03 0.  1.
         12    1    3    3    0    0 -0.54129021728E+01  0.15260841475E+02  0.18209256644E+02  0.24367392556E+02  0.00000000000E+00 0. -1.
</event>
<event>
 7    1  0.3027254E-013  0.7246162E+02  0.7816164E-02  0.1226708E+00
        -11   -1    0    0    0    0  0.00000000000E+00  0.00000000000E+00  0.45593999997E+02  0.45594000000E+02  0.51100000000E-03 0. -1.
         11   -1    0    0    0    0 -0.00000000000E+00 -0.00000000000E+00 -0.45593999997E+02  0.45594000000E+02  0.51100000000E-03 0.  1.
    9900012    2    1    2    0    0 -0.16157006853E+02  0.92099916372E+01  0.21919530975E+01  0.72461615544E+02  0.70000058946E+02 0.  0.
         12    1    1    2    0    0  0.16157006853E+02 -0.92099916372E+01 -0.21919530975E+01  0.18726384456E+02  0.00000000000E+00 0. -1.
         11    1    3    3    0    0 -0.22947655921E+02  0.63004660860E+00 -0.13233816538E+02  0.26497655961E+02  0.51100000000E-03 0. -1.
        -11    1    3    3    0    0 -0.40429790989E+01  0.14618783325E+02 -0.96578996272E+01  0.17981366227E+02  0.51100000000E-03 0.  1.
         12    1    3    3    0    0  0.10833628166E+02 -0.60388382968E+01  0.25083669263E+02  0.27982593356E+02  0.00000000000E+00 0. -1.
</event>
<event>
 7    1  0.3027254E-013  0.7246157E+02  0.7816164E-02  0.1226708E+00
        -11   -1    0    0    0    0  0.00000000000E+00  0.00000000000E+00  0.45593999997E+02  0.45594000000E+02  0.51100000000E-03 0. -1.
         11   -1    0    0    0    0 -0.00000000000E+00 -0.00000000000E+00 -0.45593999997E+02  0.45594000000E+02  0.51100000000E-03 0.  1.
    9900012    2    1    2    0    0 -0.14967644570E+02 -0.88105469232E+01  0.70016418210E+01  0.72461571904E+02  0.70000002096E+02 0.  0.
         12    1    1    2    0    0  0.14967644570E+02  0.88105469232E+01 -0.70016418210E+01  0.18726428096E+02  0.00000000000E+00 0. -1.
         11    1    3    3    0    0  0.12871630071E+02 -0.17275141400E+02 -0.19004238599E+02  0.28727520882E+02  0.51100000000E-03 0. -1.
        -11    1    3    3    0    0 -0.22408076268E+02 -0.29397668411E+00  0.96440692767E+01  0.24397056725E+02  0.51100000000E-03 0.  1.
        -12    1    3    3    0    0 -0.54311983726E+01  0.87585711605E+01  0.16361811143E+02  0.19336994297E+02  0.00000000000E+00 0.  1.
</event>
<event>
 7    1  0.3027254E-013  0.7246157E+02  0.7816164E-02  0.1226708E+00
        -11   -1    0    0    0    0  0.00000000000E+00  0.00000000000E+00  0.45593999997E+02  0.45594000000E+02  0.51100000000E-03 0.  1.
         11   -1    0    0    0    0 -0.00000000000E+00 -0.00000000000E+00 -0.45593999997E+02  0.45594000000E+02  0.51100000000E-03 0. -1.
    9900012    2    1    2    0    0 -0.29712372051E+01  0.10972574262E+02  0.14881311556E+02  0.72461572949E+02  0.70000003458E+02 0.  0.
         12    1    1    2    0    0  0.29712372051E+01 -0.10972574262E+02 -0.14881311556E+02  0.18726427051E+02  0.00000000000E+00 0. -1.
         11    1    3    3    0    0 -0.52106490607E+01  0.12976462044E+02  0.91455718413E+01  0.16708707771E+02  0.51100000000E-03 0. -1.
        -11    1    3    3    0    0 -0.12691078768E+02  0.67797759995E+01  0.25618443381E+02  0.29382537066E+02  0.51100000000E-03 0.  1.
        -12    1    3    3    0    0  0.14930490623E+02 -0.87836637812E+01 -0.19882703666E+02  0.26370328112E+02  0.00000000000E+00 0.  1.
</event>
<event>
 7    1  0.3027254E-013  0.7246195E+02  0.7816164E-02  0.1226707E+00
        -11   -1    0    0    0    0  0.00000000000E+00  0.00000000000E+00  0.45593999997E+02  0.45594000000E+02  0.51100000000E-03 0.  1.
         11   -1    0    0    0    0 -0.00000000000E+00 -0.00000000000E+00 -0.45593999997E+02  0.45594000000E+02  0.51100000000E-03 0. -1.
    9900012    2    1    2    0    0  0.14331152369E+02 -0.10634464095E+02  0.56737250805E+01  0.72461951001E+02  0.70000495940E+02 0.  0.
         12    1    1    2    0    0 -0.14331152369E+02  0.10634464095E+02 -0.56737250805E+01  0.18726048999E+02  0.00000000000E+00 0. -1.
         11    1    3    3    0    0 -0.84919627896E+00  0.15821394099E+01  0.79695545273E+01  0.81693389609E+01  0.51100000000E-03 0. -1.
        -11    1    3    3    0    0  0.36790135243E+02 -0.11574019400E+02 -0.12285020909E+02  0.40477076417E+02  0.51100000000E-03 0.  1.
         12    1    3    3    0    0 -0.21609786595E+02 -0.64258410452E+00  0.99891914620E+01  0.23815535624E+02  0.00000000000E+00 0. -1.
</event>
<event>
 7    1  0.3027254E-013  0.7246159E+02  0.7816164E-02  0.1226708E+00
        -11   -1    0    0    0    0  0.00000000000E+00  0.00000000000E+00  0.45593999997E+02  0.45594000000E+02  0.51100000000E-03 0.  1.
         11   -1    0    0    0    0 -0.00000000000E+00 -0.00000000000E+00 -0.45593999997E+02  0.45594000000E+02  0.51100000000E-03 0. -1.
    9900012    2    1    2    0    0  0.18380155789E+02  0.24403590934E+01  0.26254592701E+01  0.72461587752E+02  0.70000022741E+02 0.  0.
         12    1    1    2    0    0 -0.18380155789E+02 -0.24403590934E+01 -0.26254592701E+01  0.18726412248E+02  0.00000000000E+00 0. -1.
         11    1    3    3    0    0  0.13926692994E+02  0.14237514844E+01  0.68944134519E+01  0.15604896127E+02  0.51100000000E-03 0. -1.
        -11    1    3    3    0    0 -0.18367423665E+02  0.56699616941E+01  0.16740586625E+02  0.25490350302E+02  0.51100000000E-03 0.  1.
         12    1    3    3    0    0  0.22820886460E+02 -0.46533540851E+01 -0.21009540807E+02  0.31366341322E+02  0.00000000000E+00 0. -1.
</event>
<event>
 7    1  0.3027254E-013  0.7246155E+02  0.7816164E-02  0.1226708E+00
        -11   -1    0    0    0    0  0.00000000000E+00  0.00000000000E+00  0.45593999997E+02  0.45594000000E+02  0.51100000000E-03 0.  1.
         11   -1    0    0    0    0 -0.00000000000E+00 -0.00000000000E+00 -0.45593999997E+02  0.45594000000E+02  0.51100000000E-03 0. -1.
    9900012    2    1    2    0    0 -0.79664692152E+00 -0.10552453684E+02  0.15449625553E+02  0.72461551997E+02  0.69999976164E+02 0.  0.
         12    1    1    2    0    0  0.79664692152E+00  0.10552453684E+02 -0.15449625553E+02  0.18726448003E+02  0.00000000000E+00 0. -1.
         11    1    3    3    0    0 -0.21884990346E+01  0.11819895829E+02  0.10949741557E+02  0.16260267706E+02  0.51100000000E-03 0. -1.
        -11    1    3    3    0    0  0.79458803426E+01  0.11204190611E+02  0.15074586597E+02  0.20393971241E+02  0.51100000000E-03 0.  1.
         12    1    3    3    0    0 -0.65540282296E+01 -0.33576540124E+02 -0.10574702601E+02  0.35807313050E+02  0.00000000000E+00 0. -1.
</event>
<event>
 7    1  0.3027254E-013  0.7246155E+02  0.7816164E-02  0.1226708E+00
        -11   -1    0    0    0    0  0.00000000000E+00  0.00000000000E+00  0.45593999997E+02  0.45594000000E+02  0.51100000000E-03 0.  1.
         11   -1    0    0    0    0 -0.00000000000E+00 -0.00000000000E+00 -0.45593999997E+02  0.45594000000E+02  0.51100000000E-03 0. -1.
    9900012    2    1    2    0    0 -0.17358610305E+02 -0.68022132753E+01 -0.17574192658E+01  0.72461548664E+02  0.69999971823E+02 0.  0.
         12    1    1    2    0    0  0.17358610305E+02  0.68022132753E+01  0.17574192658E+01  0.18726451336E+02  0.00000000000E+00 0. -1.
         11    1    3    3    0    0 -0.63094087057E+01 -0.25415755243E+01  0.56955553985E+01  0.88717301537E+01  0.51100000000E-03 0. -1.
        -11    1    3    3    0    0  0.11265235389E+01  0.27688684222E+02 -0.96112513956E+01  0.29331015034E+02  0.51100000000E-03 0.  1.
         12    1    3    3    0    0 -0.12175725138E+02 -0.31949321974E+02  0.21582767312E+01  0.34258803477E+02  0.00000000000E+00 0. -1.
</event>
<event>
 7    1  0.3027254E-013  0.7246159E+02  0.7816164E-02  0.1226708E+00
        -11   -1    0    0    0    0  0.00000000000E+00  0.00000000000E+00  0.45593999997E+02  0.45594000000E+02  0.51100000000E-03 0.  1.
         11   -1    0    0    0    0 -0.00000000000E+00 -0.00000000000E+00 -0.45593999997E+02  0.45594000000E+02  0.51100000000E-03 0. -1.
    9900012    2    1    2    0    0  0.51439650207E+00 -0.18714858161E+02 -0.40978485585E+00  0.72461589683E+02  0.70000025257E+02 0.  0.
         12    1    1    2    0    0 -0.51439650207E+00  0.18714858161E+02  0.40978485585E+00  0.18726410317E+02  0.00000000000E+00 0. -1.
         11    1    3    3    0    0  0.14156156040E+01  0.24425062235E+01  0.52133779344E+00  0.28708182712E+01  0.51100000000E-03 0. -1.
        -11    1    3    3    0    0  0.22156948045E+02 -0.14759756673E+02 -0.24371479732E+02  0.36093625314E+02  0.51100000000E-03 0.  1.
         12    1    3    3    0    0 -0.23058167146E+02 -0.63976077108E+01  0.23440357082E+02  0.33497146098E+02  0.00000000000E+00 0. -1.
</event>
<event>
 7    1  0.3027254E-013  0.7246151E+02  0.7816164E-02  0.1226708E+00
        -11   -1    0    0    0    0  0.00000000000E+00  0.00000000000E+00  0.45593999997E+02  0.45594000000E+02  0.51100000000E-03 0. -1.
         11   -1    0    0    0    0 -0.00000000000E+00 -0.00000000000E+00 -0.45593999997E+02  0.45594000000E+02  0.51100000000E-03 0.  1.
    9900012    2    1    2    0    0  0.43570131827E+01  0.17680226400E+02 -0.43711983064E+01  0.72461512234E+02  0.69999924365E+02 0.  0.
         12    1    1    2    0    0 -0.43570131827E+01 -0.17680226400E+02  0.43711983064E+01  0.18726487766E+02  0.00000000000E+00 0. -1.
         11    1    3    3    0    0 -0.12444423175E+02  0.27685430158E+02 -0.17256838255E+02  0.34916259508E+02  0.51100000000E-03 0. -1.
        -11    1    3    3    0    0  0.20126954955E+02 -0.51807149684E+01 -0.26406011650E+01  0.20950104967E+02  0.51100000000E-03 0.  1.
        -12    1    3    3    0    0 -0.33255185977E+01 -0.48244887903E+01  0.15526241113E+02  0.16595147759E+02  0.00000000000E+00 0.  1.
</event>
<event>
 7    1  0.3027254E-013  0.7246157E+02  0.7816164E-02  0.1226708E+00
        -11   -1    0    0    0    0  0.00000000000E+00  0.00000000000E+00  0.45593999997E+02  0.45594000000E+02  0.51100000000E-03 0.  1.
         11   -1    0    0    0    0 -0.00000000000E+00 -0.00000000000E+00 -0.45593999997E+02  0.45594000000E+02  0.51100000000E-03 0. -1.
    9900012    2    1    2    0    0 -0.64716692267E+01  0.17492688220E+02 -0.16740779216E+01  0.72461569998E+02  0.69999999614E+02 0.  0.
         12    1    1    2    0    0  0.64716692267E+01 -0.17492688220E+02  0.16740779216E+01  0.18726430002E+02  0.00000000000E+00 0. -1.
         11    1    3    3    0    0 -0.12699436375E+02 -0.95150786481E+01 -0.95480699963E+01  0.18519666488E+02  0.51100000000E-03 0. -1.
        -11    1    3    3    0    0 -0.15078978943E+02 -0.21347696499E+01  0.92437706063E+01  0.17815166087E+02  0.51100000000E-03 0.  1.
        -12    1    3    3    0    0  0.21306746090E+02  0.29142536518E+02 -0.13697785316E+01  0.36126737424E+02  0.00000000000E+00 0.  1.
</event>
<event>
 7    1  0.3027254E-013  0.7246160E+02  0.7816164E-02  0.1226708E+00
        -11   -1    0    0    0    0  0.00000000000E+00  0.00000000000E+00  0.45593999997E+02  0.45594000000E+02  0.51100000000E-03 0.  1.
         11   -1    0    0    0    0 -0.00000000000E+00 -0.00000000000E+00 -0.45593999997E+02  0.45594000000E+02  0.51100000000E-03 0. -1.
    9900012    2    1    2    0    0  0.22165050330E+01  0.13725313508E+02  0.12545160620E+02  0.72461596703E+02  0.70000034403E+02 0.  0.
         12    1    1    2    0    0 -0.22165050330E+01 -0.13725313508E+02 -0.12545160620E+02  0.18726403297E+02  0.00000000000E+00 0. -1.
         11    1    3    3    0    0 -0.50913889217E+01  0.32365060632E+02 -0.12467065430E+02  0.35054915654E+02  0.51100000000E-03 0. -1.
        -11    1    3    3    0    0  0.13525337979E+01  0.40694315209E+01  0.30890765493E+01  0.52850747172E+01  0.51100000000E-03 0.  1.
        -12    1    3    3    0    0  0.59553601568E+01 -0.22709178645E+02  0.21923149500E+02  0.32121606332E+02  0.00000000000E+00 0.  1.
</event>
<event>
 7    1  0.3027254E-013  0.7246146E+02  0.7816164E-02  0.1226708E+00
        -11   -1    0    0    0    0  0.00000000000E+00  0.00000000000E+00  0.45593999997E+02  0.45594000000E+02  0.51100000000E-03 0. -1.
         11   -1    0    0    0    0 -0.00000000000E+00 -0.00000000000E+00 -0.45593999997E+02  0.45594000000E+02  0.51100000000E-03 0.  1.
    9900012    2    1    2    0    0 -0.17393851100E+02 -0.57482162341E+01 -0.38852400980E+01  0.72461464373E+02  0.69999862017E+02 0.  0.
         12    1    1    2    0    0  0.17393851100E+02  0.57482162341E+01  0.38852400980E+01  0.18726535627E+02  0.00000000000E+00 0. -1.
         11    1    3    3    0    0  0.13426884702E+01  0.48177373319E+01  0.13902138744E+02  0.14774399049E+02  0.51100000000E-03 0. -1.
        -11    1    3    3    0    0  0.17461789748E+02 -0.53787754397E+01 -0.49353210030E+01  0.18926244215E+02  0.51100000000E-03 0.  1.
        -12    1    3    3    0    0 -0.36198329318E+02 -0.51871781262E+01 -0.12852057839E+02  0.38760821109E+02  0.00000000000E+00 0.  1.
</event>
<event>
 7    1  0.3027254E-013  0.7246154E+02  0.7816164E-02  0.1226708E+00
        -11   -1    0    0    0    0  0.00000000000E+00  0.00000000000E+00  0.45593999997E+02  0.45594000000E+02  0.51100000000E-03 0.  1.
         11   -1    0    0    0    0 -0.00000000000E+00 -0.00000000000E+00 -0.45593999997E+02  0.45594000000E+02  0.51100000000E-03 0. -1.
    9900012    2    1    2    0    0  0.19364286340E+01  0.18610376692E+02 -0.76455887846E+00  0.72461536726E+02  0.69999956271E+02 0.  0.
         12    1    1    2    0    0 -0.19364286340E+01 -0.18610376692E+02  0.76455887846E+00  0.18726463274E+02  0.00000000000E+00 0. -1.
         11    1    3    3    0    0 -0.19056092878E+02 -0.16437113592E+02 -0.51623891661E+00  0.25171012731E+02  0.51100000000E-03 0. -1.
        -11    1    3    3    0    0  0.45579951209E+00 -0.34142323760E+01 -0.12867040940E+01  0.36770019852E+01  0.51100000000E-03 0.  1.
         12    1    3    3    0    0  0.20536721999E+02  0.38461722661E+02  0.10383841322E+01  0.43613522010E+02  0.00000000000E+00 0. -1.
</event>
<event>
 7    1  0.3027254E-013  0.7246157E+02  0.7816164E-02  0.1226708E+00
        -11   -1    0    0    0    0  0.00000000000E+00  0.00000000000E+00  0.45593999997E+02  0.45594000000E+02  0.51100000000E-03 0. -1.
         11   -1    0    0    0    0 -0.00000000000E+00 -0.00000000000E+00 -0.45593999997E+02  0.45594000000E+02  0.51100000000E-03 0.  1.
    9900012    2    1    2    0    0  0.91871808916E+01  0.11463174722E+02 -0.11613374867E+02  0.72461570996E+02  0.70000000914E+02 0.  0.
         12    1    1    2    0    0 -0.91871808916E+01 -0.11463174722E+02  0.11613374867E+02  0.18726429004E+02  0.00000000000E+00 0. -1.
         11    1    3    3    0    0  0.65261921302E+01 -0.91045288663E+01 -0.54120539131E+01  0.12440818197E+02  0.51100000000E-03 0. -1.
        -11    1    3    3    0    0  0.41620642555E+01  0.37468999624E+02 -0.15395717730E+02  0.40721945390E+02  0.51100000000E-03 0.  1.
         12    1    3    3    0    0 -0.15010754942E+01 -0.16901296035E+02  0.91943967762E+01  0.19298807408E+02  0.00000000000E+00 0. -1.
</event>
<event>
 7    1  0.3027254E-013  0.7246153E+02  0.7816164E-02  0.1226708E+00
        -11   -1    0    0    0    0  0.00000000000E+00  0.00000000000E+00  0.45593999997E+02  0.45594000000E+02  0.51100000000E-03 0.  1.
         11   -1    0    0    0    0 -0.00000000000E+00 -0.00000000000E+00 -0.45593999997E+02  0.45594000000E+02  0.51100000000E-03 0. -1.
    9900012    2    1    2    0    0  0.12479670692E+02  0.35936070399E+00  0.13957408717E+02  0.72461532666E+02  0.69999950982E+02 0.  0.
         12    1    1    2    0    0 -0.12479670692E+02 -0.35936070399E+00 -0.13957408717E+02  0.18726467334E+02  0.00000000000E+00 0. -1.
         11    1    3    3    0    0 -0.74701045955E+01  0.62545971961E+01  0.17301195567E+02  0.19855825772E+02  0.51100000000E-03 0. -1.
        -11    1    3    3    0    0  0.73862490144E+01 -0.11120872670E+02 -0.24237973925E+02  0.27671462984E+02  0.51100000000E-03 0.  1.
         12    1    3    3    0    0  0.12563526274E+02  0.52256361775E+01  0.20894187074E+02  0.24934243910E+02  0.00000000000E+00 0. -1.
</event>
<event>
 7    1  0.3027254E-013  0.7246158E+02  0.7816164E-02  0.1226708E+00
        -11   -1    0    0    0    0  0.00000000000E+00  0.00000000000E+00  0.45593999997E+02  0.45594000000E+02  0.51100000000E-03 0. -1.
         11   -1    0    0    0    0 -0.00000000000E+00 -0.00000000000E+00 -0.45593999997E+02  0.45594000000E+02  0.51100000000E-03 0.  1.
    9900012    2    1    2    0    0 -0.24010530691E+00  0.10856430297E+02  0.15256443027E+02  0.72461580610E+02  0.70000013438E+02 0.  0.
         12    1    1    2    0    0  0.24010530691E+00 -0.10856430297E+02 -0.15256443027E+02  0.18726419390E+02  0.00000000000E+00 0. -1.
         11    1    3    3    0    0 -0.15845086026E+02  0.12576261248E+02  0.29331076179E+01  0.20440944663E+02  0.51100000000E-03 0. -1.
        -11    1    3    3    0    0 -0.14215128224E+01 -0.15220935743E+01 -0.17529631101E+02  0.17652915746E+02  0.51100000000E-03 0.  1.
         12    1    3    3    0    0  0.17026493542E+02 -0.19773737704E+00  0.29852966509E+02  0.34367720201E+02  0.00000000000E+00 0. -1.
</event>
<event>
 7    1  0.3027254E-013  0.7246160E+02  0.7816164E-02  0.1226708E+00
        -11   -1    0    0    0    0  0.00000000000E+00  0.00000000000E+00  0.45593999997E+02  0.45594000000E+02  0.51100000000E-03 0.  1.
         11   -1    0    0    0    0 -0.00000000000E+00 -0.00000000000E+00 -0.45593999997E+02  0.45594000000E+02  0.51100000000E-03 0. -1.
    9900012    2    1    2    0    0 -0.98464610898E+01  0.13413625730E+01  0.15872174223E+02  0.72461602479E+02  0.70000041926E+02 0.  0.
         12    1    1    2    0    0  0.98464610898E+01 -0.13413625730E+01 -0.15872174223E+02  0.18726397521E+02  0.00000000000E+00 0. -1.
         11    1    3    3    0    0  0.69322124786E+01 -0.10816858294E+02  0.16920166580E+02  0.21245047200E+02  0.51100000000E-03 0. -1.
        -11    1    3    3    0    0 -0.31520839305E+02  0.68769555869E+01  0.78526396968E+01  0.33204213274E+02  0.51100000000E-03 0.  1.
         12    1    3    3    0    0  0.14742165737E+02  0.52812652799E+01 -0.89006320531E+01  0.18012342005E+02  0.00000000000E+00 0. -1.
</event>
<event>
 7    1  0.3027254E-013  0.7246162E+02  0.7816164E-02  0.1226708E+00
        -11   -1    0    0    0    0  0.00000000000E+00  0.00000000000E+00  0.45593999997E+02  0.45594000000E+02  0.51100000000E-03 0.  1.
         11   -1    0    0    0    0 -0.00000000000E+00 -0.00000000000E+00 -0.45593999997E+02  0.45594000000E+02  0.51100000000E-03 0. -1.
    9900012    2    1    2    0    0 -0.83864047744E+00  0.18339667646E+02  0.36919620600E+01  0.72461619915E+02  0.70000064640E+02 0.  0.
         12    1    1    2    0    0  0.83864047744E+00 -0.18339667646E+02 -0.36919620600E+01  0.18726380085E+02  0.00000000000E+00 0. -1.
         11    1    3    3    0    0 -0.21349249627E+02  0.16025464784E+02  0.69558179385E+01  0.27586036045E+02  0.51100000000E-03 0. -1.
        -11    1    3    3    0    0 -0.82021792152E+01  0.46890701378E+01  0.94692255647E+01  0.13376447798E+02  0.51100000000E-03 0.  1.
         12    1    3    3    0    0  0.28712788365E+02 -0.23748672757E+01 -0.12733081443E+02  0.31499136073E+02  0.00000000000E+00 0. -1.
</event>
<event>
 7    1  0.3027254E-013  0.7246172E+02  0.7816164E-02  0.1226708E+00
        -11   -1    0    0    0    0  0.00000000000E+00  0.00000000000E+00  0.45593999997E+02  0.45594000000E+02  0.51100000000E-03 0. -1.
         11   -1    0    0    0    0 -0.00000000000E+00 -0.00000000000E+00 -0.45593999997E+02  0.45594000000E+02  0.51100000000E-03 0.  1.
    9900012    2    1    2    0    0  0.66196237185E+01  0.54130814141E+01 -0.16659912655E+02  0.72461720117E+02  0.70000195172E+02 0.  0.
         12    1    1    2    0    0 -0.66196237185E+01 -0.54130814141E+01  0.16659912655E+02  0.18726279883E+02  0.00000000000E+00 0. -1.
         11    1    3    3    0    0  0.94888943599E+01  0.11132753906E+02 -0.77088481180E+00  0.14648262332E+02  0.51100000000E-03 0. -1.
        -11    1    3    3    0    0  0.61132064763E+01  0.22182742591E+02  0.26012966619E+01  0.23156254163E+02  0.51100000000E-03 0.  1.
         12    1    3    3    0    0 -0.89824771177E+01 -0.27902415082E+02 -0.18490324505E+02  0.34657203622E+02  0.00000000000E+00 0. -1.
</event>
<event>
 7    1  0.3027254E-013  0.7246172E+02  0.7816164E-02  0.1226708E+00
        -11   -1    0    0    0    0  0.00000000000E+00  0.00000000000E+00  0.45593999997E+02  0.45594000000E+02  0.51100000000E-03 0. -1.
         11   -1    0    0    0    0 -0.00000000000E+00 -0.00000000000E+00 -0.45593999997E+02  0.45594000000E+02  0.51100000000E-03 0.  1.
    9900012    2    1    2    0    0 -0.47124338788E+01 -0.17934217492E+02  0.26135336000E+01  0.72461715051E+02  0.70000188572E+02 0.  0.
         12    1    1    2    0    0  0.47124338788E+01  0.17934217492E+02 -0.26135336000E+01  0.18726284949E+02  0.00000000000E+00 0. -1.
         11    1    3    3    0    0 -0.21067179834E+02 -0.21261310622E+01  0.78951139061E+01  0.22598215047E+02  0.51100000000E-03 0. -1.
        -11    1    3    3    0    0 -0.51996192100E+01 -0.23802378398E+02 -0.10101083773E+02  0.26374630822E+02  0.51100000000E-03 0.  1.
         12    1    3    3    0    0  0.21554365166E+02  0.79942919676E+01  0.48195034673E+01  0.23488869182E+02  0.00000000000E+00 0. -1.
</event>
<event>
 7    1  0.3027254E-013  0.7246158E+02  0.7816164E-02  0.1226708E+00
        -11   -1    0    0    0    0  0.00000000000E+00  0.00000000000E+00  0.45593999997E+02  0.45594000000E+02  0.51100000000E-03 0.  1.
         11   -1    0    0    0    0 -0.00000000000E+00 -0.00000000000E+00 -0.45593999997E+02  0.45594000000E+02  0.51100000000E-03 0. -1.
    9900012    2    1    2    0    0  0.12433556661E+02  0.10543567528E+02  0.92151377619E+01  0.72461577185E+02  0.70000008977E+02 0.  0.
         12    1    1    2    0    0 -0.12433556661E+02 -0.10543567528E+02 -0.92151377619E+01  0.18726422815E+02  0.00000000000E+00 0. -1.
         11    1    3    3    0    0  0.16710296364E+01  0.14093996862E+01  0.38609114325E+01  0.44368214830E+01  0.51100000000E-03 0. -1.
        -11    1    3    3    0    0  0.34481624590E+02  0.11871639034E+02  0.18367314518E+02  0.40832297151E+02  0.51100000000E-03 0.  1.
         12    1    3    3    0    0 -0.23719097566E+02 -0.27374711923E+01 -0.13013088189E+02  0.27192458552E+02  0.00000000000E+00 0. -1.
</event>
<event>
 7    1  0.3027254E-013  0.7246155E+02  0.7816164E-02  0.1226708E+00
        -11   -1    0    0    0    0  0.00000000000E+00  0.00000000000E+00  0.45593999997E+02  0.45594000000E+02  0.51100000000E-03 0. -1.
         11   -1    0    0    0    0 -0.00000000000E+00 -0.00000000000E+00 -0.45593999997E+02  0.45594000000E+02  0.51100000000E-03 0.  1.
    9900012    2    1    2    0    0  0.12824537551E+02  0.99671906353E+01 -0.93202152643E+01  0.72461546381E+02  0.69999968849E+02 0.  0.
         12    1    1    2    0    0 -0.12824537551E+02 -0.99671906353E+01  0.93202152643E+01  0.18726453619E+02  0.00000000000E+00 0. -1.
         11    1    3    3    0    0 -0.11411106673E+02 -0.19971730288E+01 -0.20567561757E+02  0.23605648741E+02  0.51100000000E-03 0. -1.
        -11    1    3    3    0    0  0.48863563983E+01 -0.10727171564E+02 -0.71785404588E+01  0.13801453981E+02  0.51100000000E-03 0.  1.
        -12    1    3    3    0    0  0.19349287825E+02  0.22691535228E+02  0.18425886951E+02  0.35054443660E+02  0.00000000000E+00 0.  1.
</event>
<event>
 7    1  0.3027254E-013  0.7246161E+02  0.7816164E-02  0.1226708E+00
        -11   -1    0    0    0    0  0.00000000000E+00  0.00000000000E+00  0.45593999997E+02  0.45594000000E+02  0.51100000000E-03 0.  1.
         11   -1    0    0    0    0 -0.00000000000E+00 -0.00000000000E+00 -0.45593999997E+02  0.45594000000E+02  0.51100000000E-03 0. -1.
    9900012    2    1    2    0    0 -0.16231890385E+02  0.19806272435E+01  0.91258247005E+01  0.72461606161E+02  0.70000046723E+02 0.  0.
         12    1    1    2    0    0  0.16231890385E+02 -0.19806272435E+01 -0.91258247005E+01  0.18726393839E+02  0.00000000000E+00 0. -1.
         11    1    3    3    0    0  0.66039749072E+01 -0.84494903340E+01 -0.37852926854E+01  0.11372546437E+02  0.51100000000E-03 0. -1.
        -11    1    3    3    0    0 -0.21039508390E+02 -0.15742182646E+02 -0.80796106565E+01  0.27491041020E+02  0.51100000000E-03 0.  1.
        -12    1    3    3    0    0 -0.17963569021E+01  0.26172300224E+02  0.20990728042E+02  0.33598018704E+02  0.00000000000E+00 0.  1.
</event>
<event>
 7    1  0.3027254E-013  0.7246157E+02  0.7816164E-02  0.1226708E+00
        -11   -1    0    0    0    0  0.00000000000E+00  0.00000000000E+00  0.45593999997E+02  0.45594000000E+02  0.51100000000E-03 0. -1.
         11   -1    0    0    0    0 -0.00000000000E+00 -0.00000000000E+00 -0.45593999997E+02  0.45594000000E+02  0.51100000000E-03 0.  1.
    9900012    2    1    2    0    0  0.15997465306E+02 -0.79659347658E+01 -0.55950051397E+01  0.72461572273E+02  0.70000002578E+02 0.  0.
         12    1    1    2    0    0 -0.15997465306E+02  0.79659347658E+01  0.55950051397E+01  0.18726427727E+02  0.00000000000E+00 0. -1.
         11    1    3    3    0    0  0.18489807317E+01 -0.14734268741E+02 -0.91775035843E+01  0.17456917751E+02  0.51100000000E-03 0. -1.
        -11    1    3    3    0    0  0.16505887906E+01 -0.20832458071E+02 -0.82641248120E+01  0.22472461187E+02  0.51100000000E-03 0.  1.
         12    1    3    3    0    0  0.12497895783E+02  0.27600792046E+02  0.11846623257E+02  0.32532193335E+02  0.00000000000E+00 0. -1.
</event>
<event>
 7    1  0.3027254E-013  0.7246158E+02  0.7816164E-02  0.1226708E+00
        -11   -1    0    0    0    0  0.00000000000E+00  0.00000000000E+00  0.45593999997E+02  0.45594000000E+02  0.51100000000E-03 0. -1.
         11   -1    0    0    0    0 -0.00000000000E+00 -0.00000000000E+00 -0.45593999997E+02  0.45594000000E+02  0.51100000000E-03 0.  1.
    9900012    2    1    2    0    0 -0.97372164265E+01 -0.63068645071E+01  0.14699956026E+02  0.72461584678E+02  0.70000018737E+02 0.  0.
         12    1    1    2    0    0  0.97372164265E+01  0.63068645071E+01 -0.14699956026E+02  0.18726415322E+02  0.00000000000E+00 0. -1.
         11    1    3    3    0    0  0.18266815852E+02 -0.11192727187E+01  0.31830264045E+01  0.18575817348E+02  0.51100000000E-03 0. -1.
        -11    1    3    3    0    0  0.10841565446E+02 -0.50600794412E+01  0.89758590355E+01  0.14956937887E+02  0.51100000000E-03 0.  1.
        -12    1    3    3    0    0 -0.38845597725E+02 -0.12751234721E+00  0.25410705861E+01  0.38928829442E+02  0.00000000000E+00 0.  1.
</event>
<event>
 7    1  0.3027254E-013  0.7246156E+02  0.7816164E-02  0.1226708E+00
        -11   -1    0    0    0    0  0.00000000000E+00  0.00000000000E+00  0.45593999997E+02  0.45594000000E+02  0.51100000000E-03 0.  1.
         11   -1    0    0    0    0 -0.00000000000E+00 -0.00000000000E+00 -0.45593999997E+02  0.45594000000E+02  0.51100000000E-03 0. -1.
    9900012    2    1    2    0    0  0.18243209958E+02  0.42207605761E+01 -0.22389372583E+00  0.72461557257E+02  0.69999983016E+02 0.  0.
         12    1    1    2    0    0 -0.18243209958E+02 -0.42207605761E+01  0.22389372583E+00  0.18726442743E+02  0.00000000000E+00 0. -1.
         11    1    3    3    0    0  0.28821870806E+02  0.57979991895E+01 -0.75354993834E+01  0.30349642215E+02  0.51100000000E-03 0. -1.
        -11    1    3    3    0    0  0.13501068003E+02  0.76361632323E+01  0.85992836799E+00  0.15534777218E+02  0.51100000000E-03 0.  1.
         12    1    3    3    0    0 -0.24079728851E+02 -0.92134018457E+01  0.64516772895E+01  0.26577137825E+02  0.00000000000E+00 0. -1.
</event>
<event>
 7    1  0.3027254E-013  0.7246193E+02  0.7816164E-02  0.1226707E+00
        -11   -1    0    0    0    0  0.00000000000E+00  0.00000000000E+00  0.45593999997E+02  0.45594000000E+02  0.51100000000E-03 0. -1.
         11   -1    0    0    0    0 -0.00000000000E+00 -0.00000000000E+00 -0.45593999997E+02  0.45594000000E+02  0.51100000000E-03 0.  1.
    9900012    2    1    2    0    0 -0.45295781018E+01 -0.20922932455E+01 -0.18049122259E+02  0.72461933058E+02  0.70000472565E+02 0.  0.
         12    1    1    2    0    0  0.45295781018E+01  0.20922932455E+01  0.18049122259E+02  0.18726066942E+02  0.00000000000E+00 0. -1.
         11    1    3    3    0    0  0.71331057360E+01 -0.13144711361E+02 -0.80531066260E+01  0.16985792910E+02  0.51100000000E-03 0. -1.
        -11    1    3    3    0    0  0.10583763511E+02 -0.41044580795E+01 -0.22948783876E+02  0.25602916003E+02  0.51100000000E-03 0.  1.
         12    1    3    3    0    0 -0.22246447349E+02  0.15156876195E+02  0.12952768243E+02  0.29873224145E+02  0.00000000000E+00 0. -1.
</event>
<event>
 7    1  0.3027254E-013  0.7246160E+02  0.7816164E-02  0.1226708E+00
        -11   -1    0    0    0    0  0.00000000000E+00  0.00000000000E+00  0.45593999997E+02  0.45594000000E+02  0.51100000000E-03 0.  1.
         11   -1    0    0    0    0 -0.00000000000E+00 -0.00000000000E+00 -0.45593999997E+02  0.45594000000E+02  0.51100000000E-03 0. -1.
    9900012    2    1    2    0    0  0.31515607191E+01  0.27243157759E+01  0.18257157987E+02  0.72461600208E+02  0.70000038968E+02 0.  0.
         12    1    1    2    0    0 -0.31515607191E+01 -0.27243157759E+01 -0.18257157987E+02  0.18726399792E+02  0.00000000000E+00 0. -1.
         11    1    3    3    0    0 -0.10818985736E+02 -0.56756538068E+01 -0.10910035436E+02  0.16379632840E+02  0.51100000000E-03 0. -1.
        -11    1    3    3    0    0  0.29325908274E+02 -0.13134907278E+01  0.21369839577E+02  0.36309836103E+02  0.51100000000E-03 0.  1.
         12    1    3    3    0    0 -0.15355361819E+02  0.97134603105E+01  0.77973538456E+01  0.19772131266E+02  0.00000000000E+00 0. -1.
</event>
<event>
 7    1  0.3027254E-013  0.7246181E+02  0.7816164E-02  0.1226707E+00
        -11   -1    0    0    0    0  0.00000000000E+00  0.00000000000E+00  0.45593999997E+02  0.45594000000E+02  0.51100000000E-03 0. -1.
         11   -1    0    0    0    0 -0.00000000000E+00 -0.00000000000E+00 -0.45593999997E+02  0.45594000000E+02  0.51100000000E-03 0.  1.
    9900012    2    1    2    0    0  0.16511547149E+02  0.11036091517E+01 -0.87647633146E+01  0.72461809294E+02  0.70000311340E+02 0.  0.
         12    1    1    2    0    0 -0.16511547149E+02 -0.11036091517E+01  0.87647633146E+01  0.18726190706E+02  0.00000000000E+00 0. -1.
         11    1    3    3    0    0  0.42888465454E+01  0.26490107409E+02  0.75800737811E+01  0.27885076905E+02  0.51100000000E-03 0. -1.
        -11    1    3    3    0    0  0.10191160523E+02 -0.11209677895E+01 -0.17408297761E+02  0.20203097604E+02  0.51100000000E-03 0.  1.
        -12    1    3    3    0    0  0.20315400803E+01 -0.24265530468E+02  0.10634606657E+01  0.24373634784E+02  0.00000000000E+00 0.  1.
</event>
<event>
 7    1  0.3027254E-013  0.7246159E+02  0.7816164E-02  0.1226708E+00
        -11   -1    0    0    0    0  0.00000000000E+00  0.00000000000E+00  0.45593999997E+02  0.45594000000E+02  0.51100000000E-03 0. -1.
         11   -1    0    0    0    0 -0.00000000000E+00 -0.00000000000E+00 -0.45593999997E+02  0.45594000000E+02  0.51100000000E-03 0.  1.
    9900012    2    1    2    0    0  0.98323716982E+01  0.15662191591E+02  0.29493401327E+01  0.72461591218E+02  0.70000027257E+02 0.  0.
         12    1    1    2    0    0 -0.98323716982E+01 -0.15662191591E+02 -0.29493401327E+01  0.18726408782E+02  0.00000000000E+00 0. -1.
         11    1    3    3    0    0 -0.74861620877E+01 -0.24283258424E+00  0.20006496521E+02  0.21362619076E+02  0.51100000000E-03 0. -1.
        -11    1    3    3    0    0  0.21160158111E+02  0.28076112099E+02 -0.10180930060E+02  0.36601525911E+02  0.51100000000E-03 0.  1.
         12    1    3    3    0    0 -0.38416243248E+01 -0.12171087924E+02 -0.68762263284E+01  0.14497446231E+02  0.00000000000E+00 0. -1.
</event>
<event>
 7    1  0.3027254E-013  0.7246158E+02  0.7816164E-02  0.1226708E+00
        -11   -1    0    0    0    0  0.00000000000E+00  0.00000000000E+00  0.45593999997E+02  0.45594000000E+02  0.51100000000E-03 0. -1.
         11   -1    0    0    0    0 -0.00000000000E+00 -0.00000000000E+00 -0.45593999997E+02  0.45594000000E+02  0.51100000000E-03 0.  1.
    9900012    2    1    2    0    0 -0.72615424069E+01  0.13775101115E+02 -0.10401693440E+02  0.72461584559E+02  0.70000018582E+02 0.  0.
         12    1    1    2    0    0  0.72615424069E+01 -0.13775101115E+02  0.10401693440E+02  0.18726415441E+02  0.00000000000E+00 0. -1.
         11    1    3    3    0    0  0.88895422256E+01 -0.39313047669E+01  0.73618429787E+01  0.12193270704E+02  0.51100000000E-03 0. -1.
        -11    1    3    3    0    0 -0.12625028979E+01  0.19100168840E+02  0.14957165748E+02  0.24292533231E+02  0.51100000000E-03 0.  1.
         12    1    3    3    0    0 -0.14888581735E+02 -0.13937629583E+01 -0.32720702167E+02  0.35975780624E+02  0.00000000000E+00 0. -1.
</event>
<event>
 7    1  0.3027254E-013  0.7246148E+02  0.7816164E-02  0.1226708E+00
        -11   -1    0    0    0    0  0.00000000000E+00  0.00000000000E+00  0.45593999997E+02  0.45594000000E+02  0.51100000000E-03 0. -1.
         11   -1    0    0    0    0 -0.00000000000E+00 -0.00000000000E+00 -0.45593999997E+02  0.45594000000E+02  0.51100000000E-03 0.  1.
    9900012    2    1    2    0    0  0.63596271460E+01  0.16375626919E+01 -0.17537273828E+02  0.72461482910E+02  0.69999886165E+02 0.  0.
         12    1    1    2    0    0 -0.63596271460E+01 -0.16375626919E+01  0.17537273828E+02  0.18726517090E+02  0.00000000000E+00 0. -1.
         11    1    3    3    0    0  0.21351371543E+02 -0.19437809613E+02 -0.10432491691E+02  0.30700918430E+02  0.51100000000E-03 0. -1.
        -11    1    3    3    0    0  0.95716349633E+01  0.48442383290E+01 -0.60147159535E+01  0.12298766163E+02  0.51100000000E-03 0.  1.
        -12    1    3    3    0    0 -0.24563379360E+02  0.16231133976E+02 -0.10900661842E+01  0.29461798317E+02  0.00000000000E+00 0.  1.
</event>
<event>
 7    1  0.3027254E-013  0.7246156E+02  0.7816164E-02  0.1226708E+00
        -11   -1    0    0    0    0  0.00000000000E+00  0.00000000000E+00  0.45593999997E+02  0.45594000000E+02  0.51100000000E-03 0.  1.
         11   -1    0    0    0    0 -0.00000000000E+00 -0.00000000000E+00 -0.45593999997E+02  0.45594000000E+02  0.51100000000E-03 0. -1.
    9900012    2    1    2    0    0 -0.76782768196E+01 -0.11868252580E+02  0.12282848734E+02  0.72461555403E+02  0.69999980601E+02 0.  0.
         12    1    1    2    0    0  0.76782768196E+01  0.11868252580E+02 -0.12282848734E+02  0.18726444597E+02  0.00000000000E+00 0. -1.
         11    1    3    3    0    0 -0.26605023854E+02 -0.12938565232E+01  0.15292394596E+02  0.30714144815E+02  0.51100000000E-03 0. -1.
        -11    1    3    3    0    0  0.12772677574E+02 -0.15994159837E+02  0.12656171473E+02  0.24065184768E+02  0.51100000000E-03 0.  1.
        -12    1    3    3    0    0  0.61540694596E+01  0.54197637801E+01 -0.15665717335E+02  0.17682225820E+02  0.00000000000E+00 0.  1.
</event>
<event>
 7    1  0.3027254E-013  0.7246155E+02  0.7816164E-02  0.1226708E+00
        -11   -1    0    0    0    0  0.00000000000E+00  0.00000000000E+00  0.45593999997E+02  0.45594000000E+02  0.51100000000E-03 0. -1.
         11   -1    0    0    0    0 -0.00000000000E+00 -0.00000000000E+00 -0.45593999997E+02  0.45594000000E+02  0.51100000000E-03 0.  1.
    9900012    2    1    2    0    0  0.14744702946E+02 -0.10567375972E+02  0.46480365414E+01  0.72461549627E+02  0.69999973077E+02 0.  0.
         12    1    1    2    0    0 -0.14744702946E+02  0.10567375972E+02 -0.46480365414E+01  0.18726450373E+02  0.00000000000E+00 0. -1.
         11    1    3    3    0    0  0.44948564002E+01 -0.78493339428E+01  0.70989272264E+01  0.11498284456E+02  0.51100000000E-03 0. -1.
        -11    1    3    3    0    0  0.10242175147E+02 -0.29582596333E+02 -0.10332276564E+02  0.32966469280E+02  0.51100000000E-03 0.  1.
        -12    1    3    3    0    0  0.76713978993E-02  0.26864554303E+02  0.78813858790E+01  0.27996795891E+02  0.00000000000E+00 0.  1.
</event>
<event>
 7    1  0.3027254E-013  0.7246153E+02  0.7816164E-02  0.1226708E+00
        -11   -1    0    0    0    0  0.00000000000E+00  0.00000000000E+00  0.45593999997E+02  0.45594000000E+02  0.51100000000E-03 0.  1.
         11   -1    0    0    0    0 -0.00000000000E+00 -0.00000000000E+00 -0.45593999997E+02  0.45594000000E+02  0.51100000000E-03 0. -1.
    9900012    2    1    2    0    0  0.13309422465E+02  0.12503705207E+02  0.41469413120E+01  0.72461534971E+02  0.69999953984E+02 0.  0.
         12    1    1    2    0    0 -0.13309422465E+02 -0.12503705207E+02 -0.41469413120E+01  0.18726465029E+02  0.00000000000E+00 0. -1.
         11    1    3    3    0    0 -0.12328498152E+01  0.20659615832E+02 -0.11037922075E+02  0.23455817380E+02  0.51100000000E-03 0. -1.
        -11    1    3    3    0    0 -0.94124208785E+01  0.52798584126E+01 -0.76985434443E+01  0.13256626384E+02  0.51100000000E-03 0.  1.
        -12    1    3    3    0    0  0.23954693158E+02 -0.13435769037E+02  0.22883406831E+02  0.35749091207E+02  0.00000000000E+00 0.  1.
</event>
<event>
 7    1  0.4314754E-013  0.7246158E+02  0.7816164E-02  0.1226708E+00
        -11   -1    0    0    0    0  0.00000000000E+00  0.00000000000E+00  0.45593999997E+02  0.45594000000E+02  0.51100000000E-03 0. -1.
         11   -1    0    0    0    0 -0.00000000000E+00 -0.00000000000E+00 -0.45593999997E+02  0.45594000000E+02  0.51100000000E-03 0.  1.
    9900012    2    1    2    0    0  0.15843657160E+02 -0.98963916240E+01  0.13110359459E+01  0.72461578702E+02  0.70000010953E+02 0.  0.
         12    1    1    2    0    0 -0.15843657160E+02  0.98963916240E+01 -0.13110359459E+01  0.18726421298E+02  0.00000000000E+00 0. -1.
         11    1    3    3    0    0 -0.52080414228E+01 -0.13102251303E+02  0.63622847097E+01  0.15468398484E+02  0.51100000000E-03 0. -1.
        -11    1    3    3    0    0  0.28378002783E+02 -0.18430415837E+02 -0.45715197823E+01  0.34145132351E+02  0.51100000000E-03 0.  1.
         12    1    3    3    0    0 -0.73263042006E+01  0.21636275516E+02 -0.47972898156E+00  0.22848047867E+02  0.00000000000E+00 0. -1.
</event>
<event>
 7    1  0.3027254E-013  0.7246158E+02  0.7816164E-02  0.1226708E+00
        -11   -1    0    0    0    0  0.00000000000E+00  0.00000000000E+00  0.45593999997E+02  0.45594000000E+02  0.51100000000E-03 0. -1.
         11   -1    0    0    0    0 -0.00000000000E+00 -0.00000000000E+00 -0.45593999997E+02  0.45594000000E+02  0.51100000000E-03 0.  1.
    9900012    2    1    2    0    0  0.27952683570E+00  0.14974314113E+02 -0.11241473440E+02  0.72461576329E+02  0.70000007862E+02 0.  0.
         12    1    1    2    0    0 -0.27952683570E+00 -0.14974314113E+02  0.11241473440E+02  0.18726423671E+02  0.00000000000E+00 0. -1.
         11    1    3    3    0    0 -0.24397177332E+02  0.10537326348E+02 -0.43011289987E+01  0.26921315333E+02  0.51100000000E-03 0. -1.
        -11    1    3    3    0    0 -0.94837169216E+01 -0.47769770483E+00  0.23845115579E+01  0.97905555194E+01  0.51100000000E-03 0.  1.
        -12    1    3    3    0    0  0.34160421090E+02  0.49146854703E+01 -0.93248559988E+01  0.35749705477E+02  0.00000000000E+00 0.  1.
</event>
<event>
 7    1  0.3027254E-013  0.7246159E+02  0.7816164E-02  0.1226708E+00
        -11   -1    0    0    0    0  0.00000000000E+00  0.00000000000E+00  0.45593999997E+02  0.45594000000E+02  0.51100000000E-03 0.  1.
         11   -1    0    0    0    0 -0.00000000000E+00 -0.00000000000E+00 -0.45593999997E+02  0.45594000000E+02  0.51100000000E-03 0. -1.
    9900012    2    1    2    0    0  0.94367269207E+01  0.35646854845E+01  0.15777189495E+02  0.72461588012E+02  0.70000023080E+02 0.  0.
         12    1    1    2    0    0 -0.94367269207E+01 -0.35646854845E+01 -0.15777189495E+02  0.18726411988E+02  0.00000000000E+00 0. -1.
         11    1    3    3    0    0  0.76523034236E+01  0.69306666338E+01 -0.12109044136E+02  0.15912914184E+02  0.51100000000E-03 0. -1.
        -11    1    3    3    0    0  0.12632001273E+02 -0.23241652261E+02  0.16806646343E+02  0.31340153438E+02  0.51100000000E-03 0.  1.
         12    1    3    3    0    0 -0.10847577776E+02  0.19875671112E+02  0.11079587289E+02  0.25208520390E+02  0.00000000000E+00 0. -1.
</event>
<event>
 7    1  0.3027254E-013  0.7246157E+02  0.7816164E-02  0.1226708E+00
        -11   -1    0    0    0    0  0.00000000000E+00  0.00000000000E+00  0.45593999997E+02  0.45594000000E+02  0.51100000000E-03 0. -1.
         11   -1    0    0    0    0 -0.00000000000E+00 -0.00000000000E+00 -0.45593999997E+02  0.45594000000E+02  0.51100000000E-03 0.  1.
    9900012    2    1    2    0    0 -0.72730158491E+01 -0.91962867173E+01 -0.14601741544E+02  0.72461566676E+02  0.69999995287E+02 0.  0.
         12    1    1    2    0    0  0.72730158491E+01  0.91962867173E+01  0.14601741544E+02  0.18726433324E+02  0.00000000000E+00 0. -1.
         11    1    3    3    0    0 -0.17254255354E+02  0.55110647680E+01 -0.29696635970E+02  0.34784642457E+02  0.51100000000E-03 0. -1.
        -11    1    3    3    0    0 -0.77049459024E+01 -0.61707162659E+01 -0.36536273668E+01  0.10525821763E+02  0.51100000000E-03 0.  1.
         12    1    3    3    0    0  0.17686185408E+02 -0.85366352194E+01  0.18748521793E+02  0.27151102456E+02  0.00000000000E+00 0. -1.
</event>
<event>
 7    1  0.3027254E-013  0.7246159E+02  0.7816164E-02  0.1226708E+00
        -11   -1    0    0    0    0  0.00000000000E+00  0.00000000000E+00  0.45593999997E+02  0.45594000000E+02  0.51100000000E-03 0.  1.
         11   -1    0    0    0    0 -0.00000000000E+00 -0.00000000000E+00 -0.45593999997E+02  0.45594000000E+02  0.51100000000E-03 0. -1.
    9900012    2    1    2    0    0 -0.72827705166E+01 -0.11368822255E+02  0.12976503045E+02  0.72461588247E+02  0.70000023387E+02 0.  0.
         12    1    1    2    0    0  0.72827705166E+01  0.11368822255E+02 -0.12976503045E+02  0.18726411753E+02  0.00000000000E+00 0. -1.
         11    1    3    3    0    0 -0.78913562066E+01  0.24056768893E+02  0.71628831834E+01  0.26311756462E+02  0.51100000000E-03 0. -1.
        -11    1    3    3    0    0 -0.68244793800E+01  0.13901298263E+01  0.50157665239E+01  0.85827672592E+01  0.51100000000E-03 0.  1.
        -12    1    3    3    0    0  0.74330650700E+01 -0.36815720974E+02  0.79785333743E+00  0.37567064526E+02  0.00000000000E+00 0.  1.
</event>
<event>
 7    1  0.3027254E-013  0.7246156E+02  0.7816164E-02  0.1226708E+00
        -11   -1    0    0    0    0  0.00000000000E+00  0.00000000000E+00  0.45593999997E+02  0.45594000000E+02  0.51100000000E-03 0.  1.
         11   -1    0    0    0    0 -0.00000000000E+00 -0.00000000000E+00 -0.45593999997E+02  0.45594000000E+02  0.51100000000E-03 0. -1.
    9900012    2    1    2    0    0  0.47260031218E+01  0.13473567871E+02  0.12116407201E+02  0.72461562535E+02  0.69999989891E+02 0.  0.
         12    1    1    2    0    0 -0.47260031218E+01 -0.13473567871E+02 -0.12116407201E+02  0.18726437465E+02  0.00000000000E+00 0. -1.
         11    1    3    3    0    0  0.58291242225E+01  0.61955634793E+01 -0.18210176965E+02  0.20099110462E+02  0.51100000000E-03 0. -1.
        -11    1    3    3    0    0 -0.50681121009E+01 -0.28766935049E+01 -0.94591783075E+01  0.11110228634E+02  0.51100000000E-03 0.  1.
        -12    1    3    3    0    0  0.39649910002E+01  0.10154697897E+02  0.39785762473E+02  0.41252223438E+02  0.00000000000E+00 0.  1.
</event>
<event>
 7    1  0.3027254E-013  0.7246158E+02  0.7816164E-02  0.1226708E+00
        -11   -1    0    0    0    0  0.00000000000E+00  0.00000000000E+00  0.45593999997E+02  0.45594000000E+02  0.51100000000E-03 0.  1.
         11   -1    0    0    0    0 -0.00000000000E+00 -0.00000000000E+00 -0.45593999997E+02  0.45594000000E+02  0.51100000000E-03 0. -1.
    9900012    2    1    2    0    0 -0.14002646324E+02 -0.90952890512E+01  0.84782380257E+01  0.72461577303E+02  0.70000009130E+02 0.  0.
         12    1    1    2    0    0  0.14002646324E+02  0.90952890512E+01 -0.84782380257E+01  0.18726422697E+02  0.00000000000E+00 0. -1.
         11    1    3    3    0    0 -0.27740101809E+01 -0.15800793067E+01  0.13708446434E+02  0.14075272182E+02  0.51100000000E-03 0. -1.
        -11    1    3    3    0    0 -0.73745747200E+01 -0.91613488617E+01  0.25125976368E+02  0.27742194469E+02  0.51100000000E-03 0.  1.
         12    1    3    3    0    0 -0.38540614230E+01  0.16461391172E+01 -0.30356184777E+02  0.30644110652E+02  0.00000000000E+00 0. -1.
</event>
<event>
 7    1  0.3027254E-013  0.7246158E+02  0.7816164E-02  0.1226708E+00
        -11   -1    0    0    0    0  0.00000000000E+00  0.00000000000E+00  0.45593999997E+02  0.45594000000E+02  0.51100000000E-03 0. -1.
         11   -1    0    0    0    0 -0.00000000000E+00 -0.00000000000E+00 -0.45593999997E+02  0.45594000000E+02  0.51100000000E-03 0.  1.
    9900012    2    1    2    0    0  0.13762496455E+02  0.12695825598E+02  0.29736466828E+00  0.72461582243E+02  0.70000015565E+02 0.  0.
         12    1    1    2    0    0 -0.13762496455E+02 -0.12695825598E+02 -0.29736466828E+00  0.18726417757E+02  0.00000000000E+00 0. -1.
         11    1    3    3    0    0  0.82606747825E+01  0.54372038329E+01 -0.96891105635E+00  0.99368366334E+01  0.51100000000E-03 0. -1.
        -11    1    3    3    0    0  0.27958077643E+02  0.22058113766E+02  0.30969718396E+00  0.35613345827E+02  0.51100000000E-03 0.  1.
         12    1    3    3    0    0 -0.22456255971E+02 -0.14799492001E+02  0.95657854067E+00  0.26911399782E+02  0.00000000000E+00 0. -1.
</event>
<event>
 7    1  0.3027254E-013  0.7246159E+02  0.7816164E-02  0.1226708E+00
        -11   -1    0    0    0    0  0.00000000000E+00  0.00000000000E+00  0.45593999997E+02  0.45594000000E+02  0.51100000000E-03 0. -1.
         11   -1    0    0    0    0 -0.00000000000E+00 -0.00000000000E+00 -0.45593999997E+02  0.45594000000E+02  0.51100000000E-03 0.  1.
    9900012    2    1    2    0    0 -0.13664266874E+01 -0.16024804547E+02 -0.95925536442E+01  0.72461586353E+02  0.70000020919E+02 0.  0.
         12    1    1    2    0    0  0.13664266874E+01  0.16024804547E+02  0.95925536442E+01  0.18726413647E+02  0.00000000000E+00 0. -1.
         11    1    3    3    0    0  0.61773056157E+01 -0.18199308359E+02  0.20287704538E+01  0.19325885212E+02  0.51100000000E-03 0. -1.
        -11    1    3    3    0    0 -0.81751441315E+01 -0.23546687274E+02 -0.11392780994E+02  0.27405746153E+02  0.51100000000E-03 0.  1.
         12    1    3    3    0    0  0.63141182837E+00  0.25721191085E+02 -0.22854310389E+00  0.25729954988E+02  0.00000000000E+00 0. -1.
</event>
<event>
 7    1  0.3027254E-013  0.7246161E+02  0.7816164E-02  0.1226708E+00
        -11   -1    0    0    0    0  0.00000000000E+00  0.00000000000E+00  0.45593999997E+02  0.45594000000E+02  0.51100000000E-03 0.  1.
         11   -1    0    0    0    0 -0.00000000000E+00 -0.00000000000E+00 -0.45593999997E+02  0.45594000000E+02  0.51100000000E-03 0. -1.
    9900012    2    1    2    0    0 -0.63530650586E+01 -0.12681247963E+02  0.12227113098E+02  0.72461607389E+02  0.70000048322E+02 0.  0.
         12    1    1    2    0    0  0.63530650586E+01  0.12681247963E+02 -0.12227113098E+02  0.18726392611E+02  0.00000000000E+00 0. -1.
         11    1    3    3    0    0 -0.10159131624E+02 -0.11887930899E+02  0.61510829012E+01  0.16803769742E+02  0.51100000000E-03 0.  1.
        -11    1    3    3    0    0 -0.34666620024E+01 -0.16793270091E+02 -0.18641672462E+02  0.25328711342E+02  0.51100000000E-03 0. -1.
        -12    1    3    3    0    0  0.72727285676E+01  0.15999953027E+02  0.24717702659E+02  0.30329126305E+02  0.00000000000E+00 0.  1.
</event>
<event>
 7    1  0.3027254E-013  0.7246160E+02  0.7816164E-02  0.1226708E+00
        -11   -1    0    0    0    0  0.00000000000E+00  0.00000000000E+00  0.45593999997E+02  0.45594000000E+02  0.51100000000E-03 0.  1.
         11   -1    0    0    0    0 -0.00000000000E+00 -0.00000000000E+00 -0.45593999997E+02  0.45594000000E+02  0.51100000000E-03 0. -1.
    9900012    2    1    2    0    0  0.14933637758E+02 -0.10129739474E+02  0.50052971216E+01  0.72461597308E+02  0.70000035190E+02 0.  0.
         12    1    1    2    0    0 -0.14933637758E+02  0.10129739474E+02 -0.50052971216E+01  0.18726402692E+02  0.00000000000E+00 0. -1.
         11    1    3    3    0    0  0.14898376793E+02 -0.89613159761E+01 -0.16280946024E+02  0.23818816486E+02  0.51100000000E-03 0. -1.
        -11    1    3    3    0    0  0.19019352285E+02  0.10046917257E+02  0.12708162059E+02  0.24983468352E+02  0.51100000000E-03 0.  1.
        -12    1    3    3    0    0 -0.18984091319E+02 -0.11215340755E+02  0.85780810859E+01  0.23659312471E+02  0.00000000000E+00 0.  1.
</event>
<event>
 7    1  0.3027254E-013  0.7246157E+02  0.7816164E-02  0.1226708E+00
        -11   -1    0    0    0    0  0.00000000000E+00  0.00000000000E+00  0.45593999997E+02  0.45594000000E+02  0.51100000000E-03 0. -1.
         11   -1    0    0    0    0 -0.00000000000E+00 -0.00000000000E+00 -0.45593999997E+02  0.45594000000E+02  0.51100000000E-03 0.  1.
    9900012    2    1    2    0    0  0.13284761801E+02  0.70273572447E+01 -0.11171861362E+02  0.72461571290E+02  0.70000001297E+02 0.  0.
         12    1    1    2    0    0 -0.13284761801E+02 -0.70273572447E+01  0.11171861362E+02  0.18726428710E+02  0.00000000000E+00 0. -1.
         11    1    3    3    0    0  0.16514304739E+01  0.28139301495E+02 -0.18203654701E+01  0.28246437686E+02  0.51100000000E-03 0. -1.
        -11    1    3    3    0    0 -0.27094711453E+01  0.65126006722E+01  0.62262304895E+01  0.94085677854E+01  0.51100000000E-03 0.  1.
        -12    1    3    3    0    0  0.14342802472E+02 -0.27624544922E+02 -0.15577726381E+02  0.34806565819E+02  0.00000000000E+00 0.  1.
</event>
<event>
 7    1  0.3027254E-013  0.7246161E+02  0.7816164E-02  0.1226708E+00
        -11   -1    0    0    0    0  0.00000000000E+00  0.00000000000E+00  0.45593999997E+02  0.45594000000E+02  0.51100000000E-03 0.  1.
         11   -1    0    0    0    0 -0.00000000000E+00 -0.00000000000E+00 -0.45593999997E+02  0.45594000000E+02  0.51100000000E-03 0. -1.
    9900012    2    1    2    0    0 -0.13805405672E+02 -0.11237968636E+02  0.58134750131E+01  0.72461610691E+02  0.70000052624E+02 0.  0.
         12    1    1    2    0    0  0.13805405672E+02  0.11237968636E+02 -0.58134750131E+01  0.18726389309E+02  0.00000000000E+00 0. -1.
         11    1    3    3    0    0  0.86737280372E+01  0.41861214653E+01  0.71286534080E+01  0.11982273184E+02  0.51100000000E-03 0. -1.
        -11    1    3    3    0    0 -0.15152524751E+02 -0.10709658891E+02  0.25924302914E+02  0.31880484340E+02  0.51100000000E-03 0.  1.
        -12    1    3    3    0    0 -0.73266089574E+01 -0.47144312111E+01 -0.27239481309E+02  0.28598853167E+02  0.00000000000E+00 0.  1.
</event>
<event>
 7    1  0.3027254E-013  0.7246160E+02  0.7816164E-02  0.1226708E+00
        -11   -1    0    0    0    0  0.00000000000E+00  0.00000000000E+00  0.45593999997E+02  0.45594000000E+02  0.51100000000E-03 0. -1.
         11   -1    0    0    0    0 -0.00000000000E+00 -0.00000000000E+00 -0.45593999997E+02  0.45594000000E+02  0.51100000000E-03 0.  1.
    9900012    2    1    2    0    0  0.68273827233E+01 -0.10938922344E+02 -0.13579582056E+02  0.72461595494E+02  0.70000032827E+02 0.  0.
         12    1    1    2    0    0 -0.68273827233E+01  0.10938922344E+02  0.13579582056E+02  0.18726404506E+02  0.00000000000E+00 0. -1.
         11    1    3    3    0    0  0.75929538874E+01  0.13669384717E+02  0.13940896443E+02  0.20948833408E+02  0.51100000000E-03 0. -1.
        -11    1    3    3    0    0 -0.25331964420E+01  0.92546916908E+01 -0.70114664958E+01  0.11883899410E+02  0.51100000000E-03 0.  1.
         12    1    3    3    0    0  0.17676252780E+01 -0.33862998752E+02 -0.20509012003E+02  0.39628862676E+02  0.00000000000E+00 0. -1.
</event>
<event>
 7    1  0.3027254E-013  0.7246159E+02  0.7816164E-02  0.1226708E+00
        -11   -1    0    0    0    0  0.00000000000E+00  0.00000000000E+00  0.45593999997E+02  0.45594000000E+02  0.51100000000E-03 0.  1.
         11   -1    0    0    0    0 -0.00000000000E+00 -0.00000000000E+00 -0.45593999997E+02  0.45594000000E+02  0.51100000000E-03 0. -1.
    9900012    2    1    2    0    0  0.86727395183E+00  0.17286406131E+02  0.71488692915E+01  0.72461592625E+02  0.70000029090E+02 0.  0.
         12    1    1    2    0    0 -0.86727395183E+00 -0.17286406131E+02 -0.71488692915E+01  0.18726407375E+02  0.00000000000E+00 0. -1.
         11    1    3    3    0    0  0.75828836515E+01 -0.30025540059E+01 -0.91620803754E+01  0.12266180012E+02  0.51100000000E-03 0. -1.
        -11    1    3    3    0    0 -0.10501601228E+02 -0.15310627412E+02 -0.40604517698E+01  0.19004899603E+02  0.51100000000E-03 0.  1.
         12    1    3    3    0    0  0.37859915286E+01  0.35599587548E+02  0.20371401437E+02  0.41190513009E+02  0.00000000000E+00 0. -1.
</event>
<event>
 7    1  0.3027254E-013  0.7246150E+02  0.7816164E-02  0.1226708E+00
        -11   -1    0    0    0    0  0.00000000000E+00  0.00000000000E+00  0.45593999997E+02  0.45594000000E+02  0.51100000000E-03 0.  1.
         11   -1    0    0    0    0 -0.00000000000E+00 -0.00000000000E+00 -0.45593999997E+02  0.45594000000E+02  0.51100000000E-03 0. -1.
    9900012    2    1    2    0    0  0.40605701987E+01  0.18040697265E+02 -0.29541049143E+01  0.72461502090E+02  0.69999911151E+02 0.  0.
         12    1    1    2    0    0 -0.40605701987E+01 -0.18040697265E+02  0.29541049143E+01  0.18726497910E+02  0.00000000000E+00 0. -1.
         11    1    3    3    0    0  0.31181714550E+02  0.72022707035E+01 -0.13899435411E+02  0.34890777156E+02  0.51100000000E-03 0. -1.
        -11    1    3    3    0    0 -0.65943503586E+01  0.30207212888E+01 -0.63292843345E+01  0.96265286685E+01  0.51100000000E-03 0.  1.
        -12    1    3    3    0    0 -0.20526793993E+02  0.78177052722E+01  0.17274614831E+02  0.27944196265E+02  0.00000000000E+00 0.  1.
</event>
<event>
 7    1  0.3027254E-013  0.7246158E+02  0.7816164E-02  0.1226708E+00
        -11   -1    0    0    0    0  0.00000000000E+00  0.00000000000E+00  0.45593999997E+02  0.45594000000E+02  0.51100000000E-03 0.  1.
         11   -1    0    0    0    0 -0.00000000000E+00 -0.00000000000E+00 -0.45593999997E+02  0.45594000000E+02  0.51100000000E-03 0. -1.
    9900012    2    1    2    0    0  0.13565888729E+02  0.11991498192E+02  0.47801053475E+01  0.72461580880E+02  0.70000013790E+02 0.  0.
         12    1    1    2    0    0 -0.13565888729E+02 -0.11991498192E+02 -0.47801053475E+01  0.18726419120E+02  0.00000000000E+00 0. -1.
         11    1    3    3    0    0  0.88681036955E+01  0.60759134243E+01  0.27580134596E+02  0.29601077881E+02  0.51100000000E-03 0.  1.
        -11    1    3    3    0    0  0.82151704471E+01  0.19496082427E+02 -0.18723374104E+02  0.28251566215E+02  0.51100000000E-03 0. -1.
         12    1    3    3    0    0 -0.35173854133E+01 -0.13580497659E+02 -0.40766551447E+01  0.14608936785E+02  0.00000000000E+00 0. -1.
</event>
<event>
 7    1  0.3027254E-013  0.7246153E+02  0.7816164E-02  0.1226708E+00
        -11   -1    0    0    0    0  0.00000000000E+00  0.00000000000E+00  0.45593999997E+02  0.45594000000E+02  0.51100000000E-03 0. -1.
         11   -1    0    0    0    0 -0.00000000000E+00 -0.00000000000E+00 -0.45593999997E+02  0.45594000000E+02  0.51100000000E-03 0.  1.
    9900012    2    1    2    0    0 -0.64641823454E+01  0.51919212539E+00 -0.17567736524E+02  0.72461532623E+02  0.69999950926E+02 0.  0.
         12    1    1    2    0    0  0.64641823454E+01 -0.51919212539E+00  0.17567736524E+02  0.18726467377E+02  0.00000000000E+00 0. -1.
         11    1    3    3    0    0 -0.28207185390E+02  0.32623380404E+00 -0.11014088364E+02  0.30283029553E+02  0.51100000000E-03 0. -1.
        -11    1    3    3    0    0  0.92935468032E+01  0.16614783114E+02  0.33251720856E+01  0.19325573724E+02  0.51100000000E-03 0.  1.
        -12    1    3    3    0    0  0.12449456242E+02 -0.16421824793E+02 -0.98788202451E+01  0.22852929346E+02  0.00000000000E+00 0.  1.
</event>
<event>
 7    1  0.3027254E-013  0.7246158E+02  0.7816164E-02  0.1226708E+00
        -11   -1    0    0    0    0  0.00000000000E+00  0.00000000000E+00  0.45593999997E+02  0.45594000000E+02  0.51100000000E-03 0.  1.
         11   -1    0    0    0    0 -0.00000000000E+00 -0.00000000000E+00 -0.45593999997E+02  0.45594000000E+02  0.51100000000E-03 0. -1.
    9900012    2    1    2    0    0 -0.14775249587E+01  0.69478451634E+01  0.17326945724E+02  0.72461583350E+02  0.70000017007E+02 0.  0.
         12    1    1    2    0    0  0.14775249587E+01 -0.69478451634E+01 -0.17326945724E+02  0.18726416650E+02  0.00000000000E+00 0. -1.
         11    1    3    3    0    0 -0.28133416397E+02  0.20335568052E+02  0.71635235097E+01  0.35444894068E+02  0.51100000000E-03 0. -1.
        -11    1    3    3    0    0  0.12355222164E+02 -0.52532692536E+01 -0.53038949007E+01  0.14435361234E+02  0.51100000000E-03 0.  1.
        -12    1    3    3    0    0  0.14300669275E+02 -0.81344536349E+01  0.15467317115E+02  0.22581328048E+02  0.00000000000E+00 0.  1.
</event>
<event>
 7    1  0.3027254E-013  0.7246163E+02  0.7816164E-02  0.1226708E+00
        -11   -1    0    0    0    0  0.00000000000E+00  0.00000000000E+00  0.45593999997E+02  0.45594000000E+02  0.51100000000E-03 0.  1.
         11   -1    0    0    0    0 -0.00000000000E+00 -0.00000000000E+00 -0.45593999997E+02  0.45594000000E+02  0.51100000000E-03 0. -1.
    9900012    2    1    2    0    0  0.13397965907E+02 -0.72894212423E+01  0.10864435880E+02  0.72461625031E+02  0.70000071304E+02 0.  0.
         12    1    1    2    0    0 -0.13397965907E+02  0.72894212423E+01 -0.10864435880E+02  0.18726374969E+02  0.00000000000E+00 0. -1.
         11    1    3    3    0    0 -0.26762101621E+01 -0.16502009350E+01  0.51612287558E+01  0.60434713938E+01  0.51100000000E-03 0. -1.
        -11    1    3    3    0    0 -0.15644565892E+02  0.19773734233E+02  0.53379208444E+01  0.25772978227E+02  0.51100000000E-03 0.  1.
         12    1    3    3    0    0  0.31718741961E+02 -0.25412954540E+02  0.36528628033E+00  0.40645175410E+02  0.00000000000E+00 0. -1.
</event>
<event>
 7    1  0.3027254E-013  0.7246157E+02  0.7816164E-02  0.1226708E+00
        -11   -1    0    0    0    0  0.00000000000E+00  0.00000000000E+00  0.45593999997E+02  0.45594000000E+02  0.51100000000E-03 0.  1.
         11   -1    0    0    0    0 -0.00000000000E+00 -0.00000000000E+00 -0.45593999997E+02  0.45594000000E+02  0.51100000000E-03 0. -1.
    9900012    2    1    2    0    0  0.12625406713E+02 -0.11433034793E+02 -0.77822926672E+01  0.72461567921E+02  0.69999996908E+02 0.  0.
         12    1    1    2    0    0 -0.12625406713E+02  0.11433034793E+02  0.77822926672E+01  0.18726432079E+02  0.00000000000E+00 0. -1.
         11    1    3    3    0    0 -0.12646552188E+02 -0.10731208933E+02 -0.68060233576E+01  0.17928080812E+02  0.51100000000E-03 0. -1.
        -11    1    3    3    0    0 -0.16615853990E+01  0.10355385318E+02  0.17247208615E+02  0.20185665121E+02  0.51100000000E-03 0.  1.
         12    1    3    3    0    0  0.26933544300E+02 -0.11057211178E+02 -0.18223477925E+02  0.34347821987E+02  0.00000000000E+00 0. -1.
</event>
<event>
 7    1  0.3027254E-013  0.7246097E+02  0.7816164E-02  0.1226710E+00
        -11   -1    0    0    0    0  0.00000000000E+00  0.00000000000E+00  0.45593999997E+02  0.45594000000E+02  0.51100000000E-03 0.  1.
         11   -1    0    0    0    0 -0.00000000000E+00 -0.00000000000E+00 -0.45593999997E+02  0.45594000000E+02  0.51100000000E-03 0. -1.
    9900012    2    1    2    0    0  0.17022086615E+02 -0.51611417565E+01  0.58577287713E+01  0.72460965977E+02  0.69999212760E+02 0.  0.
         12    1    1    2    0    0 -0.17022086615E+02  0.51611417565E+01 -0.58577287713E+01  0.18727034023E+02  0.00000000000E+00 0. -1.
         11    1    3    3    0    0 -0.62017549154E+01 -0.25579745507E+02 -0.40200582845E+01  0.26626040131E+02  0.51100000000E-03 0. -1.
        -11    1    3    3    0    0  0.20826279526E+02  0.52337168814E+01 -0.73953036438E+01  0.22711587957E+02  0.51100000000E-03 0.  1.
        -12    1    3    3    0    0  0.23975620043E+01  0.15184886869E+02  0.17273090700E+02  0.23123337888E+02  0.00000000000E+00 0.  1.
</event>
<event>
 7    1  0.3027254E-013  0.7246158E+02  0.7816164E-02  0.1226708E+00
        -11   -1    0    0    0    0  0.00000000000E+00  0.00000000000E+00  0.45593999997E+02  0.45594000000E+02  0.51100000000E-03 0. -1.
         11   -1    0    0    0    0 -0.00000000000E+00 -0.00000000000E+00 -0.45593999997E+02  0.45594000000E+02  0.51100000000E-03 0.  1.
    9900012    2    1    2    0    0 -0.90759675783E+01 -0.61610301273E+01 -0.15177195578E+02  0.72461581621E+02  0.70000014755E+02 0.  0.
         12    1    1    2    0    0  0.90759675783E+01  0.61610301273E+01  0.15177195578E+02  0.18726418379E+02  0.00000000000E+00 0. -1.
         11    1    3    3    0    0 -0.93616001084E+01  0.74568104029E+00 -0.12256235535E+01  0.94708896181E+01  0.51100000000E-03 0. -1.
        -11    1    3    3    0    0 -0.27251623842E+02  0.10006558157E+02 -0.50089193122E+01  0.29459658537E+02  0.51100000000E-03 0.  1.
        -12    1    3    3    0    0  0.27537256372E+02 -0.16913269324E+02 -0.89426527119E+01  0.33531033466E+02  0.00000000000E+00 0.  1.
</event>
<event>
 7    1  0.3027254E-013  0.7246148E+02  0.7816164E-02  0.1226708E+00
        -11   -1    0    0    0    0  0.00000000000E+00  0.00000000000E+00  0.45593999997E+02  0.45594000000E+02  0.51100000000E-03 0.  1.
         11   -1    0    0    0    0 -0.00000000000E+00 -0.00000000000E+00 -0.45593999997E+02  0.45594000000E+02  0.51100000000E-03 0. -1.
    9900012    2    1    2    0    0  0.13718014258E+02 -0.12977007988E+01  0.12681268465E+02  0.72461481038E+02  0.69999883727E+02 0.  0.
         12    1    1    2    0    0 -0.13718014258E+02  0.12977007988E+01 -0.12681268465E+02  0.18726518962E+02  0.00000000000E+00 0. -1.
         11    1    3    3    0    0  0.24057835076E+02  0.33669982133E+01  0.10907595021E+02  0.26628776444E+02  0.51100000000E-03 0. -1.
        -11    1    3    3    0    0  0.16046319085E+02 -0.48229364245E+01  0.82301967743E+01  0.18667651463E+02  0.51100000000E-03 0.  1.
        -12    1    3    3    0    0 -0.26386139904E+02  0.15823741240E+00 -0.64565233298E+01  0.27165053131E+02  0.00000000000E+00 0.  1.
</event>
<event>
 7    1  0.3027254E-013  0.7246152E+02  0.7816164E-02  0.1226708E+00
        -11   -1    0    0    0    0  0.00000000000E+00  0.00000000000E+00  0.45593999997E+02  0.45594000000E+02  0.51100000000E-03 0.  1.
         11   -1    0    0    0    0 -0.00000000000E+00 -0.00000000000E+00 -0.45593999997E+02  0.45594000000E+02  0.51100000000E-03 0. -1.
    9900012    2    1    2    0    0 -0.13386082287E+02 -0.12814380353E+02  0.26991433386E+01  0.72461523620E+02  0.69999939199E+02 0.  0.
         12    1    1    2    0    0  0.13386082287E+02  0.12814380353E+02 -0.26991433386E+01  0.18726476380E+02  0.00000000000E+00 0. -1.
         11    1    3    3    0    0 -0.78633106972E+01 -0.85977410075E+01  0.15140868397E+02  0.19104939195E+02  0.51100000000E-03 0. -1.
        -11    1    3    3    0    0 -0.17336397375E+02 -0.17579995861E+02  0.82557866479E+01  0.26033919065E+02  0.51100000000E-03 0.  1.
         12    1    3    3    0    0  0.11813625786E+02  0.13363356516E+02 -0.20697511707E+02  0.27322665361E+02  0.00000000000E+00 0. -1.
</event>
<event>
 7    1  0.3027254E-013  0.7246158E+02  0.7816164E-02  0.1226708E+00
        -11   -1    0    0    0    0  0.00000000000E+00  0.00000000000E+00  0.45593999997E+02  0.45594000000E+02  0.51100000000E-03 0. -1.
         11   -1    0    0    0    0 -0.00000000000E+00 -0.00000000000E+00 -0.45593999997E+02  0.45594000000E+02  0.51100000000E-03 0.  1.
    9900012    2    1    2    0    0 -0.75082927796E+00 -0.15653991282E+02 -0.10250256921E+02  0.72461576033E+02  0.70000007475E+02 0.  0.
         12    1    1    2    0    0  0.75082927796E+00  0.15653991282E+02  0.10250256921E+02  0.18726423967E+02  0.00000000000E+00 0. -1.
         11    1    3    3    0    0 -0.78275210635E+01 -0.13670708475E+02 -0.11196823099E+01  0.15792784585E+02  0.51100000000E-03 0. -1.
        -11    1    3    3    0    0 -0.14187434276E+02 -0.22133031722E+02 -0.74545044901E+01  0.27326251518E+02  0.51100000000E-03 0.  1.
         12    1    3    3    0    0  0.21264126062E+02  0.20149748915E+02 -0.16760701209E+01  0.29342539930E+02  0.00000000000E+00 0. -1.
</event>
<event>
 7    1  0.3027254E-013  0.7246162E+02  0.7816164E-02  0.1226708E+00
        -11   -1    0    0    0    0  0.00000000000E+00  0.00000000000E+00  0.45593999997E+02  0.45594000000E+02  0.51100000000E-03 0.  1.
         11   -1    0    0    0    0 -0.00000000000E+00 -0.00000000000E+00 -0.45593999997E+02  0.45594000000E+02  0.51100000000E-03 0. -1.
    9900012    2    1    2    0    0 -0.26171636089E+01 -0.15190575405E+02  0.10633631068E+02  0.72461621915E+02  0.70000067245E+02 0.  0.
         12    1    1    2    0    0  0.26171636089E+01  0.15190575405E+02 -0.10633631068E+02  0.18726378085E+02  0.00000000000E+00 0. -1.
         11    1    3    3    0    0 -0.50238364763E+00  0.83544736179E+01 -0.18282854083E+02  0.20107520296E+02  0.51100000000E-03 0. -1.
        -11    1    3    3    0    0 -0.90189304158E+00 -0.19330902843E+01 -0.86981228475E+01  0.89558690498E+01  0.51100000000E-03 0.  1.
        -12    1    3    3    0    0 -0.12128869197E+01 -0.21611958739E+02  0.37614607999E+02  0.43398232569E+02  0.00000000000E+00 0.  1.
</event>
<event>
 7    1  0.3027254E-013  0.7246160E+02  0.7816164E-02  0.1226708E+00
        -11   -1    0    0    0    0  0.00000000000E+00  0.00000000000E+00  0.45593999997E+02  0.45594000000E+02  0.51100000000E-03 0.  1.
         11   -1    0    0    0    0 -0.00000000000E+00 -0.00000000000E+00 -0.45593999997E+02  0.45594000000E+02  0.51100000000E-03 0. -1.
    9900012    2    1    2    0    0 -0.13813586973E+02  0.62758015217E+00  0.12628103748E+02  0.72461600288E+02  0.70000039072E+02 0.  0.
         12    1    1    2    0    0  0.13813586973E+02 -0.62758015217E+00 -0.12628103748E+02  0.18726399712E+02  0.00000000000E+00 0. -1.
         11    1    3    3    0    0 -0.21091734146E+01  0.13485193488E+02 -0.82490271162E+01  0.15948213208E+02  0.51100000000E-03 0. -1.
        -11    1    3    3    0    0  0.57113029055E+00  0.75989845765E+01 -0.13005937174E+02  0.15073989466E+02  0.51100000000E-03 0.  1.
        -12    1    3    3    0    0 -0.12275543849E+02 -0.20456597913E+02  0.33883068037E+02  0.41439397614E+02  0.00000000000E+00 0.  1.
</event>
<event>
 7    1  0.3027254E-013  0.7246156E+02  0.7816164E-02  0.1226708E+00
        -11   -1    0    0    0    0  0.00000000000E+00  0.00000000000E+00  0.45593999997E+02  0.45594000000E+02  0.51100000000E-03 0.  1.
         11   -1    0    0    0    0 -0.00000000000E+00 -0.00000000000E+00 -0.45593999997E+02  0.45594000000E+02  0.51100000000E-03 0. -1.
    9900012    2    1    2    0    0  0.12158786113E+00  0.85973778024E+01  0.16635797753E+02  0.72461562657E+02  0.69999990051E+02 0.  0.
         12    1    1    2    0    0 -0.12158786113E+00 -0.85973778024E+01 -0.16635797753E+02  0.18726437343E+02  0.00000000000E+00 0. -1.
         11    1    3    3    0    0 -0.18311464546E+02  0.20836564657E+02 -0.55166071987E+01  0.28282593866E+02  0.51100000000E-03 0. -1.
        -11    1    3    3    0    0 -0.20035802951E+01  0.86746772515E+01  0.39894142644E+01  0.97560128050E+01  0.51100000000E-03 0.  1.
        -12    1    3    3    0    0  0.20436632703E+02 -0.20913864106E+02  0.18162990688E+02  0.34422955986E+02  0.00000000000E+00 0.  1.
</event>
<event>
 7    1  0.3027254E-013  0.7246164E+02  0.7816164E-02  0.1226708E+00
        -11   -1    0    0    0    0  0.00000000000E+00  0.00000000000E+00  0.45593999997E+02  0.45594000000E+02  0.51100000000E-03 0.  1.
         11   -1    0    0    0    0 -0.00000000000E+00 -0.00000000000E+00 -0.45593999997E+02  0.45594000000E+02  0.51100000000E-03 0. -1.
    9900012    2    1    2    0    0  0.78438756906E+01  0.88242026158E+01 -0.14535596201E+02  0.72461641716E+02  0.70000093040E+02 0.  0.
         12    1    1    2    0    0 -0.78438756906E+01 -0.88242026158E+01  0.14535596201E+02  0.18726358284E+02  0.00000000000E+00 0. -1.
         11    1    3    3    0    0 -0.10814029436E+02  0.81566166276E+01  0.37955094845E+01  0.14066965557E+02  0.51100000000E-03 0. -1.
        -11    1    3    3    0    0  0.13307152839E+02  0.23479734416E+01  0.17509834821E+02  0.22117586028E+02  0.51100000000E-03 0.  1.
         12    1    3    3    0    0  0.53507522877E+01 -0.16803874534E+01 -0.35840940507E+02  0.36277090132E+02  0.00000000000E+00 0. -1.
</event>
<event>
 7    1  0.3027254E-013  0.7246192E+02  0.7816164E-02  0.1226707E+00
        -11   -1    0    0    0    0  0.00000000000E+00  0.00000000000E+00  0.45593999997E+02  0.45594000000E+02  0.51100000000E-03 0. -1.
         11   -1    0    0    0    0 -0.00000000000E+00 -0.00000000000E+00 -0.45593999997E+02  0.45594000000E+02  0.51100000000E-03 0.  1.
    9900012    2    1    2    0    0 -0.62428959888E+01 -0.10621168784E+02  0.14102586984E+02  0.72461923627E+02  0.70000460280E+02 0.  0.
         12    1    1    2    0    0  0.62428959888E+01  0.10621168784E+02 -0.14102586984E+02  0.18726076373E+02  0.00000000000E+00 0. -1.
         11    1    3    3    0    0  0.19521350797E+01 -0.31132692655E+01  0.10606155598E+02  0.11224696598E+02  0.51100000000E-03 0. -1.
        -11    1    3    3    0    0  0.19009725006E+02 -0.18902927076E+02  0.13598834012E+02  0.30060249227E+02  0.51100000000E-03 0.  1.
         12    1    3    3    0    0 -0.27204756074E+02  0.11395027557E+02 -0.10102402625E+02  0.31176977802E+02  0.00000000000E+00 0. -1.
</event>
<event>
 7    1  0.3027254E-013  0.7246148E+02  0.7816164E-02  0.1226708E+00
        -11   -1    0    0    0    0  0.00000000000E+00  0.00000000000E+00  0.45593999997E+02  0.45594000000E+02  0.51100000000E-03 0.  1.
         11   -1    0    0    0    0 -0.00000000000E+00 -0.00000000000E+00 -0.45593999997E+02  0.45594000000E+02  0.51100000000E-03 0. -1.
    9900012    2    1    2    0    0 -0.86456456040E+01 -0.64767360184E+01  0.15296645459E+02  0.72461477107E+02  0.69999878606E+02 0.  0.
         12    1    1    2    0    0  0.86456456040E+01  0.64767360184E+01 -0.15296645459E+02  0.18726522893E+02  0.00000000000E+00 0. -1.
         11    1    3    3    0    0 -0.31209908296E+01  0.84573863945E+01 -0.26037148542E+02  0.27553603627E+02  0.51100000000E-03 0. -1.
        -11    1    3    3    0    0 -0.27563519234E+01 -0.60950770668E+00  0.47991278286E+01  0.55678185806E+01  0.51100000000E-03 0.  1.
        -12    1    3    3    0    0 -0.27683028511E+01 -0.14324614706E+02  0.36534666172E+02  0.39340054899E+02  0.00000000000E+00 0.  1.
</event>
<event>
 7    1  0.3027254E-013  0.7246165E+02  0.7816164E-02  0.1226708E+00
        -11   -1    0    0    0    0  0.00000000000E+00  0.00000000000E+00  0.45593999997E+02  0.45594000000E+02  0.51100000000E-03 0.  1.
         11   -1    0    0    0    0 -0.00000000000E+00 -0.00000000000E+00 -0.45593999997E+02  0.45594000000E+02  0.51100000000E-03 0. -1.
    9900012    2    1    2    0    0 -0.17732979828E+00  0.48980340818E+01  0.18073574295E+02  0.72461647672E+02  0.70000100799E+02 0.  0.
         12    1    1    2    0    0  0.17732979828E+00 -0.48980340818E+01 -0.18073574295E+02  0.18726352328E+02  0.00000000000E+00 0. -1.
         11    1    3    3    0    0 -0.19986442584E+02 -0.94095965765E+00  0.20305004263E+02  0.28506779731E+02  0.51100000000E-03 0. -1.
        -11    1    3    3    0    0  0.17890882896E+02 -0.32991302731E+01  0.15509799559E+02  0.23906522834E+02  0.51100000000E-03 0.  1.
         12    1    3    3    0    0  0.19182298892E+01  0.91381240126E+01 -0.17741229528E+02  0.20048345107E+02  0.00000000000E+00 0. -1.
</event>
<event>
 7    1  0.3027254E-013  0.7246223E+02  0.7816164E-02  0.1226706E+00
        -11   -1    0    0    0    0  0.00000000000E+00  0.00000000000E+00  0.45593999997E+02  0.45594000000E+02  0.51100000000E-03 0. -1.
         11   -1    0    0    0    0 -0.00000000000E+00 -0.00000000000E+00 -0.45593999997E+02  0.45594000000E+02  0.51100000000E-03 0.  1.
    9900012    2    1    2    0    0 -0.96578833373E+01 -0.14374278680E+02 -0.71245922094E+01  0.72462231330E+02  0.70000861117E+02 0.  0.
         12    1    1    2    0    0  0.96578833373E+01  0.14374278680E+02  0.71245922094E+01  0.18725768670E+02  0.00000000000E+00 0. -1.
         11    1    3    3    0    0  0.24629065087E+01  0.16806112297E+02  0.58049229308E+01  0.17950165724E+02  0.51100000000E-03 0. -1.
        -11    1    3    3    0    0 -0.24458830502E+02 -0.18890665514E+02  0.28187978795E+01  0.31032841553E+02  0.51100000000E-03 0.  1.
         12    1    3    3    0    0  0.12338040656E+02 -0.12289725463E+02 -0.15748313020E+02  0.23479224053E+02  0.00000000000E+00 0. -1.
</event>
<event>
 7    1  0.3027254E-013  0.7246161E+02  0.7816164E-02  0.1226708E+00
        -11   -1    0    0    0    0  0.00000000000E+00  0.00000000000E+00  0.45593999997E+02  0.45594000000E+02  0.51100000000E-03 0. -1.
         11   -1    0    0    0    0 -0.00000000000E+00 -0.00000000000E+00 -0.45593999997E+02  0.45594000000E+02  0.51100000000E-03 0.  1.
    9900012    2    1    2    0    0  0.42855722688E+01 -0.11987868237E+02 -0.13733259049E+02  0.72461614373E+02  0.70000057420E+02 0.  0.
         12    1    1    2    0    0 -0.42855722688E+01  0.11987868237E+02  0.13733259049E+02  0.18726385627E+02  0.00000000000E+00 0. -1.
         11    1    3    3    0    0  0.43495764319E+01  0.14210873424E+02  0.42551021977E+01  0.15458772059E+02  0.51100000000E-03 0. -1.
        -11    1    3    3    0    0  0.18573324591E+02 -0.26340418816E+01 -0.19320435465E+02  0.26929273844E+02  0.51100000000E-03 0.  1.
         12    1    3    3    0    0 -0.18637328754E+02 -0.23564699779E+02  0.13320742176E+01  0.30073568469E+02  0.00000000000E+00 0. -1.
</event>
<event>
 7    1  0.3027254E-013  0.7246160E+02  0.7816164E-02  0.1226708E+00
        -11   -1    0    0    0    0  0.00000000000E+00  0.00000000000E+00  0.45593999997E+02  0.45594000000E+02  0.51100000000E-03 0.  1.
         11   -1    0    0    0    0 -0.00000000000E+00 -0.00000000000E+00 -0.45593999997E+02  0.45594000000E+02  0.51100000000E-03 0. -1.
    9900012    2    1    2    0    0  0.10660807764E+01 -0.78757540153E+01  0.16956237516E+02  0.72461600981E+02  0.70000039975E+02 0.  0.
         12    1    1    2    0    0 -0.10660807764E+01  0.78757540153E+01 -0.16956237516E+02  0.18726399019E+02  0.00000000000E+00 0. -1.
         11    1    3    3    0    0  0.36134283594E+01 -0.17957441930E+01  0.19340384235E+01  0.44746023957E+01  0.51100000000E-03 0. -1.
        -11    1    3    3    0    0  0.52625228276E+01  0.27140800156E+01  0.39969783637E+02  0.40405989421E+02  0.51100000000E-03 0.  1.
         12    1    3    3    0    0 -0.78098704106E+01 -0.87940898379E+01 -0.24947584544E+02  0.27581009164E+02  0.00000000000E+00 0. -1.
</event>
<event>
 7    1  0.3027254E-013  0.7246167E+02  0.7816164E-02  0.1226708E+00
        -11   -1    0    0    0    0  0.00000000000E+00  0.00000000000E+00  0.45593999997E+02  0.45594000000E+02  0.51100000000E-03 0. -1.
         11   -1    0    0    0    0 -0.00000000000E+00 -0.00000000000E+00 -0.45593999997E+02  0.45594000000E+02  0.51100000000E-03 0.  1.
    9900012    2    1    2    0    0 -0.12837884904E+02 -0.92783989652E+01  0.99887653316E+01  0.72461670701E+02  0.70000130798E+02 0.  0.
         12    1    1    2    0    0  0.12837884904E+02  0.92783989652E+01 -0.99887653316E+01  0.18726329299E+02  0.00000000000E+00 0. -1.
         11    1    3    3    0    0 -0.64307249137E+01  0.57155282201E+01  0.21983357684E+02  0.23606979923E+02  0.51100000000E-03 0. -1.
        -11    1    3    3    0    0  0.35242547713E+01  0.11258714479E+02 -0.16646871006E+02  0.20403365849E+02  0.51100000000E-03 0.  1.
        -12    1    3    3    0    0 -0.99314147614E+01 -0.26252641664E+02  0.46522786536E+01  0.28451324929E+02  0.00000000000E+00 0.  1.
</event>
<event>
 7    1  0.3027254E-013  0.7246160E+02  0.7816164E-02  0.1226708E+00
        -11   -1    0    0    0    0  0.00000000000E+00  0.00000000000E+00  0.45593999997E+02  0.45594000000E+02  0.51100000000E-03 0.  1.
         11   -1    0    0    0    0 -0.00000000000E+00 -0.00000000000E+00 -0.45593999997E+02  0.45594000000E+02  0.51100000000E-03 0. -1.
    9900012    2    1    2    0    0 -0.13183110058E+02 -0.12527118941E+02 -0.44671140046E+01  0.72461595986E+02  0.70000033468E+02 0.  0.
         12    1    1    2    0    0  0.13183110058E+02  0.12527118941E+02  0.44671140046E+01  0.18726404014E+02  0.00000000000E+00 0. -1.
         11    1    3    3    0    0 -0.10822077573E+02  0.88292202296E+01 -0.19620403359E+02  0.24083868483E+02  0.51100000000E-03 0. -1.
        -11    1    3    3    0    0  0.55349768710E+01  0.98917001381E+01 -0.25318212228E+01  0.11614293760E+02  0.51100000000E-03 0.  1.
        -12    1    3    3    0    0 -0.78960093562E+01 -0.31248039309E+02  0.17685110578E+02  0.36763433743E+02  0.00000000000E+00 0.  1.
</event>
<event>
 7    1  0.3027254E-013  0.7246084E+02  0.7816164E-02  0.1226710E+00
        -11   -1    0    0    0    0  0.00000000000E+00  0.00000000000E+00  0.45593999997E+02  0.45594000000E+02  0.51100000000E-03 0.  1.
         11   -1    0    0    0    0 -0.00000000000E+00 -0.00000000000E+00 -0.45593999997E+02  0.45594000000E+02  0.51100000000E-03 0. -1.
    9900012    2    1    2    0    0  0.48170510173E+01  0.96692840078E+01  0.15297300754E+02  0.72460842071E+02  0.69999051348E+02 0.  0.
         12    1    1    2    0    0 -0.48170510173E+01 -0.96692840078E+01 -0.15297300754E+02  0.18727157929E+02  0.00000000000E+00 0. -1.
         11    1    3    3    0    0  0.11449273182E+02 -0.23991610635E+02 -0.65432789745E+01  0.27376956318E+02  0.51100000000E-03 0. -1.
        -11    1    3    3    0    0  0.50258874805E+01  0.63798259008E+01 -0.20146130337E+00  0.81241805992E+01  0.51100000000E-03 0.  1.
        -12    1    3    3    0    0 -0.11658109645E+02  0.27281068742E+02  0.22042041032E+02  0.36959705154E+02  0.00000000000E+00 0.  1.
</event>
<event>
 7    1  0.3027254E-013  0.7246127E+02  0.7816164E-02  0.1226709E+00
        -11   -1    0    0    0    0  0.00000000000E+00  0.00000000000E+00  0.45593999997E+02  0.45594000000E+02  0.51100000000E-03 0.  1.
         11   -1    0    0    0    0 -0.00000000000E+00 -0.00000000000E+00 -0.45593999997E+02  0.45594000000E+02  0.51100000000E-03 0. -1.
    9900012    2    1    2    0    0  0.14044040578E+01 -0.16258891882E+02  0.91851272223E+01  0.72461268356E+02  0.69999606668E+02 0.  0.
         12    1    1    2    0    0 -0.14044040578E+01  0.16258891882E+02 -0.91851272223E+01  0.18726731644E+02  0.00000000000E+00 0. -1.
         11    1    3    3    0    0 -0.12709040874E+02 -0.73855699701E+01  0.20142486227E+02  0.24935639462E+02  0.51100000000E-03 0. -1.
        -11    1    3    3    0    0 -0.74496309877E+01  0.13223113010E+02 -0.56709430311E+01  0.16202077479E+02  0.51100000000E-03 0.  1.
        -12    1    3    3    0    0  0.21563075920E+02 -0.22096434922E+02 -0.52864159736E+01  0.31323551414E+02  0.00000000000E+00 0.  1.
</event>
<event>
 7    1  0.3027254E-013  0.7246158E+02  0.7816164E-02  0.1226708E+00
        -11   -1    0    0    0    0  0.00000000000E+00  0.00000000000E+00  0.45593999997E+02  0.45594000000E+02  0.51100000000E-03 0. -1.
         11   -1    0    0    0    0 -0.00000000000E+00 -0.00000000000E+00 -0.45593999997E+02  0.45594000000E+02  0.51100000000E-03 0.  1.
    9900012    2    1    2    0    0 -0.14180182936E+02 -0.89004758926E+01  0.83894343867E+01  0.72461583671E+02  0.70000017425E+02 0.  0.
         12    1    1    2    0    0  0.14180182936E+02  0.89004758926E+01 -0.83894343867E+01  0.18726416329E+02  0.00000000000E+00 0. -1.
         11    1    3    3    0    0 -0.14293886871E+02  0.82936042959E+01  0.56943127337E+01  0.17479252612E+02  0.51100000000E-03 0. -1.
        -11    1    3    3    0    0 -0.19790838025E+02  0.91396079221E+01 -0.60636196187E+00  0.21807736650E+02  0.51100000000E-03 0.  1.
         12    1    3    3    0    0  0.19904541960E+02 -0.26333688111E+02  0.33014836149E+01  0.33174594409E+02  0.00000000000E+00 0. -1.
</event>
<event>
 7    1  0.3027254E-013  0.7246164E+02  0.7816164E-02  0.1226708E+00
        -11   -1    0    0    0    0  0.00000000000E+00  0.00000000000E+00  0.45593999997E+02  0.45594000000E+02  0.51100000000E-03 0. -1.
         11   -1    0    0    0    0 -0.00000000000E+00 -0.00000000000E+00 -0.45593999997E+02  0.45594000000E+02  0.51100000000E-03 0.  1.
    9900012    2    1    2    0    0 -0.16763604067E+02  0.80692476415E+01 -0.21319677368E+01  0.72461642499E+02  0.70000094060E+02 0.  0.
         12    1    1    2    0    0  0.16763604067E+02 -0.80692476415E+01  0.21319677368E+01  0.18726357501E+02  0.00000000000E+00 0. -1.
         11    1    3    3    0    0  0.10652072923E+02  0.48452739259E+01  0.57441095606E+01  0.13036032060E+02  0.51100000000E-03 0. -1.
        -11    1    3    3    0    0  0.12829722993E+02  0.12103242035E+02 -0.12376417748E+01  0.17681120362E+02  0.51100000000E-03 0.  1.
        -12    1    3    3    0    0 -0.40245399982E+02 -0.88792683193E+01 -0.66384355226E+01  0.41744490077E+02  0.00000000000E+00 0.  1.
</event>
<event>
 7    1  0.3027254E-013  0.7246167E+02  0.7816164E-02  0.1226708E+00
        -11   -1    0    0    0    0  0.00000000000E+00  0.00000000000E+00  0.45593999997E+02  0.45594000000E+02  0.51100000000E-03 0.  1.
         11   -1    0    0    0    0 -0.00000000000E+00 -0.00000000000E+00 -0.45593999997E+02  0.45594000000E+02  0.51100000000E-03 0. -1.
    9900012    2    1    2    0    0 -0.17666269814E+01  0.54963083311E+01  0.17814183219E+02  0.72461668274E+02  0.70000127636E+02 0.  0.
         12    1    1    2    0    0  0.17666269814E+01 -0.54963083311E+01 -0.17814183219E+02  0.18726331726E+02  0.00000000000E+00 0. -1.
         11    1    3    3    0    0  0.33011532911E+01  0.13295612892E+02 -0.38872033669E+01  0.14240129406E+02  0.51100000000E-03 0. -1.
        -11    1    3    3    0    0  0.41949418092E+01  0.22139575703E+02  0.69245172593E+01  0.23573444564E+02  0.51100000000E-03 0.  1.
        -12    1    3    3    0    0 -0.92627220817E+01 -0.29938880263E+02  0.14776869327E+02  0.34648094304E+02  0.00000000000E+00 0.  1.
</event>
<event>
 7    1  0.3027254E-013  0.7246162E+02  0.7816164E-02  0.1226708E+00
        -11   -1    0    0    0    0  0.00000000000E+00  0.00000000000E+00  0.45593999997E+02  0.45594000000E+02  0.51100000000E-03 0.  1.
         11   -1    0    0    0    0 -0.00000000000E+00 -0.00000000000E+00 -0.45593999997E+02  0.45594000000E+02  0.51100000000E-03 0. -1.
    9900012    2    1    2    0    0  0.17173930497E+02  0.71341860290E+01  0.21992458180E+01  0.72461623383E+02  0.70000069158E+02 0.  0.
         12    1    1    2    0    0 -0.17173930497E+02 -0.71341860290E+01 -0.21992458180E+01  0.18726376617E+02  0.00000000000E+00 0. -1.
         11    1    3    3    0    0 -0.14730986186E+02 -0.94446193117E+01 -0.36284060102E+01  0.17870873465E+02  0.51100000000E-03 0. -1.
        -11    1    3    3    0    0 -0.61190031914E+01  0.10047114295E+02 -0.72916324545E+01  0.13840325495E+02  0.51100000000E-03 0.  1.
        -12    1    3    3    0    0  0.38023919875E+02  0.65316910461E+01  0.13119284283E+02  0.40750424423E+02  0.00000000000E+00 0.  1.
</event>
<event>
 7    1  0.3027254E-013  0.7246160E+02  0.7816164E-02  0.1226708E+00
        -11   -1    0    0    0    0  0.00000000000E+00  0.00000000000E+00  0.45593999997E+02  0.45594000000E+02  0.51100000000E-03 0. -1.
         11   -1    0    0    0    0 -0.00000000000E+00 -0.00000000000E+00 -0.45593999997E+02  0.45594000000E+02  0.51100000000E-03 0.  1.
    9900012    2    1    2    0    0  0.11815234997E+02  0.99603270195E+01 -0.10576864722E+02  0.72461602596E+02  0.70000042079E+02 0.  0.
         12    1    1    2    0    0 -0.11815234997E+02 -0.99603270195E+01  0.10576864722E+02  0.18726397404E+02  0.00000000000E+00 0. -1.
         11    1    3    3    0    0  0.45444665802E+01  0.63196949693E+01 -0.73359034956E+01  0.10696083459E+02  0.51100000000E-03 0. -1.
        -11    1    3    3    0    0  0.33205458177E+02 -0.55818188164E+01 -0.56204619707E+01  0.34137204734E+02  0.51100000000E-03 0.  1.
         12    1    3    3    0    0 -0.25934689760E+02  0.92224508665E+01  0.23795007442E+01  0.27628314403E+02  0.00000000000E+00 0. -1.
</event>
<event>
 7    1  0.3027254E-013  0.7246160E+02  0.7816164E-02  0.1226708E+00
        -11   -1    0    0    0    0  0.00000000000E+00  0.00000000000E+00  0.45593999997E+02  0.45594000000E+02  0.51100000000E-03 0. -1.
         11   -1    0    0    0    0 -0.00000000000E+00 -0.00000000000E+00 -0.45593999997E+02  0.45594000000E+02  0.51100000000E-03 0.  1.
    9900012    2    1    2    0    0 -0.15549823969E+02  0.96883038342E+01  0.38752695896E+01  0.72461602294E+02  0.70000041685E+02 0.  0.
         12    1    1    2    0    0  0.15549823969E+02 -0.96883038342E+01 -0.38752695896E+01  0.18726397706E+02  0.00000000000E+00 0. -1.
         11    1    3    3    0    0 -0.27045669120E+01 -0.72717751951E+01 -0.16951442931E+02  0.18642553859E+02  0.51100000000E-03 0. -1.
        -11    1    3    3    0    0 -0.26341670400E+02  0.22566650353E+02  0.11785155900E+02  0.36633689514E+02  0.51100000000E-03 0.  1.
         12    1    3    3    0    0  0.13496413342E+02 -0.56065713236E+01  0.90415566207E+01  0.17185358921E+02  0.00000000000E+00 0. -1.
</event>
<event>
 7    1  0.3027254E-013  0.7246160E+02  0.7816164E-02  0.1226708E+00
        -11   -1    0    0    0    0  0.00000000000E+00  0.00000000000E+00  0.45593999997E+02  0.45594000000E+02  0.51100000000E-03 0. -1.
         11   -1    0    0    0    0 -0.00000000000E+00 -0.00000000000E+00 -0.45593999997E+02  0.45594000000E+02  0.51100000000E-03 0.  1.
    9900012    2    1    2    0    0  0.11331248084E+02 -0.30311386210E+01 -0.14597711592E+02  0.72461597030E+02  0.70000034828E+02 0.  0.
         12    1    1    2    0    0 -0.11331248084E+02  0.30311386210E+01  0.14597711592E+02  0.18726402970E+02  0.00000000000E+00 0. -1.
         11    1    3    3    0    0  0.46469293493E+01 -0.41544397562E+01  0.34358493067E+01  0.71174702518E+01  0.51100000000E-03 0. -1.
        -11    1    3    3    0    0 -0.10264275700E+02 -0.27216698291E+02 -0.36132571542E+01  0.29311425230E+02  0.51100000000E-03 0.  1.
         12    1    3    3    0    0  0.16948594435E+02  0.28339999426E+02 -0.14420303744E+02  0.36032701548E+02  0.00000000000E+00 0. -1.
</event>
<event>
 7    1  0.3027254E-013  0.7246156E+02  0.7816164E-02  0.1226708E+00
        -11   -1    0    0    0    0  0.00000000000E+00  0.00000000000E+00  0.45593999997E+02  0.45594000000E+02  0.51100000000E-03 0. -1.
         11   -1    0    0    0    0 -0.00000000000E+00 -0.00000000000E+00 -0.45593999997E+02  0.45594000000E+02  0.51100000000E-03 0.  1.
    9900012    2    1    2    0    0 -0.47816890407E+01  0.13395163304E+02 -0.12181327170E+02  0.72461556620E+02  0.69999982187E+02 0.  0.
         12    1    1    2    0    0  0.47816890407E+01 -0.13395163304E+02  0.12181327170E+02  0.18726443380E+02  0.00000000000E+00 0. -1.
         11    1    3    3    0    0 -0.25519815787E+01 -0.12992811126E+02  0.30901644630E+01  0.13596869772E+02  0.51100000000E-03 0. -1.
        -11    1    3    3    0    0 -0.12136734841E+01  0.19904494599E+02  0.16833068851E+02  0.26096247159E+02  0.51100000000E-03 0.  1.
        -12    1    3    3    0    0 -0.10160339779E+01  0.64834798313E+01 -0.32104560484E+02  0.32768439689E+02  0.00000000000E+00 0.  1.
</event>
<event>
 7    1  0.3027254E-013  0.7246158E+02  0.7816164E-02  0.1226708E+00
        -11   -1    0    0    0    0  0.00000000000E+00  0.00000000000E+00  0.45593999997E+02  0.45594000000E+02  0.51100000000E-03 0.  1.
         11   -1    0    0    0    0 -0.00000000000E+00 -0.00000000000E+00 -0.45593999997E+02  0.45594000000E+02  0.51100000000E-03 0. -1.
    9900012    2    1    2    0    0  0.13456604659E+02 -0.12916555349E+02 -0.16616995781E+01  0.72461578652E+02  0.70000010887E+02 0.  0.
         12    1    1    2    0    0 -0.13456604659E+02  0.12916555349E+02  0.16616995781E+01  0.18726421348E+02  0.00000000000E+00 0. -1.
         11    1    3    3    0    0  0.74835144412E+01  0.12138118481E+02  0.81542125274E+01  0.16426444863E+02  0.51100000000E-03 0. -1.
        -11    1    3    3    0    0  0.23374897087E+02 -0.16869278708E+02  0.78985614034E+01  0.29888888412E+02  0.51100000000E-03 0.  1.
         12    1    3    3    0    0 -0.17401806870E+02 -0.81853951210E+01 -0.17714473509E+02  0.26146245377E+02  0.00000000000E+00 0. -1.
</event>
<event>
 7    1  0.3027254E-013  0.7246168E+02  0.7816164E-02  0.1226708E+00
        -11   -1    0    0    0    0  0.00000000000E+00  0.00000000000E+00  0.45593999997E+02  0.45594000000E+02  0.51100000000E-03 0.  1.
         11   -1    0    0    0    0 -0.00000000000E+00 -0.00000000000E+00 -0.45593999997E+02  0.45594000000E+02  0.51100000000E-03 0. -1.
    9900012    2    1    2    0    0  0.16686266378E+02  0.11186892058E+01 -0.84256816126E+01  0.72461679972E+02  0.70000142875E+02 0.  0.
         12    1    1    2    0    0 -0.16686266378E+02 -0.11186892058E+01  0.84256816126E+01  0.18726320028E+02  0.00000000000E+00 0. -1.
         11    1    3    3    0    0  0.31696425562E+02 -0.19104534382E+02 -0.24147413148E+01  0.37087431877E+02  0.51100000000E-03 0. -1.
        -11    1    3    3    0    0  0.35304751403E+01  0.12126741481E+02  0.33725427887E+01  0.13072725760E+02  0.51100000000E-03 0.  1.
        -12    1    3    3    0    0 -0.18540634324E+02  0.80964821062E+01 -0.93834830865E+01  0.22301522335E+02  0.00000000000E+00 0.  1.
</event>
<event>
 7    1  0.3027254E-013  0.7246145E+02  0.7816164E-02  0.1226708E+00
        -11   -1    0    0    0    0  0.00000000000E+00  0.00000000000E+00  0.45593999997E+02  0.45594000000E+02  0.51100000000E-03 0.  1.
         11   -1    0    0    0    0 -0.00000000000E+00 -0.00000000000E+00 -0.45593999997E+02  0.45594000000E+02  0.51100000000E-03 0. -1.
    9900012    2    1    2    0    0  0.76477934253E+01  0.10908402020E+02  0.13160615683E+02  0.72461447085E+02  0.69999839497E+02 0.  0.
         12    1    1    2    0    0 -0.76477934253E+01 -0.10908402020E+02 -0.13160615683E+02  0.18726552915E+02  0.00000000000E+00 0. -1.
         11    1    3    3    0    0  0.93212049844E+01 -0.35095737893E+01  0.28667641756E+02  0.30348569236E+02  0.51100000000E-03 0. -1.
        -11    1    3    3    0    0  0.56972247841E+01 -0.38767274500E+01  0.85645893785E+01  0.10992705647E+02  0.51100000000E-03 0.  1.
        -12    1    3    3    0    0 -0.73706363432E+01  0.18294703259E+02 -0.24071615452E+02  0.31120172202E+02  0.00000000000E+00 0.  1.
</event>
<event>
 7    1  0.3672892E-013  0.7246163E+02  0.7816164E-02  0.1226708E+00
        -11   -1    0    0    0    0  0.00000000000E+00  0.00000000000E+00  0.45593999997E+02  0.45594000000E+02  0.51100000000E-03 0.  1.
         11   -1    0    0    0    0 -0.00000000000E+00 -0.00000000000E+00 -0.45593999997E+02  0.45594000000E+02  0.51100000000E-03 0. -1.
    9900012    2    1    2    0    0 -0.77342629921E+01  0.15355560283E+02 -0.74205835990E+01  0.72461625108E+02  0.70000071405E+02 0.  0.
         12    1    1    2    0    0  0.77342629921E+01 -0.15355560283E+02  0.74205835990E+01  0.18726374892E+02  0.00000000000E+00 0. -1.
         11    1    3    3    0    0  0.14746944562E+02  0.13775141888E+02 -0.12407012824E+02  0.23688834405E+02  0.51100000000E-03 0. -1.
        -11    1    3    3    0    0  0.74486411621E+01 -0.38946379707E+01  0.14614536217E+02  0.16859274278E+02  0.51100000000E-03 0.  1.
        -12    1    3    3    0    0 -0.29929848717E+02  0.54750563659E+01 -0.96281069915E+01  0.31913516426E+02  0.00000000000E+00 0.  1.
</event>
<event>
 7    1  0.3027254E-013  0.7246159E+02  0.7816164E-02  0.1226708E+00
        -11   -1    0    0    0    0  0.00000000000E+00  0.00000000000E+00  0.45593999997E+02  0.45594000000E+02  0.51100000000E-03 0.  1.
         11   -1    0    0    0    0 -0.00000000000E+00 -0.00000000000E+00 -0.45593999997E+02  0.45594000000E+02  0.51100000000E-03 0. -1.
    9900012    2    1    2    0    0  0.14320568504E+02 -0.10860352044E+02  0.52585531920E+01  0.72461593231E+02  0.70000029880E+02 0.  0.
         12    1    1    2    0    0 -0.14320568504E+02  0.10860352044E+02 -0.52585531920E+01  0.18726406769E+02  0.00000000000E+00 0. -1.
         11    1    3    3    0    0  0.16969944674E+01  0.79412535732E+01 -0.49637328997E+00  0.81357043481E+01  0.51100000000E-03 0. -1.
        -11    1    3    3    0    0  0.25530367760E+02  0.16827711157E+01  0.23157182673E+02  0.34509223495E+02  0.51100000000E-03 0.  1.
         12    1    3    3    0    0 -0.12906793724E+02 -0.20484376733E+02 -0.17402256191E+02  0.29816665388E+02  0.00000000000E+00 0. -1.
</event>
<event>
 7    1  0.3027254E-013  0.7246155E+02  0.7816164E-02  0.1226708E+00
        -11   -1    0    0    0    0  0.00000000000E+00  0.00000000000E+00  0.45593999997E+02  0.45594000000E+02  0.51100000000E-03 0.  1.
         11   -1    0    0    0    0 -0.00000000000E+00 -0.00000000000E+00 -0.45593999997E+02  0.45594000000E+02  0.51100000000E-03 0. -1.
    9900012    2    1    2    0    0 -0.20969629228E-01 -0.52670723523E+01  0.17970456787E+02  0.72461553246E+02  0.69999977791E+02 0.  0.
         12    1    1    2    0    0  0.20969629228E-01  0.52670723523E+01 -0.17970456787E+02  0.18726446754E+02  0.00000000000E+00 0. -1.
         11    1    3    3    0    0  0.92507499394E+01 -0.69828353143E+01  0.10741929385E+02  0.15802702637E+02  0.51100000000E-03 0. -1.
        -11    1    3    3    0    0 -0.58830519628E+00 -0.61304520539E+01  0.30230154702E+02  0.30851106933E+02  0.51100000000E-03 0.  1.
         12    1    3    3    0    0 -0.86834143724E+01  0.78462150159E+01 -0.23001627299E+02  0.25807743676E+02  0.00000000000E+00 0. -1.
</event>
<event>
 7    1  0.3027254E-013  0.7246156E+02  0.7816164E-02  0.1226708E+00
        -11   -1    0    0    0    0  0.00000000000E+00  0.00000000000E+00  0.45593999997E+02  0.45594000000E+02  0.51100000000E-03 0.  1.
         11   -1    0    0    0    0 -0.00000000000E+00 -0.00000000000E+00 -0.45593999997E+02  0.45594000000E+02  0.51100000000E-03 0. -1.
    9900012    2    1    2    0    0 -0.74479946133E+01 -0.11175302936E+02  0.13050659066E+02  0.72461555555E+02  0.69999980800E+02 0.  0.
         12    1    1    2    0    0  0.74479946133E+01  0.11175302936E+02 -0.13050659066E+02  0.18726444445E+02  0.00000000000E+00 0. -1.
         11    1    3    3    0    0  0.58303157121E+01 -0.76267600737E+01 -0.65916384899E+01  0.11645159886E+02  0.51100000000E-03 0. -1.
        -11    1    3    3    0    0 -0.32704845100E+02 -0.13906434644E+02  0.11824953726E+02  0.37454310145E+02  0.51100000000E-03 0.  1.
         12    1    3    3    0    0  0.19426534775E+02  0.10357891782E+02  0.78173438298E+01  0.23362085525E+02  0.00000000000E+00 0. -1.
</event>
<event>
 7    1  0.3027254E-013  0.7246155E+02  0.7816164E-02  0.1226708E+00
        -11   -1    0    0    0    0  0.00000000000E+00  0.00000000000E+00  0.45593999997E+02  0.45594000000E+02  0.51100000000E-03 0. -1.
         11   -1    0    0    0    0 -0.00000000000E+00 -0.00000000000E+00 -0.45593999997E+02  0.45594000000E+02  0.51100000000E-03 0.  1.
    9900012    2    1    2    0    0 -0.15711494148E+02  0.91311799757E+01  0.45222083311E+01  0.72461551743E+02  0.69999975834E+02 0.  0.
         12    1    1    2    0    0  0.15711494148E+02 -0.91311799757E+01 -0.45222083311E+01  0.18726448257E+02  0.00000000000E+00 0. -1.
         11    1    3    3    0    0 -0.35383112427E+01  0.11199741269E+02 -0.12257330968E+02  0.16976336874E+02  0.51100000000E-03 0. -1.
        -11    1    3    3    0    0 -0.22039969196E+02  0.60166129558E+01 -0.10670870875E+02  0.25215617365E+02  0.51100000000E-03 0.  1.
         12    1    3    3    0    0  0.98667862897E+01 -0.80851742490E+01  0.27450410174E+02  0.30269597504E+02  0.00000000000E+00 0. -1.
</event>
<event>
 7    1  0.3027254E-013  0.7246159E+02  0.7816164E-02  0.1226708E+00
        -11   -1    0    0    0    0  0.00000000000E+00  0.00000000000E+00  0.45593999997E+02  0.45594000000E+02  0.51100000000E-03 0. -1.
         11   -1    0    0    0    0 -0.00000000000E+00 -0.00000000000E+00 -0.45593999997E+02  0.45594000000E+02  0.51100000000E-03 0.  1.
    9900012    2    1    2    0    0 -0.32994436033E+00 -0.15872955150E+02 -0.99307061744E+01  0.72461588342E+02  0.70000023510E+02 0.  0.
         12    1    1    2    0    0  0.32994436033E+00  0.15872955150E+02  0.99307061744E+01  0.18726411658E+02  0.00000000000E+00 0. -1.
         11    1    3    3    0    0 -0.59704461635E+01  0.41261730476E+01 -0.65580870097E+01  0.97816172946E+01  0.51100000000E-03 0. -1.
        -11    1    3    3    0    0 -0.24290730713E+02 -0.68054967317E+00  0.75036813397E+01  0.25432419868E+02  0.51100000000E-03 0.  1.
        -12    1    3    3    0    0  0.29931232517E+02 -0.19318578524E+02 -0.10876300504E+02  0.37247551179E+02  0.00000000000E+00 0.  1.
</event>
<event>
 7    1  0.3027254E-013  0.7246156E+02  0.7816164E-02  0.1226708E+00
        -11   -1    0    0    0    0  0.00000000000E+00  0.00000000000E+00  0.45593999997E+02  0.45594000000E+02  0.51100000000E-03 0.  1.
         11   -1    0    0    0    0 -0.00000000000E+00 -0.00000000000E+00 -0.45593999997E+02  0.45594000000E+02  0.51100000000E-03 0. -1.
    9900012    2    1    2    0    0 -0.82204427417E+01  0.56825850798E+01  0.15837050173E+02  0.72461558527E+02  0.69999984670E+02 0.  0.
         12    1    1    2    0    0  0.82204427417E+01 -0.56825850798E+01 -0.15837050173E+02  0.18726441473E+02  0.00000000000E+00 0. -1.
         11    1    3    3    0    0  0.36433450447E+01 -0.10676901563E+01 -0.83723712384E+01  0.91929606656E+01  0.51100000000E-03 0. -1.
        -11    1    3    3    0    0 -0.32645787966E+02 -0.28934744945E+01  0.45668995107E+01  0.33090425170E+02  0.51100000000E-03 0.  1.
         12    1    3    3    0    0  0.20782000179E+02  0.96437497307E+01  0.19642521901E+02  0.30178172691E+02  0.00000000000E+00 0. -1.
</event>
<event>
 7    1  0.3027254E-013  0.7246155E+02  0.7816164E-02  0.1226708E+00
        -11   -1    0    0    0    0  0.00000000000E+00  0.00000000000E+00  0.45593999997E+02  0.45594000000E+02  0.51100000000E-03 0. -1.
         11   -1    0    0    0    0 -0.00000000000E+00 -0.00000000000E+00 -0.45593999997E+02  0.45594000000E+02  0.51100000000E-03 0.  1.
    9900012    2    1    2    0    0 -0.17279120195E+00  0.12499444240E+02 -0.13943247207E+02  0.72461545295E+02  0.69999967434E+02 0.  0.
         12    1    1    2    0    0  0.17279120195E+00 -0.12499444240E+02  0.13943247207E+02  0.18726454705E+02  0.00000000000E+00 0. -1.
         11    1    3    3    0    0  0.12286662769E+02 -0.13059853119E+02 -0.64764902058E+01  0.19064804514E+02  0.51100000000E-03 0. -1.
        -11    1    3    3    0    0 -0.12218548766E+02 -0.10107361361E+02  0.31824791868E+01  0.16173430733E+02  0.51100000000E-03 0.  1.
         12    1    3    3    0    0 -0.24090520497E+00  0.35666658721E+02 -0.10649236188E+02  0.37223310049E+02  0.00000000000E+00 0. -1.
</event>
<event>
 7    1  0.3027254E-013  0.7246224E+02  0.7816164E-02  0.1226706E+00
        -11   -1    0    0    0    0  0.00000000000E+00  0.00000000000E+00  0.45593999997E+02  0.45594000000E+02  0.51100000000E-03 0. -1.
         11   -1    0    0    0    0 -0.00000000000E+00 -0.00000000000E+00 -0.45593999997E+02  0.45594000000E+02  0.51100000000E-03 0.  1.
    9900012    2    1    2    0    0 -0.48129991663E+01 -0.17820434673E+02 -0.31498030026E+01  0.72462239352E+02  0.70000871566E+02 0.  0.
         12    1    1    2    0    0  0.48129991663E+01  0.17820434673E+02  0.31498030026E+01  0.18725760648E+02  0.00000000000E+00 0. -1.
         11    1    3    3    0    0 -0.40864405739E+00 -0.40241828295E+02  0.12335162180E+02  0.42091898992E+02  0.51100000000E-03 0. -1.
        -11    1    3    3    0    0 -0.15336237916E+01  0.48957266156E+01 -0.10872174900E+02  0.12021827164E+02  0.51100000000E-03 0.  1.
        -12    1    3    3    0    0 -0.28707313174E+01  0.17525667007E+02 -0.46127902818E+01  0.18348513196E+02  0.00000000000E+00 0.  1.
</event>
<event>
 7    1  0.3027254E-013  0.7246169E+02  0.7816164E-02  0.1226708E+00
        -11   -1    0    0    0    0  0.00000000000E+00  0.00000000000E+00  0.45593999997E+02  0.45594000000E+02  0.51100000000E-03 0. -1.
         11   -1    0    0    0    0 -0.00000000000E+00 -0.00000000000E+00 -0.45593999997E+02  0.45594000000E+02  0.51100000000E-03 0.  1.
    9900012    2    1    2    0    0 -0.20572618305E+01  0.13790680889E+02 -0.12500375356E+02  0.72461692578E+02  0.70000159297E+02 0.  0.
         12    1    1    2    0    0  0.20572618305E+01 -0.13790680889E+02  0.12500375356E+02  0.18726307422E+02  0.00000000000E+00 0. -1.
         11    1    3    3    0    0  0.50901230546E+01  0.69596275299E+01  0.10129813774E+02  0.13302589802E+02  0.51100000000E-03 0. -1.
        -11    1    3    3    0    0  0.72506179945E+01  0.63598702598E+01  0.15579944489E+02  0.18323593576E+02  0.51100000000E-03 0.  1.
        -12    1    3    3    0    0 -0.14398002880E+02  0.47118309956E+00 -0.38210133619E+02  0.40835509200E+02  0.00000000000E+00 0.  1.
</event>
<event>
 7    1  0.3027254E-013  0.7246159E+02  0.7816164E-02  0.1226708E+00
        -11   -1    0    0    0    0  0.00000000000E+00  0.00000000000E+00  0.45593999997E+02  0.45594000000E+02  0.51100000000E-03 0.  1.
         11   -1    0    0    0    0 -0.00000000000E+00 -0.00000000000E+00 -0.45593999997E+02  0.45594000000E+02  0.51100000000E-03 0. -1.
    9900012    2    1    2    0    0  0.12205959201E+02 -0.92007090660E+01  0.10818502220E+02  0.72461588769E+02  0.70000024066E+02 0.  0.
         12    1    1    2    0    0 -0.12205959201E+02  0.92007090660E+01 -0.10818502220E+02  0.18726411231E+02  0.00000000000E+00 0. -1.
         11    1    3    3    0    0  0.34544326172E+01  0.70207217824E+01 -0.52319535884E+01  0.94125967546E+01  0.51100000000E-03 0. -1.
        -11    1    3    3    0    0  0.10458398861E+02  0.18604315694E+02  0.18293146550E+02  0.28109391316E+02  0.51100000000E-03 0.  1.
         12    1    3    3    0    0 -0.17068722778E+01 -0.34825746542E+02 -0.22426907423E+01  0.34939600698E+02  0.00000000000E+00 0. -1.
</event>
<event>
 7    1  0.3027254E-013  0.7246154E+02  0.7816164E-02  0.1226708E+00
        -11   -1    0    0    0    0  0.00000000000E+00  0.00000000000E+00  0.45593999997E+02  0.45594000000E+02  0.51100000000E-03 0. -1.
         11   -1    0    0    0    0 -0.00000000000E+00 -0.00000000000E+00 -0.45593999997E+02  0.45594000000E+02  0.51100000000E-03 0.  1.
    9900012    2    1    2    0    0  0.18692264343E+02 -0.51410650809E-01 -0.11299443981E+01  0.72461543751E+02  0.69999965422E+02 0.  0.
         12    1    1    2    0    0 -0.18692264343E+02  0.51410650809E-01  0.11299443981E+01  0.18726456249E+02  0.00000000000E+00 0. -1.
         11    1    3    3    0    0  0.78205140467E+01 -0.20646500881E+02  0.13262663867E+02  0.25755323560E+02  0.51100000000E-03 0. -1.
        -11    1    3    3    0    0  0.23481884189E+01 -0.11006813321E+02 -0.85834874960E+00  0.11287191466E+02  0.51100000000E-03 0.  1.
        -12    1    3    3    0    0  0.85235618770E+01  0.31601903552E+02 -0.13534259515E+02  0.35419028725E+02  0.00000000000E+00 0.  1.
</event>
<event>
 7    1  0.3027254E-013  0.7246145E+02  0.7816164E-02  0.1226708E+00
        -11   -1    0    0    0    0  0.00000000000E+00  0.00000000000E+00  0.45593999997E+02  0.45594000000E+02  0.51100000000E-03 0.  1.
         11   -1    0    0    0    0 -0.00000000000E+00 -0.00000000000E+00 -0.45593999997E+02  0.45594000000E+02  0.51100000000E-03 0. -1.
    9900012    2    1    2    0    0  0.18416580409E+02  0.32907275988E+01 -0.82733432939E+00  0.72461446548E+02  0.69999838797E+02 0.  0.
         12    1    1    2    0    0 -0.18416580409E+02 -0.32907275988E+01  0.82733432939E+00  0.18726553452E+02  0.00000000000E+00 0. -1.
         11    1    3    3    0    0 -0.99615729504E+01 -0.97598197607E+01 -0.86282162754E+01  0.16399180887E+02  0.51100000000E-03 0. -1.
        -11    1    3    3    0    0 -0.56184518383E+01 -0.11772021481E+02  0.46580752705E+01  0.13850817893E+02  0.51100000000E-03 0.  1.
         12    1    3    3    0    0  0.33996605198E+02  0.24822568841E+02  0.31428066756E+01  0.42211447768E+02  0.00000000000E+00 0. -1.
</event>
<event>
 7    1  0.3027254E-013  0.7246157E+02  0.7816164E-02  0.1226708E+00
        -11   -1    0    0    0    0  0.00000000000E+00  0.00000000000E+00  0.45593999997E+02  0.45594000000E+02  0.51100000000E-03 0.  1.
         11   -1    0    0    0    0 -0.00000000000E+00 -0.00000000000E+00 -0.45593999997E+02  0.45594000000E+02  0.51100000000E-03 0. -1.
    9900012    2    1    2    0    0 -0.13280945801E+02 -0.77218863309E+01  0.10708317176E+02  0.72461571974E+02  0.70000002188E+02 0.  0.
         12    1    1    2    0    0  0.13280945801E+02  0.77218863309E+01 -0.10708317176E+02  0.18726428026E+02  0.00000000000E+00 0. -1.
         11    1    3    3    0    0  0.12775322702E+01 -0.19031136153E+02  0.51616445656E+01  0.19760030538E+02  0.51100000000E-03 0. -1.
        -11    1    3    3    0    0 -0.96106577386E+01 -0.95853491333E+01  0.21862555081E+02  0.25733537944E+02  0.51100000000E-03 0.  1.
        -12    1    3    3    0    0 -0.49478203328E+01  0.20894598955E+02 -0.16315882471E+02  0.26968003492E+02  0.00000000000E+00 0.  1.
</event>
<event>
 7    1  0.3027254E-013  0.7246162E+02  0.7816164E-02  0.1226708E+00
        -11   -1    0    0    0    0  0.00000000000E+00  0.00000000000E+00  0.45593999997E+02  0.45594000000E+02  0.51100000000E-03 0.  1.
         11   -1    0    0    0    0 -0.00000000000E+00 -0.00000000000E+00 -0.45593999997E+02  0.45594000000E+02  0.51100000000E-03 0. -1.
    9900012    2    1    2    0    0  0.49698753986E+00 -0.18542115606E+02 -0.25730168913E+01  0.72461615840E+02  0.70000059332E+02 0.  0.
         12    1    1    2    0    0 -0.49698753986E+00  0.18542115606E+02  0.25730168913E+01  0.18726384160E+02  0.00000000000E+00 0. -1.
         11    1    3    3    0    0  0.14866391143E+02 -0.13683601941E+02 -0.15800919931E+02  0.25649943833E+02  0.51100000000E-03 0. -1.
        -11    1    3    3    0    0  0.12618393603E+02 -0.28362302213E+01 -0.53386363285E+01  0.13991751038E+02  0.51100000000E-03 0.  1.
        -12    1    3    3    0    0 -0.26987797207E+02 -0.20222834442E+01  0.18566539368E+02  0.32819920970E+02  0.00000000000E+00 0.  1.
</event>
<event>
 7    1  0.3027254E-013  0.7246150E+02  0.7816164E-02  0.1226708E+00
        -11   -1    0    0    0    0  0.00000000000E+00  0.00000000000E+00  0.45593999997E+02  0.45594000000E+02  0.51100000000E-03 0. -1.
         11   -1    0    0    0    0 -0.00000000000E+00 -0.00000000000E+00 -0.45593999997E+02  0.45594000000E+02  0.51100000000E-03 0.  1.
    9900012    2    1    2    0    0  0.19638260034E+01  0.18558150901E+02  0.15556484447E+01  0.72461504879E+02  0.69999914784E+02 0.  0.
         12    1    1    2    0    0 -0.19638260034E+01 -0.18558150901E+02 -0.15556484447E+01  0.18726495121E+02  0.00000000000E+00 0. -1.
         11    1    3    3    0    0 -0.18821843519E+01 -0.90468704362E+00 -0.28065550602E+01  0.34982607319E+01  0.51100000000E-03 0. -1.
        -11    1    3    3    0    0 -0.17682467986E+02  0.25997286812E+01  0.27731266416E+02  0.32991686841E+02  0.51100000000E-03 0.  1.
        -12    1    3    3    0    0  0.21528478342E+02  0.16863109263E+02 -0.23369062911E+02  0.35971557307E+02  0.00000000000E+00 0.  1.
</event>
<event>
 7    1  0.3027254E-013  0.7246154E+02  0.7816164E-02  0.1226708E+00
        -11   -1    0    0    0    0  0.00000000000E+00  0.00000000000E+00  0.45593999997E+02  0.45594000000E+02  0.51100000000E-03 0.  1.
         11   -1    0    0    0    0 -0.00000000000E+00 -0.00000000000E+00 -0.45593999997E+02  0.45594000000E+02  0.51100000000E-03 0. -1.
    9900012    2    1    2    0    0 -0.96259072976E+01  0.16059407856E+02  0.34271324128E+00  0.72461544800E+02  0.69999966789E+02 0.  0.
         12    1    1    2    0    0  0.96259072976E+01 -0.16059407856E+02 -0.34271324128E+00  0.18726455200E+02  0.00000000000E+00 0. -1.
         11    1    3    3    0    0  0.65256414146E+01  0.11273259571E+02  0.27907141711E+01  0.13321353651E+02  0.51100000000E-03 0. -1.
        -11    1    3    3    0    0 -0.20176381009E+02  0.34737163116E+01  0.24462164782E+02  0.31899068351E+02  0.51100000000E-03 0.  1.
         12    1    3    3    0    0  0.40248322963E+01  0.13124319726E+01 -0.26910165712E+02  0.27241122799E+02  0.00000000000E+00 0. -1.
</event>
<event>
 7    1  0.3027254E-013  0.7246160E+02  0.7816164E-02  0.1226708E+00
        -11   -1    0    0    0    0  0.00000000000E+00  0.00000000000E+00  0.45593999997E+02  0.45594000000E+02  0.51100000000E-03 0.  1.
         11   -1    0    0    0    0 -0.00000000000E+00 -0.00000000000E+00 -0.45593999997E+02  0.45594000000E+02  0.51100000000E-03 0. -1.
    9900012    2    1    2    0    0 -0.48139182517E+01 -0.11556061726E+02  0.13927014256E+02  0.72461598914E+02  0.70000037282E+02 0.  0.
         12    1    1    2    0    0  0.48139182517E+01  0.11556061726E+02 -0.13927014256E+02  0.18726401086E+02  0.00000000000E+00 0. -1.
         11    1    3    3    0    0  0.16452376680E+02 -0.10272187856E+02  0.32327045240E+01  0.19663390363E+02  0.51100000000E-03 0. -1.
        -11    1    3    3    0    0 -0.38997867128E+01 -0.71587312114E+01  0.27036365874E+02  0.28238641059E+02  0.51100000000E-03 0.  1.
         12    1    3    3    0    0 -0.17366508218E+02  0.58748573415E+01 -0.16342056141E+02  0.24559567492E+02  0.00000000000E+00 0. -1.
</event>
<event>
 7    1  0.3027254E-013  0.7246158E+02  0.7816164E-02  0.1226708E+00
        -11   -1    0    0    0    0  0.00000000000E+00  0.00000000000E+00  0.45593999997E+02  0.45594000000E+02  0.51100000000E-03 0.  1.
         11   -1    0    0    0    0 -0.00000000000E+00 -0.00000000000E+00 -0.45593999997E+02  0.45594000000E+02  0.51100000000E-03 0. -1.
    9900012    2    1    2    0    0 -0.18503824845E+02 -0.17427664120E+01  0.22912907673E+01  0.72461580640E+02  0.70000013478E+02 0.  0.
         12    1    1    2    0    0  0.18503824845E+02  0.17427664120E+01 -0.22912907673E+01  0.18726419360E+02  0.00000000000E+00 0. -1.
         11    1    3    3    0    0 -0.45436711887E+01 -0.26898216683E+01  0.11398400765E+01  0.54017889758E+01  0.51100000000E-03 0. -1.
        -11    1    3    3    0    0 -0.12746698431E+02 -0.19314567971E+02  0.26110058890E+02  0.34889339808E+02  0.51100000000E-03 0.  1.
         12    1    3    3    0    0 -0.12134552255E+01  0.20261623227E+02 -0.24958608199E+02  0.32170451856E+02  0.00000000000E+00 0. -1.
</event>
<event>
 7    1  0.3027254E-013  0.7246161E+02  0.7816164E-02  0.1226708E+00
        -11   -1    0    0    0    0  0.00000000000E+00  0.00000000000E+00  0.45593999997E+02  0.45594000000E+02  0.51100000000E-03 0. -1.
         11   -1    0    0    0    0 -0.00000000000E+00 -0.00000000000E+00 -0.45593999997E+02  0.45594000000E+02  0.51100000000E-03 0.  1.
    9900012    2    1    2    0    0  0.12916709427E+02 -0.13376045168E+02  0.22175900988E+01  0.72461610262E+02  0.70000052066E+02 0.  0.
         12    1    1    2    0    0 -0.12916709427E+02  0.13376045168E+02 -0.22175900988E+01  0.18726389738E+02  0.00000000000E+00 0. -1.
         11    1    3    3    0    0 -0.23766361048E+01  0.92902143378E+00 -0.19702139134E+02  0.19866699946E+02  0.51100000000E-03 0. -1.
        -11    1    3    3    0    0  0.13119394907E+02 -0.17579236344E+02 -0.72955134291E+01  0.23116500376E+02  0.51100000000E-03 0.  1.
         12    1    3    3    0    0  0.21739506247E+01  0.32741697426E+01  0.29215242662E+02  0.29478409941E+02  0.00000000000E+00 0. -1.
</event>
<event>
 7    1  0.3027254E-013  0.7246152E+02  0.7816164E-02  0.1226708E+00
        -11   -1    0    0    0    0  0.00000000000E+00  0.00000000000E+00  0.45593999997E+02  0.45594000000E+02  0.51100000000E-03 0. -1.
         11   -1    0    0    0    0 -0.00000000000E+00 -0.00000000000E+00 -0.45593999997E+02  0.45594000000E+02  0.51100000000E-03 0.  1.
    9900012    2    1    2    0    0  0.27203871254E+01 -0.18104176205E+02 -0.39394380730E+01  0.72461524771E+02  0.69999940697E+02 0.  0.
         12    1    1    2    0    0 -0.27203871254E+01  0.18104176205E+02  0.39394380730E+01  0.18726475229E+02  0.00000000000E+00 0. -1.
         11    1    3    3    0    0 -0.16539054409E+02  0.97916324203E+01 -0.24624873877E+01  0.19377312264E+02  0.51100000000E-03 0. -1.
        -11    1    3    3    0    0 -0.12221276100E+02 -0.28643820109E+01 -0.27271258876E+01  0.12845290564E+02  0.51100000000E-03 0.  1.
        -12    1    3    3    0    0  0.31480717634E+02 -0.25031426614E+02  0.12501752022E+01  0.40238921943E+02  0.00000000000E+00 0.  1.
</event>
<event>
 7    1  0.3027254E-013  0.7246156E+02  0.7816164E-02  0.1226708E+00
        -11   -1    0    0    0    0  0.00000000000E+00  0.00000000000E+00  0.45593999997E+02  0.45594000000E+02  0.51100000000E-03 0.  1.
         11   -1    0    0    0    0 -0.00000000000E+00 -0.00000000000E+00 -0.45593999997E+02  0.45594000000E+02  0.51100000000E-03 0. -1.
    9900012    2    1    2    0    0 -0.61751187626E+01  0.90911040064E+01  0.15162429865E+02  0.72461560317E+02  0.69999987002E+02 0.  0.
         12    1    1    2    0    0  0.61751187626E+01 -0.90911040064E+01 -0.15162429865E+02  0.18726439683E+02  0.00000000000E+00 0. -1.
         11    1    3    3    0    0  0.13096882335E+02  0.60302723416E+01 -0.21073980570E+02  0.25534391881E+02  0.51100000000E-03 0. -1.
        -11    1    3    3    0    0 -0.40156674235E+00 -0.57966071672E+01  0.87123331336E+00  0.58754538758E+01  0.51100000000E-03 0.  1.
        -12    1    3    3    0    0 -0.18870434356E+02  0.88574388321E+01  0.35365177122E+02  0.41051714560E+02  0.00000000000E+00 0.  1.
</event>
<event>
 7    1  0.3027254E-013  0.7246154E+02  0.7816164E-02  0.1226708E+00
        -11   -1    0    0    0    0  0.00000000000E+00  0.00000000000E+00  0.45593999997E+02  0.45594000000E+02  0.51100000000E-03 0.  1.
         11   -1    0    0    0    0 -0.00000000000E+00 -0.00000000000E+00 -0.45593999997E+02  0.45594000000E+02  0.51100000000E-03 0. -1.
    9900012    2    1    2    0    0 -0.16379101056E+02 -0.89181345946E+00  0.90338366380E+01  0.72461535116E+02  0.69999954173E+02 0.  0.
         12    1    1    2    0    0  0.16379101056E+02  0.89181345946E+00 -0.90338366380E+01  0.18726464884E+02  0.00000000000E+00 0. -1.
         11    1    3    3    0    0  0.53713644951E+01  0.20695326329E+02  0.60498847463E+01  0.22220467909E+02  0.51100000000E-03 0. -1.
        -11    1    3    3    0    0 -0.99091163168E+01  0.68507571326E+00  0.18234869338E+02  0.20764642423E+02  0.51100000000E-03 0.  1.
        -12    1    3    3    0    0 -0.11841349235E+02 -0.22272215502E+02 -0.15250917447E+02  0.29476424783E+02  0.00000000000E+00 0.  1.
</event>
<event>
 7    1  0.3027254E-013  0.7246160E+02  0.7816164E-02  0.1226708E+00
        -11   -1    0    0    0    0  0.00000000000E+00  0.00000000000E+00  0.45593999997E+02  0.45594000000E+02  0.51100000000E-03 0. -1.
         11   -1    0    0    0    0 -0.00000000000E+00 -0.00000000000E+00 -0.45593999997E+02  0.45594000000E+02  0.51100000000E-03 0.  1.
    9900012    2    1    2    0    0 -0.16298305032E+02 -0.73956895782E+01 -0.55088230336E+01  0.72461598785E+02  0.70000037114E+02 0.  0.
         12    1    1    2    0    0  0.16298305032E+02  0.73956895782E+01  0.55088230336E+01  0.18726401215E+02  0.00000000000E+00 0. -1.
         11    1    3    3    0    0 -0.15350717191E+02 -0.32217331897E+01  0.27142257636E+02  0.31348464602E+02  0.51100000000E-03 0. -1.
        -11    1    3    3    0    0 -0.86579797583E+01 -0.96267492494E+01 -0.93483838029E+01  0.15969570896E+02  0.51100000000E-03 0.  1.
        -12    1    3    3    0    0  0.77103919176E+01  0.54527928609E+01 -0.23302696867E+02  0.25143563287E+02  0.00000000000E+00 0.  1.
</event>
<event>
 7    1  0.3027254E-013  0.7246159E+02  0.7816164E-02  0.1226708E+00
        -11   -1    0    0    0    0  0.00000000000E+00  0.00000000000E+00  0.45593999997E+02  0.45594000000E+02  0.51100000000E-03 0.  1.
         11   -1    0    0    0    0 -0.00000000000E+00 -0.00000000000E+00 -0.45593999997E+02  0.45594000000E+02  0.51100000000E-03 0. -1.
    9900012    2    1    2    0    0 -0.40282362098E+01 -0.29948619729E+01  0.18041135272E+02  0.72461589583E+02  0.70000025128E+02 0.  0.
         12    1    1    2    0    0  0.40282362098E+01  0.29948619729E+01 -0.18041135272E+02  0.18726410417E+02  0.00000000000E+00 0. -1.
         11    1    3    3    0    0  0.10234178649E+01 -0.35812269666E+01 -0.74555538494E+01  0.83341378783E+01  0.51100000000E-03 0. -1.
        -11    1    3    3    0    0 -0.74236218138E+01  0.24110762733E+02 -0.48169149828E+01  0.25683491013E+02  0.51100000000E-03 0.  1.
         12    1    3    3    0    0  0.23719677391E+01 -0.23524397739E+02  0.30313604104E+02  0.38443960692E+02  0.00000000000E+00 0. -1.
</event>
<event>
 7    1  0.3027254E-013  0.7246151E+02  0.7816164E-02  0.1226708E+00
        -11   -1    0    0    0    0  0.00000000000E+00  0.00000000000E+00  0.45593999997E+02  0.45594000000E+02  0.51100000000E-03 0. -1.
         11   -1    0    0    0    0 -0.00000000000E+00 -0.00000000000E+00 -0.45593999997E+02  0.45594000000E+02  0.51100000000E-03 0.  1.
    9900012    2    1    2    0    0  0.13625260751E+02 -0.85184999934E+01 -0.96160793807E+01  0.72461506593E+02  0.69999917017E+02 0.  0.
         12    1    1    2    0    0 -0.13625260751E+02  0.85184999934E+01  0.96160793807E+01  0.18726493407E+02  0.00000000000E+00 0. -1.
         11    1    3    3    0    0  0.17378913298E+01 -0.22455263988E+01 -0.13994711117E+02  0.14279866756E+02  0.51100000000E-03 0. -1.
        -11    1    3    3    0    0  0.22461888012E+01  0.19535769612E+01 -0.25527660943E+02  0.25700647863E+02  0.51100000000E-03 0.  1.
         12    1    3    3    0    0  0.96411806200E+01 -0.82265505557E+01  0.29906292679E+02  0.32480991974E+02  0.00000000000E+00 0. -1.
</event>
<event>
 7    1  0.3027254E-013  0.7246157E+02  0.7816164E-02  0.1226708E+00
        -11   -1    0    0    0    0  0.00000000000E+00  0.00000000000E+00  0.45593999997E+02  0.45594000000E+02  0.51100000000E-03 0.  1.
         11   -1    0    0    0    0 -0.00000000000E+00 -0.00000000000E+00 -0.45593999997E+02  0.45594000000E+02  0.51100000000E-03 0. -1.
    9900012    2    1    2    0    0 -0.12392924458E+02 -0.86416898669E+00  0.14012418418E+02  0.72461568558E+02  0.69999997738E+02 0.  0.
         12    1    1    2    0    0  0.12392924458E+02  0.86416898669E+00 -0.14012418418E+02  0.18726431442E+02  0.00000000000E+00 0. -1.
         11    1    3    3    0    0 -0.26652486417E+02 -0.19418180360E+02 -0.99943595706E+01  0.34457335709E+02  0.51100000000E-03 0. -1.
        -11    1    3    3    0    0 -0.77295342605E+00 -0.14916725325E+01 -0.14980120578E+01  0.22509074458E+01  0.51100000000E-03 0.  1.
        -12    1    3    3    0    0  0.15032515386E+02  0.20045683905E+02  0.25504790046E+02  0.35753325403E+02  0.00000000000E+00 0.  1.
</event>
<event>
 7    1  0.3027254E-013  0.7246147E+02  0.7816164E-02  0.1226708E+00
        -11   -1    0    0    0    0  0.00000000000E+00  0.00000000000E+00  0.45593999997E+02  0.45594000000E+02  0.51100000000E-03 0.  1.
         11   -1    0    0    0    0 -0.00000000000E+00 -0.00000000000E+00 -0.45593999997E+02  0.45594000000E+02  0.51100000000E-03 0. -1.
    9900012    2    1    2    0    0 -0.30125607578E+01  0.45655220385E+01  0.17909871640E+02  0.72461467594E+02  0.69999866214E+02 0.  0.
         12    1    1    2    0    0  0.30125607578E+01 -0.45655220385E+01 -0.17909871640E+02  0.18726532406E+02  0.00000000000E+00 0. -1.
         11    1    3    3    0    0  0.14133299744E+01  0.10448336239E+02 -0.10412173150E+02  0.14818184159E+02  0.51100000000E-03 0. -1.
        -11    1    3    3    0    0 -0.15463993621E+02  0.17998812119E+02  0.15781241974E+02  0.28498068968E+02  0.51100000000E-03 0.  1.
        -12    1    3    3    0    0  0.11038102889E+02 -0.23881626320E+02  0.12540802815E+02  0.29145214467E+02  0.00000000000E+00 0.  1.
</event>
<event>
 7    1  0.3027254E-013  0.7246162E+02  0.7816164E-02  0.1226708E+00
        -11   -1    0    0    0    0  0.00000000000E+00  0.00000000000E+00  0.45593999997E+02  0.45594000000E+02  0.51100000000E-03 0. -1.
         11   -1    0    0    0    0 -0.00000000000E+00 -0.00000000000E+00 -0.45593999997E+02  0.45594000000E+02  0.51100000000E-03 0.  1.
    9900012    2    1    2    0    0 -0.16896063327E+02 -0.78504199119E+01 -0.18898003174E+01  0.72461617701E+02  0.70000061756E+02 0.  0.
         12    1    1    2    0    0  0.16896063327E+02  0.78504199119E+01  0.18898003174E+01  0.18726382299E+02  0.00000000000E+00 0. -1.
         11    1    3    3    0    0 -0.21066449226E+02 -0.14222096161E+02  0.63662139467E+01  0.26202900269E+02  0.51100000000E-03 0. -1.
        -11    1    3    3    0    0  0.54608003152E+01  0.76438824913E+01 -0.26401487121E+02  0.28022987030E+02  0.51100000000E-03 0.  1.
         12    1    3    3    0    0 -0.12904144162E+01 -0.12722062421E+01  0.18145472857E+02  0.18235730402E+02  0.00000000000E+00 0. -1.
</event>
<event>
 7    1  0.3027254E-013  0.7246153E+02  0.7816164E-02  0.1226708E+00
        -11   -1    0    0    0    0  0.00000000000E+00  0.00000000000E+00  0.45593999997E+02  0.45594000000E+02  0.51100000000E-03 0.  1.
         11   -1    0    0    0    0 -0.00000000000E+00 -0.00000000000E+00 -0.45593999997E+02  0.45594000000E+02  0.51100000000E-03 0. -1.
    9900012    2    1    2    0    0  0.18078152589E+02  0.22785217032E+00 -0.48794594300E+01  0.72461530979E+02  0.69999948785E+02 0.  0.
         12    1    1    2    0    0 -0.18078152589E+02 -0.22785217032E+00  0.48794594300E+01  0.18726469021E+02  0.00000000000E+00 0. -1.
         11    1    3    3    0    0  0.42540622148E+01 -0.21134253633E+02 -0.11090785761E+02  0.24243746637E+02  0.51100000000E-03 0. -1.
        -11    1    3    3    0    0 -0.13389864682E+01 -0.94754599326E+01 -0.65109135309E+01  0.11574507375E+02  0.51100000000E-03 0.  1.
        -12    1    3    3    0    0  0.15163076843E+02  0.30837565735E+02  0.12722239862E+02  0.36643276968E+02  0.00000000000E+00 0.  1.
</event>
<event>
 7    1  0.3027254E-013  0.7246157E+02  0.7816164E-02  0.1226708E+00
        -11   -1    0    0    0    0  0.00000000000E+00  0.00000000000E+00  0.45593999997E+02  0.45594000000E+02  0.51100000000E-03 0.  1.
         11   -1    0    0    0    0 -0.00000000000E+00 -0.00000000000E+00 -0.45593999997E+02  0.45594000000E+02  0.51100000000E-03 0. -1.
    9900012    2    1    2    0    0 -0.12438219653E+02 -0.13694393872E+02 -0.29040460456E+01  0.72461569078E+02  0.69999998415E+02 0.  0.
         12    1    1    2    0    0  0.12438219653E+02  0.13694393872E+02  0.29040460456E+01  0.18726430922E+02  0.00000000000E+00 0. -1.
         11    1    3    3    0    0  0.37996143367E+00 -0.62877552708E+01  0.43954085757E+01  0.76811362340E+01  0.51100000000E-03 0. -1.
        -11    1    3    3    0    0 -0.16192633986E+02  0.25879553464E+02  0.40615906656E-01  0.30527927097E+02  0.51100000000E-03 0.  1.
         12    1    3    3    0    0  0.33744528999E+01 -0.33286192065E+02 -0.73400705280E+01  0.34252505747E+02  0.00000000000E+00 0. -1.
</event>
<event>
 7    1  0.3027254E-013  0.7246154E+02  0.7816164E-02  0.1226708E+00
        -11   -1    0    0    0    0  0.00000000000E+00  0.00000000000E+00  0.45593999997E+02  0.45594000000E+02  0.51100000000E-03 0.  1.
         11   -1    0    0    0    0 -0.00000000000E+00 -0.00000000000E+00 -0.45593999997E+02  0.45594000000E+02  0.51100000000E-03 0. -1.
    9900012    2    1    2    0    0 -0.48463843370E+01  0.16086491954E+02  0.82715018054E+01  0.72461537263E+02  0.69999956971E+02 0.  0.
         12    1    1    2    0    0  0.48463843370E+01 -0.16086491954E+02 -0.82715018054E+01  0.18726462737E+02  0.00000000000E+00 0. -1.
         11    1    3    3    0    0 -0.12548929032E+02  0.14328726663E+02 -0.26064562667E+02  0.32282339675E+02  0.51100000000E-03 0. -1.
        -11    1    3    3    0    0  0.45634157760E+01  0.69468504859E+01  0.39657608905E+01  0.92092754829E+01  0.51100000000E-03 0.  1.
        -12    1    3    3    0    0  0.31391289192E+01 -0.51890851952E+01  0.30370303582E+02  0.30969922105E+02  0.00000000000E+00 0.  1.
</event>
<event>
 7    1  0.3027254E-013  0.7246156E+02  0.7816164E-02  0.1226708E+00
        -11   -1    0    0    0    0  0.00000000000E+00  0.00000000000E+00  0.45593999997E+02  0.45594000000E+02  0.51100000000E-03 0.  1.
         11   -1    0    0    0    0 -0.00000000000E+00 -0.00000000000E+00 -0.45593999997E+02  0.45594000000E+02  0.51100000000E-03 0. -1.
    9900012    2    1    2    0    0  0.92108423327E+00 -0.40858965154E+01  0.18252034276E+02  0.72461556085E+02  0.69999981490E+02 0.  0.
         12    1    1    2    0    0 -0.92108423327E+00  0.40858965154E+01 -0.18252034276E+02  0.18726443915E+02  0.00000000000E+00 0. -1.
         11    1    3    3    0    0  0.12373853252E+02  0.64842884212E+01 -0.30757338944E+00  0.13973290317E+02  0.51100000000E-03 0. -1.
        -11    1    3    3    0    0  0.12056101314E+02  0.11296553212E+02 -0.65057375042E+01  0.17756303503E+02  0.51100000000E-03 0.  1.
        -12    1    3    3    0    0 -0.23508870332E+02 -0.21866738149E+02  0.25065345169E+02  0.40731962265E+02  0.00000000000E+00 0.  1.
</event>
<event>
 7    1  0.3027254E-013  0.7246128E+02  0.7816164E-02  0.1226709E+00
        -11   -1    0    0    0    0  0.00000000000E+00  0.00000000000E+00  0.45593999997E+02  0.45594000000E+02  0.51100000000E-03 0. -1.
         11   -1    0    0    0    0 -0.00000000000E+00 -0.00000000000E+00 -0.45593999997E+02  0.45594000000E+02  0.51100000000E-03 0.  1.
    9900012    2    1    2    0    0  0.14574139474E+02  0.58355230821E+01 -0.10209358090E+02  0.72461284761E+02  0.69999628038E+02 0.  0.
         12    1    1    2    0    0 -0.14574139474E+02 -0.58355230821E+01  0.10209358090E+02  0.18726715239E+02  0.00000000000E+00 0. -1.
         11    1    3    3    0    0 -0.72982686013E+01  0.23865372670E+01  0.34784924998E+01  0.84297209346E+01  0.51100000000E-03 0. -1.
        -11    1    3    3    0    0  0.36820771445E+02  0.10819057025E+02  0.53283152934E+01  0.38745479076E+02  0.51100000000E-03 0.  1.
         12    1    3    3    0    0 -0.14948363370E+02 -0.73700712099E+01 -0.19016165883E+02  0.25286084750E+02  0.00000000000E+00 0. -1.
</event>
<event>
 7    1  0.3027254E-013  0.7246153E+02  0.7816164E-02  0.1226708E+00
        -11   -1    0    0    0    0  0.00000000000E+00  0.00000000000E+00  0.45593999997E+02  0.45594000000E+02  0.51100000000E-03 0. -1.
         11   -1    0    0    0    0 -0.00000000000E+00 -0.00000000000E+00 -0.45593999997E+02  0.45594000000E+02  0.51100000000E-03 0.  1.
    9900012    2    1    2    0    0  0.67147800187E+01 -0.28358717275E+01 -0.17249647240E+02  0.72461527587E+02  0.69999944365E+02 0.  0.
         12    1    1    2    0    0 -0.67147800187E+01  0.28358717275E+01  0.17249647240E+02  0.18726472413E+02  0.00000000000E+00 0. -1.
         11    1    3    3    0    0  0.19678078340E+02  0.21557307366E+02 -0.21176365059E+02  0.36060819533E+02  0.51100000000E-03 0. -1.
        -11    1    3    3    0    0 -0.10370037030E+02 -0.18227555146E+02 -0.82277974760E+01  0.22527274273E+02  0.51100000000E-03 0.  1.
        -12    1    3    3    0    0 -0.25932612908E+01 -0.61656239472E+01  0.12154515296E+02  0.13873433780E+02  0.00000000000E+00 0.  1.
</event>
<event>
 7    1  0.3027254E-013  0.7246154E+02  0.7816164E-02  0.1226708E+00
        -11   -1    0    0    0    0  0.00000000000E+00  0.00000000000E+00  0.45593999997E+02  0.45594000000E+02  0.51100000000E-03 0.  1.
         11   -1    0    0    0    0 -0.00000000000E+00 -0.00000000000E+00 -0.45593999997E+02  0.45594000000E+02  0.51100000000E-03 0. -1.
    9900012    2    1    2    0    0  0.69082693668E+00  0.18057727131E+02 -0.49113808251E+01  0.72461537103E+02  0.69999956763E+02 0.  0.
         12    1    1    2    0    0 -0.69082693668E+00 -0.18057727131E+02  0.49113808251E+01  0.18726462897E+02  0.00000000000E+00 0. -1.
         11    1    3    3    0    0 -0.76599887467E+01  0.18724430083E+02 -0.19699373425E+02  0.28237298439E+02  0.51100000000E-03 0. -1.
        -11    1    3    3    0    0  0.23471768348E+02 -0.46407796441E+01  0.19702420980E+01  0.24007136424E+02  0.51100000000E-03 0.  1.
         12    1    3    3    0    0 -0.15120952665E+02  0.39740766923E+01  0.12817750502E+02  0.20217102240E+02  0.00000000000E+00 0. -1.
</event>
<event>
 7    1  0.3027254E-013  0.7246168E+02  0.7816164E-02  0.1226708E+00
        -11   -1    0    0    0    0  0.00000000000E+00  0.00000000000E+00  0.45593999997E+02  0.45594000000E+02  0.51100000000E-03 0.  1.
         11   -1    0    0    0    0 -0.00000000000E+00 -0.00000000000E+00 -0.45593999997E+02  0.45594000000E+02  0.51100000000E-03 0. -1.
    9900012    2    1    2    0    0  0.72062152917E+01 -0.44943737949E+01  0.16689702947E+02  0.72461678441E+02  0.70000140882E+02 0.  0.
         12    1    1    2    0    0 -0.72062152917E+01  0.44943737949E+01 -0.16689702947E+02  0.18726321559E+02  0.00000000000E+00 0. -1.
         11    1    3    3    0    0 -0.63460201082E+01  0.10010307525E+01 -0.79434023037E+01  0.10216245602E+02  0.51100000000E-03 0. -1.
        -11    1    3    3    0    0 -0.15533390701E+02  0.88700480174E+01 -0.47167446222E+01  0.18498963717E+02  0.51100000000E-03 0.  1.
        -12    1    3    3    0    0  0.29085626101E+02 -0.14365452565E+02  0.29349849873E+02  0.43746469122E+02  0.00000000000E+00 0.  1.
</event>
<event>
 7    1  0.3027254E-013  0.7246149E+02  0.7816164E-02  0.1226708E+00
        -11   -1    0    0    0    0  0.00000000000E+00  0.00000000000E+00  0.45593999997E+02  0.45594000000E+02  0.51100000000E-03 0. -1.
         11   -1    0    0    0    0 -0.00000000000E+00 -0.00000000000E+00 -0.45593999997E+02  0.45594000000E+02  0.51100000000E-03 0.  1.
    9900012    2    1    2    0    0  0.14513639950E+02  0.11610181567E+02 -0.22891097218E+01  0.72461492479E+02  0.69999898631E+02 0.  0.
         12    1    1    2    0    0 -0.14513639950E+02 -0.11610181567E+02  0.22891097218E+01  0.18726507521E+02  0.00000000000E+00 0. -1.
         11    1    3    3    0    0  0.20322120892E+01  0.53602770991E+01  0.22355831513E+02  0.23079117389E+02  0.51100000000E-03 0. -1.
        -11    1    3    3    0    0  0.14763292331E+02  0.16132016420E+02  0.91182733524E+00  0.21886712489E+02  0.51100000000E-03 0.  1.
        -12    1    3    3    0    0 -0.22818644697E+01 -0.98821119523E+01 -0.25556768570E+02  0.27495662601E+02  0.00000000000E+00 0.  1.
</event>
<event>
 7    1  0.3027254E-013  0.7246152E+02  0.7816164E-02  0.1226708E+00
        -11   -1    0    0    0    0  0.00000000000E+00  0.00000000000E+00  0.45593999997E+02  0.45594000000E+02  0.51100000000E-03 0. -1.
         11   -1    0    0    0    0 -0.00000000000E+00 -0.00000000000E+00 -0.45593999997E+02  0.45594000000E+02  0.51100000000E-03 0.  1.
    9900012    2    1    2    0    0 -0.16149561858E+02  0.31976468908E+01 -0.89245569982E+01  0.72461521115E+02  0.69999935934E+02 0.  0.
         12    1    1    2    0    0  0.16149561858E+02 -0.31976468908E+01  0.89245569982E+01  0.18726478885E+02  0.00000000000E+00 0. -1.
         11    1    3    3    0    0 -0.11584648360E+02 -0.28654281269E+01 -0.16344762504E+02  0.20237737461E+02  0.51100000000E-03 0. -1.
        -11    1    3    3    0    0 -0.10086570430E+02  0.55001731037E+01 -0.20638864269E+02  0.23621039896E+02  0.51100000000E-03 0.  1.
         12    1    3    3    0    0  0.55216569325E+01  0.56290191405E+00  0.28059069774E+02  0.28602743757E+02  0.00000000000E+00 0. -1.
</event>
<event>
 7    1  0.3027254E-013  0.7246156E+02  0.7816164E-02  0.1226708E+00
        -11   -1    0    0    0    0  0.00000000000E+00  0.00000000000E+00  0.45593999997E+02  0.45594000000E+02  0.51100000000E-03 0.  1.
         11   -1    0    0    0    0 -0.00000000000E+00 -0.00000000000E+00 -0.45593999997E+02  0.45594000000E+02  0.51100000000E-03 0. -1.
    9900012    2    1    2    0    0  0.28753701192E+01  0.12757027998E+02  0.13404099916E+02  0.72461563841E+02  0.69999991593E+02 0.  0.
         12    1    1    2    0    0 -0.28753701192E+01 -0.12757027998E+02 -0.13404099916E+02  0.18726436159E+02  0.00000000000E+00 0. -1.
         11    1    3    3    0    0  0.88982764183E+01 -0.18575804451E+02  0.28928711602E+01  0.20799243688E+02  0.51100000000E-03 0. -1.
        -11    1    3    3    0    0  0.94296774727E+01  0.73623379832E+01 -0.10754790305E+02  0.16086900030E+02  0.51100000000E-03 0.  1.
        -12    1    3    3    0    0 -0.15452583772E+02  0.23970494465E+02  0.21266019061E+02  0.35575420122E+02  0.00000000000E+00 0.  1.
</event>
<event>
 7    1  0.3027254E-013  0.7246158E+02  0.7816164E-02  0.1226708E+00
        -11   -1    0    0    0    0  0.00000000000E+00  0.00000000000E+00  0.45593999997E+02  0.45594000000E+02  0.51100000000E-03 0. -1.
         11   -1    0    0    0    0 -0.00000000000E+00 -0.00000000000E+00 -0.45593999997E+02  0.45594000000E+02  0.51100000000E-03 0.  1.
    9900012    2    1    2    0    0 -0.86989248772E+01 -0.12183144150E+02  0.11250712364E+02  0.72461579517E+02  0.70000012014E+02 0.  0.
         12    1    1    2    0    0  0.86989248772E+01  0.12183144150E+02 -0.11250712364E+02  0.18726420483E+02  0.00000000000E+00 0. -1.
         11    1    3    3    0    0 -0.19981875826E+02 -0.44197311904E+01  0.22061330396E+02  0.30091721194E+02  0.51100000000E-03 0. -1.
        -11    1    3    3    0    0  0.22940267412E+01  0.14870087940E+02  0.14294541063E+01  0.15113749149E+02  0.51100000000E-03 0.  1.
        -12    1    3    3    0    0  0.89889242078E+01 -0.22633500900E+02 -0.12240072137E+02  0.27256109174E+02  0.00000000000E+00 0.  1.
</event>
<event>
 7    1  0.3027254E-013  0.7246155E+02  0.7816164E-02  0.1226708E+00
        -11   -1    0    0    0    0  0.00000000000E+00  0.00000000000E+00  0.45593999997E+02  0.45594000000E+02  0.51100000000E-03 0. -1.
         11   -1    0    0    0    0 -0.00000000000E+00 -0.00000000000E+00 -0.45593999997E+02  0.45594000000E+02  0.51100000000E-03 0.  1.
    9900012    2    1    2    0    0 -0.38050785359E+01 -0.17055111634E+02 -0.67323566766E+01  0.72461545933E+02  0.69999968265E+02 0.  0.
         12    1    1    2    0    0  0.38050785359E+01  0.17055111634E+02  0.67323566766E+01  0.18726454067E+02  0.00000000000E+00 0. -1.
         11    1    3    3    0    0 -0.56117749109E+01  0.67319595825E+01  0.16744306699E+02  0.18899288467E+02  0.51100000000E-03 0. -1.
        -11    1    3    3    0    0 -0.49893173673E+01 -0.15194524620E+01  0.10876986792E+02  0.12062788463E+02  0.51100000000E-03 0.  1.
        -12    1    3    3    0    0  0.67960137423E+01 -0.22267618754E+02 -0.34353650167E+02  0.41499469003E+02  0.00000000000E+00 0.  1.
</event>
<event>
 7    1  0.3027254E-013  0.7246159E+02  0.7816164E-02  0.1226708E+00
        -11   -1    0    0    0    0  0.00000000000E+00  0.00000000000E+00  0.45593999997E+02  0.45594000000E+02  0.51100000000E-03 0.  1.
         11   -1    0    0    0    0 -0.00000000000E+00 -0.00000000000E+00 -0.45593999997E+02  0.45594000000E+02  0.51100000000E-03 0. -1.
    9900012    2    1    2    0    0 -0.15188842894E+02 -0.44476967555E+01  0.10009777093E+02  0.72461585705E+02  0.70000020076E+02 0.  0.
         12    1    1    2    0    0  0.15188842894E+02  0.44476967555E+01 -0.10009777093E+02  0.18726414295E+02  0.00000000000E+00 0. -1.
         11    1    3    3    0    0 -0.14048942570E+02  0.21152189027E+02 -0.65587102913E+01  0.26226028462E+02  0.51100000000E-03 0. -1.
        -11    1    3    3    0    0 -0.12333937184E+02 -0.97847971719E+01 -0.56759701921E+01  0.16735737213E+02  0.51100000000E-03 0.  1.
        -12    1    3    3    0    0  0.11194036860E+02 -0.15815088610E+02  0.22244457576E+02  0.29499820031E+02  0.00000000000E+00 0.  1.
</event>
<event>
 7    1  0.3027254E-013  0.7246155E+02  0.7816164E-02  0.1226708E+00
        -11   -1    0    0    0    0  0.00000000000E+00  0.00000000000E+00  0.45593999997E+02  0.45594000000E+02  0.51100000000E-03 0.  1.
         11   -1    0    0    0    0 -0.00000000000E+00 -0.00000000000E+00 -0.45593999997E+02  0.45594000000E+02  0.51100000000E-03 0. -1.
    9900012    2    1    2    0    0 -0.94967334792E+01 -0.15285309688E+02  0.51818136737E+01  0.72461552607E+02  0.69999976959E+02 0.  0.
         12    1    1    2    0    0  0.94967334792E+01  0.15285309688E+02 -0.51818136737E+01  0.18726447393E+02  0.00000000000E+00 0. -1.
         11    1    3    3    0    0  0.15330205323E+02  0.13530103934E+02 -0.29876619133E+01  0.20664100070E+02  0.51100000000E-03 0. -1.
        -11    1    3    3    0    0 -0.11977305521E+01 -0.10154704964E+02  0.17506420525E+02  0.20273809490E+02  0.51100000000E-03 0.  1.
         12    1    3    3    0    0 -0.23629208251E+02 -0.18660708658E+02 -0.93369449380E+01  0.31523643047E+02  0.00000000000E+00 0. -1.
</event>
<event>
 7    1  0.3027254E-013  0.7246157E+02  0.7816164E-02  0.1226708E+00
        -11   -1    0    0    0    0  0.00000000000E+00  0.00000000000E+00  0.45593999997E+02  0.45594000000E+02  0.51100000000E-03 0.  1.
         11   -1    0    0    0    0 -0.00000000000E+00 -0.00000000000E+00 -0.45593999997E+02  0.45594000000E+02  0.51100000000E-03 0. -1.
    9900012    2    1    2    0    0 -0.18685629487E+02 -0.11008096915E+01 -0.56093988230E+00  0.72461569885E+02  0.69999999466E+02 0.  0.
         12    1    1    2    0    0  0.18685629487E+02  0.11008096915E+01  0.56093988230E+00  0.18726430115E+02  0.00000000000E+00 0. -1.
         11    1    3    3    0    0 -0.25061411571E+01 -0.18612317976E+01  0.22567819431E+02  0.22782699609E+02  0.51100000000E-03 0. -1.
        -11    1    3    3    0    0 -0.18518035103E+02 -0.15895625389E+02 -0.49292151475E+01  0.24897503747E+02  0.51100000000E-03 0.  1.
         12    1    3    3    0    0  0.23385467731E+01  0.16656047495E+02 -0.18199544166E+02  0.24781366529E+02  0.00000000000E+00 0. -1.
</event>
<event>
 7    1  0.3027254E-013  0.7246138E+02  0.7816164E-02  0.1226709E+00
        -11   -1    0    0    0    0  0.00000000000E+00  0.00000000000E+00  0.45593999997E+02  0.45594000000E+02  0.51100000000E-03 0.  1.
         11   -1    0    0    0    0 -0.00000000000E+00 -0.00000000000E+00 -0.45593999997E+02  0.45594000000E+02  0.51100000000E-03 0. -1.
    9900012    2    1    2    0    0  0.47336705228E+01  0.72451285733E+01  0.16606830732E+02  0.72461378532E+02  0.69999750193E+02 0.  0.
         12    1    1    2    0    0 -0.47336705228E+01 -0.72451285733E+01 -0.16606830732E+02  0.18726621468E+02  0.00000000000E+00 0. -1.
         11    1    3    3    0    0  0.89674439478E+01  0.17527975313E+02 -0.18573366610E+02  0.27066860125E+02  0.51100000000E-03 0. -1.
        -11    1    3    3    0    0  0.26695741127E+01  0.39268340786E+01 -0.18805569831E+01  0.51071662056E+01  0.51100000000E-03 0.  1.
        -12    1    3    3    0    0 -0.69033475377E+01 -0.14209680818E+02  0.37060754325E+02  0.40287352201E+02  0.00000000000E+00 0.  1.
</event>
<event>
 7    1  0.3027254E-013  0.7246161E+02  0.7816164E-02  0.1226708E+00
        -11   -1    0    0    0    0  0.00000000000E+00  0.00000000000E+00  0.45593999997E+02  0.45594000000E+02  0.51100000000E-03 0. -1.
         11   -1    0    0    0    0 -0.00000000000E+00 -0.00000000000E+00 -0.45593999997E+02  0.45594000000E+02  0.51100000000E-03 0.  1.
    9900012    2    1    2    0    0 -0.11782216555E+02  0.72616067328E+01 -0.12614514043E+02  0.72461614235E+02  0.70000057241E+02 0.  0.
         12    1    1    2    0    0  0.11782216555E+02 -0.72616067328E+01  0.12614514043E+02  0.18726385765E+02  0.00000000000E+00 0. -1.
         11    1    3    3    0    0 -0.10953934619E+02 -0.99332677035E+01  0.17705279123E+02  0.23068060170E+02  0.51100000000E-03 0. -1.
        -11    1    3    3    0    0 -0.71654222742E+01  0.38436862258E+01  0.60504424591E+01  0.10135336915E+02  0.51100000000E-03 0.  1.
        -12    1    3    3    0    0  0.63371403388E+01  0.13351188211E+02 -0.36370235625E+02  0.39258217150E+02  0.00000000000E+00 0.  1.
</event>
<event>
 7    1  0.3027254E-013  0.7246159E+02  0.7816164E-02  0.1226708E+00
        -11   -1    0    0    0    0  0.00000000000E+00  0.00000000000E+00  0.45593999997E+02  0.45594000000E+02  0.51100000000E-03 0. -1.
         11   -1    0    0    0    0 -0.00000000000E+00 -0.00000000000E+00 -0.45593999997E+02  0.45594000000E+02  0.51100000000E-03 0.  1.
    9900012    2    1    2    0    0  0.14144397427E+02  0.11537475406E+02 -0.41834241569E+01  0.72461592043E+02  0.70000028331E+02 0.  0.
         12    1    1    2    0    0 -0.14144397427E+02 -0.11537475406E+02  0.41834241569E+01  0.18726407957E+02  0.00000000000E+00 0. -1.
         11    1    3    3    0    0 -0.54507852473E+01  0.11284475351E+02  0.18510172471E+02  0.22353454519E+02  0.51100000000E-03 0. -1.
        -11    1    3    3    0    0 -0.36563302800E+01  0.70674105188E+01  0.78119960275E+01  0.11150978645E+02  0.51100000000E-03 0.  1.
        -12    1    3    3    0    0  0.23251512954E+02 -0.68144104639E+01 -0.30505592655E+02  0.38957158878E+02  0.00000000000E+00 0.  1.
</event>
<event>
 7    1  0.3027254E-013  0.7246160E+02  0.7816164E-02  0.1226708E+00
        -11   -1    0    0    0    0  0.00000000000E+00  0.00000000000E+00  0.45593999997E+02  0.45594000000E+02  0.51100000000E-03 0.  1.
         11   -1    0    0    0    0 -0.00000000000E+00 -0.00000000000E+00 -0.45593999997E+02  0.45594000000E+02  0.51100000000E-03 0. -1.
    9900012    2    1    2    0    0  0.15014985432E+02 -0.53233246577E+01  0.98433056663E+01  0.72461595129E+02  0.70000032352E+02 0.  0.
         12    1    1    2    0    0 -0.15014985432E+02  0.53233246577E+01 -0.98433056663E+01  0.18726404871E+02  0.00000000000E+00 0. -1.
         11    1    3    3    0    0  0.87685485788E+01 -0.11016667845E+02  0.43689116113E+01  0.14742516865E+02  0.51100000000E-03 0. -1.
        -11    1    3    3    0    0 -0.18631746499E+02 -0.91954496147E+01  0.16671417103E+02  0.26638964314E+02  0.51100000000E-03 0.  1.
         12    1    3    3    0    0  0.24878183353E+02  0.14888792802E+02 -0.11197023048E+02  0.31080113951E+02  0.00000000000E+00 0. -1.
</event>
<event>
 7    1  0.3027254E-013  0.7246161E+02  0.7816164E-02  0.1226708E+00
        -11   -1    0    0    0    0  0.00000000000E+00  0.00000000000E+00  0.45593999997E+02  0.45594000000E+02  0.51100000000E-03 0.  1.
         11   -1    0    0    0    0 -0.00000000000E+00 -0.00000000000E+00 -0.45593999997E+02  0.45594000000E+02  0.51100000000E-03 0. -1.
    9900012    2    1    2    0    0  0.55601205098E+01 -0.12003967642E+02  0.13253967121E+02  0.72461606228E+02  0.70000046811E+02 0.  0.
         12    1    1    2    0    0 -0.55601205098E+01  0.12003967642E+02 -0.13253967121E+02  0.18726393772E+02  0.00000000000E+00 0. -1.
         11    1    3    3    0    0 -0.42382616667E+00  0.79326007615E+01 -0.18145655420E+02  0.19808346582E+02  0.51100000000E-03 0. -1.
        -11    1    3    3    0    0 -0.52611615066E+01 -0.95517816405E+01 -0.58545590802E+01  0.12377084277E+02  0.51100000000E-03 0.  1.
        -12    1    3    3    0    0  0.11245108183E+02 -0.10384786763E+02  0.37254181621E+02  0.40276175369E+02  0.00000000000E+00 0.  1.
</event>
<event>
 7    1  0.3027254E-013  0.7246162E+02  0.7816164E-02  0.1226708E+00
        -11   -1    0    0    0    0  0.00000000000E+00  0.00000000000E+00  0.45593999997E+02  0.45594000000E+02  0.51100000000E-03 0.  1.
         11   -1    0    0    0    0 -0.00000000000E+00 -0.00000000000E+00 -0.45593999997E+02  0.45594000000E+02  0.51100000000E-03 0. -1.
    9900012    2    1    2    0    0 -0.16821396885E+02  0.75856387160E+01  0.31899632251E+01  0.72461623594E+02  0.70000069433E+02 0.  0.
         12    1    1    2    0    0  0.16821396885E+02 -0.75856387160E+01 -0.31899632251E+01  0.18726376406E+02  0.00000000000E+00 0. -1.
         11    1    3    3    0    0  0.14673882507E+02  0.16043288744E+01 -0.24220324207E+02  0.28364075940E+02  0.51100000000E-03 0. -1.
        -11    1    3    3    0    0 -0.39575481116E+01 -0.34944168437E+01  0.28402099207E+01  0.59949919756E+01  0.51100000000E-03 0.  1.
        -12    1    3    3    0    0 -0.27537731281E+02  0.94757266853E+01  0.24570077511E+02  0.38102555679E+02  0.00000000000E+00 0.  1.
</event>
<event>
 7    1  0.3027254E-013  0.7246156E+02  0.7816164E-02  0.1226708E+00
        -11   -1    0    0    0    0  0.00000000000E+00  0.00000000000E+00  0.45593999997E+02  0.45594000000E+02  0.51100000000E-03 0.  1.
         11   -1    0    0    0    0 -0.00000000000E+00 -0.00000000000E+00 -0.45593999997E+02  0.45594000000E+02  0.51100000000E-03 0. -1.
    9900012    2    1    2    0    0 -0.13058246695E+02  0.34431722485E+01  0.12973293417E+02  0.72461559228E+02  0.69999985584E+02 0.  0.
         12    1    1    2    0    0  0.13058246695E+02 -0.34431722485E+01 -0.12973293417E+02  0.18726440772E+02  0.00000000000E+00 0. -1.
         11    1    3    3    0    0 -0.16677338658E+01 -0.32818695967E+01  0.20246863259E+02  0.20578811345E+02  0.51100000000E-03 0. -1.
        -11    1    3    3    0    0 -0.98697022282E+01 -0.21097899507E+02 -0.56680937732E+01  0.23972060257E+02  0.51100000000E-03 0.  1.
         12    1    3    3    0    0 -0.15208106013E+01  0.27822941352E+02 -0.16054760684E+01  0.27910687626E+02  0.00000000000E+00 0. -1.
</event>
<event>
 7    1  0.3027254E-013  0.7246161E+02  0.7816164E-02  0.1226708E+00
        -11   -1    0    0    0    0  0.00000000000E+00  0.00000000000E+00  0.45593999997E+02  0.45594000000E+02  0.51100000000E-03 0. -1.
         11   -1    0    0    0    0 -0.00000000000E+00 -0.00000000000E+00 -0.45593999997E+02  0.45594000000E+02  0.51100000000E-03 0.  1.
    9900012    2    1    2    0    0  0.30322213166E+01 -0.17550990725E+02 -0.57832526601E+01  0.72461610790E+02  0.70000052753E+02 0.  0.
         12    1    1    2    0    0 -0.30322213166E+01  0.17550990725E+02  0.57832526601E+01  0.18726389210E+02  0.00000000000E+00 0. -1.
         11    1    3    3    0    0  0.10649947597E+02  0.61018634097E+01 -0.77467797518E+01  0.14514362462E+02  0.51100000000E-03 0. -1.
        -11    1    3    3    0    0  0.13036173716E+02 -0.10704290610E+02 -0.19276645865E+02  0.25614697708E+02  0.51100000000E-03 0.  1.
         12    1    3    3    0    0 -0.20653899996E+02 -0.12948563524E+02  0.21240172956E+02  0.32332550620E+02  0.00000000000E+00 0. -1.
</event>
<event>
 7    1  0.3027254E-013  0.7246161E+02  0.7816164E-02  0.1226708E+00
        -11   -1    0    0    0    0  0.00000000000E+00  0.00000000000E+00  0.45593999997E+02  0.45594000000E+02  0.51100000000E-03 0.  1.
         11   -1    0    0    0    0 -0.00000000000E+00 -0.00000000000E+00 -0.45593999997E+02  0.45594000000E+02  0.51100000000E-03 0. -1.
    9900012    2    1    2    0    0 -0.50896528458E+01 -0.13614975926E+02  0.11807012798E+02  0.72461609884E+02  0.70000051573E+02 0.  0.
         12    1    1    2    0    0  0.50896528458E+01  0.13614975926E+02 -0.11807012798E+02  0.18726390116E+02  0.00000000000E+00 0. -1.
         11    1    3    3    0    0  0.65957522584E+01 -0.14207509698E+02  0.48786854444E+01  0.16406061428E+02  0.51100000000E-03 0. -1.
        -11    1    3    3    0    0 -0.10550786636E+02 -0.23712919322E+02  0.15532675441E+02  0.30247076685E+02  0.51100000000E-03 0.  1.
        -12    1    3    3    0    0 -0.11346184679E+01  0.24305453094E+02 -0.86043480866E+01  0.25808471771E+02  0.00000000000E+00 0.  1.
</event>
<event>
 7    1  0.3027254E-013  0.7246156E+02  0.7816164E-02  0.1226708E+00
        -11   -1    0    0    0    0  0.00000000000E+00  0.00000000000E+00  0.45593999997E+02  0.45594000000E+02  0.51100000000E-03 0. -1.
         11   -1    0    0    0    0 -0.00000000000E+00 -0.00000000000E+00 -0.45593999997E+02  0.45594000000E+02  0.51100000000E-03 0.  1.
    9900012    2    1    2    0    0  0.12909966554E+02 -0.12313619981E+02 -0.56909502205E+01  0.72461564464E+02  0.69999992405E+02 0.  0.
         12    1    1    2    0    0 -0.12909966554E+02  0.12313619981E+02  0.56909502205E+01  0.18726435536E+02  0.00000000000E+00 0. -1.
         11    1    3    3    0    0 -0.52867690629E+01 -0.23961686205E+02  0.80791967953E+01  0.25833810288E+02  0.51100000000E-03 0. -1.
        -11    1    3    3    0    0  0.12041764431E+02 -0.12750221655E+02 -0.12302132601E+02  0.21422294687E+02  0.51100000000E-03 0.  1.
        -12    1    3    3    0    0  0.61549711867E+01  0.24398287879E+02 -0.14680144151E+01  0.25205459489E+02  0.00000000000E+00 0.  1.
</event>
<event>
 7    1  0.3027254E-013  0.7246167E+02  0.7816164E-02  0.1226708E+00
        -11   -1    0    0    0    0  0.00000000000E+00  0.00000000000E+00  0.45593999997E+02  0.45594000000E+02  0.51100000000E-03 0.  1.
         11   -1    0    0    0    0 -0.00000000000E+00 -0.00000000000E+00 -0.45593999997E+02  0.45594000000E+02  0.51100000000E-03 0. -1.
    9900012    2    1    2    0    0  0.43484609543E+01  0.27988757746E+01  0.17998126416E+02  0.72461671670E+02  0.70000132060E+02 0.  0.
         12    1    1    2    0    0 -0.43484609543E+01 -0.27988757746E+01 -0.17998126416E+02  0.18726328330E+02  0.00000000000E+00 0. -1.
         11    1    3    3    0    0 -0.16158819248E+02  0.10447937082E+02  0.20102444001E+02  0.27827595725E+02  0.51100000000E-03 0. -1.
        -11    1    3    3    0    0  0.24348116914E+02 -0.52195115499E+01  0.13539012521E+02  0.28343940417E+02  0.51100000000E-03 0.  1.
        -12    1    3    3    0    0 -0.38408367113E+01 -0.24295497579E+01 -0.15643330107E+02  0.16290135527E+02  0.00000000000E+00 0.  1.
</event>
<event>
 7    1  0.3027254E-013  0.7246156E+02  0.7816164E-02  0.1226708E+00
        -11   -1    0    0    0    0  0.00000000000E+00  0.00000000000E+00  0.45593999997E+02  0.45594000000E+02  0.51100000000E-03 0. -1.
         11   -1    0    0    0    0 -0.00000000000E+00 -0.00000000000E+00 -0.45593999997E+02  0.45594000000E+02  0.51100000000E-03 0.  1.
    9900012    2    1    2    0    0 -0.17784970071E+02  0.56951658200E+01  0.13926061834E+01  0.72461563443E+02  0.69999991075E+02 0.  0.
         12    1    1    2    0    0  0.17784970071E+02 -0.56951658200E+01 -0.13926061834E+01  0.18726436557E+02  0.00000000000E+00 0. -1.
         11    1    3    3    0    0  0.68062777081E+01  0.43713066458E+01  0.19596045838E+02  0.21199970537E+02  0.51100000000E-03 0. -1.
        -11    1    3    3    0    0 -0.16762212931E+01  0.58463837027E+00  0.12676956924E+02  0.12800654552E+02  0.51100000000E-03 0.  1.
        -12    1    3    3    0    0 -0.22915026486E+02  0.73922080389E+00 -0.30880396578E+02  0.38460938354E+02  0.00000000000E+00 0.  1.
</event>
<event>
 7    1  0.3027254E-013  0.7246160E+02  0.7816164E-02  0.1226708E+00
        -11   -1    0    0    0    0  0.00000000000E+00  0.00000000000E+00  0.45593999997E+02  0.45594000000E+02  0.51100000000E-03 0. -1.
         11   -1    0    0    0    0 -0.00000000000E+00 -0.00000000000E+00 -0.45593999997E+02  0.45594000000E+02  0.51100000000E-03 0.  1.
    9900012    2    1    2    0    0 -0.42535390329E+01  0.57857763189E+01 -0.17294803380E+02  0.72461600830E+02  0.70000039778E+02 0.  0.
         12    1    1    2    0    0  0.42535390329E+01 -0.57857763189E+01  0.17294803380E+02  0.18726399170E+02  0.00000000000E+00 0. -1.
         11    1    3    3    0    0  0.17644872240E+02 -0.36160432710E+01 -0.91371105430E+00  0.18034748500E+02  0.51100000000E-03 0. -1.
        -11    1    3    3    0    0  0.54390572895E+01  0.20202460352E+02 -0.30480296367E+00  0.20924044866E+02  0.51100000000E-03 0.  1.
         12    1    3    3    0    0 -0.27337468563E+02 -0.10800640762E+02 -0.16076289362E+02  0.33502807463E+02  0.00000000000E+00 0. -1.
</event>
<event>
 7    1  0.3027254E-013  0.7246157E+02  0.7816164E-02  0.1226708E+00
        -11   -1    0    0    0    0  0.00000000000E+00  0.00000000000E+00  0.45593999997E+02  0.45594000000E+02  0.51100000000E-03 0. -1.
         11   -1    0    0    0    0 -0.00000000000E+00 -0.00000000000E+00 -0.45593999997E+02  0.45594000000E+02  0.51100000000E-03 0.  1.
    9900012    2    1    2    0    0 -0.17765163816E+02 -0.46193195637E+01  0.37067428395E+01  0.72461572120E+02  0.70000002379E+02 0.  0.
         12    1    1    2    0    0  0.17765163816E+02  0.46193195637E+01 -0.37067428395E+01  0.18726427880E+02  0.00000000000E+00 0. -1.
         11    1    3    3    0    0  0.89365395058E+01 -0.21112946889E+02  0.16537097357E+02  0.28268248158E+02  0.51100000000E-03 0. -1.
        -11    1    3    3    0    0 -0.39400686145E+01 -0.74761000440E+01  0.69236894550E+00  0.84791265807E+01  0.51100000000E-03 0.  1.
        -12    1    3    3    0    0 -0.22761634708E+02  0.23969727369E+02 -0.13522723463E+02  0.35714197381E+02  0.00000000000E+00 0.  1.
</event>
<event>
 7    1  0.3027254E-013  0.7246161E+02  0.7816164E-02  0.1226708E+00
        -11   -1    0    0    0    0  0.00000000000E+00  0.00000000000E+00  0.45593999997E+02  0.45594000000E+02  0.51100000000E-03 0.  1.
         11   -1    0    0    0    0 -0.00000000000E+00 -0.00000000000E+00 -0.45593999997E+02  0.45594000000E+02  0.51100000000E-03 0. -1.
    9900012    2    1    2    0    0  0.48582433052E+01  0.17610921365E+02  0.41147015783E+01  0.72461605568E+02  0.70000045951E+02 0.  0.
         12    1    1    2    0    0 -0.48582433052E+01 -0.17610921365E+02 -0.41147015783E+01  0.18726394432E+02  0.00000000000E+00 0. -1.
         11    1    3    3    0    0  0.10770388439E+02 -0.21609617372E+02 -0.12407957903E+02  0.27146532922E+02  0.51100000000E-03 0. -1.
        -11    1    3    3    0    0 -0.33453344909E+00 -0.12326212859E+01  0.38937813290E-01  0.12778044754E+01  0.51100000000E-03 0.  1.
        -12    1    3    3    0    0 -0.55776116848E+01  0.40453160023E+02  0.16483721668E+02  0.44037268171E+02  0.00000000000E+00 0.  1.
</event>
<event>
 7    1  0.3027254E-013  0.7246158E+02  0.7816164E-02  0.1226708E+00
        -11   -1    0    0    0    0  0.00000000000E+00  0.00000000000E+00  0.45593999997E+02  0.45594000000E+02  0.51100000000E-03 0.  1.
         11   -1    0    0    0    0 -0.00000000000E+00 -0.00000000000E+00 -0.45593999997E+02  0.45594000000E+02  0.51100000000E-03 0. -1.
    9900012    2    1    2    0    0  0.13782848360E+01  0.16087245636E+02 -0.94857524217E+01  0.72461584426E+02  0.70000018409E+02 0.  0.
         12    1    1    2    0    0 -0.13782848360E+01 -0.16087245636E+02  0.94857524217E+01  0.18726415574E+02  0.00000000000E+00 0. -1.
         11    1    3    3    0    0  0.61893149353E+01 -0.16878118455E+01 -0.23248477810E+02  0.24117380640E+02  0.51100000000E-03 0. -1.
        -11    1    3    3    0    0 -0.11655466391E+02  0.32335116332E+01 -0.12601641119E+02  0.17467308133E+02  0.51100000000E-03 0.  1.
         12    1    3    3    0    0  0.68444362913E+01  0.14541545849E+02  0.26364366507E+02  0.30876895653E+02  0.00000000000E+00 0. -1.
</event>
<event>
 7    1  0.3027254E-013  0.7246156E+02  0.7816164E-02  0.1226708E+00
        -11   -1    0    0    0    0  0.00000000000E+00  0.00000000000E+00  0.45593999997E+02  0.45594000000E+02  0.51100000000E-03 0. -1.
         11   -1    0    0    0    0 -0.00000000000E+00 -0.00000000000E+00 -0.45593999997E+02  0.45594000000E+02  0.51100000000E-03 0.  1.
    9900012    2    1    2    0    0 -0.10940460887E+02 -0.10430926182E+02 -0.11053576700E+02  0.72461562451E+02  0.69999989782E+02 0.  0.
         12    1    1    2    0    0  0.10940460887E+02  0.10430926182E+02  0.11053576700E+02  0.18726437549E+02  0.00000000000E+00 0. -1.
         11    1    3    3    0    0  0.12102485489E+02 -0.21124438941E+02 -0.45849542853E+01  0.24773652973E+02  0.51100000000E-03 0. -1.
        -11    1    3    3    0    0  0.30243644769E+01  0.59204715539E+01 -0.17698543560E+02  0.18906009846E+02  0.51100000000E-03 0.  1.
        -12    1    3    3    0    0 -0.26067310853E+02  0.47730412053E+01  0.11229921145E+02  0.28781899631E+02  0.00000000000E+00 0.  1.
</event>
<event>
 7    1  0.3027254E-013  0.7246152E+02  0.7816164E-02  0.1226708E+00
        -11   -1    0    0    0    0  0.00000000000E+00  0.00000000000E+00  0.45593999997E+02  0.45594000000E+02  0.51100000000E-03 0.  1.
         11   -1    0    0    0    0 -0.00000000000E+00 -0.00000000000E+00 -0.45593999997E+02  0.45594000000E+02  0.51100000000E-03 0. -1.
    9900012    2    1    2    0    0  0.11910052997E+02  0.14444122871E+02  0.44618966608E+00  0.72461517866E+02  0.69999931702E+02 0.  0.
         12    1    1    2    0    0 -0.11910052997E+02 -0.14444122871E+02 -0.44618966608E+00  0.18726482134E+02  0.00000000000E+00 0. -1.
         11    1    3    3    0    0  0.17691592292E+00  0.87215175790E+01  0.12358082431E+02  0.15126743528E+02  0.51100000000E-03 0. -1.
        -11    1    3    3    0    0  0.29629277147E+02  0.75336895921E+01  0.68639897884E+01  0.31333127823E+02  0.51100000000E-03 0.  1.
         12    1    3    3    0    0 -0.17896140073E+02 -0.18110843003E+01 -0.18775882553E+02  0.26001646515E+02  0.00000000000E+00 0. -1.
</event>
<event>
 7    1  0.3027254E-013  0.7246158E+02  0.7816164E-02  0.1226708E+00
        -11   -1    0    0    0    0  0.00000000000E+00  0.00000000000E+00  0.45593999997E+02  0.45594000000E+02  0.51100000000E-03 0.  1.
         11   -1    0    0    0    0 -0.00000000000E+00 -0.00000000000E+00 -0.45593999997E+02  0.45594000000E+02  0.51100000000E-03 0. -1.
    9900012    2    1    2    0    0  0.67992897383E+01 -0.81666287481E+01  0.15419298799E+02  0.72461576382E+02  0.70000007930E+02 0.  0.
         12    1    1    2    0    0 -0.67992897383E+01  0.81666287481E+01 -0.15419298799E+02  0.18726423618E+02  0.00000000000E+00 0. -1.
         11    1    3    3    0    0  0.15330295593E+02  0.65819265083E+01  0.23928811314E+02  0.29170665585E+02  0.51100000000E-03 0. -1.
        -11    1    3    3    0    0  0.10457386005E+01  0.59206892932E+01  0.11496065536E+02  0.12973343979E+02  0.51100000000E-03 0.  1.
         12    1    3    3    0    0 -0.95767444552E+01 -0.20669244550E+02 -0.20005578051E+02  0.30317566818E+02  0.00000000000E+00 0. -1.
</event>
<event>
 7    1  0.3027254E-013  0.7246156E+02  0.7816164E-02  0.1226708E+00
        -11   -1    0    0    0    0  0.00000000000E+00  0.00000000000E+00  0.45593999997E+02  0.45594000000E+02  0.51100000000E-03 0.  1.
         11   -1    0    0    0    0 -0.00000000000E+00 -0.00000000000E+00 -0.45593999997E+02  0.45594000000E+02  0.51100000000E-03 0. -1.
    9900012    2    1    2    0    0  0.32573631505E+01 -0.15012466095E+02 -0.10709569457E+02  0.72461563316E+02  0.69999990909E+02 0.  0.
         12    1    1    2    0    0 -0.32573631505E+01  0.15012466095E+02  0.10709569457E+02  0.18726436684E+02  0.00000000000E+00 0. -1.
         11    1    3    3    0    0 -0.19482030763E+02 -0.24472561481E+01 -0.17150485211E+02  0.26070629615E+02  0.51100000000E-03 0. -1.
        -11    1    3    3    0    0 -0.48239704132E+01 -0.16821520693E+02  0.59929214393E+01  0.18497279708E+02  0.51100000000E-03 0.  1.
        -12    1    3    3    0    0  0.27563364326E+02  0.42563107458E+01  0.44799431490E+00  0.27893653992E+02  0.00000000000E+00 0.  1.
</event>
<event>
 7    1  0.3027254E-013  0.7246183E+02  0.7816164E-02  0.1226707E+00
        -11   -1    0    0    0    0  0.00000000000E+00  0.00000000000E+00  0.45593999997E+02  0.45594000000E+02  0.51100000000E-03 0.  1.
         11   -1    0    0    0    0 -0.00000000000E+00 -0.00000000000E+00 -0.45593999997E+02  0.45594000000E+02  0.51100000000E-03 0. -1.
    9900012    2    1    2    0    0 -0.14148359530E+01  0.13875813137E+02  0.12495179547E+02  0.72461829465E+02  0.70000337617E+02 0.  0.
         12    1    1    2    0    0  0.14148359530E+01 -0.13875813137E+02 -0.12495179547E+02  0.18726170535E+02  0.00000000000E+00 0. -1.
         11    1    3    3    0    0  0.15202234792E+02 -0.48106673953E+01  0.23147302107E+02  0.28107793556E+02  0.51100000000E-03 0.  1.
        -11    1    3    3    0    0  0.11017332162E+02  0.57133994729E+01 -0.45745772094E+01  0.13226915680E+02  0.51100000000E-03 0. -1.
         12    1    3    3    0    0 -0.27634402907E+02  0.12973081060E+02 -0.60775453506E+01  0.31127120229E+02  0.00000000000E+00 0. -1.
</event>
<event>
 7    1  0.3027254E-013  0.7246155E+02  0.7816164E-02  0.1226708E+00
        -11   -1    0    0    0    0  0.00000000000E+00  0.00000000000E+00  0.45593999997E+02  0.45594000000E+02  0.51100000000E-03 0.  1.
         11   -1    0    0    0    0 -0.00000000000E+00 -0.00000000000E+00 -0.45593999997E+02  0.45594000000E+02  0.51100000000E-03 0. -1.
    9900012    2    1    2    0    0 -0.63651194186E+01 -0.17310145321E+02 -0.32440621187E+01  0.72461553052E+02  0.69999977539E+02 0.  0.
         12    1    1    2    0    0  0.63651194186E+01  0.17310145321E+02  0.32440621187E+01  0.18726446948E+02  0.00000000000E+00 0. -1.
         11    1    3    3    0    0 -0.42815995332E+01 -0.24400884255E+02 -0.12718985618E+01  0.24806309141E+02  0.51100000000E-03 0. -1.
        -11    1    3    3    0    0 -0.10912207205E+02 -0.14620297797E+01  0.19798673250E+02  0.22653945791E+02  0.51100000000E-03 0.  1.
        -12    1    3    3    0    0  0.88286873196E+01  0.85527687130E+01 -0.21770836807E+02  0.25001298121E+02  0.00000000000E+00 0.  1.
</event>
<event>
 7    1  0.3027254E-013  0.7246154E+02  0.7816164E-02  0.1226708E+00
        -11   -1    0    0    0    0  0.00000000000E+00  0.00000000000E+00  0.45593999997E+02  0.45594000000E+02  0.51100000000E-03 0.  1.
         11   -1    0    0    0    0 -0.00000000000E+00 -0.00000000000E+00 -0.45593999997E+02  0.45594000000E+02  0.51100000000E-03 0. -1.
    9900012    2    1    2    0    0 -0.15632117438E+02 -0.57288533406E+01  0.85730591985E+01  0.72461542775E+02  0.69999964150E+02 0.  0.
         12    1    1    2    0    0  0.15632117438E+02  0.57288533406E+01 -0.85730591985E+01  0.18726457225E+02  0.00000000000E+00 0. -1.
         11    1    3    3    0    0 -0.26525368121E+02  0.70687669896E+00 -0.69770061188E+01  0.27436717064E+02  0.51100000000E-03 0.  1.
        -11    1    3    3    0    0 -0.76094257904E+01 -0.10345100426E+02 -0.77627614879E+01  0.15006163063E+02  0.51100000000E-03 0. -1.
        -12    1    3    3    0    0  0.18502676473E+02  0.39093703869E+01  0.23312826805E+02  0.30018662648E+02  0.00000000000E+00 0.  1.
</event>
<event>
 7    1  0.3027254E-013  0.7246151E+02  0.7816164E-02  0.1226708E+00
        -11   -1    0    0    0    0  0.00000000000E+00  0.00000000000E+00  0.45593999997E+02  0.45594000000E+02  0.51100000000E-03 0.  1.
         11   -1    0    0    0    0 -0.00000000000E+00 -0.00000000000E+00 -0.45593999997E+02  0.45594000000E+02  0.51100000000E-03 0. -1.
    9900012    2    1    2    0    0  0.10876576701E+02  0.69060320074E+01 -0.13589998896E+02  0.72461514243E+02  0.69999926983E+02 0.  0.
         12    1    1    2    0    0 -0.10876576701E+02 -0.69060320074E+01  0.13589998896E+02  0.18726485757E+02  0.00000000000E+00 0. -1.
         11    1    3    3    0    0 -0.85302242918E+01 -0.59139165231E+01  0.60199836985E+01  0.11999139098E+02  0.51100000000E-03 0. -1.
        -11    1    3    3    0    0  0.27400803974E+02  0.75906483665E+01  0.93792707720E+01  0.29939818328E+02  0.51100000000E-03 0.  1.
         12    1    3    3    0    0 -0.79940029811E+01  0.52293001641E+01 -0.28989253366E+02  0.30522556816E+02  0.00000000000E+00 0. -1.
</event>
<event>
 7    1  0.3027254E-013  0.7246156E+02  0.7816164E-02  0.1226708E+00
        -11   -1    0    0    0    0  0.00000000000E+00  0.00000000000E+00  0.45593999997E+02  0.45594000000E+02  0.51100000000E-03 0. -1.
         11   -1    0    0    0    0 -0.00000000000E+00 -0.00000000000E+00 -0.45593999997E+02  0.45594000000E+02  0.51100000000E-03 0.  1.
    9900012    2    1    2    0    0 -0.79752975936E+01 -0.10484777550E+02 -0.13309535976E+02  0.72461556667E+02  0.69999982248E+02 0.  0.
         12    1    1    2    0    0  0.79752975936E+01  0.10484777550E+02  0.13309535976E+02  0.18726443333E+02  0.00000000000E+00 0. -1.
         11    1    3    3    0    0  0.12775215096E+01 -0.18529733615E+02 -0.96837106329E+01  0.20946535297E+02  0.51100000000E-03 0. -1.
        -11    1    3    3    0    0  0.17631833171E+02 -0.10930026547E+01 -0.12641541786E+02  0.21722908984E+02  0.51100000000E-03 0.  1.
        -12    1    3    3    0    0 -0.26884652274E+02  0.91379587200E+01  0.90157164425E+01  0.29792112386E+02  0.00000000000E+00 0.  1.
</event>
<event>
 7    1  0.3027254E-013  0.7246156E+02  0.7816164E-02  0.1226708E+00
        -11   -1    0    0    0    0  0.00000000000E+00  0.00000000000E+00  0.45593999997E+02  0.45594000000E+02  0.51100000000E-03 0.  1.
         11   -1    0    0    0    0 -0.00000000000E+00 -0.00000000000E+00 -0.45593999997E+02  0.45594000000E+02  0.51100000000E-03 0. -1.
    9900012    2    1    2    0    0 -0.13036975921E+02 -0.22472135423E+01  0.13253935666E+02  0.72461560924E+02  0.69999987793E+02 0.  0.
         12    1    1    2    0    0  0.13036975921E+02  0.22472135423E+01 -0.13253935666E+02  0.18726439076E+02  0.00000000000E+00 0. -1.
         11    1    3    3    0    0  0.43915953918E+01  0.37007367330E+01 -0.77286868024E+01  0.96288193671E+01  0.51100000000E-03 0. -1.
        -11    1    3    3    0    0 -0.12069140551E+02  0.24169372605E+02  0.17159649974E+02  0.32004317104E+02  0.51100000000E-03 0.  1.
        -12    1    3    3    0    0 -0.53594307610E+01 -0.30117322880E+02  0.38229724938E+01  0.30828424453E+02  0.00000000000E+00 0.  1.
</event>
<event>
 7    1  0.3027254E-013  0.7246163E+02  0.7816164E-02  0.1226708E+00
        -11   -1    0    0    0    0  0.00000000000E+00  0.00000000000E+00  0.45593999997E+02  0.45594000000E+02  0.51100000000E-03 0. -1.
         11   -1    0    0    0    0 -0.00000000000E+00 -0.00000000000E+00 -0.45593999997E+02  0.45594000000E+02  0.51100000000E-03 0.  1.
    9900012    2    1    2    0    0 -0.14193943047E+02  0.35271208005E+01  0.11694805547E+02  0.72461626161E+02  0.70000072777E+02 0.  0.
         12    1    1    2    0    0  0.14193943047E+02 -0.35271208005E+01 -0.11694805547E+02  0.18726373839E+02  0.00000000000E+00 0. -1.
         11    1    3    3    0    0  0.56253089949E+01 -0.26789573136E+02  0.38386854776E+01  0.27641650395E+02  0.51100000000E-03 0. -1.
        -11    1    3    3    0    0 -0.23487734864E+01  0.61952288931E+01  0.13004179209E+02  0.14594734498E+02  0.51100000000E-03 0.  1.
        -12    1    3    3    0    0 -0.17470478555E+02  0.24121465044E+02 -0.51480591388E+01  0.30225241268E+02  0.00000000000E+00 0.  1.
</event>
<event>
 7    1  0.3027254E-013  0.7246162E+02  0.7816164E-02  0.1226708E+00
        -11   -1    0    0    0    0  0.00000000000E+00  0.00000000000E+00  0.45593999997E+02  0.45594000000E+02  0.51100000000E-03 0.  1.
         11   -1    0    0    0    0 -0.00000000000E+00 -0.00000000000E+00 -0.45593999997E+02  0.45594000000E+02  0.51100000000E-03 0. -1.
    9900012    2    1    2    0    0  0.77028649528E+01 -0.31147112050E+01  0.16782186299E+02  0.72461619374E+02  0.70000063935E+02 0.  0.
         12    1    1    2    0    0 -0.77028649528E+01  0.31147112050E+01 -0.16782186299E+02  0.18726380626E+02  0.00000000000E+00 0. -1.
         11    1    3    3    0    0 -0.80730974420E+01 -0.13451012005E+02  0.74288703050E+01  0.17357786164E+02  0.51100000000E-03 0. -1.
        -11    1    3    3    0    0 -0.17095805228E+02  0.98252964678E+01  0.10235210775E+02  0.22216267619E+02  0.51100000000E-03 0.  1.
         12    1    3    3    0    0  0.32871767623E+02  0.51100433173E+00 -0.88189478014E+00  0.32887565590E+02  0.00000000000E+00 0. -1.
</event>
<event>
 7    1  0.3027254E-013  0.7246149E+02  0.7816164E-02  0.1226708E+00
        -11   -1    0    0    0    0  0.00000000000E+00  0.00000000000E+00  0.45593999997E+02  0.45594000000E+02  0.51100000000E-03 0.  1.
         11   -1    0    0    0    0 -0.00000000000E+00 -0.00000000000E+00 -0.45593999997E+02  0.45594000000E+02  0.51100000000E-03 0. -1.
    9900012    2    1    2    0    0  0.80539716610E+01 -0.16758300954E+02 -0.22304451244E+01  0.72461494831E+02  0.69999901695E+02 0.  0.
         12    1    1    2    0    0 -0.80539716610E+01  0.16758300954E+02  0.22304451244E+01  0.18726505169E+02  0.00000000000E+00 0. -1.
         11    1    3    3    0    0  0.15651857478E+02 -0.37799517093E+02 -0.15090293318E+02  0.43606204692E+02  0.51100000000E-03 0. -1.
        -11    1    3    3    0    0  0.35619358190E+01  0.32218032002E+01  0.22258751951E+01  0.52935737726E+01  0.51100000000E-03 0.  1.
        -12    1    3    3    0    0 -0.11159821636E+02  0.17819412939E+02  0.10633972998E+02  0.23561716367E+02  0.00000000000E+00 0.  1.
</event>
