<event>
 7    1  0.5902966E-013  0.5052886E+02  0.7816164E-02  0.1300439E+00
        -11   -1    0    0    0    0  0.00000000000E+00  0.00000000000E+00  0.45593999997E+02  0.45594000000E+02  0.51100000000E-03 0.  1.
         11   -1    0    0    0    0 -0.00000000000E+00 -0.00000000000E+00 -0.45593999997E+02  0.45594000000E+02  0.51100000000E-03 0. -1.
    9900012    2    1    2    0    0  0.24267123119E+02 -0.32623192204E+02  0.78061975730E-02  0.50528855949E+02  0.29999988141E+02 0.  0.
         12    1    1    2    0    0 -0.24267123119E+02  0.32623192204E+02 -0.78061975730E-02  0.40659144051E+02  0.00000000000E+00 0. -1.
         11    1    3    3    0    0  0.13742357615E+02 -0.50149885556E+00 -0.55996619002E+01  0.14847899096E+02  0.51100000000E-03 0. -1.
        -11    1    3    3    0    0  0.73320562669E+01 -0.83748604441E+01  0.27532121067E+00  0.11134322547E+02  0.51100000000E-03 0.  1.
        -12    1    3    3    0    0  0.31927092372E+01 -0.23746832904E+02  0.53321468871E+01  0.24546634305E+02  0.00000000000E+00 0.  1.
</event>
<event>
 7    1  0.5902966E-013  0.5052886E+02  0.7816164E-02  0.1300439E+00
        -11   -1    0    0    0    0  0.00000000000E+00  0.00000000000E+00  0.45593999997E+02  0.45594000000E+02  0.51100000000E-03 0.  1.
         11   -1    0    0    0    0 -0.00000000000E+00 -0.00000000000E+00 -0.45593999997E+02  0.45594000000E+02  0.51100000000E-03 0. -1.
    9900012    2    1    2    0    0 -0.28135136022E+01 -0.40240448436E+02  0.50946903448E+01  0.50528863034E+02  0.30000009679E+02 0.  0.
         12    1    1    2    0    0  0.28135136022E+01  0.40240448436E+02 -0.50946903448E+01  0.40659136966E+02  0.00000000000E+00 0. -1.
         11    1    3    3    0    0 -0.77542673763E+01 -0.60906893729E+01  0.53134727864E+01  0.11200810368E+02  0.51100000000E-03 0. -1.
        -11    1    3    3    0    0 -0.20686231565E+01 -0.71222404781E+01  0.73054876469E+01  0.10410363164E+02  0.51100000000E-03 0.  1.
         12    1    3    3    0    0  0.70093769305E+01 -0.27027518584E+02 -0.75242700885E+01  0.28917689502E+02  0.00000000000E+00 0. -1.
</event>
<event>
 7    1  0.5902966E-013  0.5052886E+02  0.7816164E-02  0.1300439E+00
        -11   -1    0    0    0    0  0.00000000000E+00  0.00000000000E+00  0.45593999997E+02  0.45594000000E+02  0.51100000000E-03 0.  1.
         11   -1    0    0    0    0 -0.00000000000E+00 -0.00000000000E+00 -0.45593999997E+02  0.45594000000E+02  0.51100000000E-03 0. -1.
    9900012    2    1    2    0    0  0.14766760575E+01  0.14689359715E+02  0.37884140439E+02  0.50528856406E+02  0.29999989532E+02 0.  0.
         12    1    1    2    0    0 -0.14766760575E+01 -0.14689359715E+02 -0.37884140439E+02  0.40659143594E+02  0.00000000000E+00 0. -1.
         11    1    3    3    0    0  0.51083705228E+00 -0.35633510490E+01  0.15479405663E+02  0.15892464413E+02  0.51100000000E-03 0. -1.
        -11    1    3    3    0    0 -0.69026528806E+01  0.53571128160E+01  0.15995516369E+02  0.18226404437E+02  0.51100000000E-03 0.  1.
        -12    1    3    3    0    0  0.78684918857E+01  0.12895597948E+02  0.64092184062E+01  0.16409987556E+02  0.00000000000E+00 0.  1.
</event>
<event>
 7    1  0.5902966E-013  0.5052887E+02  0.7816164E-02  0.1300439E+00
        -11   -1    0    0    0    0  0.00000000000E+00  0.00000000000E+00  0.45593999997E+02  0.45594000000E+02  0.51100000000E-03 0. -1.
         11   -1    0    0    0    0 -0.00000000000E+00 -0.00000000000E+00 -0.45593999997E+02  0.45594000000E+02  0.51100000000E-03 0.  1.
    9900012    2    1    2    0    0 -0.13408768630E+02 -0.10346213952E+02 -0.36963841014E+02  0.50528871114E+02  0.30000034237E+02 0.  0.
         12    1    1    2    0    0  0.13408768630E+02  0.10346213952E+02  0.36963841014E+02  0.40659128886E+02  0.00000000000E+00 0. -1.
         11    1    3    3    0    0  0.82273548477E+01 -0.54039730247E+01 -0.58161236140E+01  0.11433266655E+02  0.51100000000E-03 0. -1.
        -11    1    3    3    0    0 -0.37126096140E+01 -0.46471316124E+00 -0.11647684141E+02  0.12233886323E+02  0.51100000000E-03 0.  1.
        -12    1    3    3    0    0 -0.17923513863E+02 -0.44775277659E+01 -0.19500033259E+02  0.26861718136E+02  0.00000000000E+00 0.  1.
</event>
<event>
 7    1  0.6247694E-013  0.5052892E+02  0.7816164E-02  0.1300439E+00
        -11   -1    0    0    0    0  0.00000000000E+00  0.00000000000E+00  0.45593999997E+02  0.45594000000E+02  0.51100000000E-03 0. -1.
         11   -1    0    0    0    0 -0.00000000000E+00 -0.00000000000E+00 -0.45593999997E+02  0.45594000000E+02  0.51100000000E-03 0.  1.
    9900012    2    1    2    0    0  0.29847278802E+01  0.14556583497E+02 -0.37846504637E+02  0.50528921840E+02  0.30000188424E+02 0.  0.
         12    1    1    2    0    0 -0.29847278802E+01 -0.14556583497E+02  0.37846504637E+02  0.40659078160E+02  0.00000000000E+00 0. -1.
         11    1    3    3    0    0 -0.23199185121E+00 -0.24323993082E+01 -0.12723876853E+01  0.27548788170E+01  0.51100000000E-03 0. -1.
        -11    1    3    3    0    0  0.73133781650E+01  0.10147249576E+02 -0.24695101481E+01  0.12749535473E+02  0.51100000000E-03 0.  1.
        -12    1    3    3    0    0 -0.40966584336E+01  0.68417332293E+01 -0.34104606803E+02  0.35024507550E+02  0.00000000000E+00 0.  1.
</event>
<event>
 7    1  0.5902966E-013  0.5052886E+02  0.7816164E-02  0.1300439E+00
        -11   -1    0    0    0    0  0.00000000000E+00  0.00000000000E+00  0.45593999997E+02  0.45594000000E+02  0.51100000000E-03 0.  1.
         11   -1    0    0    0    0 -0.00000000000E+00 -0.00000000000E+00 -0.45593999997E+02  0.45594000000E+02  0.51100000000E-03 0. -1.
    9900012    2    1    2    0    0  0.15769128194E+02 -0.36059248773E+02  0.10209342647E+02  0.50528861994E+02  0.30000006518E+02 0.  0.
         12    1    1    2    0    0 -0.15769128194E+02  0.36059248773E+02 -0.10209342647E+02  0.40659138006E+02  0.00000000000E+00 0. -1.
         11    1    3    3    0    0  0.11992530647E+02 -0.19049549620E+02 -0.44415928386E+01  0.22944146949E+02  0.51100000000E-03 0. -1.
        -11    1    3    3    0    0 -0.90593988927E+00 -0.15726502711E+02  0.45805561862E+01  0.16405033064E+02  0.51100000000E-03 0.  1.
        -12    1    3    3    0    0  0.46825374363E+01 -0.12831964425E+01  0.10070379300E+02  0.11179681981E+02  0.00000000000E+00 0.  1.
</event>
<event>
 7    1  0.5902966E-013  0.5052885E+02  0.7816164E-02  0.1300439E+00
        -11   -1    0    0    0    0  0.00000000000E+00  0.00000000000E+00  0.45593999997E+02  0.45594000000E+02  0.51100000000E-03 0.  1.
         11   -1    0    0    0    0 -0.00000000000E+00 -0.00000000000E+00 -0.45593999997E+02  0.45594000000E+02  0.51100000000E-03 0. -1.
    9900012    2    1    2    0    0  0.89278924522E+01  0.10783918733E+02  0.38172844011E+02  0.50528853590E+02  0.29999980973E+02 0.  0.
         12    1    1    2    0    0 -0.89278924522E+01 -0.10783918733E+02 -0.38172844011E+02  0.40659146410E+02  0.00000000000E+00 0. -1.
         11    1    3    3    0    0  0.44024344942E+01 -0.11406473905E+01 -0.17935671114E+01  0.48887001534E+01  0.51100000000E-03 0. -1.
        -11    1    3    3    0    0  0.11243063755E+02  0.47824460709E+01  0.23032931651E+02  0.26072863550E+02  0.51100000000E-03 0.  1.
         12    1    3    3    0    0 -0.67176057971E+01  0.71421200525E+01  0.16933479472E+02  0.19567289887E+02  0.00000000000E+00 0. -1.
</event>
<event>
 7    1  0.5902966E-013  0.5052898E+02  0.7816164E-02  0.1300438E+00
        -11   -1    0    0    0    0  0.00000000000E+00  0.00000000000E+00  0.45593999997E+02  0.45594000000E+02  0.51100000000E-03 0.  1.
         11   -1    0    0    0    0 -0.00000000000E+00 -0.00000000000E+00 -0.45593999997E+02  0.45594000000E+02  0.51100000000E-03 0. -1.
    9900012    2    1    2    0    0 -0.17165654473E+02 -0.17005244764E+02  0.32700428615E+02  0.50528977944E+02  0.30000358955E+02 0.  0.
         12    1    1    2    0    0  0.17165654473E+02  0.17005244764E+02 -0.32700428615E+02  0.40659022056E+02  0.00000000000E+00 0. -1.
         11    1    3    3    0    0 -0.11817717359E+02 -0.34814698778E+01  0.31132293499E+01  0.12707134741E+02  0.51100000000E-03 0. -1.
        -11    1    3    3    0    0 -0.68985097116E+01  0.14506864011E+01  0.39214984075E+01  0.80667265540E+01  0.51100000000E-03 0.  1.
         12    1    3    3    0    0  0.15505725980E+01 -0.14974461288E+02  0.25665700858E+02  0.29755116648E+02  0.00000000000E+00 0. -1.
</event>
<event>
 7    1  0.5902966E-013  0.5052886E+02  0.7816164E-02  0.1300439E+00
        -11   -1    0    0    0    0  0.00000000000E+00  0.00000000000E+00  0.45593999997E+02  0.45594000000E+02  0.51100000000E-03 0. -1.
         11   -1    0    0    0    0 -0.00000000000E+00 -0.00000000000E+00 -0.45593999997E+02  0.45594000000E+02  0.51100000000E-03 0.  1.
    9900012    2    1    2    0    0  0.15193077127E+02  0.26798183451E+02 -0.26536637335E+02  0.50528863882E+02  0.30000012254E+02 0.  0.
         12    1    1    2    0    0 -0.15193077127E+02 -0.26798183451E+02  0.26536637335E+02  0.40659136118E+02  0.00000000000E+00 0. -1.
         11    1    3    3    0    0  0.13672495373E+01  0.12862364263E+02 -0.11098614968E+01  0.12982356432E+02  0.51100000000E-03 0. -1.
        -11    1    3    3    0    0 -0.23354685707E+01  0.42098994402E+00  0.19011018034E+01  0.30406963521E+01  0.51100000000E-03 0.  1.
        -12    1    3    3    0    0  0.16161296160E+02  0.13514829244E+02 -0.27327877642E+02  0.34505811097E+02  0.00000000000E+00 0.  1.
</event>
<event>
 7    1  0.5902966E-013  0.5052884E+02  0.7816164E-02  0.1300439E+00
        -11   -1    0    0    0    0  0.00000000000E+00  0.00000000000E+00  0.45593999997E+02  0.45594000000E+02  0.51100000000E-03 0. -1.
         11   -1    0    0    0    0 -0.00000000000E+00 -0.00000000000E+00 -0.45593999997E+02  0.45594000000E+02  0.51100000000E-03 0.  1.
    9900012    2    1    2    0    0 -0.23790947646E+02 -0.25485436422E+02  0.20920093137E+02  0.50528844126E+02  0.29999952205E+02 0.  0.
         12    1    1    2    0    0  0.23790947646E+02  0.25485436422E+02 -0.20920093137E+02  0.40659155874E+02  0.00000000000E+00 0. -1.
         11    1    3    3    0    0  0.27472718886E+01 -0.12280294307E+02  0.37661633852E+01  0.13135338519E+02  0.51100000000E-03 0. -1.
        -11    1    3    3    0    0 -0.16418985912E+01 -0.14452079194E+01  0.81289880588E+01  0.84181294855E+01  0.51100000000E-03 0.  1.
        -12    1    3    3    0    0 -0.24896320944E+02 -0.11759934196E+02  0.90249416928E+01  0.28975376121E+02  0.00000000000E+00 0.  1.
</event>
<event>
 7    1  0.5902966E-013  0.5052886E+02  0.7816164E-02  0.1300439E+00
        -11   -1    0    0    0    0  0.00000000000E+00  0.00000000000E+00  0.45593999997E+02  0.45594000000E+02  0.51100000000E-03 0. -1.
         11   -1    0    0    0    0 -0.00000000000E+00 -0.00000000000E+00 -0.45593999997E+02  0.45594000000E+02  0.51100000000E-03 0.  1.
    9900012    2    1    2    0    0 -0.38881515910E+02 -0.11214588241E+02  0.39530407895E+01  0.50528858342E+02  0.29999995416E+02 0.  0.
         12    1    1    2    0    0  0.38881515910E+02  0.11214588241E+02 -0.39530407895E+01  0.40659141658E+02  0.00000000000E+00 0. -1.
         11    1    3    3    0    0  0.31237861041E+01 -0.27641822566E+01  0.55033279942E+00  0.42073280859E+01  0.51100000000E-03 0. -1.
        -11    1    3    3    0    0 -0.11125430027E+02 -0.85259161841E+01 -0.39810988671E+01  0.14571053102E+02  0.51100000000E-03 0.  1.
         12    1    3    3    0    0 -0.30879871988E+02  0.75510200166E-01  0.73838068572E+01  0.31750477154E+02  0.00000000000E+00 0. -1.
</event>
<event>
 7    1  0.5902966E-013  0.5052887E+02  0.7816164E-02  0.1300439E+00
        -11   -1    0    0    0    0  0.00000000000E+00  0.00000000000E+00  0.45593999997E+02  0.45594000000E+02  0.51100000000E-03 0.  1.
         11   -1    0    0    0    0 -0.00000000000E+00 -0.00000000000E+00 -0.45593999997E+02  0.45594000000E+02  0.51100000000E-03 0. -1.
    9900012    2    1    2    0    0  0.39196669091E+02  0.49696547037E+01 -0.95962820591E+01  0.50528868614E+02  0.30000026638E+02 0.  0.
         12    1    1    2    0    0 -0.39196669091E+02 -0.49696547037E+01  0.95962820591E+01  0.40659131386E+02  0.00000000000E+00 0. -1.
         11    1    3    3    0    0 -0.12828904948E+01 -0.38578492262E+01 -0.30695867002E+01  0.50942292297E+01  0.51100000000E-03 0. -1.
        -11    1    3    3    0    0  0.13822775953E+02  0.85824081734E+01  0.40307709325E+01  0.16762278475E+02  0.51100000000E-03 0.  1.
         12    1    3    3    0    0  0.26656783634E+02  0.24509575645E+00 -0.10557466291E+02  0.28672360909E+02  0.00000000000E+00 0. -1.
</event>
<event>
 7    1  0.5902966E-013  0.5052878E+02  0.7816164E-02  0.1300439E+00
        -11   -1    0    0    0    0  0.00000000000E+00  0.00000000000E+00  0.45593999997E+02  0.45594000000E+02  0.51100000000E-03 0.  1.
         11   -1    0    0    0    0 -0.00000000000E+00 -0.00000000000E+00 -0.45593999997E+02  0.45594000000E+02  0.51100000000E-03 0. -1.
    9900012    2    1    2    0    0  0.26892100078E+01 -0.18357150186E+02  0.36179483457E+02  0.50528784111E+02  0.29999769784E+02 0.  0.
         12    1    1    2    0    0 -0.26892100078E+01  0.18357150186E+02 -0.36179483457E+02  0.40659215889E+02  0.00000000000E+00 0. -1.
         11    1    3    3    0    0  0.87089039465E+01 -0.96847439823E+01  0.42418806936E+01  0.13697913200E+02  0.51100000000E-03 0. -1.
        -11    1    3    3    0    0  0.46654986609E+01 -0.45747923907E+01  0.15306169575E+02  0.16642548798E+02  0.51100000000E-03 0.  1.
         12    1    3    3    0    0 -0.10685192600E+02 -0.40976138130E+01  0.16631433189E+02  0.20188322114E+02  0.00000000000E+00 0. -1.
</event>
<event>
 7    1  0.5902966E-013  0.5052886E+02  0.7816164E-02  0.1300439E+00
        -11   -1    0    0    0    0  0.00000000000E+00  0.00000000000E+00  0.45593999997E+02  0.45594000000E+02  0.51100000000E-03 0.  1.
         11   -1    0    0    0    0 -0.00000000000E+00 -0.00000000000E+00 -0.45593999997E+02  0.45594000000E+02  0.51100000000E-03 0. -1.
    9900012    2    1    2    0    0  0.27369282046E+02  0.29787492091E+02  0.40979472401E+01  0.50528862573E+02  0.30000008276E+02 0.  0.
         12    1    1    2    0    0 -0.27369282046E+02 -0.29787492091E+02 -0.40979472401E+01  0.40659137427E+02  0.00000000000E+00 0. -1.
         11    1    3    3    0    0  0.68268776783E+01  0.50493761842E+01 -0.50639531024E+01  0.98866617201E+01  0.51100000000E-03 0. -1.
        -11    1    3    3    0    0  0.95373640692E+00 -0.37184354302E+01  0.42844638632E+01  0.57526520874E+01  0.51100000000E-03 0.  1.
        -12    1    3    3    0    0  0.19588667960E+02  0.28456551337E+02  0.48774364793E+01  0.34889548765E+02  0.00000000000E+00 0.  1.
</event>
<event>
 7    1  0.5902966E-013  0.5052885E+02  0.7816164E-02  0.1300439E+00
        -11   -1    0    0    0    0  0.00000000000E+00  0.00000000000E+00  0.45593999997E+02  0.45594000000E+02  0.51100000000E-03 0.  1.
         11   -1    0    0    0    0 -0.00000000000E+00 -0.00000000000E+00 -0.45593999997E+02  0.45594000000E+02  0.51100000000E-03 0. -1.
    9900012    2    1    2    0    0 -0.23947648462E+02 -0.26445020499E+02  0.19502243892E+02  0.50528849826E+02  0.29999969530E+02 0.  0.
         12    1    1    2    0    0  0.23947648462E+02  0.26445020499E+02 -0.19502243892E+02  0.40659150174E+02  0.00000000000E+00 0. -1.
         11    1    3    3    0    0 -0.13672698725E+02 -0.12926080107E+02  0.60630813535E+01  0.19768338148E+02  0.51100000000E-03 0. -1.
        -11    1    3    3    0    0 -0.43654917627E+01 -0.10952318691E+02  0.18925927351E+02  0.22298016266E+02  0.51100000000E-03 0.  1.
         12    1    3    3    0    0 -0.59094579742E+01 -0.25666216999E+01 -0.54867648115E+01  0.84624954119E+01  0.00000000000E+00 0. -1.
</event>
<event>
 7    1  0.5902966E-013  0.5052886E+02  0.7816164E-02  0.1300439E+00
        -11   -1    0    0    0    0  0.00000000000E+00  0.00000000000E+00  0.45593999997E+02  0.45594000000E+02  0.51100000000E-03 0.  1.
         11   -1    0    0    0    0 -0.00000000000E+00 -0.00000000000E+00 -0.45593999997E+02  0.45594000000E+02  0.51100000000E-03 0. -1.
    9900012    2    1    2    0    0 -0.10677945145E+02 -0.33945290956E+02  0.19668871976E+02  0.50528858157E+02  0.29999994853E+02 0.  0.
         12    1    1    2    0    0  0.10677945145E+02  0.33945290956E+02 -0.19668871976E+02  0.40659141843E+02  0.00000000000E+00 0. -1.
         11    1    3    3    0    0 -0.47273103388E+00 -0.21831234577E+02  0.56174251544E+01  0.22547322312E+02  0.51100000000E-03 0. -1.
        -11    1    3    3    0    0 -0.42164160492E+01 -0.15749160455E+02  0.13093576022E+02  0.20910666002E+02  0.51100000000E-03 0.  1.
         12    1    3    3    0    0 -0.59887980616E+01  0.36351040763E+01  0.95787079962E+00  0.70708698430E+01  0.00000000000E+00 0. -1.
</event>
<event>
 7    1  0.5902966E-013  0.5052886E+02  0.7816164E-02  0.1300439E+00
        -11   -1    0    0    0    0  0.00000000000E+00  0.00000000000E+00  0.45593999997E+02  0.45594000000E+02  0.51100000000E-03 0.  1.
         11   -1    0    0    0    0 -0.00000000000E+00 -0.00000000000E+00 -0.45593999997E+02  0.45594000000E+02  0.51100000000E-03 0. -1.
    9900012    2    1    2    0    0  0.51729188753E+01  0.37853580562E+02  0.13910902261E+02  0.50528857698E+02  0.29999993458E+02 0.  0.
         12    1    1    2    0    0 -0.51729188753E+01 -0.37853580562E+02 -0.13910902261E+02  0.40659142302E+02  0.00000000000E+00 0. -1.
         11    1    3    3    0    0  0.10595423605E+02  0.29578288567E+02  0.26661155285E+01  0.31531671827E+02  0.51100000000E-03 0.  1.
        -11    1    3    3    0    0 -0.63545567283E+01  0.10654992751E+02  0.76108455099E+01  0.14554526147E+02  0.51100000000E-03 0. -1.
        -12    1    3    3    0    0  0.93205199839E+00 -0.23797007554E+01  0.36339412227E+01  0.44426597239E+01  0.00000000000E+00 0.  1.
</event>
<event>
 7    1  0.5902966E-013  0.5052873E+02  0.7816164E-02  0.1300439E+00
        -11   -1    0    0    0    0  0.00000000000E+00  0.00000000000E+00  0.45593999997E+02  0.45594000000E+02  0.51100000000E-03 0.  1.
         11   -1    0    0    0    0 -0.00000000000E+00 -0.00000000000E+00 -0.45593999997E+02  0.45594000000E+02  0.51100000000E-03 0. -1.
    9900012    2    1    2    0    0  0.29991144255E+02  0.18264413810E+02  0.20496794726E+02  0.50528731197E+02  0.29999608944E+02 0.  0.
         12    1    1    2    0    0 -0.29991144255E+02 -0.18264413810E+02 -0.20496794726E+02  0.40659268803E+02  0.00000000000E+00 0. -1.
         11    1    3    3    0    0  0.50930867577E+01 -0.29284073637E+01  0.57578275058E+01  0.82260367284E+01  0.51100000000E-03 0. -1.
        -11    1    3    3    0    0  0.27316874070E+02  0.12143115854E+02  0.86139210205E+01  0.31110552988E+02  0.51100000000E-03 0.  1.
         12    1    3    3    0    0 -0.24188165724E+01  0.90497053195E+01  0.61250462001E+01  0.11192141481E+02  0.00000000000E+00 0. -1.
</event>
<event>
 7    1  0.5902966E-013  0.5052886E+02  0.7816164E-02  0.1300439E+00
        -11   -1    0    0    0    0  0.00000000000E+00  0.00000000000E+00  0.45593999997E+02  0.45594000000E+02  0.51100000000E-03 0. -1.
         11   -1    0    0    0    0 -0.00000000000E+00 -0.00000000000E+00 -0.45593999997E+02  0.45594000000E+02  0.51100000000E-03 0.  1.
    9900012    2    1    2    0    0  0.17673946538E+01  0.32727304339E+02 -0.24061698008E+02  0.50528862722E+02  0.30000008731E+02 0.  0.
         12    1    1    2    0    0 -0.17673946538E+01 -0.32727304339E+02  0.24061698008E+02  0.40659137278E+02  0.00000000000E+00 0. -1.
         11    1    3    3    0    0 -0.12670692871E+02  0.98333051615E+01 -0.12135748839E+02  0.20112601730E+02  0.51100000000E-03 0.  1.
        -11    1    3    3    0    0  0.42151597996E+01  0.91692559797E+01 -0.10664287456E+01  0.10147911011E+02  0.51100000000E-03 0. -1.
        -12    1    3    3    0    0  0.10222927725E+02  0.13724743197E+02 -0.10859520424E+02  0.20268349981E+02  0.00000000000E+00 0.  1.
</event>
<event>
 7    1  0.5902966E-013  0.5052888E+02  0.7816164E-02  0.1300439E+00
        -11   -1    0    0    0    0  0.00000000000E+00  0.00000000000E+00  0.45593999997E+02  0.45594000000E+02  0.51100000000E-03 0. -1.
         11   -1    0    0    0    0 -0.00000000000E+00 -0.00000000000E+00 -0.45593999997E+02  0.45594000000E+02  0.51100000000E-03 0.  1.
    9900012    2    1    2    0    0 -0.19817918771E+02  0.19653142662E+02  0.29566337256E+02  0.50528877780E+02  0.30000054501E+02 0.  0.
         12    1    1    2    0    0  0.19817918771E+02 -0.19653142662E+02 -0.29566337256E+02  0.40659122220E+02  0.00000000000E+00 0. -1.
         11    1    3    3    0    0 -0.14330182917E+02  0.86823760163E+01  0.78908440756E+01  0.18520346007E+02  0.51100000000E-03 0. -1.
        -11    1    3    3    0    0 -0.18296069195E+01  0.10179982036E+02  0.34148307973E+00  0.10348724882E+02  0.51100000000E-03 0.  1.
         12    1    3    3    0    0 -0.36581289348E+01  0.79078461024E+00  0.21334010101E+02  0.21659806892E+02  0.00000000000E+00 0. -1.
</event>
<event>
 7    1  0.5902966E-013  0.5052885E+02  0.7816164E-02  0.1300439E+00
        -11   -1    0    0    0    0  0.00000000000E+00  0.00000000000E+00  0.45593999997E+02  0.45594000000E+02  0.51100000000E-03 0. -1.
         11   -1    0    0    0    0 -0.00000000000E+00 -0.00000000000E+00 -0.45593999997E+02  0.45594000000E+02  0.51100000000E-03 0.  1.
    9900012    2    1    2    0    0  0.39902318016E+02 -0.24974706088E+01 -0.73982248690E+01  0.50528854981E+02  0.29999985200E+02 0.  0.
         12    1    1    2    0    0 -0.39902318016E+02  0.24974706088E+01  0.73982248690E+01  0.40659145019E+02  0.00000000000E+00 0. -1.
         11    1    3    3    0    0  0.48227861535E+01  0.89502429752E+01  0.27857340184E+01  0.10541652142E+02  0.51100000000E-03 0. -1.
        -11    1    3    3    0    0  0.31716364769E+01 -0.46089898326E+01 -0.37254683475E+01  0.67216947185E+01  0.51100000000E-03 0.  1.
        -12    1    3    3    0    0  0.31907895385E+02 -0.68387237515E+01 -0.64584905399E+01  0.33265508121E+02  0.00000000000E+00 0.  1.
</event>
<event>
 7    1  0.5902966E-013  0.5052886E+02  0.7816164E-02  0.1300439E+00
        -11   -1    0    0    0    0  0.00000000000E+00  0.00000000000E+00  0.45593999997E+02  0.45594000000E+02  0.51100000000E-03 0.  1.
         11   -1    0    0    0    0 -0.00000000000E+00 -0.00000000000E+00 -0.45593999997E+02  0.45594000000E+02  0.51100000000E-03 0. -1.
    9900012    2    1    2    0    0  0.10934842571E+02 -0.44896078889E+01  0.38902933202E+02  0.50528861141E+02  0.30000003924E+02 0.  0.
         12    1    1    2    0    0 -0.10934842571E+02  0.44896078889E+01 -0.38902933202E+02  0.40659138859E+02  0.00000000000E+00 0. -1.
         11    1    3    3    0    0  0.67436631493E+01 -0.15026633546E+01 -0.28722597735E+00  0.69150190782E+01  0.51100000000E-03 0. -1.
        -11    1    3    3    0    0  0.10872508599E+02 -0.39880456777E+00  0.16051972063E+02  0.19391655310E+02  0.51100000000E-03 0.  1.
         12    1    3    3    0    0 -0.66813291765E+01 -0.25881399666E+01  0.23138187116E+02  0.24222186752E+02  0.00000000000E+00 0. -1.
</event>
<event>
 7    1  0.5902966E-013  0.5052887E+02  0.7816164E-02  0.1300439E+00
        -11   -1    0    0    0    0  0.00000000000E+00  0.00000000000E+00  0.45593999997E+02  0.45594000000E+02  0.51100000000E-03 0.  1.
         11   -1    0    0    0    0 -0.00000000000E+00 -0.00000000000E+00 -0.45593999997E+02  0.45594000000E+02  0.51100000000E-03 0. -1.
    9900012    2    1    2    0    0 -0.22383335600E+01  0.35435256153E+02  0.19811554844E+02  0.50528865466E+02  0.30000017070E+02 0.  0.
         12    1    1    2    0    0  0.22383335600E+01 -0.35435256153E+02 -0.19811554844E+02  0.40659134534E+02  0.00000000000E+00 0. -1.
         11    1    3    3    0    0  0.29080330242E+01  0.25242902541E+02  0.16198657286E+01  0.25461436527E+02  0.51100000000E-03 0. -1.
        -11    1    3    3    0    0 -0.30328447632E+01  0.11395462600E+02  0.72144062598E+01  0.13823978196E+02  0.51100000000E-03 0.  1.
        -12    1    3    3    0    0 -0.21135218210E+01 -0.12031089880E+01  0.10977282856E+02  0.11243450743E+02  0.00000000000E+00 0.  1.
</event>
<event>
 7    1  0.5902966E-013  0.5052886E+02  0.7816164E-02  0.1300439E+00
        -11   -1    0    0    0    0  0.00000000000E+00  0.00000000000E+00  0.45593999997E+02  0.45594000000E+02  0.51100000000E-03 0. -1.
         11   -1    0    0    0    0 -0.00000000000E+00 -0.00000000000E+00 -0.45593999997E+02  0.45594000000E+02  0.51100000000E-03 0.  1.
    9900012    2    1    2    0    0 -0.38783167400E+02  0.44014209966E+01  0.11386788194E+02  0.50528861720E+02  0.30000005683E+02 0.  0.
         12    1    1    2    0    0  0.38783167400E+02 -0.44014209966E+01 -0.11386788194E+02  0.40659138280E+02  0.00000000000E+00 0. -1.
         11    1    3    3    0    0 -0.76201827983E+01  0.12203210382E+02  0.57186965065E+01  0.15481893279E+02  0.51100000000E-03 0. -1.
        -11    1    3    3    0    0 -0.10732781483E+02  0.27988340108E+01 -0.85271326803E+00  0.11124441126E+02  0.51100000000E-03 0.  1.
         12    1    3    3    0    0 -0.20430203118E+02 -0.10600623397E+02  0.65208049555E+01  0.23922527314E+02  0.00000000000E+00 0. -1.
</event>
<event>
 7    1  0.5902966E-013  0.5052886E+02  0.7816164E-02  0.1300439E+00
        -11   -1    0    0    0    0  0.00000000000E+00  0.00000000000E+00  0.45593999997E+02  0.45594000000E+02  0.51100000000E-03 0.  1.
         11   -1    0    0    0    0 -0.00000000000E+00 -0.00000000000E+00 -0.45593999997E+02  0.45594000000E+02  0.51100000000E-03 0. -1.
    9900012    2    1    2    0    0 -0.36586362280E+02 -0.16621550574E+02  0.61909482190E+01  0.50528859721E+02  0.29999999608E+02 0.  0.
         12    1    1    2    0    0  0.36586362280E+02  0.16621550574E+02 -0.61909482190E+01  0.40659140279E+02  0.00000000000E+00 0. -1.
         11    1    3    3    0    0 -0.76758450208E+01 -0.49519194628E+01  0.78082254848E+01  0.12017008306E+02  0.51100000000E-03 0. -1.
        -11    1    3    3    0    0 -0.23437640803E+02  0.16734227806E+00  0.48817150338E+01  0.23941222855E+02  0.51100000000E-03 0.  1.
         12    1    3    3    0    0 -0.54728764560E+01 -0.11836973389E+02 -0.64989922996E+01  0.14570628560E+02  0.00000000000E+00 0. -1.
</event>
<event>
 7    1  0.5902966E-013  0.5052883E+02  0.7816164E-02  0.1300439E+00
        -11   -1    0    0    0    0  0.00000000000E+00  0.00000000000E+00  0.45593999997E+02  0.45594000000E+02  0.51100000000E-03 0.  1.
         11   -1    0    0    0    0 -0.00000000000E+00 -0.00000000000E+00 -0.45593999997E+02  0.45594000000E+02  0.51100000000E-03 0. -1.
    9900012    2    1    2    0    0 -0.76538771514E+01  0.21945732033E+02  0.33361220431E+02  0.50528831064E+02  0.29999912501E+02 0.  0.
         12    1    1    2    0    0  0.76538771514E+01 -0.21945732033E+02 -0.33361220431E+02  0.40659168936E+02  0.00000000000E+00 0. -1.
         11    1    3    3    0    0 -0.41823461416E+01  0.18074076103E+02  0.16087976781E+02  0.24555798570E+02  0.51100000000E-03 0. -1.
        -11    1    3    3    0    0 -0.35243469737E+01  0.19945221791E+01  0.21219653862E+02  0.21602612125E+02  0.51100000000E-03 0.  1.
         12    1    3    3    0    0  0.52815963939E-01  0.18771337509E+01 -0.39464102118E+01  0.43704203693E+01  0.00000000000E+00 0. -1.
</event>
<event>
 7    1  0.5902966E-013  0.5052886E+02  0.7816164E-02  0.1300439E+00
        -11   -1    0    0    0    0  0.00000000000E+00  0.00000000000E+00  0.45593999997E+02  0.45594000000E+02  0.51100000000E-03 0. -1.
         11   -1    0    0    0    0 -0.00000000000E+00 -0.00000000000E+00 -0.45593999997E+02  0.45594000000E+02  0.51100000000E-03 0.  1.
    9900012    2    1    2    0    0 -0.33072856421E+00  0.37144847773E+02 -0.16532283949E+02  0.50528861912E+02  0.30000006269E+02 0.  0.
         12    1    1    2    0    0  0.33072856421E+00 -0.37144847773E+02  0.16532283949E+02  0.40659138088E+02  0.00000000000E+00 0. -1.
         11    1    3    3    0    0 -0.25365054706E+01 -0.36755913422E+00  0.47127414414E+01  0.53645961520E+01  0.51100000000E-03 0. -1.
        -11    1    3    3    0    0 -0.41469643239E+01  0.14170200445E+02 -0.12802517896E+02  0.19542168726E+02  0.51100000000E-03 0.  1.
         12    1    3    3    0    0  0.63527412304E+01  0.23342206462E+02 -0.84425074943E+01  0.25622097034E+02  0.00000000000E+00 0. -1.
</event>
<event>
 7    1  0.5902966E-013  0.5052884E+02  0.7816164E-02  0.1300439E+00
        -11   -1    0    0    0    0  0.00000000000E+00  0.00000000000E+00  0.45593999997E+02  0.45594000000E+02  0.51100000000E-03 0.  1.
         11   -1    0    0    0    0 -0.00000000000E+00 -0.00000000000E+00 -0.45593999997E+02  0.45594000000E+02  0.51100000000E-03 0. -1.
    9900012    2    1    2    0    0 -0.29144281174E+02 -0.27532213792E+02  0.67642624654E+01  0.50528841522E+02  0.29999944289E+02 0.  0.
         12    1    1    2    0    0  0.29144281174E+02  0.27532213792E+02 -0.67642624654E+01  0.40659158478E+02  0.00000000000E+00 0. -1.
         11    1    3    3    0    0 -0.21669451271E+01 -0.84244853152E+01  0.89237926662E+01  0.12462009462E+02  0.51100000000E-03 0. -1.
        -11    1    3    3    0    0 -0.77209458562E+01 -0.16791341676E+02  0.51202314440E+00  0.18488491776E+02  0.51100000000E-03 0.  1.
         12    1    3    3    0    0 -0.19256390191E+02 -0.23163868011E+01 -0.26715533452E+01  0.19578340284E+02  0.00000000000E+00 0. -1.
</event>
<event>
 7    1  0.5902966E-013  0.5052886E+02  0.7816164E-02  0.1300439E+00
        -11   -1    0    0    0    0  0.00000000000E+00  0.00000000000E+00  0.45593999997E+02  0.45594000000E+02  0.51100000000E-03 0.  1.
         11   -1    0    0    0    0 -0.00000000000E+00 -0.00000000000E+00 -0.45593999997E+02  0.45594000000E+02  0.51100000000E-03 0. -1.
    9900012    2    1    2    0    0 -0.22826450815E+02 -0.32969925913E+02 -0.67158819009E+01  0.50528856610E+02  0.29999990150E+02 0.  0.
         12    1    1    2    0    0  0.22826450815E+02  0.32969925913E+02  0.67158819009E+01  0.40659143390E+02  0.00000000000E+00 0. -1.
         11    1    3    3    0    0 -0.16649391082E+02 -0.93052714612E+01 -0.12816318832E+01  0.19116298829E+02  0.51100000000E-03 0. -1.
        -11    1    3    3    0    0 -0.86549177015E+00 -0.16344977066E+02  0.54591711861E+01  0.17254271981E+02  0.51100000000E-03 0.  1.
         12    1    3    3    0    0 -0.53115679631E+01 -0.73196773856E+01 -0.10893421204E+02  0.14158285799E+02  0.00000000000E+00 0. -1.
</event>
<event>
 7    1  0.5902966E-013  0.5052886E+02  0.7816164E-02  0.1300439E+00
        -11   -1    0    0    0    0  0.00000000000E+00  0.00000000000E+00  0.45593999997E+02  0.45594000000E+02  0.51100000000E-03 0.  1.
         11   -1    0    0    0    0 -0.00000000000E+00 -0.00000000000E+00 -0.45593999997E+02  0.45594000000E+02  0.51100000000E-03 0. -1.
    9900012    2    1    2    0    0 -0.20463875592E+01 -0.17191970167E+02  0.36788777719E+02  0.50528859499E+02  0.29999998932E+02 0.  0.
         12    1    1    2    0    0  0.20463875592E+01  0.17191970167E+02 -0.36788777719E+02  0.40659140501E+02  0.00000000000E+00 0. -1.
         11    1    3    3    0    0 -0.29423551643E+00 -0.64734384546E+01  0.14422938135E+01  0.66386890024E+01  0.51100000000E-03 0. -1.
        -11    1    3    3    0    0 -0.99878766578E+01 -0.87249960600E+01  0.32246802739E+02  0.34867456511E+02  0.51100000000E-03 0.  1.
         12    1    3    3    0    0  0.82357246151E+01 -0.19935356520E+01  0.30996811668E+01  0.90227139856E+01  0.00000000000E+00 0. -1.
</event>
<event>
 7    1  0.5902966E-013  0.5052886E+02  0.7816164E-02  0.1300439E+00
        -11   -1    0    0    0    0  0.00000000000E+00  0.00000000000E+00  0.45593999997E+02  0.45594000000E+02  0.51100000000E-03 0. -1.
         11   -1    0    0    0    0 -0.00000000000E+00 -0.00000000000E+00 -0.45593999997E+02  0.45594000000E+02  0.51100000000E-03 0.  1.
    9900012    2    1    2    0    0 -0.35193277771E+02 -0.16742971202E+02 -0.11587567818E+02  0.50528860647E+02  0.30000002423E+02 0.  0.
         12    1    1    2    0    0  0.35193277771E+02  0.16742971202E+02  0.11587567818E+02  0.40659139353E+02  0.00000000000E+00 0. -1.
         11    1    3    3    0    0  0.10178639202E+01 -0.19324025768E+01 -0.55513290583E+01  0.59655243905E+01  0.51100000000E-03 0. -1.
        -11    1    3    3    0    0 -0.89853148448E+01 -0.14323175196E+02 -0.17637242356E+01  0.16999998647E+02  0.51100000000E-03 0.  1.
        -12    1    3    3    0    0 -0.27225826847E+02 -0.48739342994E+00 -0.42725145239E+01  0.27563337610E+02  0.00000000000E+00 0.  1.
</event>
<event>
 7    1  0.5902966E-013  0.5052891E+02  0.7816164E-02  0.1300439E+00
        -11   -1    0    0    0    0  0.00000000000E+00  0.00000000000E+00  0.45593999997E+02  0.45594000000E+02  0.51100000000E-03 0.  1.
         11   -1    0    0    0    0 -0.00000000000E+00 -0.00000000000E+00 -0.45593999997E+02  0.45594000000E+02  0.51100000000E-03 0. -1.
    9900012    2    1    2    0    0 -0.23455940326E+02  0.18358148291E+02  0.27675961064E+02  0.50528910412E+02  0.30000153689E+02 0.  0.
         12    1    1    2    0    0  0.23455940326E+02 -0.18358148291E+02 -0.27675961064E+02  0.40659089588E+02  0.00000000000E+00 0. -1.
         11    1    3    3    0    0 -0.17146055364E+02 -0.53500095367E-01  0.51026615173E+01  0.17889304951E+02  0.51100000000E-03 0. -1.
        -11    1    3    3    0    0  0.18896689769E+01 -0.12510195599E+01  0.19738426115E+01  0.30053208976E+01  0.51100000000E-03 0.  1.
        -12    1    3    3    0    0 -0.81995539390E+01  0.19662667947E+02  0.20599456936E+02  0.29634284564E+02  0.00000000000E+00 0.  1.
</event>
<event>
 7    1  0.5902966E-013  0.5052882E+02  0.7816164E-02  0.1300439E+00
        -11   -1    0    0    0    0  0.00000000000E+00  0.00000000000E+00  0.45593999997E+02  0.45594000000E+02  0.51100000000E-03 0. -1.
         11   -1    0    0    0    0 -0.00000000000E+00 -0.00000000000E+00 -0.45593999997E+02  0.45594000000E+02  0.51100000000E-03 0.  1.
    9900012    2    1    2    0    0 -0.35369179731E+02 -0.72155197112E+01 -0.18711653326E+02  0.50528824286E+02  0.29999891899E+02 0.  0.
         12    1    1    2    0    0  0.35369179731E+02  0.72155197112E+01  0.18711653326E+02  0.40659175714E+02  0.00000000000E+00 0. -1.
         11    1    3    3    0    0 -0.15675243841E+02 -0.11280120832E+02 -0.34434978376E-01  0.19312057930E+02  0.51100000000E-03 0. -1.
        -11    1    3    3    0    0 -0.27272129291E+01 -0.46362008561E+01 -0.71081726174E+01  0.89139310610E+01  0.51100000000E-03 0.  1.
        -12    1    3    3    0    0 -0.16966722961E+02  0.87008019773E+01 -0.11569045730E+02  0.22302835295E+02  0.00000000000E+00 0.  1.
</event>
<event>
 7    1  0.5902966E-013  0.5052885E+02  0.7816164E-02  0.1300439E+00
        -11   -1    0    0    0    0  0.00000000000E+00  0.00000000000E+00  0.45593999997E+02  0.45594000000E+02  0.51100000000E-03 0.  1.
         11   -1    0    0    0    0 -0.00000000000E+00 -0.00000000000E+00 -0.45593999997E+02  0.45594000000E+02  0.51100000000E-03 0. -1.
    9900012    2    1    2    0    0 -0.39810011780E+02  0.81449242027E+01 -0.14104677287E+01  0.50528852844E+02  0.29999978706E+02 0.  0.
         12    1    1    2    0    0  0.39810011780E+02 -0.81449242027E+01  0.14104677287E+01  0.40659147156E+02  0.00000000000E+00 0. -1.
         11    1    3    3    0    0 -0.75824699864E+01  0.59866496518E+01 -0.87188825382E+01  0.13013559779E+02  0.51100000000E-03 0. -1.
        -11    1    3    3    0    0 -0.23665362644E+02 -0.33259737437E+01 -0.16623715745E+01  0.23955687632E+02  0.51100000000E-03 0.  1.
         12    1    3    3    0    0 -0.85621791497E+01  0.54842482946E+01  0.89707863840E+01  0.13559605433E+02  0.00000000000E+00 0. -1.
</event>
<event>
 7    1  0.5902966E-013  0.5052884E+02  0.7816164E-02  0.1300439E+00
        -11   -1    0    0    0    0  0.00000000000E+00  0.00000000000E+00  0.45593999997E+02  0.45594000000E+02  0.51100000000E-03 0.  1.
         11   -1    0    0    0    0 -0.00000000000E+00 -0.00000000000E+00 -0.45593999997E+02  0.45594000000E+02  0.51100000000E-03 0. -1.
    9900012    2    1    2    0    0 -0.15289118293E+02  0.15442160806E+02  0.34364949501E+02  0.50528840850E+02  0.29999942249E+02 0.  0.
         12    1    1    2    0    0  0.15289118293E+02 -0.15442160806E+02 -0.34364949501E+02  0.40659159150E+02  0.00000000000E+00 0. -1.
         11    1    3    3    0    0 -0.83369323274E+01  0.22507335460E+01  0.24461267685E+02  0.25940775994E+02  0.51100000000E-03 0.  1.
        -11    1    3    3    0    0 -0.70752324173E+01 -0.18496827618E+01  0.45966837591E+01  0.86376930902E+01  0.51100000000E-03 0. -1.
        -12    1    3    3    0    0  0.12304645119E+00  0.15041110021E+02  0.53069980567E+01  0.15950371766E+02  0.00000000000E+00 0.  1.
</event>
<event>
 7    1  0.5902966E-013  0.5052886E+02  0.7816164E-02  0.1300439E+00
        -11   -1    0    0    0    0  0.00000000000E+00  0.00000000000E+00  0.45593999997E+02  0.45594000000E+02  0.51100000000E-03 0. -1.
         11   -1    0    0    0    0 -0.00000000000E+00 -0.00000000000E+00 -0.45593999997E+02  0.45594000000E+02  0.51100000000E-03 0.  1.
    9900012    2    1    2    0    0 -0.31417416818E+02 -0.25808936500E+02  0.10186741804E+00  0.50528860071E+02  0.30000000671E+02 0.  0.
         12    1    1    2    0    0  0.31417416818E+02  0.25808936500E+02 -0.10186741804E+00  0.40659139929E+02  0.00000000000E+00 0. -1.
         11    1    3    3    0    0 -0.47535885221E+01 -0.27884264251E+01 -0.64686221621E+01  0.84979408507E+01  0.51100000000E-03 0. -1.
        -11    1    3    3    0    0 -0.68554711277E+01  0.17401738366E+01 -0.45710935490E+01  0.84214360924E+01  0.51100000000E-03 0.  1.
        -12    1    3    3    0    0 -0.19808357169E+02 -0.24760683912E+02  0.11141583129E+02  0.33609483128E+02  0.00000000000E+00 0.  1.
</event>
<event>
 7    1  0.5902966E-013  0.5052887E+02  0.7816164E-02  0.1300439E+00
        -11   -1    0    0    0    0  0.00000000000E+00  0.00000000000E+00  0.45593999997E+02  0.45594000000E+02  0.51100000000E-03 0.  1.
         11   -1    0    0    0    0 -0.00000000000E+00 -0.00000000000E+00 -0.45593999997E+02  0.45594000000E+02  0.51100000000E-03 0. -1.
    9900012    2    1    2    0    0 -0.94428616162E+01 -0.18153378690E+01  0.39505715934E+02  0.50528872137E+02  0.30000037348E+02 0.  0.
         12    1    1    2    0    0  0.94428616162E+01  0.18153378690E+01 -0.39505715934E+02  0.40659127863E+02  0.00000000000E+00 0. -1.
         11    1    3    3    0    0 -0.66701729472E+01 -0.15783413716E+01  0.21991886951E+01  0.71985276139E+01  0.51100000000E-03 0. -1.
        -11    1    3    3    0    0 -0.51746713159E+00 -0.32197907676E+01 -0.20136855494E+01  0.38327215621E+01  0.51100000000E-03 0.  1.
        -12    1    3    3    0    0 -0.22552215374E+01  0.29827942702E+01  0.39320212789E+02  0.39497622961E+02  0.00000000000E+00 0.  1.
</event>
<event>
 7    1  0.5902966E-013  0.5052886E+02  0.7816164E-02  0.1300439E+00
        -11   -1    0    0    0    0  0.00000000000E+00  0.00000000000E+00  0.45593999997E+02  0.45594000000E+02  0.51100000000E-03 0.  1.
         11   -1    0    0    0    0 -0.00000000000E+00 -0.00000000000E+00 -0.45593999997E+02  0.45594000000E+02  0.51100000000E-03 0. -1.
    9900012    2    1    2    0    0  0.28902998542E+02 -0.25695823760E+02 -0.12550171934E+02  0.50528862048E+02  0.30000006681E+02 0.  0.
         12    1    1    2    0    0 -0.28902998542E+02  0.25695823760E+02  0.12550171934E+02  0.40659137952E+02  0.00000000000E+00 0. -1.
         11    1    3    3    0    0  0.13572796607E+02 -0.14279549176E+02 -0.29774004926E+01  0.19924639178E+02  0.51100000000E-03 0. -1.
        -11    1    3    3    0    0  0.10496925939E+01 -0.98499199902E-01  0.63311184919E+01  0.64183033781E+01  0.51100000000E-03 0.  1.
         12    1    3    3    0    0  0.14280509341E+02 -0.11317775384E+02 -0.15903889933E+02  0.24185919492E+02  0.00000000000E+00 0. -1.
</event>
<event>
 7    1  0.5902966E-013  0.5052886E+02  0.7816164E-02  0.1300439E+00
        -11   -1    0    0    0    0  0.00000000000E+00  0.00000000000E+00  0.45593999997E+02  0.45594000000E+02  0.51100000000E-03 0.  1.
         11   -1    0    0    0    0 -0.00000000000E+00 -0.00000000000E+00 -0.45593999997E+02  0.45594000000E+02  0.51100000000E-03 0. -1.
    9900012    2    1    2    0    0  0.10533745999E+02 -0.24711655505E+02  0.30521140962E+02  0.50528858737E+02  0.29999996618E+02 0.  0.
         12    1    1    2    0    0 -0.10533745999E+02  0.24711655505E+02 -0.30521140962E+02  0.40659141263E+02  0.00000000000E+00 0. -1.
         11    1    3    3    0    0 -0.52992813003E+01 -0.97339548419E+00  0.18519621326E+01  0.56973366646E+01  0.51100000000E-03 0. -1.
        -11    1    3    3    0    0  0.37759704191E+01 -0.12485601428E+02  0.24600485774E+02  0.27844785800E+02  0.51100000000E-03 0.  1.
         12    1    3    3    0    0  0.12057056881E+02 -0.11252658593E+02  0.40686930549E+01  0.16986736273E+02  0.00000000000E+00 0. -1.
</event>
<event>
 7    1  0.5902966E-013  0.5052886E+02  0.7816164E-02  0.1300439E+00
        -11   -1    0    0    0    0  0.00000000000E+00  0.00000000000E+00  0.45593999997E+02  0.45594000000E+02  0.51100000000E-03 0. -1.
         11   -1    0    0    0    0 -0.00000000000E+00 -0.00000000000E+00 -0.45593999997E+02  0.45594000000E+02  0.51100000000E-03 0.  1.
    9900012    2    1    2    0    0  0.34225924320E+02 -0.84156219200E+01 -0.20271392139E+02  0.50528856783E+02  0.29999990679E+02 0.  0.
         12    1    1    2    0    0 -0.34225924320E+02  0.84156219200E+01  0.20271392139E+02  0.40659143217E+02  0.00000000000E+00 0. -1.
         11    1    3    3    0    0  0.18350605948E+01 -0.96151220303E+01 -0.81895601288E+01  0.12762715793E+02  0.51100000000E-03 0. -1.
        -11    1    3    3    0    0  0.12723232912E+02 -0.35127571850E+01 -0.11543205735E+02  0.17534700387E+02  0.51100000000E-03 0.  1.
        -12    1    3    3    0    0  0.19667630814E+02  0.47122572952E+01 -0.53862627556E+00  0.20231440604E+02  0.00000000000E+00 0.  1.
</event>
<event>
 7    1  0.5902966E-013  0.5052885E+02  0.7816164E-02  0.1300439E+00
        -11   -1    0    0    0    0  0.00000000000E+00  0.00000000000E+00  0.45593999997E+02  0.45594000000E+02  0.51100000000E-03 0.  1.
         11   -1    0    0    0    0 -0.00000000000E+00 -0.00000000000E+00 -0.45593999997E+02  0.45594000000E+02  0.51100000000E-03 0. -1.
    9900012    2    1    2    0    0  0.38458249410E+01 -0.40231085063E+02  0.44537922949E+01  0.50528845549E+02  0.29999956532E+02 0.  0.
         12    1    1    2    0    0 -0.38458249410E+01  0.40231085063E+02 -0.44537922949E+01  0.40659154451E+02  0.00000000000E+00 0. -1.
         11    1    3    3    0    0  0.52316012523E+01 -0.64270738574E+01  0.10282003886E+02  0.13205927995E+02  0.51100000000E-03 0. -1.
        -11    1    3    3    0    0 -0.38860841891E+01 -0.12099413619E+02  0.40604869683E+01  0.13341102463E+02  0.51100000000E-03 0.  1.
         12    1    3    3    0    0  0.25003078779E+01 -0.21704597587E+02 -0.98886985593E+01  0.23981815092E+02  0.00000000000E+00 0. -1.
</event>
<event>
 7    1  0.5902966E-013  0.5052885E+02  0.7816164E-02  0.1300439E+00
        -11   -1    0    0    0    0  0.00000000000E+00  0.00000000000E+00  0.45593999997E+02  0.45594000000E+02  0.51100000000E-03 0. -1.
         11   -1    0    0    0    0 -0.00000000000E+00 -0.00000000000E+00 -0.45593999997E+02  0.45594000000E+02  0.51100000000E-03 0.  1.
    9900012    2    1    2    0    0 -0.19565252737E+02 -0.33188587233E+02  0.12995575685E+02  0.50528850666E+02  0.29999972085E+02 0.  0.
         12    1    1    2    0    0  0.19565252737E+02  0.33188587233E+02 -0.12995575685E+02  0.40659149334E+02  0.00000000000E+00 0. -1.
         11    1    3    3    0    0 -0.14524914213E+02 -0.15877579870E+02 -0.48996557811E+01  0.22069827875E+02  0.51100000000E-03 0. -1.
        -11    1    3    3    0    0 -0.15117005508E+01 -0.16779650975E+00 -0.16353806103E+01  0.22333526873E+01  0.51100000000E-03 0.  1.
         12    1    3    3    0    0 -0.35286379733E+01 -0.17143210853E+02  0.19530612076E+02  0.26225670104E+02  0.00000000000E+00 0. -1.
</event>
<event>
 7    1  0.5902966E-013  0.5052892E+02  0.7816164E-02  0.1300439E+00
        -11   -1    0    0    0    0  0.00000000000E+00  0.00000000000E+00  0.45593999997E+02  0.45594000000E+02  0.51100000000E-03 0. -1.
         11   -1    0    0    0    0 -0.00000000000E+00 -0.00000000000E+00 -0.45593999997E+02  0.45594000000E+02  0.51100000000E-03 0.  1.
    9900012    2    1    2    0    0  0.51247169407E+01  0.37133851559E+02 -0.15747233546E+02  0.50528917132E+02  0.30000174113E+02 0.  0.
         12    1    1    2    0    0 -0.51247169407E+01 -0.37133851559E+02  0.15747233546E+02  0.40659082868E+02  0.00000000000E+00 0. -1.
         11    1    3    3    0    0  0.46400988702E+01  0.14833165362E+02 -0.18224116995E+02  0.23951445733E+02  0.51100000000E-03 0. -1.
        -11    1    3    3    0    0  0.47107705789E+01  0.16653878140E+02 -0.31039507407E+01  0.17583444686E+02  0.51100000000E-03 0.  1.
         12    1    3    3    0    0 -0.42261525085E+01  0.56468080570E+01  0.55808341897E+01  0.89940267128E+01  0.00000000000E+00 0. -1.
</event>
<event>
 7    1  0.5902966E-013  0.5052886E+02  0.7816164E-02  0.1300439E+00
        -11   -1    0    0    0    0  0.00000000000E+00  0.00000000000E+00  0.45593999997E+02  0.45594000000E+02  0.51100000000E-03 0.  1.
         11   -1    0    0    0    0 -0.00000000000E+00 -0.00000000000E+00 -0.45593999997E+02  0.45594000000E+02  0.51100000000E-03 0. -1.
    9900012    2    1    2    0    0 -0.14530649732E+01 -0.10596695598E+02  0.39227081611E+02  0.50528864654E+02  0.30000014601E+02 0.  0.
         12    1    1    2    0    0  0.14530649732E+01  0.10596695598E+02 -0.39227081611E+02  0.40659135346E+02  0.00000000000E+00 0. -1.
         11    1    3    3    0    0  0.55678813124E+01  0.62548478029E+01  0.74609793429E+01  0.11215642486E+02  0.51100000000E-03 0. -1.
        -11    1    3    3    0    0  0.32983521257E+01 -0.48884444274E+01  0.15742541580E+02  0.16810818877E+02  0.51100000000E-03 0.  1.
        -12    1    3    3    0    0 -0.10319298411E+02 -0.11963098974E+02  0.16023560688E+02  0.22502403291E+02  0.00000000000E+00 0.  1.
</event>
<event>
 7    1  0.5902966E-013  0.5052882E+02  0.7816164E-02  0.1300439E+00
        -11   -1    0    0    0    0  0.00000000000E+00  0.00000000000E+00  0.45593999997E+02  0.45594000000E+02  0.51100000000E-03 0.  1.
         11   -1    0    0    0    0 -0.00000000000E+00 -0.00000000000E+00 -0.45593999997E+02  0.45594000000E+02  0.51100000000E-03 0. -1.
    9900012    2    1    2    0    0  0.42726656818E+01  0.27532379375E+02  0.29612178704E+02  0.50528822516E+02  0.29999886519E+02 0.  0.
         12    1    1    2    0    0 -0.42726656818E+01 -0.27532379375E+02 -0.29612178704E+02  0.40659177484E+02  0.00000000000E+00 0. -1.
         11    1    3    3    0    0 -0.90258895952E+01  0.10125664271E+02  0.99787704934E+01  0.16839584933E+02  0.51100000000E-03 0.  1.
        -11    1    3    3    0    0  0.10260400885E+01 -0.13986836892E+01  0.84061835337E+01  0.85832975126E+01  0.51100000000E-03 0. -1.
        -12    1    3    3    0    0  0.12272515189E+02  0.18805398794E+02  0.11227224677E+02  0.25105940070E+02  0.00000000000E+00 0.  1.
</event>
<event>
 7    1  0.5902966E-013  0.5052885E+02  0.7816164E-02  0.1300439E+00
        -11   -1    0    0    0    0  0.00000000000E+00  0.00000000000E+00  0.45593999997E+02  0.45594000000E+02  0.51100000000E-03 0. -1.
         11   -1    0    0    0    0 -0.00000000000E+00 -0.00000000000E+00 -0.45593999997E+02  0.45594000000E+02  0.51100000000E-03 0.  1.
    9900012    2    1    2    0    0  0.11472031039E+02 -0.45413127410E+01 -0.38741904571E+02  0.50528853582E+02  0.29999980949E+02 0.  0.
         12    1    1    2    0    0 -0.11472031039E+02  0.45413127410E+01  0.38741904571E+02  0.40659146418E+02  0.00000000000E+00 0. -1.
         11    1    3    3    0    0 -0.10683635591E+01 -0.31251031474E+01 -0.43252173538E+00  0.33308776154E+01  0.51100000000E-03 0. -1.
        -11    1    3    3    0    0 -0.14303225103E+01 -0.31423423025E+01 -0.31268244136E+02  0.31458277594E+02  0.51100000000E-03 0.  1.
         12    1    3    3    0    0  0.13970717109E+02  0.17261327088E+01 -0.70411387005E+01  0.15739698373E+02  0.00000000000E+00 0. -1.
</event>
<event>
 7    1  0.6575917E-013  0.5052886E+02  0.7816164E-02  0.1300439E+00
        -11   -1    0    0    0    0  0.00000000000E+00  0.00000000000E+00  0.45593999997E+02  0.45594000000E+02  0.51100000000E-03 0. -1.
         11   -1    0    0    0    0 -0.00000000000E+00 -0.00000000000E+00 -0.45593999997E+02  0.45594000000E+02  0.51100000000E-03 0.  1.
    9900012    2    1    2    0    0  0.32931600775E+02  0.20846777037E+02 -0.11579607430E+02  0.50528858953E+02  0.29999997273E+02 0.  0.
         12    1    1    2    0    0 -0.32931600775E+02 -0.20846777037E+02  0.11579607430E+02  0.40659141047E+02  0.00000000000E+00 0. -1.
         11    1    3    3    0    0 -0.20421597358E+01 -0.40023113470E-01  0.26206979607E+01  0.33226610268E+01  0.51100000000E-03 0. -1.
        -11    1    3    3    0    0  0.34441668138E+01  0.72957541739E+01 -0.96399236862E+01  0.12570538690E+02  0.51100000000E-03 0.  1.
        -12    1    3    3    0    0  0.31529593697E+02  0.13591045976E+02 -0.45603817047E+01  0.34635659237E+02  0.00000000000E+00 0.  1.
</event>
<event>
 7    1  0.5902966E-013  0.5052886E+02  0.7816164E-02  0.1300439E+00
        -11   -1    0    0    0    0  0.00000000000E+00  0.00000000000E+00  0.45593999997E+02  0.45594000000E+02  0.51100000000E-03 0. -1.
         11   -1    0    0    0    0 -0.00000000000E+00 -0.00000000000E+00 -0.45593999997E+02  0.45594000000E+02  0.51100000000E-03 0.  1.
    9900012    2    1    2    0    0  0.20360407416E+02 -0.71654443359E+01 -0.34456874780E+02  0.50528855859E+02  0.29999987868E+02 0.  0.
         12    1    1    2    0    0 -0.20360407416E+02  0.71654443359E+01  0.34456874780E+02  0.40659144141E+02  0.00000000000E+00 0. -1.
         11    1    3    3    0    0  0.10746607057E+01  0.19013619149E+01  0.21064080488E+01  0.30343084703E+01  0.51100000000E-03 0. -1.
        -11    1    3    3    0    0  0.75991583546E+01  0.65156907143E+01 -0.75006370629E+01  0.12508436745E+02  0.51100000000E-03 0.  1.
        -12    1    3    3    0    0  0.11686588356E+02 -0.15582496965E+02 -0.29062645766E+02  0.34986110644E+02  0.00000000000E+00 0.  1.
</event>
<event>
 7    1  0.5902966E-013  0.5052887E+02  0.7816164E-02  0.1300439E+00
        -11   -1    0    0    0    0  0.00000000000E+00  0.00000000000E+00  0.45593999997E+02  0.45594000000E+02  0.51100000000E-03 0. -1.
         11   -1    0    0    0    0 -0.00000000000E+00 -0.00000000000E+00 -0.45593999997E+02  0.45594000000E+02  0.51100000000E-03 0.  1.
    9900012    2    1    2    0    0 -0.65616305678E+01  0.89962251462E+01 -0.39104705259E+02  0.50528867742E+02  0.30000023987E+02 0.  0.
         12    1    1    2    0    0  0.65616305678E+01 -0.89962251462E+01  0.39104705259E+02  0.40659132258E+02  0.00000000000E+00 0. -1.
         11    1    3    3    0    0  0.76714669142E+01 -0.19091328261E+00 -0.64209042760E+01  0.10005791547E+02  0.51100000000E-03 0. -1.
        -11    1    3    3    0    0  0.22225525189E+00  0.92543045887E+01 -0.10018850144E+02  0.13640707800E+02  0.51100000000E-03 0.  1.
         12    1    3    3    0    0 -0.14455352734E+02 -0.67166159880E-01 -0.22664950839E+02  0.26882368395E+02  0.00000000000E+00 0. -1.
</event>
<event>
 7    1  0.5902966E-013  0.5052886E+02  0.7816164E-02  0.1300439E+00
        -11   -1    0    0    0    0  0.00000000000E+00  0.00000000000E+00  0.45593999997E+02  0.45594000000E+02  0.51100000000E-03 0.  1.
         11   -1    0    0    0    0 -0.00000000000E+00 -0.00000000000E+00 -0.45593999997E+02  0.45594000000E+02  0.51100000000E-03 0. -1.
    9900012    2    1    2    0    0 -0.40658014527E+02 -0.28921348400E+00 -0.89789599777E-01  0.50528857708E+02  0.29999993489E+02 0.  0.
         12    1    1    2    0    0  0.40658014527E+02  0.28921348400E+00  0.89789599777E-01  0.40659142292E+02  0.00000000000E+00 0. -1.
         11    1    3    3    0    0 -0.84174522431E+01 -0.39226202604E+01 -0.67242581682E+00  0.93108865697E+01  0.51100000000E-03 0. -1.
        -11    1    3    3    0    0 -0.29909423907E+02  0.12218306520E+02  0.81612030370E+00  0.32319138375E+02  0.51100000000E-03 0.  1.
         12    1    3    3    0    0 -0.23311383771E+01 -0.85848997435E+01 -0.23348408666E+00  0.88988327638E+01  0.00000000000E+00 0. -1.
</event>
<event>
 7    1  0.5902966E-013  0.5052887E+02  0.7816164E-02  0.1300439E+00
        -11   -1    0    0    0    0  0.00000000000E+00  0.00000000000E+00  0.45593999997E+02  0.45594000000E+02  0.51100000000E-03 0. -1.
         11   -1    0    0    0    0 -0.00000000000E+00 -0.00000000000E+00 -0.45593999997E+02  0.45594000000E+02  0.51100000000E-03 0.  1.
    9900012    2    1    2    0    0 -0.38251045521E+02 -0.52154748833E+01 -0.12760138966E+02  0.50528870544E+02  0.30000032506E+02 0.  0.
         12    1    1    2    0    0  0.38251045521E+02  0.52154748833E+01  0.12760138966E+02  0.40659129456E+02  0.00000000000E+00 0. -1.
         11    1    3    3    0    0 -0.14778959459E+02 -0.11453799430E+01  0.57538742771E+01  0.15900836688E+02  0.51100000000E-03 0. -1.
        -11    1    3    3    0    0 -0.17222053525E+02 -0.81997808870E+01 -0.59156318927E+01  0.19970734468E+02  0.51100000000E-03 0.  1.
        -12    1    3    3    0    0 -0.62500325362E+01  0.41296859468E+01 -0.12598381350E+02  0.14657299389E+02  0.00000000000E+00 0.  1.
</event>
<event>
 7    1  0.5902966E-013  0.5052887E+02  0.7816164E-02  0.1300439E+00
        -11   -1    0    0    0    0  0.00000000000E+00  0.00000000000E+00  0.45593999997E+02  0.45594000000E+02  0.51100000000E-03 0.  1.
         11   -1    0    0    0    0 -0.00000000000E+00 -0.00000000000E+00 -0.45593999997E+02  0.45594000000E+02  0.51100000000E-03 0. -1.
    9900012    2    1    2    0    0  0.18738267099E+02 -0.13121095626E+02  0.33613678633E+02  0.50528865780E+02  0.30000018024E+02 0.  0.
         12    1    1    2    0    0 -0.18738267099E+02  0.13121095626E+02 -0.33613678633E+02  0.40659134220E+02  0.00000000000E+00 0. -1.
         11    1    3    3    0    0  0.18583771517E+02 -0.40407194553E+01  0.56659339152E+01  0.19844061704E+02  0.51100000000E-03 0. -1.
        -11    1    3    3    0    0  0.37165615980E+01 -0.28236140616E+01  0.60969198385E+01  0.76784150877E+01  0.51100000000E-03 0.  1.
        -12    1    3    3    0    0 -0.35620660157E+01 -0.62567621087E+01  0.21850824879E+02  0.23006388988E+02  0.00000000000E+00 0.  1.
</event>
<event>
 7    1  0.5902966E-013  0.5052887E+02  0.7816164E-02  0.1300439E+00
        -11   -1    0    0    0    0  0.00000000000E+00  0.00000000000E+00  0.45593999997E+02  0.45594000000E+02  0.51100000000E-03 0.  1.
         11   -1    0    0    0    0 -0.00000000000E+00 -0.00000000000E+00 -0.45593999997E+02  0.45594000000E+02  0.51100000000E-03 0. -1.
    9900012    2    1    2    0    0 -0.22639610834E+02 -0.23822698220E+02  0.23939340787E+02  0.50528868596E+02  0.30000026584E+02 0.  0.
         12    1    1    2    0    0  0.22639610834E+02  0.23822698220E+02 -0.23939340787E+02  0.40659131404E+02  0.00000000000E+00 0. -1.
         11    1    3    3    0    0 -0.12504171739E+02 -0.62240008268E+01  0.51785242617E+01  0.14896630860E+02  0.51100000000E-03 0. -1.
        -11    1    3    3    0    0 -0.16863379795E+02 -0.11058898119E+02  0.89688255415E+01  0.22070628391E+02  0.51100000000E-03 0.  1.
         12    1    3    3    0    0  0.67279407001E+01 -0.65397992746E+01  0.97919909840E+01  0.13561609346E+02  0.00000000000E+00 0. -1.
</event>
<event>
 7    1  0.5902966E-013  0.5052887E+02  0.7816164E-02  0.1300439E+00
        -11   -1    0    0    0    0  0.00000000000E+00  0.00000000000E+00  0.45593999997E+02  0.45594000000E+02  0.51100000000E-03 0. -1.
         11   -1    0    0    0    0 -0.00000000000E+00 -0.00000000000E+00 -0.45593999997E+02  0.45594000000E+02  0.51100000000E-03 0.  1.
    9900012    2    1    2    0    0 -0.24993371968E+02 -0.31955427972E+02 -0.27105405780E+01  0.50528867577E+02  0.30000023486E+02 0.  0.
         12    1    1    2    0    0  0.24993371968E+02  0.31955427972E+02  0.27105405780E+01  0.40659132423E+02  0.00000000000E+00 0. -1.
         11    1    3    3    0    0  0.55167211221E+00 -0.56437788332E+01 -0.30722875689E+01  0.64494598847E+01  0.51100000000E-03 0.  1.
        -11    1    3    3    0    0 -0.10928579100E+02 -0.24691301356E+02  0.70754688384E+01  0.27913374273E+02  0.51100000000E-03 0. -1.
        -12    1    3    3    0    0 -0.14616464980E+02 -0.16203477833E+01 -0.67137218475E+01  0.16166033419E+02  0.00000000000E+00 0.  1.
</event>
<event>
 7    1  0.5902966E-013  0.5052886E+02  0.7816164E-02  0.1300439E+00
        -11   -1    0    0    0    0  0.00000000000E+00  0.00000000000E+00  0.45593999997E+02  0.45594000000E+02  0.51100000000E-03 0.  1.
         11   -1    0    0    0    0 -0.00000000000E+00 -0.00000000000E+00 -0.45593999997E+02  0.45594000000E+02  0.51100000000E-03 0. -1.
    9900012    2    1    2    0    0 -0.10695327184E+02  0.95509988461E+01  0.38046737298E+02  0.50528858081E+02  0.29999994624E+02 0.  0.
         12    1    1    2    0    0  0.10695327184E+02 -0.95509988461E+01 -0.38046737298E+02  0.40659141919E+02  0.00000000000E+00 0. -1.
         11    1    3    3    0    0 -0.46282970865E+01 -0.28199939110E+01  0.31450113188E+01  0.62661468252E+01  0.51100000000E-03 0. -1.
        -11    1    3    3    0    0 -0.72386493946E+01 -0.40490239001E+00  0.29439064385E+02  0.30318649427E+02  0.51100000000E-03 0.  1.
         12    1    3    3    0    0  0.11716192969E+01  0.12775895147E+02  0.54626615945E+01  0.13944061829E+02  0.00000000000E+00 0. -1.
</event>
<event>
 7    1  0.6345159E-013  0.5052886E+02  0.7816164E-02  0.1300439E+00
        -11   -1    0    0    0    0  0.00000000000E+00  0.00000000000E+00  0.45593999997E+02  0.45594000000E+02  0.51100000000E-03 0. -1.
         11   -1    0    0    0    0 -0.00000000000E+00 -0.00000000000E+00 -0.45593999997E+02  0.45594000000E+02  0.51100000000E-03 0.  1.
    9900012    2    1    2    0    0 -0.10778248602E+02  0.19868587802E+02 -0.33796951603E+02  0.50528863735E+02  0.30000011809E+02 0.  0.
         12    1    1    2    0    0  0.10778248602E+02 -0.19868587802E+02  0.33796951603E+02  0.40659136265E+02  0.00000000000E+00 0. -1.
         11    1    3    3    0    0 -0.11412534543E+00 -0.27827947444E+01  0.11582788851E+01  0.30163854894E+01  0.51100000000E-03 0. -1.
        -11    1    3    3    0    0  0.52472027063E+01  0.11173895911E+02 -0.10872397597E+02  0.16449866742E+02  0.51100000000E-03 0.  1.
        -12    1    3    3    0    0 -0.15911325963E+02  0.11477486636E+02 -0.24082832891E+02  0.31062611503E+02  0.00000000000E+00 0.  1.
</event>
<event>
 7    1  0.5902966E-013  0.5052887E+02  0.7816164E-02  0.1300439E+00
        -11   -1    0    0    0    0  0.00000000000E+00  0.00000000000E+00  0.45593999997E+02  0.45594000000E+02  0.51100000000E-03 0. -1.
         11   -1    0    0    0    0 -0.00000000000E+00 -0.00000000000E+00 -0.45593999997E+02  0.45594000000E+02  0.51100000000E-03 0.  1.
    9900012    2    1    2    0    0 -0.39917734456E+02  0.67746313405E+01  0.37207237431E+01  0.50528868933E+02  0.30000027610E+02 0.  0.
         12    1    1    2    0    0  0.39917734456E+02 -0.67746313405E+01 -0.37207237431E+01  0.40659131067E+02  0.00000000000E+00 0. -1.
         11    1    3    3    0    0 -0.12943647621E+02  0.19516994142E+01  0.55955914264E+01  0.14235792497E+02  0.51100000000E-03 0.  1.
        -11    1    3    3    0    0 -0.87593171649E+00 -0.62470870856E+01  0.38244411612E+01  0.73769711863E+01  0.51100000000E-03 0. -1.
         12    1    3    3    0    0 -0.26098155119E+02  0.11070019012E+02 -0.56993088445E+01  0.28916105250E+02  0.00000000000E+00 0. -1.
</event>
<event>
 7    1  0.5902966E-013  0.5052887E+02  0.7816164E-02  0.1300439E+00
        -11   -1    0    0    0    0  0.00000000000E+00  0.00000000000E+00  0.45593999997E+02  0.45594000000E+02  0.51100000000E-03 0.  1.
         11   -1    0    0    0    0 -0.00000000000E+00 -0.00000000000E+00 -0.45593999997E+02  0.45594000000E+02  0.51100000000E-03 0. -1.
    9900012    2    1    2    0    0 -0.29383577018E+01 -0.61214154676E+01  0.40088144047E+02  0.50528868597E+02  0.30000026586E+02 0.  0.
         12    1    1    2    0    0  0.29383577018E+01  0.61214154676E+01 -0.40088144047E+02  0.40659131403E+02  0.00000000000E+00 0. -1.
         11    1    3    3    0    0 -0.37563324389E+01  0.35367777902E+01  0.70860600907E+00  0.52077781506E+01  0.51100000000E-03 0. -1.
        -11    1    3    3    0    0 -0.61962676868E+01 -0.74091825717E+01  0.65374598727E+01  0.11663108568E+02  0.51100000000E-03 0.  1.
        -12    1    3    3    0    0  0.70142424239E+01 -0.22490106860E+01  0.32842078166E+02  0.33657981878E+02  0.00000000000E+00 0.  1.
</event>
<event>
 7    1  0.5902966E-013  0.5052886E+02  0.7816164E-02  0.1300439E+00
        -11   -1    0    0    0    0  0.00000000000E+00  0.00000000000E+00  0.45593999997E+02  0.45594000000E+02  0.51100000000E-03 0.  1.
         11   -1    0    0    0    0 -0.00000000000E+00 -0.00000000000E+00 -0.45593999997E+02  0.45594000000E+02  0.51100000000E-03 0. -1.
    9900012    2    1    2    0    0  0.34134786216E+02  0.15493128727E+02  0.15746271756E+02  0.50528859060E+02  0.29999997597E+02 0.  0.
         12    1    1    2    0    0 -0.34134786216E+02 -0.15493128727E+02 -0.15746271756E+02  0.40659140940E+02  0.00000000000E+00 0. -1.
         11    1    3    3    0    0  0.29410741946E+02  0.57760082851E+01  0.14219806031E+02  0.33174642385E+02  0.51100000000E-03 0. -1.
        -11    1    3    3    0    0  0.58539268620E+00 -0.15743885130E+01  0.46374441142E+01  0.49322684396E+01  0.51100000000E-03 0.  1.
         12    1    3    3    0    0  0.41386515835E+01  0.11291508955E+02 -0.31109783889E+01  0.12421948235E+02  0.00000000000E+00 0. -1.
</event>
<event>
 7    1  0.5902966E-013  0.5052887E+02  0.7816164E-02  0.1300439E+00
        -11   -1    0    0    0    0  0.00000000000E+00  0.00000000000E+00  0.45593999997E+02  0.45594000000E+02  0.51100000000E-03 0. -1.
         11   -1    0    0    0    0 -0.00000000000E+00 -0.00000000000E+00 -0.45593999997E+02  0.45594000000E+02  0.51100000000E-03 0.  1.
    9900012    2    1    2    0    0  0.38546218345E+02 -0.21144945895E+01  0.12762568480E+02  0.50528865845E+02  0.30000018222E+02 0.  0.
         12    1    1    2    0    0 -0.38546218345E+02  0.21144945895E+01 -0.12762568480E+02  0.40659134155E+02  0.00000000000E+00 0. -1.
         11    1    3    3    0    0  0.19034307175E+01 -0.25013906339E+01 -0.34982706877E+01  0.47029673256E+01  0.51100000000E-03 0. -1.
        -11    1    3    3    0    0  0.30468556174E+02 -0.51687270122E+01  0.19901162948E+02  0.36757379412E+02  0.51100000000E-03 0.  1.
         12    1    3    3    0    0  0.61742314530E+01  0.55556230566E+01 -0.36403237805E+01  0.90685191078E+01  0.00000000000E+00 0. -1.
</event>
<event>
 7    1  0.5902966E-013  0.5052874E+02  0.7816164E-02  0.1300439E+00
        -11   -1    0    0    0    0  0.00000000000E+00  0.00000000000E+00  0.45593999997E+02  0.45594000000E+02  0.51100000000E-03 0. -1.
         11   -1    0    0    0    0 -0.00000000000E+00 -0.00000000000E+00 -0.45593999997E+02  0.45594000000E+02  0.51100000000E-03 0.  1.
    9900012    2    1    2    0    0 -0.38612651439E+02 -0.12427413682E+02  0.27924416835E+01  0.50528742844E+02  0.29999644345E+02 0.  0.
         12    1    1    2    0    0  0.38612651439E+02  0.12427413682E+02 -0.27924416835E+01  0.40659257156E+02  0.00000000000E+00 0. -1.
         11    1    3    3    0    0 -0.10730763900E+02  0.27143844307E+01 -0.31726822844E+01  0.11514473060E+02  0.51100000000E-03 0. -1.
        -11    1    3    3    0    0 -0.17251849819E+02  0.15573868999E+01  0.80654808272E+01  0.19107688436E+02  0.51100000000E-03 0.  1.
         12    1    3    3    0    0 -0.10630037720E+02 -0.16699185012E+02 -0.21003568594E+01  0.19906581348E+02  0.00000000000E+00 0. -1.
</event>
<event>
 7    1  0.5902966E-013  0.5052885E+02  0.7816164E-02  0.1300439E+00
        -11   -1    0    0    0    0  0.00000000000E+00  0.00000000000E+00  0.45593999997E+02  0.45594000000E+02  0.51100000000E-03 0.  1.
         11   -1    0    0    0    0 -0.00000000000E+00 -0.00000000000E+00 -0.45593999997E+02  0.45594000000E+02  0.51100000000E-03 0. -1.
    9900012    2    1    2    0    0  0.31269570561E+02 -0.89983956405E+01  0.24380517739E+02  0.50528845896E+02  0.29999957586E+02 0.  0.
         12    1    1    2    0    0 -0.31269570561E+02  0.89983956405E+01 -0.24380517739E+02  0.40659154104E+02  0.00000000000E+00 0. -1.
         11    1    3    3    0    0  0.42071932766E+01 -0.97908870070E+01 -0.22867825005E+01  0.10899142999E+02  0.51100000000E-03 0. -1.
        -11    1    3    3    0    0  0.95752149752E+01 -0.49815771964E+01  0.82562502864E+01  0.13589206093E+02  0.51100000000E-03 0.  1.
        -12    1    3    3    0    0  0.17487162310E+02  0.57740685629E+01  0.18411049954E+02  0.26040496804E+02  0.00000000000E+00 0.  1.
</event>
<event>
 7    1  0.5902966E-013  0.5052885E+02  0.7816164E-02  0.1300439E+00
        -11   -1    0    0    0    0  0.00000000000E+00  0.00000000000E+00  0.45593999997E+02  0.45594000000E+02  0.51100000000E-03 0.  1.
         11   -1    0    0    0    0 -0.00000000000E+00 -0.00000000000E+00 -0.45593999997E+02  0.45594000000E+02  0.51100000000E-03 0. -1.
    9900012    2    1    2    0    0  0.12880289543E+02 -0.31512978653E+02  0.22230531090E+02  0.50528853491E+02  0.29999980671E+02 0.  0.
         12    1    1    2    0    0 -0.12880289543E+02  0.31512978653E+02 -0.22230531090E+02  0.40659146509E+02  0.00000000000E+00 0. -1.
         11    1    3    3    0    0  0.72494915323E+01 -0.10297755908E+02  0.75464334167E+00  0.12616195585E+02  0.51100000000E-03 0. -1.
        -11    1    3    3    0    0  0.28696906460E+01 -0.25418781257E+02  0.14795981195E+02  0.29551152682E+02  0.51100000000E-03 0.  1.
        -12    1    3    3    0    0  0.27611073649E+01  0.42035585127E+01  0.66799065533E+01  0.83615052240E+01  0.00000000000E+00 0.  1.
</event>
<event>
 7    1  0.5902966E-013  0.5052885E+02  0.7816164E-02  0.1300439E+00
        -11   -1    0    0    0    0  0.00000000000E+00  0.00000000000E+00  0.45593999997E+02  0.45594000000E+02  0.51100000000E-03 0.  1.
         11   -1    0    0    0    0 -0.00000000000E+00 -0.00000000000E+00 -0.45593999997E+02  0.45594000000E+02  0.51100000000E-03 0. -1.
    9900012    2    1    2    0    0 -0.52626970784E+01 -0.19695683557E+02  0.35178833027E+02  0.50528853127E+02  0.29999979565E+02 0.  0.
         12    1    1    2    0    0  0.52626970784E+01  0.19695683557E+02 -0.35178833027E+02  0.40659146873E+02  0.00000000000E+00 0. -1.
         11    1    3    3    0    0 -0.32368560978E+01 -0.55638118695E+00 -0.20759410063E+01  0.38853994320E+01  0.51100000000E-03 0. -1.
        -11    1    3    3    0    0 -0.11947954233E+00 -0.13204459600E+02  0.55368923841E+01  0.14318840953E+02  0.51100000000E-03 0.  1.
         12    1    3    3    0    0 -0.19063614383E+01 -0.59348427692E+01  0.31717881649E+02  0.32324612742E+02  0.00000000000E+00 0. -1.
</event>
<event>
 7    1  0.5902966E-013  0.5052886E+02  0.7816164E-02  0.1300439E+00
        -11   -1    0    0    0    0  0.00000000000E+00  0.00000000000E+00  0.45593999997E+02  0.45594000000E+02  0.51100000000E-03 0. -1.
         11   -1    0    0    0    0 -0.00000000000E+00 -0.00000000000E+00 -0.45593999997E+02  0.45594000000E+02  0.51100000000E-03 0.  1.
    9900012    2    1    2    0    0  0.19169045061E+02 -0.28485802614E+02 -0.21777804511E+02  0.50528855784E+02  0.29999987640E+02 0.  0.
         12    1    1    2    0    0 -0.19169045061E+02  0.28485802614E+02  0.21777804511E+02  0.40659144216E+02  0.00000000000E+00 0. -1.
         11    1    3    3    0    0 -0.28744534868E+01 -0.23903462962E+01 -0.14559957072E+00  0.37413149774E+01  0.51100000000E-03 0. -1.
        -11    1    3    3    0    0  0.78642252120E+01 -0.15859061640E+02 -0.23253191742E+02  0.29224421308E+02  0.51100000000E-03 0.  1.
        -12    1    3    3    0    0  0.14179273336E+02 -0.10236394677E+02  0.16209868025E+01  0.17563119499E+02  0.00000000000E+00 0.  1.
</event>
<event>
 7    1  0.5902966E-013  0.5052887E+02  0.7816164E-02  0.1300439E+00
        -11   -1    0    0    0    0  0.00000000000E+00  0.00000000000E+00  0.45593999997E+02  0.45594000000E+02  0.51100000000E-03 0.  1.
         11   -1    0    0    0    0 -0.00000000000E+00 -0.00000000000E+00 -0.45593999997E+02  0.45594000000E+02  0.51100000000E-03 0. -1.
    9900012    2    1    2    0    0  0.26382607680E+02  0.80443743051E+01  0.29873251446E+02  0.50528866980E+02  0.30000021674E+02 0.  0.
         12    1    1    2    0    0 -0.26382607680E+02 -0.80443743051E+01 -0.29873251446E+02  0.40659133020E+02  0.00000000000E+00 0. -1.
         11    1    3    3    0    0  0.43871523120E+01  0.12727716270E+02  0.76768946595E+01  0.15497631391E+02  0.51100000000E-03 0. -1.
        -11    1    3    3    0    0  0.12918406526E+02  0.47036959062E+01  0.13957750705E+02  0.19591548875E+02  0.51100000000E-03 0.  1.
         12    1    3    3    0    0  0.90770488423E+01 -0.93870378707E+01  0.82386060816E+01  0.15439686714E+02  0.00000000000E+00 0. -1.
</event>
<event>
 7    1  0.5902966E-013  0.5052886E+02  0.7816164E-02  0.1300439E+00
        -11   -1    0    0    0    0  0.00000000000E+00  0.00000000000E+00  0.45593999997E+02  0.45594000000E+02  0.51100000000E-03 0. -1.
         11   -1    0    0    0    0 -0.00000000000E+00 -0.00000000000E+00 -0.45593999997E+02  0.45594000000E+02  0.51100000000E-03 0.  1.
    9900012    2    1    2    0    0  0.23421215040E+02  0.27239549487E+02 -0.19042564119E+02  0.50528860579E+02  0.30000002216E+02 0.  0.
         12    1    1    2    0    0 -0.23421215040E+02 -0.27239549487E+02  0.19042564119E+02  0.40659139421E+02  0.00000000000E+00 0. -1.
         11    1    3    3    0    0  0.13167154440E+02  0.49529777213E+01 -0.14793741317E+02  0.20414718385E+02  0.51100000000E-03 0. -1.
        -11    1    3    3    0    0 -0.38309662730E+01  0.98193201471E+01 -0.40827886074E+01  0.11303296590E+02  0.51100000000E-03 0.  1.
         12    1    3    3    0    0  0.14085026873E+02  0.12467251619E+02 -0.16603419538E+00  0.18810845603E+02  0.00000000000E+00 0. -1.
</event>
<event>
 7    1  0.5902966E-013  0.5052885E+02  0.7816164E-02  0.1300439E+00
        -11   -1    0    0    0    0  0.00000000000E+00  0.00000000000E+00  0.45593999997E+02  0.45594000000E+02  0.51100000000E-03 0.  1.
         11   -1    0    0    0    0 -0.00000000000E+00 -0.00000000000E+00 -0.45593999997E+02  0.45594000000E+02  0.51100000000E-03 0. -1.
    9900012    2    1    2    0    0  0.25432800788E+02 -0.22915871855E+02  0.21936308794E+02  0.50528853645E+02  0.29999981141E+02 0.  0.
         12    1    1    2    0    0 -0.25432800788E+02  0.22915871855E+02 -0.21936308794E+02  0.40659146355E+02  0.00000000000E+00 0. -1.
         11    1    3    3    0    0  0.45583040870E+01 -0.18899711772E+01 -0.53290536881E+01  0.72628465957E+01  0.51100000000E-03 0. -1.
        -11    1    3    3    0    0  0.10618386475E+02 -0.10928425799E+02  0.37441148346E+01  0.15690730319E+02  0.51100000000E-03 0.  1.
        -12    1    3    3    0    0  0.10256110226E+02 -0.10097474878E+02  0.23521247648E+02  0.27575276731E+02  0.00000000000E+00 0.  1.
</event>
<event>
 7    1  0.5902966E-013  0.5052889E+02  0.7816164E-02  0.1300439E+00
        -11   -1    0    0    0    0  0.00000000000E+00  0.00000000000E+00  0.45593999997E+02  0.45594000000E+02  0.51100000000E-03 0.  1.
         11   -1    0    0    0    0 -0.00000000000E+00 -0.00000000000E+00 -0.45593999997E+02  0.45594000000E+02  0.51100000000E-03 0. -1.
    9900012    2    1    2    0    0  0.47250389227E+01 -0.11274987964E+02  0.38777723734E+02  0.50528890265E+02  0.30000092450E+02 0.  0.
         12    1    1    2    0    0 -0.47250389227E+01  0.11274987964E+02 -0.38777723734E+02  0.40659109735E+02  0.00000000000E+00 0. -1.
         11    1    3    3    0    0  0.22351774223E+01  0.36837222063E+01  0.49603848783E+01  0.65704829202E+01  0.51100000000E-03 0. -1.
        -11    1    3    3    0    0 -0.11303371613E+01 -0.10501217501E+02  0.36223791250E+02  0.37732165110E+02  0.51100000000E-03 0.  1.
         12    1    3    3    0    0  0.36201986617E+01 -0.44574926690E+01 -0.24064523940E+01  0.62262422350E+01  0.00000000000E+00 0. -1.
</event>
<event>
 7    1  0.5902966E-013  0.5052887E+02  0.7816164E-02  0.1300439E+00
        -11   -1    0    0    0    0  0.00000000000E+00  0.00000000000E+00  0.45593999997E+02  0.45594000000E+02  0.51100000000E-03 0.  1.
         11   -1    0    0    0    0 -0.00000000000E+00 -0.00000000000E+00 -0.45593999997E+02  0.45594000000E+02  0.51100000000E-03 0. -1.
    9900012    2    1    2    0    0 -0.31902773688E+02 -0.24809082256E+02 -0.44595571312E+01  0.50528865956E+02  0.30000018560E+02 0.  0.
         12    1    1    2    0    0  0.31902773688E+02  0.24809082256E+02  0.44595571312E+01  0.40659134044E+02  0.00000000000E+00 0. -1.
         11    1    3    3    0    0 -0.99444845090E+01  0.34538744840E+01 -0.26493691392E+01  0.10855467664E+02  0.51100000000E-03 0. -1.
        -11    1    3    3    0    0 -0.19197135518E+02 -0.11326782085E+02  0.86484941852E+00  0.22306366116E+02  0.51100000000E-03 0.  1.
        -12    1    3    3    0    0 -0.27611536615E+01 -0.16936174655E+02 -0.26750374105E+01  0.17367032177E+02  0.00000000000E+00 0.  1.
</event>
<event>
 7    1  0.5902966E-013  0.5052885E+02  0.7816164E-02  0.1300439E+00
        -11   -1    0    0    0    0  0.00000000000E+00  0.00000000000E+00  0.45593999997E+02  0.45594000000E+02  0.51100000000E-03 0.  1.
         11   -1    0    0    0    0 -0.00000000000E+00 -0.00000000000E+00 -0.45593999997E+02  0.45594000000E+02  0.51100000000E-03 0. -1.
    9900012    2    1    2    0    0 -0.15119639428E+02 -0.26822492482E+02  0.26554041573E+02  0.50528846993E+02  0.29999960920E+02 0.  0.
         12    1    1    2    0    0  0.15119639428E+02  0.26822492482E+02 -0.26554041573E+02  0.40659153007E+02  0.00000000000E+00 0. -1.
         11    1    3    3    0    0 -0.97953375738E+01 -0.31547617576E+01  0.78280226322E+01  0.12929775656E+02  0.51100000000E-03 0. -1.
        -11    1    3    3    0    0 -0.48538335218E+01 -0.14932005936E+02 -0.12907287345E+01  0.15754062399E+02  0.51100000000E-03 0.  1.
        -12    1    3    3    0    0 -0.47046833259E+00 -0.87357247884E+01  0.20016747675E+02  0.21845008938E+02  0.00000000000E+00 0.  1.
</event>
<event>
 7    1  0.5902966E-013  0.5052888E+02  0.7816164E-02  0.1300439E+00
        -11   -1    0    0    0    0  0.00000000000E+00  0.00000000000E+00  0.45593999997E+02  0.45594000000E+02  0.51100000000E-03 0. -1.
         11   -1    0    0    0    0 -0.00000000000E+00 -0.00000000000E+00 -0.45593999997E+02  0.45594000000E+02  0.51100000000E-03 0.  1.
    9900012    2    1    2    0    0  0.21616930619E+02  0.27799059034E+02 -0.20324490066E+02  0.50528877174E+02  0.30000052657E+02 0.  0.
         12    1    1    2    0    0 -0.21616930619E+02 -0.27799059034E+02  0.20324490066E+02  0.40659122826E+02  0.00000000000E+00 0. -1.
         11    1    3    3    0    0  0.45217209050E+01  0.10018425369E+02  0.50622644092E+01  0.12101294477E+02  0.51100000000E-03 0. -1.
        -11    1    3    3    0    0  0.68452029984E+01  0.15127362415E+02 -0.89137644803E+01  0.18845399842E+02  0.51100000000E-03 0.  1.
         12    1    3    3    0    0  0.10250006715E+02  0.26532712504E+01 -0.16472989995E+02  0.19582182855E+02  0.00000000000E+00 0. -1.
</event>
<event>
 7    1  0.5902966E-013  0.5052886E+02  0.7816164E-02  0.1300439E+00
        -11   -1    0    0    0    0  0.00000000000E+00  0.00000000000E+00  0.45593999997E+02  0.45594000000E+02  0.51100000000E-03 0.  1.
         11   -1    0    0    0    0 -0.00000000000E+00 -0.00000000000E+00 -0.45593999997E+02  0.45594000000E+02  0.51100000000E-03 0. -1.
    9900012    2    1    2    0    0 -0.23934783326E+01 -0.18415344491E+02  0.36170596307E+02  0.50528859718E+02  0.29999999600E+02 0.  0.
         12    1    1    2    0    0  0.23934783326E+01  0.18415344491E+02 -0.36170596307E+02  0.40659140282E+02  0.00000000000E+00 0. -1.
         11    1    3    3    0    0 -0.27666931152E+01  0.31858292009E+01  0.37311230426E+01  0.56325285540E+01  0.51100000000E-03 0. -1.
        -11    1    3    3    0    0 -0.14633067765E+01 -0.13467132788E+02  0.24462583721E+01  0.13765504442E+02  0.51100000000E-03 0.  1.
        -12    1    3    3    0    0  0.18365215591E+01 -0.81340409043E+01  0.29993214892E+02  0.31130826722E+02  0.00000000000E+00 0.  1.
</event>
<event>
 7    1  0.5902966E-013  0.5052887E+02  0.7816164E-02  0.1300439E+00
        -11   -1    0    0    0    0  0.00000000000E+00  0.00000000000E+00  0.45593999997E+02  0.45594000000E+02  0.51100000000E-03 0. -1.
         11   -1    0    0    0    0 -0.00000000000E+00 -0.00000000000E+00 -0.45593999997E+02  0.45594000000E+02  0.51100000000E-03 0.  1.
    9900012    2    1    2    0    0 -0.30084550727E+02 -0.22464892940E+02  0.15601718794E+02  0.50528865275E+02  0.30000016490E+02 0.  0.
         12    1    1    2    0    0  0.30084550727E+02  0.22464892940E+02 -0.15601718794E+02  0.40659134725E+02  0.00000000000E+00 0. -1.
         11    1    3    3    0    0 -0.89148082252E+01 -0.19172849958E+01  0.30300344875E+00  0.91236834008E+01  0.51100000000E-03 0. -1.
        -11    1    3    3    0    0 -0.16743844352E+02 -0.10298260532E+02  0.21088184459E+02  0.28829186906E+02  0.51100000000E-03 0.  1.
         12    1    3    3    0    0 -0.44258981500E+01 -0.10249347412E+02 -0.57894691139E+01  0.12575994968E+02  0.00000000000E+00 0. -1.
</event>
<event>
 7    1  0.5902966E-013  0.5052887E+02  0.7816164E-02  0.1300439E+00
        -11   -1    0    0    0    0  0.00000000000E+00  0.00000000000E+00  0.45593999997E+02  0.45594000000E+02  0.51100000000E-03 0. -1.
         11   -1    0    0    0    0 -0.00000000000E+00 -0.00000000000E+00 -0.45593999997E+02  0.45594000000E+02  0.51100000000E-03 0.  1.
    9900012    2    1    2    0    0 -0.20930159635E+02 -0.33021444900E+02 -0.11165915934E+02  0.50528867148E+02  0.30000022183E+02 0.  0.
         12    1    1    2    0    0  0.20930159635E+02  0.33021444900E+02  0.11165915934E+02  0.40659132852E+02  0.00000000000E+00 0. -1.
         11    1    3    3    0    0 -0.13361663767E+02 -0.30092608141E+02 -0.80680967598E+01  0.33899753819E+02  0.51100000000E-03 0. -1.
        -11    1    3    3    0    0 -0.99646546736E+01 -0.57404309799E+01  0.44804115029E+00  0.11508589476E+02  0.51100000000E-03 0.  1.
         12    1    3    3    0    0  0.23961588059E+01  0.28115942214E+01 -0.35458603248E+01  0.51205238533E+01  0.00000000000E+00 0. -1.
</event>
<event>
 7    1  0.5902966E-013  0.5052885E+02  0.7816164E-02  0.1300439E+00
        -11   -1    0    0    0    0  0.00000000000E+00  0.00000000000E+00  0.45593999997E+02  0.45594000000E+02  0.51100000000E-03 0.  1.
         11   -1    0    0    0    0 -0.00000000000E+00 -0.00000000000E+00 -0.45593999997E+02  0.45594000000E+02  0.51100000000E-03 0. -1.
    9900012    2    1    2    0    0 -0.10120096405E+01  0.19750589306E+02  0.35525435371E+02  0.50528849742E+02  0.29999969275E+02 0.  0.
         12    1    1    2    0    0  0.10120096405E+01 -0.19750589306E+02 -0.35525435371E+02  0.40659150258E+02  0.00000000000E+00 0. -1.
         11    1    3    3    0    0 -0.32789948601E+01 -0.17968755218E+01  0.11108626629E+02  0.11721013385E+02  0.51100000000E-03 0. -1.
        -11    1    3    3    0    0  0.70046142479E+01 -0.81264287007E+00  0.80141822894E+01  0.10674836168E+02  0.51100000000E-03 0.  1.
         12    1    3    3    0    0 -0.47376290283E+01  0.22360107698E+02  0.16402626453E+02  0.28133000188E+02  0.00000000000E+00 0. -1.
</event>
<event>
 7    1  0.5902966E-013  0.5052886E+02  0.7816164E-02  0.1300439E+00
        -11   -1    0    0    0    0  0.00000000000E+00  0.00000000000E+00  0.45593999997E+02  0.45594000000E+02  0.51100000000E-03 0.  1.
         11   -1    0    0    0    0 -0.00000000000E+00 -0.00000000000E+00 -0.45593999997E+02  0.45594000000E+02  0.51100000000E-03 0. -1.
    9900012    2    1    2    0    0  0.26726596106E+02  0.12583013629E+02 -0.27937835046E+02  0.50528858366E+02  0.29999995488E+02 0.  0.
         12    1    1    2    0    0 -0.26726596106E+02 -0.12583013629E+02  0.27937835046E+02  0.40659141634E+02  0.00000000000E+00 0. -1.
         11    1    3    3    0    0  0.80228147181E+01 -0.68190348897E+01 -0.37004641851E+01  0.11160565769E+02  0.51100000000E-03 0. -1.
        -11    1    3    3    0    0  0.10106351241E+02  0.59229105197E+01 -0.18513725724E+01  0.11859459730E+02  0.51100000000E-03 0.  1.
         12    1    3    3    0    0  0.85974301469E+01  0.13479137999E+02 -0.22385998288E+02  0.27508832867E+02  0.00000000000E+00 0. -1.
</event>
<event>
 7    1  0.5902966E-013  0.5052886E+02  0.7816164E-02  0.1300439E+00
        -11   -1    0    0    0    0  0.00000000000E+00  0.00000000000E+00  0.45593999997E+02  0.45594000000E+02  0.51100000000E-03 0.  1.
         11   -1    0    0    0    0 -0.00000000000E+00 -0.00000000000E+00 -0.45593999997E+02  0.45594000000E+02  0.51100000000E-03 0. -1.
    9900012    2    1    2    0    0  0.79415633049E+01  0.11980260804E+02  0.38033810385E+02  0.50528858235E+02  0.29999995090E+02 0.  0.
         12    1    1    2    0    0 -0.79415633049E+01 -0.11980260804E+02 -0.38033810385E+02  0.40659141765E+02  0.00000000000E+00 0. -1.
         11    1    3    3    0    0  0.64649055157E+01  0.90450504512E+01  0.55807731756E+01  0.12439974698E+02  0.51100000000E-03 0. -1.
        -11    1    3    3    0    0 -0.14864065328E+01 -0.31532250833E+00 -0.24645790483E+01  0.28953381170E+01  0.51100000000E-03 0.  1.
        -12    1    3    3    0    0  0.29630643219E+01  0.32505328614E+01  0.34917616258E+02  0.35193545420E+02  0.00000000000E+00 0.  1.
</event>
<event>
 7    1  0.5902966E-013  0.5052886E+02  0.7816164E-02  0.1300439E+00
        -11   -1    0    0    0    0  0.00000000000E+00  0.00000000000E+00  0.45593999997E+02  0.45594000000E+02  0.51100000000E-03 0.  1.
         11   -1    0    0    0    0 -0.00000000000E+00 -0.00000000000E+00 -0.45593999997E+02  0.45594000000E+02  0.51100000000E-03 0. -1.
    9900012    2    1    2    0    0  0.44565042659E+01  0.13068028766E+02  0.38243064465E+02  0.50528858521E+02  0.29999995962E+02 0.  0.
         12    1    1    2    0    0 -0.44565042659E+01 -0.13068028766E+02 -0.38243064465E+02  0.40659141479E+02  0.00000000000E+00 0. -1.
         11    1    3    3    0    0 -0.27797842152E+01 -0.27407641738E+01  0.18890398722E+02  0.19289534797E+02  0.51100000000E-03 0. -1.
        -11    1    3    3    0    0  0.67322969552E+01 -0.15552166836E+01  0.75684592891E+01  0.10248126536E+02  0.51100000000E-03 0.  1.
         12    1    3    3    0    0  0.50399152577E+00  0.17364009623E+02  0.11784206454E+02  0.20991197188E+02  0.00000000000E+00 0. -1.
</event>
<event>
 7    1  0.5902966E-013  0.5052884E+02  0.7816164E-02  0.1300439E+00
        -11   -1    0    0    0    0  0.00000000000E+00  0.00000000000E+00  0.45593999997E+02  0.45594000000E+02  0.51100000000E-03 0.  1.
         11   -1    0    0    0    0 -0.00000000000E+00 -0.00000000000E+00 -0.45593999997E+02  0.45594000000E+02  0.51100000000E-03 0. -1.
    9900012    2    1    2    0    0  0.32474261540E+02 -0.54379603500E+01  0.23854098247E+02  0.50528842624E+02  0.29999947640E+02 0.  0.
         12    1    1    2    0    0 -0.32474261540E+02  0.54379603500E+01 -0.23854098247E+02  0.40659157376E+02  0.00000000000E+00 0. -1.
         11    1    3    3    0    0  0.30255425234E+02 -0.48859039221E+01  0.18636758556E+02  0.35869089519E+02  0.51100000000E-03 0. -1.
        -11    1    3    3    0    0  0.51290615108E+01  0.38464884238E+01 -0.10196575175E+01  0.64917214120E+01  0.51100000000E-03 0.  1.
        -12    1    3    3    0    0 -0.29102252043E+01 -0.43985448517E+01  0.62369972088E+01  0.81680316928E+01  0.00000000000E+00 0.  1.
</event>
<event>
 7    1  0.5902966E-013  0.5052886E+02  0.7816164E-02  0.1300439E+00
        -11   -1    0    0    0    0  0.00000000000E+00  0.00000000000E+00  0.45593999997E+02  0.45594000000E+02  0.51100000000E-03 0.  1.
         11   -1    0    0    0    0 -0.00000000000E+00 -0.00000000000E+00 -0.45593999997E+02  0.45594000000E+02  0.51100000000E-03 0. -1.
    9900012    2    1    2    0    0  0.14826016061E+01  0.31436788661E+02  0.25742884049E+02  0.50528857510E+02  0.29999992887E+02 0.  0.
         12    1    1    2    0    0 -0.14826016061E+01 -0.31436788661E+02 -0.25742884049E+02  0.40659142490E+02  0.00000000000E+00 0. -1.
         11    1    3    3    0    0 -0.14314848026E+01  0.21184845077E+01  0.15530359614E+02  0.15739415344E+02  0.51100000000E-03 0. -1.
        -11    1    3    3    0    0 -0.48978539699E+01  0.41140338945E+01 -0.25604404086E+00  0.64015472511E+01  0.51100000000E-03 0.  1.
         12    1    3    3    0    0  0.78119403787E+01  0.25204270259E+02  0.10468568476E+02  0.28387894915E+02  0.00000000000E+00 0. -1.
</event>
<event>
 7    1  0.5902966E-013  0.5052887E+02  0.7816164E-02  0.1300439E+00
        -11   -1    0    0    0    0  0.00000000000E+00  0.00000000000E+00  0.45593999997E+02  0.45594000000E+02  0.51100000000E-03 0.  1.
         11   -1    0    0    0    0 -0.00000000000E+00 -0.00000000000E+00 -0.45593999997E+02  0.45594000000E+02  0.51100000000E-03 0. -1.
    9900012    2    1    2    0    0  0.30008700769E+01 -0.26309940994E+02  0.30853638395E+02  0.50528865497E+02  0.30000017166E+02 0.  0.
         12    1    1    2    0    0 -0.30008700769E+01  0.26309940994E+02 -0.30853638395E+02  0.40659134503E+02  0.00000000000E+00 0. -1.
         11    1    3    3    0    0  0.94927313673E+01 -0.89906831546E+01  0.85907053665E+01  0.15644313707E+02  0.51100000000E-03 0. -1.
        -11    1    3    3    0    0 -0.30221981870E+01 -0.66077582619E+01  0.22477839950E+02  0.23623070084E+02  0.51100000000E-03 0.  1.
        -12    1    3    3    0    0 -0.34696631034E+01 -0.10711499577E+02 -0.21490692135E+00  0.11261481707E+02  0.00000000000E+00 0.  1.
</event>
<event>
 7    1  0.5902966E-013  0.5052887E+02  0.7816164E-02  0.1300439E+00
        -11   -1    0    0    0    0  0.00000000000E+00  0.00000000000E+00  0.45593999997E+02  0.45594000000E+02  0.51100000000E-03 0. -1.
         11   -1    0    0    0    0 -0.00000000000E+00 -0.00000000000E+00 -0.45593999997E+02  0.45594000000E+02  0.51100000000E-03 0.  1.
    9900012    2    1    2    0    0  0.16196803877E+02  0.36434287243E+02  0.79606166881E+01  0.50528866207E+02  0.30000019323E+02 0.  0.
         12    1    1    2    0    0 -0.16196803877E+02 -0.36434287243E+02 -0.79606166881E+01  0.40659133793E+02  0.00000000000E+00 0. -1.
         11    1    3    3    0    0  0.17010022434E+02  0.23206896106E+02  0.13126368074E+01  0.28803192631E+02  0.51100000000E-03 0. -1.
        -11    1    3    3    0    0  0.50724755064E+01  0.28620598019E+00  0.54619540153E+01  0.74595484818E+01  0.51100000000E-03 0.  1.
        -12    1    3    3    0    0 -0.58856940630E+01  0.12941185156E+02  0.11860258654E+01  0.14266125094E+02  0.00000000000E+00 0.  1.
</event>
<event>
 7    1  0.5902966E-013  0.5052884E+02  0.7816164E-02  0.1300439E+00
        -11   -1    0    0    0    0  0.00000000000E+00  0.00000000000E+00  0.45593999997E+02  0.45594000000E+02  0.51100000000E-03 0.  1.
         11   -1    0    0    0    0 -0.00000000000E+00 -0.00000000000E+00 -0.45593999997E+02  0.45594000000E+02  0.51100000000E-03 0. -1.
    9900012    2    1    2    0    0  0.34251827546E+02  0.19407527447E+02 -0.10165028516E+02  0.50528836007E+02  0.29999927528E+02 0.  0.
         12    1    1    2    0    0 -0.34251827546E+02 -0.19407527447E+02  0.10165028516E+02  0.40659163993E+02  0.00000000000E+00 0. -1.
         11    1    3    3    0    0  0.98269403778E+01  0.86918492627E+01 -0.79326526529E+01  0.15331144092E+02  0.51100000000E-03 0. -1.
        -11    1    3    3    0    0  0.28334755208E+02  0.10405691767E+02 -0.47219443526E+01  0.30552144484E+02  0.51100000000E-03 0.  1.
         12    1    3    3    0    0 -0.39098680401E+01  0.30998641754E+00  0.24895684896E+01  0.46455474311E+01  0.00000000000E+00 0. -1.
</event>
<event>
 7    1  0.5902966E-013  0.5052885E+02  0.7816164E-02  0.1300439E+00
        -11   -1    0    0    0    0  0.00000000000E+00  0.00000000000E+00  0.45593999997E+02  0.45594000000E+02  0.51100000000E-03 0.  1.
         11   -1    0    0    0    0 -0.00000000000E+00 -0.00000000000E+00 -0.45593999997E+02  0.45594000000E+02  0.51100000000E-03 0. -1.
    9900012    2    1    2    0    0 -0.11002772371E+02 -0.63318834242E+01 -0.38626579791E+02  0.50528850797E+02  0.29999972482E+02 0.  0.
         12    1    1    2    0    0  0.11002772371E+02  0.63318834242E+01  0.38626579791E+02  0.40659149203E+02  0.00000000000E+00 0. -1.
         11    1    3    3    0    0  0.65016287788E+01 -0.16740041512E+01 -0.24071241740E+01  0.71321605230E+01  0.51100000000E-03 0. -1.
        -11    1    3    3    0    0 -0.66787326502E+00  0.44794250605E+01 -0.94496350521E+01  0.10478879065E+02  0.51100000000E-03 0.  1.
         12    1    3    3    0    0 -0.16836527885E+02 -0.91373043335E+01 -0.26769820565E+02  0.32917811209E+02  0.00000000000E+00 0. -1.
</event>
<event>
 7    1  0.5902966E-013  0.5052884E+02  0.7816164E-02  0.1300439E+00
        -11   -1    0    0    0    0  0.00000000000E+00  0.00000000000E+00  0.45593999997E+02  0.45594000000E+02  0.51100000000E-03 0. -1.
         11   -1    0    0    0    0 -0.00000000000E+00 -0.00000000000E+00 -0.45593999997E+02  0.45594000000E+02  0.51100000000E-03 0.  1.
    9900012    2    1    2    0    0  0.28245876167E+02  0.24599587248E+02 -0.15817653008E+02  0.50528839164E+02  0.29999937123E+02 0.  0.
         12    1    1    2    0    0 -0.28245876167E+02 -0.24599587248E+02  0.15817653008E+02  0.40659160836E+02  0.00000000000E+00 0. -1.
         11    1    3    3    0    0  0.32930301907E+00  0.10151061212E+02 -0.33533410349E+01  0.10695671113E+02  0.51100000000E-03 0. -1.
        -11    1    3    3    0    0 -0.27471138971E+00 -0.16949245801E+01 -0.66026785381E+01  0.68222869932E+01  0.51100000000E-03 0.  1.
         12    1    3    3    0    0  0.28191284538E+02  0.16143450616E+02 -0.58616334352E+01  0.33010881058E+02  0.00000000000E+00 0. -1.
</event>
<event>
 7    1  0.7364385E-013  0.5052887E+02  0.7816164E-02  0.1300439E+00
        -11   -1    0    0    0    0  0.00000000000E+00  0.00000000000E+00  0.45593999997E+02  0.45594000000E+02  0.51100000000E-03 0. -1.
         11   -1    0    0    0    0 -0.00000000000E+00 -0.00000000000E+00 -0.45593999997E+02  0.45594000000E+02  0.51100000000E-03 0.  1.
    9900012    2    1    2    0    0  0.11801756691E+01  0.15354538379E+02 -0.37629915019E+02  0.50528866121E+02  0.30000019062E+02 0.  0.
         12    1    1    2    0    0 -0.11801756691E+01 -0.15354538379E+02  0.37629915019E+02  0.40659133879E+02  0.00000000000E+00 0. -1.
         11    1    3    3    0    0  0.55333453815E+01 -0.41196477525E+01 -0.10794778076E+02  0.12810801797E+02  0.51100000000E-03 0. -1.
        -11    1    3    3    0    0 -0.26984589715E+01  0.12071486265E+02 -0.27449578198E+02  0.30107836272E+02  0.51100000000E-03 0.  1.
        -12    1    3    3    0    0 -0.16547107409E+01  0.74026998662E+01  0.61444125516E+00  0.76102280518E+01  0.00000000000E+00 0.  1.
</event>
<event>
 7    1  0.5902966E-013  0.5052884E+02  0.7816164E-02  0.1300439E+00
        -11   -1    0    0    0    0  0.00000000000E+00  0.00000000000E+00  0.45593999997E+02  0.45594000000E+02  0.51100000000E-03 0. -1.
         11   -1    0    0    0    0 -0.00000000000E+00 -0.00000000000E+00 -0.45593999997E+02  0.45594000000E+02  0.51100000000E-03 0.  1.
    9900012    2    1    2    0    0 -0.49309072228E+01  0.39608748167E+01 -0.40164228303E+02  0.50528836082E+02  0.29999927754E+02 0.  0.
         12    1    1    2    0    0  0.49309072228E+01 -0.39608748167E+01  0.40164228303E+02  0.40659163918E+02  0.00000000000E+00 0. -1.
         11    1    3    3    0    0  0.74822611259E+01 -0.49537756634E+01 -0.10876909508E+02  0.14100754788E+02  0.51100000000E-03 0. -1.
        -11    1    3    3    0    0  0.43076921776E-01  0.86485325156E+01 -0.81024179475E+01  0.11851082109E+02  0.51100000000E-03 0.  1.
        -12    1    3    3    0    0 -0.12456245271E+02  0.26611796450E+00 -0.21184900848E+02  0.24576999185E+02  0.00000000000E+00 0.  1.
</event>
<event>
 7    1  0.5902966E-013  0.5052886E+02  0.7816164E-02  0.1300439E+00
        -11   -1    0    0    0    0  0.00000000000E+00  0.00000000000E+00  0.45593999997E+02  0.45594000000E+02  0.51100000000E-03 0.  1.
         11   -1    0    0    0    0 -0.00000000000E+00 -0.00000000000E+00 -0.45593999997E+02  0.45594000000E+02  0.51100000000E-03 0. -1.
    9900012    2    1    2    0    0  0.27473151718E+02 -0.29280275668E+02 -0.64075946660E+01  0.50528857388E+02  0.29999992518E+02 0.  0.
         12    1    1    2    0    0 -0.27473151718E+02  0.29280275668E+02  0.64075946660E+01  0.40659142612E+02  0.00000000000E+00 0. -1.
         11    1    3    3    0    0 -0.15106504502E+00 -0.63938339160E+01 -0.59035911727E+01  0.87038107624E+01  0.51100000000E-03 0. -1.
        -11    1    3    3    0    0  0.84058101995E+01 -0.20783750407E+02  0.93287749362E+00  0.22438631571E+02  0.51100000000E-03 0.  1.
        -12    1    3    3    0    0  0.19218406563E+02 -0.21026913452E+01 -0.14368809869E+01  0.19386415055E+02  0.00000000000E+00 0.  1.
</event>
<event>
 7    1  0.5902966E-013  0.5052883E+02  0.7816164E-02  0.1300439E+00
        -11   -1    0    0    0    0  0.00000000000E+00  0.00000000000E+00  0.45593999997E+02  0.45594000000E+02  0.51100000000E-03 0.  1.
         11   -1    0    0    0    0 -0.00000000000E+00 -0.00000000000E+00 -0.45593999997E+02  0.45594000000E+02  0.51100000000E-03 0. -1.
    9900012    2    1    2    0    0 -0.36526543348E+02 -0.21478724739E+01  0.17730387669E+02  0.50528826717E+02  0.29999899290E+02 0.  0.
         12    1    1    2    0    0  0.36526543348E+02  0.21478724739E+01 -0.17730387669E+02  0.40659173283E+02  0.00000000000E+00 0. -1.
         11    1    3    3    0    0 -0.61284737084E+01 -0.85003775721E+01  0.89925204546E+01  0.13808694118E+02  0.51100000000E-03 0. -1.
        -11    1    3    3    0    0 -0.14829495695E+01  0.60657030488E+01  0.40062626188E+01  0.74190318326E+01  0.51100000000E-03 0.  1.
        -12    1    3    3    0    0 -0.28915120070E+02  0.28680204943E+00  0.47316045960E+01  0.29301100767E+02  0.00000000000E+00 0.  1.
</event>
<event>
 7    1  0.5902966E-013  0.5052886E+02  0.7816164E-02  0.1300439E+00
        -11   -1    0    0    0    0  0.00000000000E+00  0.00000000000E+00  0.45593999997E+02  0.45594000000E+02  0.51100000000E-03 0.  1.
         11   -1    0    0    0    0 -0.00000000000E+00 -0.00000000000E+00 -0.45593999997E+02  0.45594000000E+02  0.51100000000E-03 0. -1.
    9900012    2    1    2    0    0  0.26802527127E+02 -0.24732731275E+01  0.30474140704E+02  0.50528858444E+02  0.29999995728E+02 0.  0.
         12    1    1    2    0    0 -0.26802527127E+02  0.24732731275E+01 -0.30474140704E+02  0.40659141556E+02  0.00000000000E+00 0. -1.
         11    1    3    3    0    0  0.33311510724E+01 -0.23539337602E+00  0.10110792460E+02  0.10648009294E+02  0.51100000000E-03 0.  1.
        -11    1    3    3    0    0 -0.48977098839E+01  0.22351073072E+01  0.17665580896E+01  0.56660386979E+01  0.51100000000E-03 0. -1.
        -12    1    3    3    0    0  0.28369085938E+02 -0.44729870587E+01  0.18596790155E+02  0.34214810452E+02  0.00000000000E+00 0.  1.
</event>
<event>
 7    1  0.5902966E-013  0.5052887E+02  0.7816164E-02  0.1300439E+00
        -11   -1    0    0    0    0  0.00000000000E+00  0.00000000000E+00  0.45593999997E+02  0.45594000000E+02  0.51100000000E-03 0. -1.
         11   -1    0    0    0    0 -0.00000000000E+00 -0.00000000000E+00 -0.45593999997E+02  0.45594000000E+02  0.51100000000E-03 0.  1.
    9900012    2    1    2    0    0 -0.14399037639E+02  0.31022000140E+02  0.21987902548E+02  0.50528872660E+02  0.30000038937E+02 0.  0.
         12    1    1    2    0    0  0.14399037639E+02 -0.31022000140E+02 -0.21987902548E+02  0.40659127340E+02  0.00000000000E+00 0. -1.
         11    1    3    3    0    0  0.23376349548E+01 -0.18951170043E+01  0.51192106843E+01  0.59382088153E+01  0.51100000000E-03 0.  1.
        -11    1    3    3    0    0  0.22689676382E+01 -0.75819640068E-01  0.36257254509E+01  0.42778321692E+01  0.51100000000E-03 0. -1.
        -12    1    3    3    0    0 -0.19005640232E+02  0.32992936784E+02  0.13242966413E+02  0.40312831675E+02  0.00000000000E+00 0.  1.
</event>
<event>
 7    1  0.5902966E-013  0.5052885E+02  0.7816164E-02  0.1300439E+00
        -11   -1    0    0    0    0  0.00000000000E+00  0.00000000000E+00  0.45593999997E+02  0.45594000000E+02  0.51100000000E-03 0. -1.
         11   -1    0    0    0    0 -0.00000000000E+00 -0.00000000000E+00 -0.45593999997E+02  0.45594000000E+02  0.51100000000E-03 0.  1.
    9900012    2    1    2    0    0  0.23491890716E+02  0.28386637311E+02 -0.17190014305E+02  0.50528847290E+02  0.29999961823E+02 0.  0.
         12    1    1    2    0    0 -0.23491890716E+02 -0.28386637311E+02  0.17190014305E+02  0.40659152710E+02  0.00000000000E+00 0. -1.
         11    1    3    3    0    0  0.16531004789E+02  0.13822781533E+02  0.90115499575E+00  0.21567463672E+02  0.51100000000E-03 0. -1.
        -11    1    3    3    0    0  0.11579062811E+02  0.11413405500E+02 -0.98712826921E+01  0.19020587345E+02  0.51100000000E-03 0.  1.
         12    1    3    3    0    0 -0.46181768841E+01  0.31504502783E+01 -0.82198866089E+01  0.99407962735E+01  0.00000000000E+00 0. -1.
</event>
<event>
 7    1  0.5902966E-013  0.5052886E+02  0.7816164E-02  0.1300439E+00
        -11   -1    0    0    0    0  0.00000000000E+00  0.00000000000E+00  0.45593999997E+02  0.45594000000E+02  0.51100000000E-03 0.  1.
         11   -1    0    0    0    0 -0.00000000000E+00 -0.00000000000E+00 -0.45593999997E+02  0.45594000000E+02  0.51100000000E-03 0. -1.
    9900012    2    1    2    0    0 -0.81315605435E+00 -0.14221273455E+02  0.38082274909E+02  0.50528861991E+02  0.30000006506E+02 0.  0.
         12    1    1    2    0    0  0.81315605435E+00  0.14221273455E+02 -0.38082274909E+02  0.40659138009E+02  0.00000000000E+00 0. -1.
         11    1    3    3    0    0 -0.67255980928E+01 -0.79311142793E+00  0.54906217175E+01  0.87183497606E+01  0.51100000000E-03 0. -1.
        -11    1    3    3    0    0 -0.31732370297E+01 -0.15179481647E+02  0.13360809056E+02  0.20469423910E+02  0.51100000000E-03 0.  1.
        -12    1    3    3    0    0  0.90856790681E+01  0.17513196194E+01  0.19230844135E+02  0.21341088320E+02  0.00000000000E+00 0.  1.
</event>
<event>
 7    1  0.5902966E-013  0.5052883E+02  0.7816164E-02  0.1300439E+00
        -11   -1    0    0    0    0  0.00000000000E+00  0.00000000000E+00  0.45593999997E+02  0.45594000000E+02  0.51100000000E-03 0.  1.
         11   -1    0    0    0    0 -0.00000000000E+00 -0.00000000000E+00 -0.45593999997E+02  0.45594000000E+02  0.51100000000E-03 0. -1.
    9900012    2    1    2    0    0 -0.15053966949E+02  0.34333623354E+02  0.15740032222E+02  0.50528828490E+02  0.29999904678E+02 0.  0.
         12    1    1    2    0    0  0.15053966949E+02 -0.34333623354E+02 -0.15740032222E+02  0.40659171510E+02  0.00000000000E+00 0. -1.
         11    1    3    3    0    0 -0.54094658035E+01  0.11053840532E+02  0.13690158031E+02  0.18408425733E+02  0.51100000000E-03 0. -1.
        -11    1    3    3    0    0 -0.15266644476E+02  0.20272551615E+02 -0.14140665582E+00  0.25378470770E+02  0.51100000000E-03 0.  1.
         12    1    3    3    0    0  0.56221433305E+01  0.30072312074E+01  0.21912808469E+01  0.67419319867E+01  0.00000000000E+00 0. -1.
</event>
<event>
 7    1  0.5902966E-013  0.5052887E+02  0.7816164E-02  0.1300439E+00
        -11   -1    0    0    0    0  0.00000000000E+00  0.00000000000E+00  0.45593999997E+02  0.45594000000E+02  0.51100000000E-03 0.  1.
         11   -1    0    0    0    0 -0.00000000000E+00 -0.00000000000E+00 -0.45593999997E+02  0.45594000000E+02  0.51100000000E-03 0. -1.
    9900012    2    1    2    0    0  0.39646706326E+02 -0.87133086786E+01  0.23199271225E+01  0.50528866555E+02  0.30000020381E+02 0.  0.
         12    1    1    2    0    0 -0.39646706326E+02  0.87133086786E+01 -0.23199271225E+01  0.40659133445E+02  0.00000000000E+00 0. -1.
         11    1    3    3    0    0  0.98400121223E+01 -0.10260403355E+02  0.54059389492E+01  0.15209401427E+02  0.51100000000E-03 0.  1.
        -11    1    3    3    0    0  0.20842862030E+00  0.53359835746E+01 -0.26496575631E+00  0.53466223273E+01  0.51100000000E-03 0. -1.
        -12    1    3    3    0    0  0.29598265583E+02 -0.37888888977E+01 -0.28210460704E+01  0.29972842801E+02  0.00000000000E+00 0.  1.
</event>
<event>
 7    1  0.5902966E-013  0.5052887E+02  0.7816164E-02  0.1300439E+00
        -11   -1    0    0    0    0  0.00000000000E+00  0.00000000000E+00  0.45593999997E+02  0.45594000000E+02  0.51100000000E-03 0. -1.
         11   -1    0    0    0    0 -0.00000000000E+00 -0.00000000000E+00 -0.45593999997E+02  0.45594000000E+02  0.51100000000E-03 0.  1.
    9900012    2    1    2    0    0 -0.11414326160E+02 -0.38928718533E+02 -0.27263904080E+01  0.50528866057E+02  0.30000018868E+02 0.  0.
         12    1    1    2    0    0  0.11414326160E+02  0.38928718533E+02  0.27263904080E+01  0.40659133943E+02  0.00000000000E+00 0. -1.
         11    1    3    3    0    0  0.34028028664E+01 -0.12002570979E+02  0.52038892122E+01  0.13517442090E+02  0.51100000000E-03 0. -1.
        -11    1    3    3    0    0  0.37962487062E+01 -0.82612695029E+01 -0.52925733683E+01  0.10520048059E+02  0.51100000000E-03 0.  1.
        -12    1    3    3    0    0 -0.18613377732E+02 -0.18664878051E+02 -0.26377062519E+01  0.26491375909E+02  0.00000000000E+00 0.  1.
</event>
<event>
 7    1  0.5902966E-013  0.5052886E+02  0.7816164E-02  0.1300439E+00
        -11   -1    0    0    0    0  0.00000000000E+00  0.00000000000E+00  0.45593999997E+02  0.45594000000E+02  0.51100000000E-03 0.  1.
         11   -1    0    0    0    0 -0.00000000000E+00 -0.00000000000E+00 -0.45593999997E+02  0.45594000000E+02  0.51100000000E-03 0. -1.
    9900012    2    1    2    0    0  0.28533912558E+02  0.47326246823E+01  0.28575927288E+02  0.50528861758E+02  0.30000005800E+02 0.  0.
         12    1    1    2    0    0 -0.28533912558E+02 -0.47326246823E+01 -0.28575927288E+02  0.40659138242E+02  0.00000000000E+00 0. -1.
         11    1    3    3    0    0  0.16674809825E+01  0.64303866901E+01  0.97625706550E+01  0.11808393280E+02  0.51100000000E-03 0. -1.
        -11    1    3    3    0    0  0.59456658224E+01  0.46355140804E+01 -0.27412909957E+01  0.80220701472E+01  0.51100000000E-03 0.  1.
        -12    1    3    3    0    0  0.20920765753E+02 -0.63332760881E+01  0.21554647628E+02  0.30698398331E+02  0.00000000000E+00 0.  1.
</event>
<event>
 7    1  0.5902966E-013  0.5052885E+02  0.7816164E-02  0.1300439E+00
        -11   -1    0    0    0    0  0.00000000000E+00  0.00000000000E+00  0.45593999997E+02  0.45594000000E+02  0.51100000000E-03 0. -1.
         11   -1    0    0    0    0 -0.00000000000E+00 -0.00000000000E+00 -0.45593999997E+02  0.45594000000E+02  0.51100000000E-03 0.  1.
    9900012    2    1    2    0    0 -0.37471797087E+02 -0.10631212758E+02 -0.11662239359E+02  0.50528854799E+02  0.29999984647E+02 0.  0.
         12    1    1    2    0    0  0.37471797087E+02  0.10631212758E+02  0.11662239359E+02  0.40659145201E+02  0.00000000000E+00 0. -1.
         11    1    3    3    0    0 -0.61368289357E+01  0.64781872461E+00  0.63853017321E+01  0.88798883415E+01  0.51100000000E-03 0. -1.
        -11    1    3    3    0    0 -0.11762572667E+02  0.42955537590E+01 -0.59400774760E+01  0.13859813077E+02  0.51100000000E-03 0.  1.
         12    1    3    3    0    0 -0.19572395484E+02 -0.15574585242E+02 -0.12107463615E+02  0.27789153381E+02  0.00000000000E+00 0. -1.
</event>
<event>
 7    1  0.8566253E-013  0.5052888E+02  0.7816164E-02  0.1300439E+00
        -11   -1    0    0    0    0  0.00000000000E+00  0.00000000000E+00  0.45593999997E+02  0.45594000000E+02  0.51100000000E-03 0.  1.
         11   -1    0    0    0    0 -0.00000000000E+00 -0.00000000000E+00 -0.45593999997E+02  0.45594000000E+02  0.51100000000E-03 0. -1.
    9900012    2    1    2    0    0 -0.24276598525E+02  0.15844985385E+02 -0.28508729024E+02  0.50528875215E+02  0.30000046702E+02 0.  0.
         12    1    1    2    0    0  0.24276598525E+02 -0.15844985385E+02  0.28508729024E+02  0.40659124785E+02  0.00000000000E+00 0. -1.
         11    1    3    3    0    0 -0.30805262704E+01  0.10862156475E+02 -0.40841400370E+01  0.12006510130E+02  0.51100000000E-03 0. -1.
        -11    1    3    3    0    0 -0.13580760693E+02  0.12544874339E+02 -0.18949353268E+02  0.26474306841E+02  0.51100000000E-03 0.  1.
         12    1    3    3    0    0 -0.76153115616E+01 -0.75620454300E+01 -0.54752357190E+01  0.12048058244E+02  0.00000000000E+00 0. -1.
</event>
<event>
 7    1  0.5902966E-013  0.5052886E+02  0.7816164E-02  0.1300439E+00
        -11   -1    0    0    0    0  0.00000000000E+00  0.00000000000E+00  0.45593999997E+02  0.45594000000E+02  0.51100000000E-03 0.  1.
         11   -1    0    0    0    0 -0.00000000000E+00 -0.00000000000E+00 -0.45593999997E+02  0.45594000000E+02  0.51100000000E-03 0. -1.
    9900012    2    1    2    0    0  0.80392529547E+01  0.28944608960E+02 -0.27399742724E+02  0.50528857397E+02  0.29999992544E+02 0.  0.
         12    1    1    2    0    0 -0.80392529547E+01 -0.28944608960E+02  0.27399742724E+02  0.40659142603E+02  0.00000000000E+00 0. -1.
         11    1    3    3    0    0 -0.35363734625E+01 -0.11230494256E+01 -0.27871210904E+01  0.46406057269E+01  0.51100000000E-03 0. -1.
        -11    1    3    3    0    0  0.15774705223E+01  0.17762946594E+02 -0.24158168226E+02  0.30027117365E+02  0.51100000000E-03 0.  1.
         12    1    3    3    0    0  0.99981558950E+01  0.12304711791E+02 -0.45445340761E+00  0.15861134306E+02  0.00000000000E+00 0. -1.
</event>
<event>
 7    1  0.5902966E-013  0.5052886E+02  0.7816164E-02  0.1300439E+00
        -11   -1    0    0    0    0  0.00000000000E+00  0.00000000000E+00  0.45593999997E+02  0.45594000000E+02  0.51100000000E-03 0.  1.
         11   -1    0    0    0    0 -0.00000000000E+00 -0.00000000000E+00 -0.45593999997E+02  0.45594000000E+02  0.51100000000E-03 0. -1.
    9900012    2    1    2    0    0  0.31139203096E+02  0.75521604654E+01  0.25029596340E+02  0.50528858468E+02  0.29999995801E+02 0.  0.
         12    1    1    2    0    0 -0.31139203096E+02 -0.75521604654E+01 -0.25029596340E+02  0.40659141532E+02  0.00000000000E+00 0. -1.
         11    1    3    3    0    0  0.90262060427E-01  0.50644306540E+01 -0.25382194712E+01  0.56656123617E+01  0.51100000000E-03 0. -1.
        -11    1    3    3    0    0  0.13120347999E+02  0.32917897886E+00  0.22599692279E+02  0.26134230078E+02  0.51100000000E-03 0.  1.
        -12    1    3    3    0    0  0.17928593037E+02  0.21585508325E+01  0.49681235321E+01  0.18729016029E+02  0.00000000000E+00 0.  1.
</event>
<event>
 7    1  0.6562603E-013  0.5052886E+02  0.7816164E-02  0.1300439E+00
        -11   -1    0    0    0    0  0.00000000000E+00  0.00000000000E+00  0.45593999997E+02  0.45594000000E+02  0.51100000000E-03 0. -1.
         11   -1    0    0    0    0 -0.00000000000E+00 -0.00000000000E+00 -0.45593999997E+02  0.45594000000E+02  0.51100000000E-03 0.  1.
    9900012    2    1    2    0    0  0.24928429826E+01  0.14470376024E+02 -0.37915164802E+02  0.50528858711E+02  0.29999996539E+02 0.  0.
         12    1    1    2    0    0 -0.24928429826E+01 -0.14470376024E+02  0.37915164802E+02  0.40659141289E+02  0.00000000000E+00 0. -1.
         11    1    3    3    0    0  0.32229268147E+01 -0.49123210354E+01 -0.10723575524E+02  0.12227560161E+02  0.51100000000E-03 0. -1.
        -11    1    3    3    0    0  0.50274303412E+01  0.90573101786E+01 -0.23870808457E+02  0.26021633695E+02  0.51100000000E-03 0.  1.
         12    1    3    3    0    0 -0.57575141733E+01  0.10325386881E+02 -0.33207808204E+01  0.12279664855E+02  0.00000000000E+00 0. -1.
</event>
<event>
 7    1  0.5902966E-013  0.5052887E+02  0.7816164E-02  0.1300439E+00
        -11   -1    0    0    0    0  0.00000000000E+00  0.00000000000E+00  0.45593999997E+02  0.45594000000E+02  0.51100000000E-03 0.  1.
         11   -1    0    0    0    0 -0.00000000000E+00 -0.00000000000E+00 -0.45593999997E+02  0.45594000000E+02  0.51100000000E-03 0. -1.
    9900012    2    1    2    0    0  0.29084192709E+01 -0.16018235663E+02  0.37257514394E+02  0.50528866275E+02  0.30000019531E+02 0.  0.
         12    1    1    2    0    0 -0.29084192709E+01  0.16018235663E+02 -0.37257514394E+02  0.40659133725E+02  0.00000000000E+00 0. -1.
         11    1    3    3    0    0  0.31186431682E+01 -0.72506293216E+01  0.35677681776E+01  0.86617856588E+01  0.51100000000E-03 0. -1.
        -11    1    3    3    0    0 -0.27719217445E+01 -0.76368122706E+01  0.36797613734E+02  0.37683800612E+02  0.51100000000E-03 0.  1.
         12    1    3    3    0    0  0.25616978473E+01 -0.11307940704E+01 -0.31078675173E+01  0.41832800044E+01  0.00000000000E+00 0. -1.
</event>
<event>
 7    1  0.5902966E-013  0.5052887E+02  0.7816164E-02  0.1300439E+00
        -11   -1    0    0    0    0  0.00000000000E+00  0.00000000000E+00  0.45593999997E+02  0.45594000000E+02  0.51100000000E-03 0.  1.
         11   -1    0    0    0    0 -0.00000000000E+00 -0.00000000000E+00 -0.45593999997E+02  0.45594000000E+02  0.51100000000E-03 0. -1.
    9900012    2    1    2    0    0 -0.26234347145E+02 -0.23797350846E+02  0.19965218880E+02  0.50528870123E+02  0.30000031227E+02 0.  0.
         12    1    1    2    0    0  0.26234347145E+02  0.23797350846E+02 -0.19965218880E+02  0.40659129877E+02  0.00000000000E+00 0. -1.
         11    1    3    3    0    0 -0.43929185143E+01 -0.70391101464E+01  0.14156305694E+02  0.16408771919E+02  0.51100000000E-03 0. -1.
        -11    1    3    3    0    0 -0.21793497325E+02 -0.79101622685E+01  0.87724790160E+01  0.24788779339E+02  0.51100000000E-03 0.  1.
         12    1    3    3    0    0 -0.47931305327E-01 -0.88480784311E+01 -0.29635658302E+01  0.93313188652E+01  0.00000000000E+00 0. -1.
</event>
<event>
 7    1  0.5902966E-013  0.5052885E+02  0.7816164E-02  0.1300439E+00
        -11   -1    0    0    0    0  0.00000000000E+00  0.00000000000E+00  0.45593999997E+02  0.45594000000E+02  0.51100000000E-03 0.  1.
         11   -1    0    0    0    0 -0.00000000000E+00 -0.00000000000E+00 -0.45593999997E+02  0.45594000000E+02  0.51100000000E-03 0. -1.
    9900012    2    1    2    0    0  0.70850263673E+01 -0.28874784841E+02  0.27734741985E+02  0.50528847141E+02  0.29999961369E+02 0.  0.
         12    1    1    2    0    0 -0.70850263673E+01  0.28874784841E+02 -0.27734741985E+02  0.40659152859E+02  0.00000000000E+00 0. -1.
         11    1    3    3    0    0  0.22266414777E+01 -0.59184337559E+01  0.21341309576E+02  0.22258420543E+02  0.51100000000E-03 0. -1.
        -11    1    3    3    0    0  0.26952098544E+01 -0.50433333075E+01  0.83512078937E+01  0.10121365548E+02  0.51100000000E-03 0.  1.
         12    1    3    3    0    0  0.21631750352E+01 -0.17913017777E+02 -0.19577754846E+01  0.18149061049E+02  0.00000000000E+00 0. -1.
</event>
<event>
 7    1  0.5902966E-013  0.5052886E+02  0.7816164E-02  0.1300439E+00
        -11   -1    0    0    0    0  0.00000000000E+00  0.00000000000E+00  0.45593999997E+02  0.45594000000E+02  0.51100000000E-03 0.  1.
         11   -1    0    0    0    0 -0.00000000000E+00 -0.00000000000E+00 -0.45593999997E+02  0.45594000000E+02  0.51100000000E-03 0. -1.
    9900012    2    1    2    0    0  0.12059483624E+02 -0.16493317404E+02  0.35152593507E+02  0.50528862103E+02  0.30000006849E+02 0.  0.
         12    1    1    2    0    0 -0.12059483624E+02  0.16493317404E+02 -0.35152593507E+02  0.40659137897E+02  0.00000000000E+00 0. -1.
         11    1    3    3    0    0 -0.32482701783E+00 -0.31331446000E+01  0.11567749506E+02  0.11988950603E+02  0.51100000000E-03 0. -1.
        -11    1    3    3    0    0  0.11208863921E+02 -0.11103206218E+01  0.23692106800E+02  0.26233325508E+02  0.51100000000E-03 0.  1.
         12    1    3    3    0    0  0.11754467208E+01 -0.12249852182E+02 -0.10726279959E+00  0.12306585992E+02  0.00000000000E+00 0. -1.
</event>
<event>
 7    1  0.6078992E-013  0.5052886E+02  0.7816164E-02  0.1300439E+00
        -11   -1    0    0    0    0  0.00000000000E+00  0.00000000000E+00  0.45593999997E+02  0.45594000000E+02  0.51100000000E-03 0. -1.
         11   -1    0    0    0    0 -0.00000000000E+00 -0.00000000000E+00 -0.45593999997E+02  0.45594000000E+02  0.51100000000E-03 0.  1.
    9900012    2    1    2    0    0  0.95364191115E+01  0.38514567868E+02 -0.88797848157E+01  0.50528858274E+02  0.29999995211E+02 0.  0.
         12    1    1    2    0    0 -0.95364191115E+01 -0.38514567868E+02  0.88797848157E+01  0.40659141726E+02  0.00000000000E+00 0. -1.
         11    1    3    3    0    0 -0.42736196745E+01  0.19624824066E+01  0.24040421590E+01  0.52815320961E+01  0.51100000000E-03 0. -1.
        -11    1    3    3    0    0  0.96861603434E+01  0.18832220093E+02  0.39206439666E+01  0.21537076524E+02  0.51100000000E-03 0.  1.
        -12    1    3    3    0    0  0.41238784426E+01  0.17719865368E+02 -0.15204470941E+02  0.23710249655E+02  0.00000000000E+00 0.  1.
</event>
<event>
 7    1  0.5902966E-013  0.5052886E+02  0.7816164E-02  0.1300439E+00
        -11   -1    0    0    0    0  0.00000000000E+00  0.00000000000E+00  0.45593999997E+02  0.45594000000E+02  0.51100000000E-03 0.  1.
         11   -1    0    0    0    0 -0.00000000000E+00 -0.00000000000E+00 -0.45593999997E+02  0.45594000000E+02  0.51100000000E-03 0. -1.
    9900012    2    1    2    0    0  0.40250636571E+02  0.57431842850E+01 -0.25954221457E+00  0.50528864836E+02  0.30000015155E+02 0.  0.
         12    1    1    2    0    0 -0.40250636571E+02 -0.57431842850E+01  0.25954221457E+00  0.40659135164E+02  0.00000000000E+00 0. -1.
         11    1    3    3    0    0  0.95895456556E+00 -0.13026769089E+01 -0.71410194177E+01  0.73219341416E+01  0.51100000000E-03 0. -1.
        -11    1    3    3    0    0  0.16555227295E+02  0.10558896450E+02  0.37072201934E+01  0.19982725711E+02  0.51100000000E-03 0.  1.
        -12    1    3    3    0    0  0.22736454711E+02 -0.35130352561E+01  0.31742570098E+01  0.23224204983E+02  0.00000000000E+00 0.  1.
</event>
<event>
 7    1  0.5902966E-013  0.5052886E+02  0.7816164E-02  0.1300439E+00
        -11   -1    0    0    0    0  0.00000000000E+00  0.00000000000E+00  0.45593999997E+02  0.45594000000E+02  0.51100000000E-03 0.  1.
         11   -1    0    0    0    0 -0.00000000000E+00 -0.00000000000E+00 -0.45593999997E+02  0.45594000000E+02  0.51100000000E-03 0. -1.
    9900012    2    1    2    0    0 -0.38513338800E+02 -0.30790722646E+01  0.12665204514E+02  0.50528863795E+02  0.30000011991E+02 0.  0.
         12    1    1    2    0    0  0.38513338800E+02  0.30790722646E+01 -0.12665204514E+02  0.40659136205E+02  0.00000000000E+00 0. -1.
         11    1    3    3    0    0  0.36517901119E+00  0.33140706348E+01 -0.23631496855E+01  0.40866730454E+01  0.51100000000E-03 0. -1.
        -11    1    3    3    0    0 -0.16172895323E+01 -0.64040504363E+01  0.32663589286E+01  0.73686218748E+01  0.51100000000E-03 0.  1.
        -12    1    3    3    0    0 -0.37261228279E+02  0.10907536898E-01  0.11761995271E+02  0.39073568875E+02  0.00000000000E+00 0.  1.
</event>
<event>
 7    1  0.5902966E-013  0.5052898E+02  0.7816164E-02  0.1300438E+00
        -11   -1    0    0    0    0  0.00000000000E+00  0.00000000000E+00  0.45593999997E+02  0.45594000000E+02  0.51100000000E-03 0. -1.
         11   -1    0    0    0    0 -0.00000000000E+00 -0.00000000000E+00 -0.45593999997E+02  0.45594000000E+02  0.51100000000E-03 0.  1.
    9900012    2    1    2    0    0  0.27672047058E+02 -0.45155940006E+01 -0.29445262342E+02  0.50528975763E+02  0.30000352327E+02 0.  0.
         12    1    1    2    0    0 -0.27672047058E+02  0.45155940006E+01  0.29445262342E+02  0.40659024237E+02  0.00000000000E+00 0. -1.
         11    1    3    3    0    0  0.96918725532E+01 -0.30910262224E+01 -0.24821365282E+01  0.10471286392E+02  0.51100000000E-03 0. -1.
        -11    1    3    3    0    0  0.22403900097E+02  0.31356224654E+01 -0.24207185536E+02  0.33132381437E+02  0.51100000000E-03 0.  1.
        -12    1    3    3    0    0 -0.44237255925E+01 -0.45601902437E+01 -0.27559402771E+01  0.69253079345E+01  0.00000000000E+00 0.  1.
</event>
<event>
 7    1  0.6549408E-013  0.5052887E+02  0.7816164E-02  0.1300439E+00
        -11   -1    0    0    0    0  0.00000000000E+00  0.00000000000E+00  0.45593999997E+02  0.45594000000E+02  0.51100000000E-03 0. -1.
         11   -1    0    0    0    0 -0.00000000000E+00 -0.00000000000E+00 -0.45593999997E+02  0.45594000000E+02  0.51100000000E-03 0.  1.
    9900012    2    1    2    0    0 -0.18102298644E+02  0.16886922979E+01 -0.36367845880E+02  0.50528866810E+02  0.30000021155E+02 0.  0.
         12    1    1    2    0    0  0.18102298644E+02 -0.16886922979E+01  0.36367845880E+02  0.40659133190E+02  0.00000000000E+00 0. -1.
         11    1    3    3    0    0 -0.16487453164E+02  0.72808335750E+00 -0.10329262988E+02  0.19469460479E+02  0.51100000000E-03 0. -1.
        -11    1    3    3    0    0 -0.65030353032E+01 -0.56506617944E+01 -0.14956937716E+02  0.17260632461E+02  0.51100000000E-03 0.  1.
         12    1    3    3    0    0  0.48881898237E+01  0.66112707348E+01 -0.11081645176E+02  0.13798773869E+02  0.00000000000E+00 0. -1.
</event>
<event>
 7    1  0.5902966E-013  0.5052887E+02  0.7816164E-02  0.1300439E+00
        -11   -1    0    0    0    0  0.00000000000E+00  0.00000000000E+00  0.45593999997E+02  0.45594000000E+02  0.51100000000E-03 0.  1.
         11   -1    0    0    0    0 -0.00000000000E+00 -0.00000000000E+00 -0.45593999997E+02  0.45594000000E+02  0.51100000000E-03 0. -1.
    9900012    2    1    2    0    0  0.16700399757E+02  0.32939670267E+01  0.36924402255E+02  0.50528867536E+02  0.30000023363E+02 0.  0.
         12    1    1    2    0    0 -0.16700399757E+02 -0.32939670267E+01 -0.36924402255E+02  0.40659132464E+02  0.00000000000E+00 0. -1.
         11    1    3    3    0    0  0.18345236209E+02 -0.11780876037E+01  0.13535060402E+02  0.22828347341E+02  0.51100000000E-03 0. -1.
        -11    1    3    3    0    0  0.22250981952E+01  0.54448445319E+01  0.24290502812E+01  0.63637787112E+01  0.51100000000E-03 0.  1.
         12    1    3    3    0    0 -0.38699346481E+01 -0.97278990154E+00  0.20960291572E+02  0.21336741484E+02  0.00000000000E+00 0. -1.
</event>
<event>
 7    1  0.5902966E-013  0.5052885E+02  0.7816164E-02  0.1300439E+00
        -11   -1    0    0    0    0  0.00000000000E+00  0.00000000000E+00  0.45593999997E+02  0.45594000000E+02  0.51100000000E-03 0.  1.
         11   -1    0    0    0    0 -0.00000000000E+00 -0.00000000000E+00 -0.45593999997E+02  0.45594000000E+02  0.51100000000E-03 0. -1.
    9900012    2    1    2    0    0 -0.27458355068E+02  0.51581219115E+01  0.29539780899E+02  0.50528854162E+02  0.29999982712E+02 0.  0.
         12    1    1    2    0    0  0.27458355068E+02 -0.51581219115E+01 -0.29539780899E+02  0.40659145838E+02  0.00000000000E+00 0. -1.
         11    1    3    3    0    0 -0.44474331307E+01 -0.87634577414E+01  0.85420149334E+01  0.13020901367E+02  0.51100000000E-03 0. -1.
        -11    1    3    3    0    0 -0.56278097317E+01  0.37261963214E+00  0.12809748659E+02  0.13996454863E+02  0.51100000000E-03 0.  1.
         12    1    3    3    0    0 -0.17383112206E+02  0.13548960021E+02  0.81880173070E+01  0.23511497932E+02  0.00000000000E+00 0. -1.
</event>
<event>
 7    1  0.5902966E-013  0.5052886E+02  0.7816164E-02  0.1300439E+00
        -11   -1    0    0    0    0  0.00000000000E+00  0.00000000000E+00  0.45593999997E+02  0.45594000000E+02  0.51100000000E-03 0. -1.
         11   -1    0    0    0    0 -0.00000000000E+00 -0.00000000000E+00 -0.45593999997E+02  0.45594000000E+02  0.51100000000E-03 0.  1.
    9900012    2    1    2    0    0  0.17663597729E+02  0.30588560725E+02  0.20137100291E+02  0.50528861542E+02  0.30000005144E+02 0.  0.
         12    1    1    2    0    0 -0.17663597729E+02 -0.30588560725E+02 -0.20137100291E+02  0.40659138458E+02  0.00000000000E+00 0. -1.
         11    1    3    3    0    0  0.21184816812E+02  0.17122996887E+02  0.70957156448E+01  0.28148581963E+02  0.51100000000E-03 0. -1.
        -11    1    3    3    0    0  0.35857411589E+01  0.84649553027E+01  0.87375089385E+01  0.12682944084E+02  0.51100000000E-03 0.  1.
         12    1    3    3    0    0 -0.71069602413E+01  0.50006085354E+01  0.43038757079E+01  0.96973354951E+01  0.00000000000E+00 0. -1.
</event>
<event>
 7    1  0.5902966E-013  0.5052886E+02  0.7816164E-02  0.1300439E+00
        -11   -1    0    0    0    0  0.00000000000E+00  0.00000000000E+00  0.45593999997E+02  0.45594000000E+02  0.51100000000E-03 0.  1.
         11   -1    0    0    0    0 -0.00000000000E+00 -0.00000000000E+00 -0.45593999997E+02  0.45594000000E+02  0.51100000000E-03 0. -1.
    9900012    2    1    2    0    0 -0.29075103288E+02 -0.10346289317E+02  0.26471836138E+02  0.50528862745E+02  0.30000008800E+02 0.  0.
         12    1    1    2    0    0  0.29075103288E+02  0.10346289317E+02 -0.26471836138E+02  0.40659137255E+02  0.00000000000E+00 0. -1.
         11    1    3    3    0    0 -0.10116761788E+02 -0.14852234462E+02  0.12930961626E+02  0.22139275201E+02  0.51100000000E-03 0. -1.
        -11    1    3    3    0    0 -0.83492734319E+01  0.39184812925E+01  0.15056400817E+02  0.17656728698E+02  0.51100000000E-03 0.  1.
         12    1    3    3    0    0 -0.10609068068E+02  0.58746385323E+00 -0.15155263049E+01  0.10732858847E+02  0.00000000000E+00 0. -1.
</event>
<event>
 7    1  0.5902966E-013  0.5052881E+02  0.7816164E-02  0.1300439E+00
        -11   -1    0    0    0    0  0.00000000000E+00  0.00000000000E+00  0.45593999997E+02  0.45594000000E+02  0.51100000000E-03 0.  1.
         11   -1    0    0    0    0 -0.00000000000E+00 -0.00000000000E+00 -0.45593999997E+02  0.45594000000E+02  0.51100000000E-03 0. -1.
    9900012    2    1    2    0    0 -0.27425576065E+02  0.22596088339E+01  0.29931615806E+02  0.50528810641E+02  0.29999850423E+02 0.  0.
         12    1    1    2    0    0  0.27425576065E+02 -0.22596088339E+01 -0.29931615806E+02  0.40659189359E+02  0.00000000000E+00 0. -1.
         11    1    3    3    0    0  0.66131132465E+00  0.28067079796E+01  0.34952393152E+01  0.45311853287E+01  0.51100000000E-03 0. -1.
        -11    1    3    3    0    0 -0.22102914729E+02  0.84403168634E+01  0.26053961540E+02  0.35193560497E+02  0.51100000000E-03 0.  1.
        -12    1    3    3    0    0 -0.59839726606E+01 -0.89874160092E+01  0.38241495080E+00  0.10804064815E+02  0.00000000000E+00 0.  1.
</event>
<event>
 7    1  0.5902966E-013  0.5052886E+02  0.7816164E-02  0.1300439E+00
        -11   -1    0    0    0    0  0.00000000000E+00  0.00000000000E+00  0.45593999997E+02  0.45594000000E+02  0.51100000000E-03 0. -1.
         11   -1    0    0    0    0 -0.00000000000E+00 -0.00000000000E+00 -0.45593999997E+02  0.45594000000E+02  0.51100000000E-03 0.  1.
    9900012    2    1    2    0    0 -0.16331485233E+02  0.15170680023E+02 -0.34004390847E+02  0.50528861555E+02  0.30000005181E+02 0.  0.
         12    1    1    2    0    0  0.16331485233E+02 -0.15170680023E+02  0.34004390847E+02  0.40659138445E+02  0.00000000000E+00 0. -1.
         11    1    3    3    0    0  0.72145629928E+00  0.15923086833E+02 -0.16343668863E+02  0.22829382506E+02  0.51100000000E-03 0. -1.
        -11    1    3    3    0    0 -0.52900406464E+01 -0.49172371704E+00 -0.14607976045E+02  0.15544107779E+02  0.51100000000E-03 0.  1.
         12    1    3    3    0    0 -0.11762900886E+02 -0.26068309205E+00 -0.30527459387E+01  0.12155371269E+02  0.00000000000E+00 0. -1.
</event>
<event>
 7    1  0.5902966E-013  0.5052887E+02  0.7816164E-02  0.1300439E+00
        -11   -1    0    0    0    0  0.00000000000E+00  0.00000000000E+00  0.45593999997E+02  0.45594000000E+02  0.51100000000E-03 0. -1.
         11   -1    0    0    0    0 -0.00000000000E+00 -0.00000000000E+00 -0.45593999997E+02  0.45594000000E+02  0.51100000000E-03 0.  1.
    9900012    2    1    2    0    0 -0.72091426126E+01  0.16275894091E+02 -0.36555283361E+02  0.50528865636E+02  0.30000017587E+02 0.  0.
         12    1    1    2    0    0  0.72091426126E+01 -0.16275894091E+02  0.36555283361E+02  0.40659134364E+02  0.00000000000E+00 0. -1.
         11    1    3    3    0    0 -0.38011713576E+01 -0.18467958690E+01  0.18864035378E+01  0.46279668582E+01  0.51100000000E-03 0. -1.
        -11    1    3    3    0    0  0.41579786270E+01 -0.11983341644E+01 -0.62712077414E+01  0.76192412896E+01  0.51100000000E-03 0.  1.
         12    1    3    3    0    0 -0.75659498820E+01  0.19321024124E+02 -0.32170479157E+02  0.38281657488E+02  0.00000000000E+00 0. -1.
</event>
<event>
 7    1  0.5902966E-013  0.5052886E+02  0.7816164E-02  0.1300439E+00
        -11   -1    0    0    0    0  0.00000000000E+00  0.00000000000E+00  0.45593999997E+02  0.45594000000E+02  0.51100000000E-03 0.  1.
         11   -1    0    0    0    0 -0.00000000000E+00 -0.00000000000E+00 -0.45593999997E+02  0.45594000000E+02  0.51100000000E-03 0. -1.
    9900012    2    1    2    0    0  0.25262007108E+02 -0.23431025069E+02  0.21586654433E+02  0.50528860947E+02  0.30000003335E+02 0.  0.
         12    1    1    2    0    0 -0.25262007108E+02  0.23431025069E+02 -0.21586654433E+02  0.40659139053E+02  0.00000000000E+00 0. -1.
         11    1    3    3    0    0  0.86874226213E+01  0.37194618506E+01  0.98274238816E+01  0.13633927118E+02  0.51100000000E-03 0. -1.
        -11    1    3    3    0    0  0.16725565874E+02 -0.14504842092E+02  0.56419950067E+01  0.22846599437E+02  0.51100000000E-03 0.  1.
        -12    1    3    3    0    0 -0.15098138682E+00 -0.12645644827E+02  0.61172355444E+01  0.14048334392E+02  0.00000000000E+00 0.  1.
</event>
<event>
 7    1  0.5902966E-013  0.5052886E+02  0.7816164E-02  0.1300439E+00
        -11   -1    0    0    0    0  0.00000000000E+00  0.00000000000E+00  0.45593999997E+02  0.45594000000E+02  0.51100000000E-03 0. -1.
         11   -1    0    0    0    0 -0.00000000000E+00 -0.00000000000E+00 -0.45593999997E+02  0.45594000000E+02  0.51100000000E-03 0.  1.
    9900012    2    1    2    0    0  0.21243047202E+02  0.17942554332E+02 -0.29664171477E+02  0.50528863514E+02  0.30000011137E+02 0.  0.
         12    1    1    2    0    0 -0.21243047202E+02 -0.17942554332E+02  0.29664171477E+02  0.40659136486E+02  0.00000000000E+00 0. -1.
         11    1    3    3    0    0  0.17664524751E+02  0.34581951060E+01 -0.21699461872E+02  0.28193282779E+02  0.51100000000E-03 0. -1.
        -11    1    3    3    0    0  0.38815175854E-01 -0.29049467402E+01 -0.52468529269E-01  0.29056798497E+01  0.51100000000E-03 0.  1.
        -12    1    3    3    0    0  0.35397072756E+01  0.17389305966E+02 -0.79122410755E+01  0.19429900885E+02  0.00000000000E+00 0.  1.
</event>
<event>
 7    1  0.5902966E-013  0.5052886E+02  0.7816164E-02  0.1300439E+00
        -11   -1    0    0    0    0  0.00000000000E+00  0.00000000000E+00  0.45593999997E+02  0.45594000000E+02  0.51100000000E-03 0.  1.
         11   -1    0    0    0    0 -0.00000000000E+00 -0.00000000000E+00 -0.45593999997E+02  0.45594000000E+02  0.51100000000E-03 0. -1.
    9900012    2    1    2    0    0  0.47939998609E+00  0.12258637050E+01  0.40637827141E+02  0.50528861286E+02  0.30000004366E+02 0.  0.
         12    1    1    2    0    0 -0.47939998609E+00 -0.12258637050E+01 -0.40637827141E+02  0.40659138714E+02  0.00000000000E+00 0. -1.
         11    1    3    3    0    0  0.48140176696E+01 -0.26319979018E+01  0.16296392135E+01  0.57234520445E+01  0.51100000000E-03 0. -1.
        -11    1    3    3    0    0 -0.56905290465E+01  0.12043218415E+02  0.19595170984E+02  0.23693711334E+02  0.51100000000E-03 0.  1.
         12    1    3    3    0    0  0.13559113630E+01 -0.81853568079E+01  0.19413016944E+02  0.21111697908E+02  0.00000000000E+00 0. -1.
</event>
<event>
 7    1  0.5902966E-013  0.5052887E+02  0.7816164E-02  0.1300439E+00
        -11   -1    0    0    0    0  0.00000000000E+00  0.00000000000E+00  0.45593999997E+02  0.45594000000E+02  0.51100000000E-03 0.  1.
         11   -1    0    0    0    0 -0.00000000000E+00 -0.00000000000E+00 -0.45593999997E+02  0.45594000000E+02  0.51100000000E-03 0. -1.
    9900012    2    1    2    0    0 -0.41897679827E+01  0.37559078692E+02  0.14997554481E+02  0.50528865868E+02  0.30000018292E+02 0.  0.
         12    1    1    2    0    0  0.41897679827E+01 -0.37559078692E+02 -0.14997554481E+02  0.40659134132E+02  0.00000000000E+00 0. -1.
         11    1    3    3    0    0 -0.14385200938E+01  0.21751826833E+02  0.16381954849E+02  0.27268658852E+02  0.51100000000E-03 0.  1.
        -11    1    3    3    0    0  0.26816117429E+01 -0.26881594300E+01  0.73409241310E+00  0.38673162002E+01  0.51100000000E-03 0. -1.
        -12    1    3    3    0    0 -0.54328596318E+01  0.18495411289E+02 -0.21184927811E+01  0.19392890816E+02  0.00000000000E+00 0.  1.
</event>
<event>
 7    1  0.5902966E-013  0.5052887E+02  0.7816164E-02  0.1300439E+00
        -11   -1    0    0    0    0  0.00000000000E+00  0.00000000000E+00  0.45593999997E+02  0.45594000000E+02  0.51100000000E-03 0. -1.
         11   -1    0    0    0    0 -0.00000000000E+00 -0.00000000000E+00 -0.45593999997E+02  0.45594000000E+02  0.51100000000E-03 0.  1.
    9900012    2    1    2    0    0  0.24264058848E+02  0.52924153863E+01 -0.32193333653E+02  0.50528868871E+02  0.30000027422E+02 0.  0.
         12    1    1    2    0    0 -0.24264058848E+02 -0.52924153863E+01  0.32193333653E+02  0.40659131129E+02  0.00000000000E+00 0. -1.
         11    1    3    3    0    0  0.89249257839E+01  0.27467789775E+01 -0.12351625717E+02  0.15484242090E+02  0.51100000000E-03 0. -1.
        -11    1    3    3    0    0 -0.36121209542E+01  0.61312033702E+01 -0.12545610511E+02  0.14423294211E+02  0.51100000000E-03 0.  1.
         12    1    3    3    0    0  0.18951254019E+02 -0.35855669614E+01 -0.72960974258E+01  0.20621332570E+02  0.00000000000E+00 0. -1.
</event>
<event>
 7    1  0.5902966E-013  0.5052886E+02  0.7816164E-02  0.1300439E+00
        -11   -1    0    0    0    0  0.00000000000E+00  0.00000000000E+00  0.45593999997E+02  0.45594000000E+02  0.51100000000E-03 0.  1.
         11   -1    0    0    0    0 -0.00000000000E+00 -0.00000000000E+00 -0.45593999997E+02  0.45594000000E+02  0.51100000000E-03 0. -1.
    9900012    2    1    2    0    0  0.34438735203E+02  0.21423053196E+02 -0.28621078187E+01  0.50528863858E+02  0.30000012184E+02 0.  0.
         12    1    1    2    0    0 -0.34438735203E+02 -0.21423053196E+02  0.28621078187E+01  0.40659136142E+02  0.00000000000E+00 0. -1.
         11    1    3    3    0    0  0.11701318237E+00  0.43184729552E+01 -0.82957566851E+01  0.93532069361E+01  0.51100000000E-03 0. -1.
        -11    1    3    3    0    0  0.12849683930E+02  0.97159921806E+01 -0.39803150632E+01  0.16593908202E+02  0.51100000000E-03 0.  1.
         12    1    3    3    0    0  0.21472038090E+02  0.73885880602E+01  0.94139639296E+01  0.24581748720E+02  0.00000000000E+00 0. -1.
</event>
<event>
 7    1  0.5902966E-013  0.5052884E+02  0.7816164E-02  0.1300439E+00
        -11   -1    0    0    0    0  0.00000000000E+00  0.00000000000E+00  0.45593999997E+02  0.45594000000E+02  0.51100000000E-03 0.  1.
         11   -1    0    0    0    0 -0.00000000000E+00 -0.00000000000E+00 -0.45593999997E+02  0.45594000000E+02  0.51100000000E-03 0. -1.
    9900012    2    1    2    0    0 -0.71733183988E+01  0.32793541467E+02  0.22941105172E+02  0.50528841557E+02  0.29999944396E+02 0.  0.
         12    1    1    2    0    0  0.71733183988E+01 -0.32793541467E+02 -0.22941105172E+02  0.40659158443E+02  0.00000000000E+00 0. -1.
         11    1    3    3    0    0  0.24795406954E-01  0.65892100016E+01 -0.21957560821E+01  0.69454768224E+01  0.51100000000E-03 0. -1.
        -11    1    3    3    0    0 -0.86763840327E+01 -0.65093071673E+00  0.57659698893E+01  0.10437900158E+02  0.51100000000E-03 0.  1.
         12    1    3    3    0    0  0.14782702270E+01  0.26855262182E+02  0.19370891365E+02  0.33145464577E+02  0.00000000000E+00 0. -1.
</event>
<event>
 7    1  0.5902966E-013  0.5052892E+02  0.7816164E-02  0.1300439E+00
        -11   -1    0    0    0    0  0.00000000000E+00  0.00000000000E+00  0.45593999997E+02  0.45594000000E+02  0.51100000000E-03 0. -1.
         11   -1    0    0    0    0 -0.00000000000E+00 -0.00000000000E+00 -0.45593999997E+02  0.45594000000E+02  0.51100000000E-03 0.  1.
    9900012    2    1    2    0    0 -0.10947521487E+02 -0.15932808047E+02 -0.35769514476E+02  0.50528920266E+02  0.30000183641E+02 0.  0.
         12    1    1    2    0    0  0.10947521487E+02  0.15932808047E+02  0.35769514476E+02  0.40659079734E+02  0.00000000000E+00 0. -1.
         11    1    3    3    0    0  0.66627493448E+01  0.78499080059E+00 -0.10470458749E+01  0.67900474750E+01  0.51100000000E-03 0. -1.
        -11    1    3    3    0    0  0.89669782837E-01 -0.55985715792E+01 -0.89239443153E+01  0.10535123483E+02  0.51100000000E-03 0.  1.
         12    1    3    3    0    0 -0.17699940615E+02 -0.11119227268E+02 -0.25798524285E+02  0.33203749308E+02  0.00000000000E+00 0. -1.
</event>
<event>
 7    1  0.5902966E-013  0.5052885E+02  0.7816164E-02  0.1300439E+00
        -11   -1    0    0    0    0  0.00000000000E+00  0.00000000000E+00  0.45593999997E+02  0.45594000000E+02  0.51100000000E-03 0. -1.
         11   -1    0    0    0    0 -0.00000000000E+00 -0.00000000000E+00 -0.45593999997E+02  0.45594000000E+02  0.51100000000E-03 0.  1.
    9900012    2    1    2    0    0 -0.31471823804E+02  0.17903277585E+02 -0.18497663457E+02  0.50528848567E+02  0.29999965705E+02 0.  0.
         12    1    1    2    0    0  0.31471823804E+02 -0.17903277585E+02  0.18497663457E+02  0.40659151433E+02  0.00000000000E+00 0. -1.
         11    1    3    3    0    0 -0.59870423647E+00  0.75598816179E+01  0.13918925964E+01  0.77102284078E+01  0.51100000000E-03 0.  1.
        -11    1    3    3    0    0 -0.71148562087E+01 -0.48305360573E+01 -0.93987708819E+01  0.12739393699E+02  0.51100000000E-03 0. -1.
         12    1    3    3    0    0 -0.23758263359E+02  0.15173932024E+02 -0.10490785172E+02  0.30079226460E+02  0.00000000000E+00 0. -1.
</event>
<event>
 7    1  0.5902966E-013  0.5052885E+02  0.7816164E-02  0.1300439E+00
        -11   -1    0    0    0    0  0.00000000000E+00  0.00000000000E+00  0.45593999997E+02  0.45594000000E+02  0.51100000000E-03 0.  1.
         11   -1    0    0    0    0 -0.00000000000E+00 -0.00000000000E+00 -0.45593999997E+02  0.45594000000E+02  0.51100000000E-03 0. -1.
    9900012    2    1    2    0    0 -0.27344466186E+02  0.29013137266E+02  0.79802525532E+01  0.50528851020E+02  0.29999973161E+02 0.  0.
         12    1    1    2    0    0  0.27344466186E+02 -0.29013137266E+02 -0.79802525532E+01  0.40659148980E+02  0.00000000000E+00 0. -1.
         11    1    3    3    0    0 -0.98554398414E+01  0.19698611809E+02  0.68829957526E+00  0.22037213032E+02  0.51100000000E-03 0. -1.
        -11    1    3    3    0    0 -0.33304176834E+01  0.10504156710E+02 -0.24187069051E+01  0.11281805418E+02  0.51100000000E-03 0.  1.
        -12    1    3    3    0    0 -0.14158608661E+02 -0.11896312531E+01  0.97106598830E+01  0.17209832570E+02  0.00000000000E+00 0.  1.
</event>
<event>
 7    1  0.5902966E-013  0.5052892E+02  0.7816164E-02  0.1300439E+00
        -11   -1    0    0    0    0  0.00000000000E+00  0.00000000000E+00  0.45593999997E+02  0.45594000000E+02  0.51100000000E-03 0. -1.
         11   -1    0    0    0    0 -0.00000000000E+00 -0.00000000000E+00 -0.45593999997E+02  0.45594000000E+02  0.51100000000E-03 0.  1.
    9900012    2    1    2    0    0 -0.26504817168E+02  0.17439560711E+02 -0.25426709354E+02  0.50528915413E+02  0.30000168889E+02 0.  0.
         12    1    1    2    0    0  0.26504817168E+02 -0.17439560711E+02  0.25426709354E+02  0.40659084587E+02  0.00000000000E+00 0. -1.
         11    1    3    3    0    0 -0.39003356000E+00 -0.40357506900E+00 -0.14185357973E+02  0.14196456603E+02  0.51100000000E-03 0. -1.
        -11    1    3    3    0    0 -0.97561244012E+01 -0.30946764823E+00 -0.56010563291E+01  0.11253868927E+02  0.51100000000E-03 0.  1.
         12    1    3    3    0    0 -0.16358659207E+02  0.18152603428E+02 -0.56402950519E+01  0.25078589883E+02  0.00000000000E+00 0. -1.
</event>
<event>
 7    1  0.5902966E-013  0.5052887E+02  0.7816164E-02  0.1300439E+00
        -11   -1    0    0    0    0  0.00000000000E+00  0.00000000000E+00  0.45593999997E+02  0.45594000000E+02  0.51100000000E-03 0.  1.
         11   -1    0    0    0    0 -0.00000000000E+00 -0.00000000000E+00 -0.45593999997E+02  0.45594000000E+02  0.51100000000E-03 0. -1.
    9900012    2    1    2    0    0  0.24129715433E+02  0.10089163434E+02  0.31130858331E+02  0.50528871553E+02  0.30000035572E+02 0.  0.
         12    1    1    2    0    0 -0.24129715433E+02 -0.10089163434E+02 -0.31130858331E+02  0.40659128447E+02  0.00000000000E+00 0. -1.
         11    1    3    3    0    0  0.67252168451E+01  0.76200501020E+01  0.23838401870E+02  0.25914534709E+02  0.51100000000E-03 0. -1.
        -11    1    3    3    0    0  0.13070257074E+02  0.70216202307E+01  0.98706774779E+01  0.17820354788E+02  0.51100000000E-03 0.  1.
         12    1    3    3    0    0  0.43342415141E+01 -0.45525068991E+01 -0.25782210173E+01  0.67939820564E+01  0.00000000000E+00 0. -1.
</event>
<event>
 7    1  0.5902966E-013  0.5052885E+02  0.7816164E-02  0.1300439E+00
        -11   -1    0    0    0    0  0.00000000000E+00  0.00000000000E+00  0.45593999997E+02  0.45594000000E+02  0.51100000000E-03 0.  1.
         11   -1    0    0    0    0 -0.00000000000E+00 -0.00000000000E+00 -0.45593999997E+02  0.45594000000E+02  0.51100000000E-03 0. -1.
    9900012    2    1    2    0    0 -0.53580868807E+01 -0.21851498151E+02  0.33866936621E+02  0.50528850198E+02  0.29999970663E+02 0.  0.
         12    1    1    2    0    0  0.53580868807E+01  0.21851498151E+02 -0.33866936621E+02  0.40659149802E+02  0.00000000000E+00 0. -1.
         11    1    3    3    0    0 -0.11768287103E+02 -0.50165625059E+01  0.89621147993E+01  0.15619794578E+02  0.51100000000E-03 0. -1.
        -11    1    3    3    0    0  0.45424716891E+01 -0.52101620012E+00 -0.56274674861E+00  0.46067549416E+01  0.51100000000E-03 0.  1.
        -12    1    3    3    0    0  0.18677285332E+01 -0.16313919445E+02  0.25467568571E+02  0.30302300679E+02  0.00000000000E+00 0.  1.
</event>
<event>
 7    1  0.5902966E-013  0.5052886E+02  0.7816164E-02  0.1300439E+00
        -11   -1    0    0    0    0  0.00000000000E+00  0.00000000000E+00  0.45593999997E+02  0.45594000000E+02  0.51100000000E-03 0.  1.
         11   -1    0    0    0    0 -0.00000000000E+00 -0.00000000000E+00 -0.45593999997E+02  0.45594000000E+02  0.51100000000E-03 0. -1.
    9900012    2    1    2    0    0 -0.30502198398E+02 -0.23771326718E+02  0.12558085696E+02  0.50528860838E+02  0.30000003004E+02 0.  0.
         12    1    1    2    0    0  0.30502198398E+02  0.23771326718E+02 -0.12558085696E+02  0.40659139162E+02  0.00000000000E+00 0. -1.
         11    1    3    3    0    0 -0.24847459664E+02 -0.15333488807E+02  0.16256525004E+02  0.33418359269E+02  0.51100000000E-03 0. -1.
        -11    1    3    3    0    0 -0.73715780121E+01 -0.10853488838E+02 -0.10949709933E+01  0.13165764091E+02  0.51100000000E-03 0.  1.
         12    1    3    3    0    0  0.17168392784E+01  0.24156509271E+01 -0.26034683149E+01  0.39447374787E+01  0.00000000000E+00 0. -1.
</event>
<event>
 7    1  0.5902966E-013  0.5052882E+02  0.7816164E-02  0.1300439E+00
        -11   -1    0    0    0    0  0.00000000000E+00  0.00000000000E+00  0.45593999997E+02  0.45594000000E+02  0.51100000000E-03 0.  1.
         11   -1    0    0    0    0 -0.00000000000E+00 -0.00000000000E+00 -0.45593999997E+02  0.45594000000E+02  0.51100000000E-03 0. -1.
    9900012    2    1    2    0    0 -0.25183109311E+02 -0.26037314241E+02  0.18467211749E+02  0.50528823457E+02  0.29999889378E+02 0.  0.
         12    1    1    2    0    0  0.25183109311E+02  0.26037314241E+02 -0.18467211749E+02  0.40659176543E+02  0.00000000000E+00 0. -1.
         11    1    3    3    0    0 -0.18299904391E+02 -0.61396080112E+01  0.13640479368E+02  0.23635650296E+02  0.51100000000E-03 0.  1.
        -11    1    3    3    0    0  0.33424357156E+01  0.46468983785E+00 -0.70070665461E+00  0.34465639753E+01  0.51100000000E-03 0. -1.
        -12    1    3    3    0    0 -0.10225640635E+02 -0.20362396067E+02  0.55274390353E+01  0.23446609185E+02  0.00000000000E+00 0.  1.
</event>
<event>
 7    1  0.5902966E-013  0.5052886E+02  0.7816164E-02  0.1300439E+00
        -11   -1    0    0    0    0  0.00000000000E+00  0.00000000000E+00  0.45593999997E+02  0.45594000000E+02  0.51100000000E-03 0.  1.
         11   -1    0    0    0    0 -0.00000000000E+00 -0.00000000000E+00 -0.45593999997E+02  0.45594000000E+02  0.51100000000E-03 0. -1.
    9900012    2    1    2    0    0  0.10030602048E+02  0.38591158236E+02 -0.79545460453E+01  0.50528864812E+02  0.30000015084E+02 0.  0.
         12    1    1    2    0    0 -0.10030602048E+02 -0.38591158236E+02  0.79545460453E+01  0.40659135188E+02  0.00000000000E+00 0. -1.
         11    1    3    3    0    0 -0.13408156378E+01  0.23623600807E+02  0.12601201706E+01  0.23695151503E+02  0.51100000000E-03 0. -1.
        -11    1    3    3    0    0  0.52889287872E+01  0.71500524753E-02  0.34463564036E+01  0.63127008135E+01  0.51100000000E-03 0.  1.
        -12    1    3    3    0    0  0.60824888989E+01  0.14960407376E+02 -0.12661022620E+02  0.20521012496E+02  0.00000000000E+00 0.  1.
</event>
<event>
 7    1  0.5902966E-013  0.5052885E+02  0.7816164E-02  0.1300439E+00
        -11   -1    0    0    0    0  0.00000000000E+00  0.00000000000E+00  0.45593999997E+02  0.45594000000E+02  0.51100000000E-03 0. -1.
         11   -1    0    0    0    0 -0.00000000000E+00 -0.00000000000E+00 -0.45593999997E+02  0.45594000000E+02  0.51100000000E-03 0.  1.
    9900012    2    1    2    0    0 -0.32288799295E+02 -0.24655005821E+02  0.16523584541E+01  0.50528853915E+02  0.29999981959E+02 0.  0.
         12    1    1    2    0    0  0.32288799295E+02  0.24655005821E+02 -0.16523584541E+01  0.40659146085E+02  0.00000000000E+00 0. -1.
         11    1    3    3    0    0 -0.17876146421E+01 -0.46849120632E+00 -0.29235797596E+01  0.34586657819E+01  0.51100000000E-03 0. -1.
        -11    1    3    3    0    0 -0.14194545978E+00  0.48413918018E+01  0.51038175894E+00  0.48702887895E+01  0.51100000000E-03 0.  1.
        -12    1    3    3    0    0 -0.30359239193E+02 -0.29027906417E+02  0.40655564547E+01  0.42199899343E+02  0.00000000000E+00 0.  1.
</event>
<event>
 7    1  0.5902966E-013  0.5052893E+02  0.7816164E-02  0.1300439E+00
        -11   -1    0    0    0    0  0.00000000000E+00  0.00000000000E+00  0.45593999997E+02  0.45594000000E+02  0.51100000000E-03 0.  1.
         11   -1    0    0    0    0 -0.00000000000E+00 -0.00000000000E+00 -0.45593999997E+02  0.45594000000E+02  0.51100000000E-03 0. -1.
    9900012    2    1    2    0    0 -0.98569479136E+01  0.95574553085E+00  0.39434592069E+02  0.50528930614E+02  0.30000215095E+02 0.  0.
         12    1    1    2    0    0  0.98569479136E+01 -0.95574553085E+00 -0.39434592069E+02  0.40659069386E+02  0.00000000000E+00 0. -1.
         11    1    3    3    0    0 -0.56415114656E+01 -0.32720853878E+01  0.65316488600E+00  0.65543740381E+01  0.51100000000E-03 0. -1.
        -11    1    3    3    0    0  0.61796702107E+01 -0.85665251105E+00  0.42320534844E+01  0.75387302906E+01  0.51100000000E-03 0.  1.
        -12    1    3    3    0    0 -0.10395106659E+02  0.50844834297E+01  0.34549373698E+02  0.36435826286E+02  0.00000000000E+00 0.  1.
</event>
<event>
 7    1  0.5902966E-013  0.5052885E+02  0.7816164E-02  0.1300439E+00
        -11   -1    0    0    0    0  0.00000000000E+00  0.00000000000E+00  0.45593999997E+02  0.45594000000E+02  0.51100000000E-03 0.  1.
         11   -1    0    0    0    0 -0.00000000000E+00 -0.00000000000E+00 -0.45593999997E+02  0.45594000000E+02  0.51100000000E-03 0. -1.
    9900012    2    1    2    0    0  0.10864286498E+02 -0.10564404763E+01  0.39166532987E+02  0.50528854734E+02  0.29999984449E+02 0.  0.
         12    1    1    2    0    0 -0.10864286498E+02  0.10564404763E+01 -0.39166532987E+02  0.40659145266E+02  0.00000000000E+00 0. -1.
         11    1    3    3    0    0 -0.63154605729E+01 -0.35705988944E+01  0.64132269777E+00  0.72832351175E+01  0.51100000000E-03 0. -1.
        -11    1    3    3    0    0  0.63952304819E+01 -0.14748757169E+01  0.65783351116E+01  0.92924014333E+01  0.51100000000E-03 0.  1.
        -12    1    3    3    0    0  0.10784516589E+02  0.39890341350E+01  0.31946875177E+02  0.33953218183E+02  0.00000000000E+00 0.  1.
</event>
<event>
 7    1  0.5902966E-013  0.5052886E+02  0.7816164E-02  0.1300439E+00
        -11   -1    0    0    0    0  0.00000000000E+00  0.00000000000E+00  0.45593999997E+02  0.45594000000E+02  0.51100000000E-03 0. -1.
         11   -1    0    0    0    0 -0.00000000000E+00 -0.00000000000E+00 -0.45593999997E+02  0.45594000000E+02  0.51100000000E-03 0.  1.
    9900012    2    1    2    0    0 -0.24878017535E+02 -0.30800504666E+02  0.92508622163E+01  0.50528864546E+02  0.30000014274E+02 0.  0.
         12    1    1    2    0    0  0.24878017535E+02  0.30800504666E+02 -0.92508622163E+01  0.40659135454E+02  0.00000000000E+00 0. -1.
         11    1    3    3    0    0 -0.60841028010E+01 -0.13656014479E+02 -0.89365793878E+01  0.17417390440E+02  0.51100000000E-03 0. -1.
        -11    1    3    3    0    0  0.60186870129E+00 -0.11888781826E+01 -0.86379967814E+00  0.15880262630E+01  0.51100000000E-03 0.  1.
         12    1    3    3    0    0 -0.19395783435E+02 -0.15955612004E+02  0.19051241282E+02  0.31523447843E+02  0.00000000000E+00 0. -1.
</event>
<event>
 7    1  0.5902966E-013  0.5052886E+02  0.7816164E-02  0.1300439E+00
        -11   -1    0    0    0    0  0.00000000000E+00  0.00000000000E+00  0.45593999997E+02  0.45594000000E+02  0.51100000000E-03 0. -1.
         11   -1    0    0    0    0 -0.00000000000E+00 -0.00000000000E+00 -0.45593999997E+02  0.45594000000E+02  0.51100000000E-03 0.  1.
    9900012    2    1    2    0    0  0.21559913820E+02  0.24263152094E+02 -0.24487450416E+02  0.50528860051E+02  0.30000000612E+02 0.  0.
         12    1    1    2    0    0 -0.21559913820E+02 -0.24263152094E+02  0.24487450416E+02  0.40659139949E+02  0.00000000000E+00 0. -1.
         11    1    3    3    0    0  0.18124812021E+01  0.17420492331E+01  0.47811112325E+00  0.25589869374E+01  0.51100000000E-03 0. -1.
        -11    1    3    3    0    0  0.20559010659E+02  0.66151402789E+01 -0.45403691737E+01  0.22069162935E+02  0.51100000000E-03 0.  1.
         12    1    3    3    0    0 -0.81157804083E+00  0.15905962582E+02 -0.20425192366E+02  0.25900710179E+02  0.00000000000E+00 0. -1.
</event>
<event>
 7    1  0.5902966E-013  0.5052886E+02  0.7816164E-02  0.1300439E+00
        -11   -1    0    0    0    0  0.00000000000E+00  0.00000000000E+00  0.45593999997E+02  0.45594000000E+02  0.51100000000E-03 0.  1.
         11   -1    0    0    0    0 -0.00000000000E+00 -0.00000000000E+00 -0.45593999997E+02  0.45594000000E+02  0.51100000000E-03 0. -1.
    9900012    2    1    2    0    0 -0.19062590490E+01 -0.35934839133E+02  0.18926678956E+02  0.50528860027E+02  0.30000000537E+02 0.  0.
         12    1    1    2    0    0  0.19062590490E+01  0.35934839133E+02 -0.18926678956E+02  0.40659139973E+02  0.00000000000E+00 0. -1.
         11    1    3    3    0    0 -0.47803618703E+01 -0.20229808576E+02  0.13986596328E+02  0.25054378693E+02  0.51100000000E-03 0. -1.
        -11    1    3    3    0    0 -0.73846888183E+01 -0.88799008975E+01 -0.13712500975E+01  0.11630416845E+02  0.51100000000E-03 0.  1.
         12    1    3    3    0    0  0.10258791640E+02 -0.68251296598E+01  0.63113327261E+01  0.13844064488E+02  0.00000000000E+00 0. -1.
</event>
<event>
 7    1  0.5902966E-013  0.5052895E+02  0.7816164E-02  0.1300438E+00
        -11   -1    0    0    0    0  0.00000000000E+00  0.00000000000E+00  0.45593999997E+02  0.45594000000E+02  0.51100000000E-03 0.  1.
         11   -1    0    0    0    0 -0.00000000000E+00 -0.00000000000E+00 -0.45593999997E+02  0.45594000000E+02  0.51100000000E-03 0. -1.
    9900012    2    1    2    0    0 -0.39684417019E+02 -0.38206569932E+01 -0.79817080055E+01  0.50528953815E+02  0.30000285615E+02 0.  0.
         12    1    1    2    0    0  0.39684417019E+02  0.38206569932E+01  0.79817080055E+01  0.40659046185E+02  0.00000000000E+00 0. -1.
         11    1    3    3    0    0 -0.97712333794E+01  0.38079764759E+01 -0.88742902415E+01  0.13737929762E+02  0.51100000000E-03 0. -1.
        -11    1    3    3    0    0  0.22963027014E+01  0.18926905089E+01  0.11834300051E+01  0.32024662835E+01  0.51100000000E-03 0.  1.
        -12    1    3    3    0    0 -0.32209486341E+02 -0.95213239780E+01 -0.29084776916E+00  0.33588557770E+02  0.00000000000E+00 0.  1.
</event>
<event>
 7    1  0.5902966E-013  0.5052885E+02  0.7816164E-02  0.1300439E+00
        -11   -1    0    0    0    0  0.00000000000E+00  0.00000000000E+00  0.45593999997E+02  0.45594000000E+02  0.51100000000E-03 0.  1.
         11   -1    0    0    0    0 -0.00000000000E+00 -0.00000000000E+00 -0.45593999997E+02  0.45594000000E+02  0.51100000000E-03 0. -1.
    9900012    2    1    2    0    0  0.27849729336E+00 -0.28086425491E+02  0.29397982578E+02  0.50528852969E+02  0.29999979085E+02 0.  0.
         12    1    1    2    0    0 -0.27849729336E+00  0.28086425491E+02 -0.29397982578E+02  0.40659147031E+02  0.00000000000E+00 0. -1.
         11    1    3    3    0    0 -0.74079342777E+00 -0.48988845242E+01 -0.33743197845E+01  0.59944873637E+01  0.51100000000E-03 0. -1.
        -11    1    3    3    0    0  0.62386783564E+01 -0.13488106382E+02  0.68395253976E+01  0.16359377413E+02  0.51100000000E-03 0.  1.
        -12    1    3    3    0    0 -0.52193876352E+01 -0.96994345845E+01  0.25932776965E+02  0.28174988193E+02  0.00000000000E+00 0.  1.
</event>
<event>
 7    1  0.5902966E-013  0.5052885E+02  0.7816164E-02  0.1300439E+00
        -11   -1    0    0    0    0  0.00000000000E+00  0.00000000000E+00  0.45593999997E+02  0.45594000000E+02  0.51100000000E-03 0. -1.
         11   -1    0    0    0    0 -0.00000000000E+00 -0.00000000000E+00 -0.45593999997E+02  0.45594000000E+02  0.51100000000E-03 0.  1.
    9900012    2    1    2    0    0  0.27757504957E+02  0.17962644152E+02 -0.23664967235E+02  0.50528851698E+02  0.29999975222E+02 0.  0.
         12    1    1    2    0    0 -0.27757504957E+02 -0.17962644152E+02  0.23664967235E+02  0.40659148302E+02  0.00000000000E+00 0. -1.
         11    1    3    3    0    0 -0.22709084913E+00 -0.90830793711E+00 -0.35374142988E+00  0.10008630389E+01  0.51100000000E-03 0. -1.
        -11    1    3    3    0    0 -0.18891474751E+01 -0.46271739493E+01 -0.11188635407E+00  0.49992135139E+01  0.51100000000E-03 0.  1.
        -12    1    3    3    0    0  0.29873743282E+02  0.23498126038E+02 -0.23199339451E+02  0.44528775145E+02  0.00000000000E+00 0.  1.
</event>
<event>
 7    1  0.5902966E-013  0.5052882E+02  0.7816164E-02  0.1300439E+00
        -11   -1    0    0    0    0  0.00000000000E+00  0.00000000000E+00  0.45593999997E+02  0.45594000000E+02  0.51100000000E-03 0.  1.
         11   -1    0    0    0    0 -0.00000000000E+00 -0.00000000000E+00 -0.45593999997E+02  0.45594000000E+02  0.51100000000E-03 0. -1.
    9900012    2    1    2    0    0 -0.25224019774E+02  0.88931518350E+01  0.30624008920E+02  0.50528815976E+02  0.29999866641E+02 0.  0.
         12    1    1    2    0    0  0.25224019774E+02 -0.88931518350E+01 -0.30624008920E+02  0.40659184024E+02  0.00000000000E+00 0. -1.
         11    1    3    3    0    0 -0.13414199985E+02 -0.17015016791E+01  0.10308957757E+02  0.17003249087E+02  0.51100000000E-03 0. -1.
        -11    1    3    3    0    0 -0.27574152801E+01 -0.44245739738E+00 -0.42669157736E+01  0.50995762623E+01  0.51100000000E-03 0.  1.
        -12    1    3    3    0    0 -0.90524045095E+01  0.11037110911E+02  0.24581966937E+02  0.28425990627E+02  0.00000000000E+00 0.  1.
</event>
<event>
 7    1  0.5902966E-013  0.5052885E+02  0.7816164E-02  0.1300439E+00
        -11   -1    0    0    0    0  0.00000000000E+00  0.00000000000E+00  0.45593999997E+02  0.45594000000E+02  0.51100000000E-03 0.  1.
         11   -1    0    0    0    0 -0.00000000000E+00 -0.00000000000E+00 -0.45593999997E+02  0.45594000000E+02  0.51100000000E-03 0. -1.
    9900012    2    1    2    0    0  0.60242000732E+01 -0.40201666683E+02  0.83751839413E+00  0.50528850627E+02  0.29999971967E+02 0.  0.
         12    1    1    2    0    0 -0.60242000732E+01  0.40201666683E+02 -0.83751839413E+00  0.40659149373E+02  0.00000000000E+00 0. -1.
         11    1    3    3    0    0 -0.73639131240E+01 -0.12492781485E+02 -0.62755361177E+01  0.15801239178E+02  0.51100000000E-03 0. -1.
        -11    1    3    3    0    0  0.44387103097E+01 -0.18303047026E+02 -0.18902656659E+01  0.18928200765E+02  0.51100000000E-03 0.  1.
        -12    1    3    3    0    0  0.89494028875E+01 -0.94058381728E+01  0.90033201777E+01  0.15799410685E+02  0.00000000000E+00 0.  1.
</event>
<event>
 7    1  0.5902966E-013  0.5052885E+02  0.7816164E-02  0.1300439E+00
        -11   -1    0    0    0    0  0.00000000000E+00  0.00000000000E+00  0.45593999997E+02  0.45594000000E+02  0.51100000000E-03 0.  1.
         11   -1    0    0    0    0 -0.00000000000E+00 -0.00000000000E+00 -0.45593999997E+02  0.45594000000E+02  0.51100000000E-03 0. -1.
    9900012    2    1    2    0    0 -0.33155149122E+02  0.23534850918E+02 -0.11725087091E+00  0.50528845203E+02  0.29999955480E+02 0.  0.
         12    1    1    2    0    0  0.33155149122E+02 -0.23534850918E+02  0.11725087091E+00  0.40659154797E+02  0.00000000000E+00 0. -1.
         11    1    3    3    0    0 -0.36725011482E+01 -0.21663461491E+01 -0.26183649564E+01  0.50036142564E+01  0.51100000000E-03 0. -1.
        -11    1    3    3    0    0 -0.66258320265E+01  0.18948774191E+02  0.70226347654E+01  0.21266760278E+02  0.51100000000E-03 0.  1.
         12    1    3    3    0    0 -0.22856815947E+02  0.67524228753E+01 -0.45215206799E+01  0.24258470669E+02  0.00000000000E+00 0. -1.
</event>
<event>
 7    1  0.5902966E-013  0.5052885E+02  0.7816164E-02  0.1300439E+00
        -11   -1    0    0    0    0  0.00000000000E+00  0.00000000000E+00  0.45593999997E+02  0.45594000000E+02  0.51100000000E-03 0.  1.
         11   -1    0    0    0    0 -0.00000000000E+00 -0.00000000000E+00 -0.45593999997E+02  0.45594000000E+02  0.51100000000E-03 0. -1.
    9900012    2    1    2    0    0  0.12309258968E+02  0.11569416912E+02  0.36983738229E+02  0.50528853951E+02  0.29999982070E+02 0.  0.
         12    1    1    2    0    0 -0.12309258968E+02 -0.11569416912E+02 -0.36983738229E+02  0.40659146049E+02  0.00000000000E+00 0. -1.
         11    1    3    3    0    0 -0.43460546836E+01 -0.44998787479E+01  0.59555930611E+01  0.86374874257E+01  0.51100000000E-03 0. -1.
        -11    1    3    3    0    0  0.70388476448E+00  0.20020316066E+01  0.15281928505E+02  0.15428574899E+02  0.51100000000E-03 0.  1.
         12    1    3    3    0    0  0.15951428887E+02  0.14067264053E+02  0.15746216663E+02  0.26462791627E+02  0.00000000000E+00 0. -1.
</event>
<event>
 7    1  0.5902966E-013  0.5052886E+02  0.7816164E-02  0.1300439E+00
        -11   -1    0    0    0    0  0.00000000000E+00  0.00000000000E+00  0.45593999997E+02  0.45594000000E+02  0.51100000000E-03 0.  1.
         11   -1    0    0    0    0 -0.00000000000E+00 -0.00000000000E+00 -0.45593999997E+02  0.45594000000E+02  0.51100000000E-03 0. -1.
    9900012    2    1    2    0    0 -0.41146928086E+01 -0.40125042943E+02 -0.51201252095E+01  0.50528862648E+02  0.30000008504E+02 0.  0.
         12    1    1    2    0    0  0.41146928086E+01  0.40125042943E+02  0.51201252095E+01  0.40659137352E+02  0.00000000000E+00 0. -1.
         11    1    3    3    0    0 -0.35119432220E+01 -0.14814953723E+02  0.75130900359E+01  0.16978313260E+02  0.51100000000E-03 0. -1.
        -11    1    3    3    0    0 -0.92346155700E+01 -0.15215776083E+02 -0.71266116870E+01  0.19172547065E+02  0.51100000000E-03 0.  1.
         12    1    3    3    0    0  0.86318659834E+01 -0.10094313137E+02 -0.55066035584E+01  0.14378002323E+02  0.00000000000E+00 0. -1.
</event>
<event>
 7    1  0.5902966E-013  0.5052886E+02  0.7816164E-02  0.1300439E+00
        -11   -1    0    0    0    0  0.00000000000E+00  0.00000000000E+00  0.45593999997E+02  0.45594000000E+02  0.51100000000E-03 0. -1.
         11   -1    0    0    0    0 -0.00000000000E+00 -0.00000000000E+00 -0.45593999997E+02  0.45594000000E+02  0.51100000000E-03 0.  1.
    9900012    2    1    2    0    0  0.23133868690E+02 -0.11256140664E+02 -0.31484746099E+02  0.50528858099E+02  0.29999994676E+02 0.  0.
         12    1    1    2    0    0 -0.23133868690E+02  0.11256140664E+02  0.31484746099E+02  0.40659141901E+02  0.00000000000E+00 0. -1.
         11    1    3    3    0    0  0.32267937307E+01 -0.99119789837E+01  0.68729633475E+00  0.10446621543E+02  0.51100000000E-03 0. -1.
        -11    1    3    3    0    0 -0.15203659560E-01 -0.30768739288E+01 -0.88013151581E+01  0.93236544927E+01  0.51100000000E-03 0.  1.
        -12    1    3    3    0    0  0.19922278619E+02  0.17327122480E+01 -0.23370727276E+02  0.30758582063E+02  0.00000000000E+00 0.  1.
</event>
<event>
 7    1  0.5902966E-013  0.5052888E+02  0.7816164E-02  0.1300439E+00
        -11   -1    0    0    0    0  0.00000000000E+00  0.00000000000E+00  0.45593999997E+02  0.45594000000E+02  0.51100000000E-03 0.  1.
         11   -1    0    0    0    0 -0.00000000000E+00 -0.00000000000E+00 -0.45593999997E+02  0.45594000000E+02  0.51100000000E-03 0. -1.
    9900012    2    1    2    0    0 -0.12132497179E+02 -0.27583327467E+02  0.27297014241E+02  0.50528875213E+02  0.30000046697E+02 0.  0.
         12    1    1    2    0    0  0.12132497179E+02  0.27583327467E+02 -0.27297014241E+02  0.40659124787E+02  0.00000000000E+00 0. -1.
         11    1    3    3    0    0 -0.60686125257E+00 -0.26994591673E+02  0.18466061495E+02  0.32711950226E+02  0.51100000000E-03 0.  1.
        -11    1    3    3    0    0 -0.69057108937E+01 -0.18921329935E+01 -0.65034962959E+00  0.71897124500E+01  0.51100000000E-03 0. -1.
        -12    1    3    3    0    0 -0.46199250330E+01  0.13033971995E+01  0.94813023756E+01  0.10627212537E+02  0.00000000000E+00 0.  1.
</event>
<event>
 7    1  0.5902966E-013  0.5052887E+02  0.7816164E-02  0.1300439E+00
        -11   -1    0    0    0    0  0.00000000000E+00  0.00000000000E+00  0.45593999997E+02  0.45594000000E+02  0.51100000000E-03 0.  1.
         11   -1    0    0    0    0 -0.00000000000E+00 -0.00000000000E+00 -0.45593999997E+02  0.45594000000E+02  0.51100000000E-03 0. -1.
    9900012    2    1    2    0    0  0.29134149210E+01  0.24591416419E+02  0.32248091760E+02  0.50528866091E+02  0.30000018971E+02 0.  0.
         12    1    1    2    0    0 -0.29134149210E+01 -0.24591416419E+02 -0.32248091760E+02  0.40659133909E+02  0.00000000000E+00 0. -1.
         11    1    3    3    0    0 -0.94909336010E+01  0.94857318654E+01  0.12005279971E+02  0.18005101418E+02  0.51100000000E-03 0. -1.
        -11    1    3    3    0    0  0.42738324663E+01  0.83473334973E+01  0.19838584227E+02  0.21943405498E+02  0.51100000000E-03 0.  1.
         12    1    3    3    0    0  0.81305160558E+01  0.67583510569E+01  0.40422756185E+00  0.10580359175E+02  0.00000000000E+00 0. -1.
</event>
<event>
 7    1  0.5902966E-013  0.5052885E+02  0.7816164E-02  0.1300439E+00
        -11   -1    0    0    0    0  0.00000000000E+00  0.00000000000E+00  0.45593999997E+02  0.45594000000E+02  0.51100000000E-03 0.  1.
         11   -1    0    0    0    0 -0.00000000000E+00 -0.00000000000E+00 -0.45593999997E+02  0.45594000000E+02  0.51100000000E-03 0. -1.
    9900012    2    1    2    0    0  0.22802514942E+02 -0.25957171890E+02  0.21434489900E+02  0.50528845835E+02  0.29999957399E+02 0.  0.
         12    1    1    2    0    0 -0.22802514942E+02  0.25957171890E+02 -0.21434489900E+02  0.40659154165E+02  0.00000000000E+00 0. -1.
         11    1    3    3    0    0 -0.23778784688E+01 -0.17557039187E+02  0.12237212579E+02  0.21532610223E+02  0.51100000000E-03 0. -1.
        -11    1    3    3    0    0  0.66021603132E+01 -0.15719020003E+01  0.57708282093E+01  0.89085271051E+01  0.51100000000E-03 0.  1.
        -12    1    3    3    0    0  0.18578233097E+02 -0.68282307025E+01  0.34264491110E+01  0.20087708507E+02  0.00000000000E+00 0.  1.
</event>
<event>
 7    1  0.5902966E-013  0.5052886E+02  0.7816164E-02  0.1300439E+00
        -11   -1    0    0    0    0  0.00000000000E+00  0.00000000000E+00  0.45593999997E+02  0.45594000000E+02  0.51100000000E-03 0. -1.
         11   -1    0    0    0    0 -0.00000000000E+00 -0.00000000000E+00 -0.45593999997E+02  0.45594000000E+02  0.51100000000E-03 0.  1.
    9900012    2    1    2    0    0  0.86738217770E+01 -0.39236692790E+02 -0.61977981100E+01  0.50528856543E+02  0.29999989947E+02 0.  0.
         12    1    1    2    0    0 -0.86738217770E+01  0.39236692790E+02  0.61977981100E+01  0.40659143457E+02  0.00000000000E+00 0. -1.
         11    1    3    3    0    0  0.56766553028E+01 -0.26632319303E+01 -0.35248364757E+01  0.71931698286E+01  0.51100000000E-03 0. -1.
        -11    1    3    3    0    0  0.26283788412E+01 -0.98433198699E+01  0.95289549405E+01  0.13949921287E+02  0.51100000000E-03 0.  1.
        -12    1    3    3    0    0  0.36878763299E+00 -0.26730140989E+02 -0.12201916575E+02  0.29385765427E+02  0.00000000000E+00 0.  1.
</event>
<event>
 7    1  0.5902966E-013  0.5052886E+02  0.7816164E-02  0.1300439E+00
        -11   -1    0    0    0    0  0.00000000000E+00  0.00000000000E+00  0.45593999997E+02  0.45594000000E+02  0.51100000000E-03 0.  1.
         11   -1    0    0    0    0 -0.00000000000E+00 -0.00000000000E+00 -0.45593999997E+02  0.45594000000E+02  0.51100000000E-03 0. -1.
    9900012    2    1    2    0    0 -0.34580564642E+02  0.16478731584E+02  0.13630909201E+02  0.50528859192E+02  0.29999998001E+02 0.  0.
         12    1    1    2    0    0  0.34580564642E+02 -0.16478731584E+02 -0.13630909201E+02  0.40659140808E+02  0.00000000000E+00 0. -1.
         11    1    3    3    0    0  0.29421666244E+01 -0.13314475689E+01  0.62276896884E+00  0.32889114497E+01  0.51100000000E-03 0. -1.
        -11    1    3    3    0    0 -0.58544775718E+01  0.11435705620E+02  0.14399740066E+01  0.12927636909E+02  0.51100000000E-03 0.  1.
        -12    1    3    3    0    0 -0.31668253695E+02  0.63744735336E+01  0.11568166225E+02  0.34312310833E+02  0.00000000000E+00 0.  1.
</event>
<event>
 7    1  0.5902966E-013  0.5052885E+02  0.7816164E-02  0.1300439E+00
        -11   -1    0    0    0    0  0.00000000000E+00  0.00000000000E+00  0.45593999997E+02  0.45594000000E+02  0.51100000000E-03 0.  1.
         11   -1    0    0    0    0 -0.00000000000E+00 -0.00000000000E+00 -0.45593999997E+02  0.45594000000E+02  0.51100000000E-03 0. -1.
    9900012    2    1    2    0    0  0.24104550950E+02  0.31613021520E+02  0.85295707936E+01  0.50528854854E+02  0.29999984813E+02 0.  0.
         12    1    1    2    0    0 -0.24104550950E+02 -0.31613021520E+02 -0.85295707936E+01  0.40659145146E+02  0.00000000000E+00 0. -1.
         11    1    3    3    0    0  0.10471182500E+01  0.19885510004E+02  0.17278910730E+01  0.19987885645E+02  0.51100000000E-03 0. -1.
        -11    1    3    3    0    0  0.75324413681E+01  0.98653775979E+01  0.81467054014E+01  0.14846957846E+02  0.51100000000E-03 0.  1.
        -12    1    3    3    0    0  0.15524991331E+02  0.18621339179E+01 -0.13450256808E+01  0.15694011363E+02  0.00000000000E+00 0.  1.
</event>
<event>
 7    1  0.5902966E-013  0.5052886E+02  0.7816164E-02  0.1300439E+00
        -11   -1    0    0    0    0  0.00000000000E+00  0.00000000000E+00  0.45593999997E+02  0.45594000000E+02  0.51100000000E-03 0.  1.
         11   -1    0    0    0    0 -0.00000000000E+00 -0.00000000000E+00 -0.45593999997E+02  0.45594000000E+02  0.51100000000E-03 0. -1.
    9900012    2    1    2    0    0 -0.19174532395E+02 -0.59196387485E+01  0.35361852326E+02  0.50528863076E+02  0.30000009806E+02 0.  0.
         12    1    1    2    0    0  0.19174532395E+02  0.59196387485E+01 -0.35361852326E+02  0.40659136924E+02  0.00000000000E+00 0. -1.
         11    1    3    3    0    0  0.16083160312E+01  0.23518346221E+01 -0.61636094240E+00  0.29150827807E+01  0.51100000000E-03 0. -1.
        -11    1    3    3    0    0 -0.97681438339E+01 -0.61382838168E+01  0.18441231981E+01  0.11683148240E+02  0.51100000000E-03 0.  1.
        -12    1    3    3    0    0 -0.11014704592E+02 -0.21331895539E+01  0.34134090070E+02  0.35930632055E+02  0.00000000000E+00 0.  1.
</event>
<event>
 7    1  0.5902966E-013  0.5052890E+02  0.7816164E-02  0.1300439E+00
        -11   -1    0    0    0    0  0.00000000000E+00  0.00000000000E+00  0.45593999997E+02  0.45594000000E+02  0.51100000000E-03 0.  1.
         11   -1    0    0    0    0 -0.00000000000E+00 -0.00000000000E+00 -0.45593999997E+02  0.45594000000E+02  0.51100000000E-03 0. -1.
    9900012    2    1    2    0    0 -0.87705741138E+01  0.35309149647E+02  0.18152228128E+02  0.50528900095E+02  0.30000122329E+02 0.  0.
         12    1    1    2    0    0  0.87705741138E+01 -0.35309149647E+02 -0.18152228128E+02  0.40659099905E+02  0.00000000000E+00 0. -1.
         11    1    3    3    0    0 -0.96376259305E+01  0.23396914407E+02  0.13038736445E+02  0.28465910941E+02  0.51100000000E-03 0. -1.
        -11    1    3    3    0    0  0.24706900059E+01  0.16145316674E+02  0.17566154173E+01  0.16427454385E+02  0.51100000000E-03 0.  1.
         12    1    3    3    0    0 -0.16036381892E+01 -0.42330814342E+01  0.33568762652E+01  0.56355347688E+01  0.00000000000E+00 0. -1.
</event>
<event>
 7    1  0.5902966E-013  0.5052886E+02  0.7816164E-02  0.1300439E+00
        -11   -1    0    0    0    0  0.00000000000E+00  0.00000000000E+00  0.45593999997E+02  0.45594000000E+02  0.51100000000E-03 0.  1.
         11   -1    0    0    0    0 -0.00000000000E+00 -0.00000000000E+00 -0.45593999997E+02  0.45594000000E+02  0.51100000000E-03 0. -1.
    9900012    2    1    2    0    0  0.32105623462E+02  0.11950953662E+02  0.21899071752E+02  0.50528859639E+02  0.29999999359E+02 0.  0.
         12    1    1    2    0    0 -0.32105623462E+02 -0.11950953662E+02 -0.21899071752E+02  0.40659140361E+02  0.00000000000E+00 0. -1.
         11    1    3    3    0    0 -0.16413462368E+01  0.76390747240E+01  0.36467014707E+01  0.86225235277E+01  0.51100000000E-03 0. -1.
        -11    1    3    3    0    0  0.11275142452E+02 -0.18203885101E+01  0.14265293251E+02  0.18274059304E+02  0.51100000000E-03 0.  1.
        -12    1    3    3    0    0  0.22471827247E+02  0.61322674481E+01  0.39870770297E+01  0.23632276808E+02  0.00000000000E+00 0.  1.
</event>
<event>
 7    1  0.5902966E-013  0.5052888E+02  0.7816164E-02  0.1300439E+00
        -11   -1    0    0    0    0  0.00000000000E+00  0.00000000000E+00  0.45593999997E+02  0.45594000000E+02  0.51100000000E-03 0. -1.
         11   -1    0    0    0    0 -0.00000000000E+00 -0.00000000000E+00 -0.45593999997E+02  0.45594000000E+02  0.51100000000E-03 0.  1.
    9900012    2    1    2    0    0 -0.20234403624E+02  0.18552751244E+01 -0.35217763660E+02  0.50528880322E+02  0.30000062226E+02 0.  0.
         12    1    1    2    0    0  0.20234403624E+02 -0.18552751244E+01  0.35217763660E+02  0.40659119678E+02  0.00000000000E+00 0. -1.
         11    1    3    3    0    0 -0.55139070395E+01  0.60673094110E+01 -0.89078665794E+00  0.82467518127E+01  0.51100000000E-03 0. -1.
        -11    1    3    3    0    0 -0.15494708361E+02  0.56897733363E+00 -0.12477250962E+02  0.19902047990E+02  0.51100000000E-03 0.  1.
         12    1    3    3    0    0  0.77421177658E+00 -0.47810116202E+01 -0.21849726040E+02  0.22380080519E+02  0.00000000000E+00 0. -1.
</event>
<event>
 7    1  0.5902966E-013  0.5052886E+02  0.7816164E-02  0.1300439E+00
        -11   -1    0    0    0    0  0.00000000000E+00  0.00000000000E+00  0.45593999997E+02  0.45594000000E+02  0.51100000000E-03 0. -1.
         11   -1    0    0    0    0 -0.00000000000E+00 -0.00000000000E+00 -0.45593999997E+02  0.45594000000E+02  0.51100000000E-03 0.  1.
    9900012    2    1    2    0    0  0.23514411534E+02 -0.17161846138E+02 -0.28385016698E+02  0.50528859753E+02  0.29999999705E+02 0.  0.
         12    1    1    2    0    0 -0.23514411534E+02  0.17161846138E+02  0.28385016698E+02  0.40659140247E+02  0.00000000000E+00 0. -1.
         11    1    3    3    0    0  0.68971728381E+01 -0.13444692720E+01  0.33405803614E+01  0.77806213245E+01  0.51100000000E-03 0. -1.
        -11    1    3    3    0    0 -0.33802482924E+01 -0.44849419524E+01 -0.72660839445E+01  0.91835047223E+01  0.51100000000E-03 0.  1.
         12    1    3    3    0    0  0.19997486988E+02 -0.11332434914E+02 -0.24459513115E+02  0.33564733706E+02  0.00000000000E+00 0. -1.
</event>
<event>
 7    1  0.5902966E-013  0.5052883E+02  0.7816164E-02  0.1300439E+00
        -11   -1    0    0    0    0  0.00000000000E+00  0.00000000000E+00  0.45593999997E+02  0.45594000000E+02  0.51100000000E-03 0. -1.
         11   -1    0    0    0    0 -0.00000000000E+00 -0.00000000000E+00 -0.45593999997E+02  0.45594000000E+02  0.51100000000E-03 0.  1.
    9900012    2    1    2    0    0 -0.34018367091E+02 -0.21444570998E+01 -0.22165737298E+02  0.50528832451E+02  0.29999916718E+02 0.  0.
         12    1    1    2    0    0  0.34018367091E+02  0.21444570998E+01  0.22165737298E+02  0.40659167549E+02  0.00000000000E+00 0. -1.
         11    1    3    3    0    0 -0.82869834366E+01 -0.36597417909E+01  0.56965162881E+01  0.10701313122E+02  0.51100000000E-03 0. -1.
        -11    1    3    3    0    0 -0.24070778236E+00  0.11210343126E+01  0.85246178774E+00  0.14287580366E+01  0.51100000000E-03 0.  1.
        -12    1    3    3    0    0 -0.25490675872E+02  0.39425037854E+00 -0.28714715374E+02  0.38398761292E+02  0.00000000000E+00 0.  1.
</event>
<event>
 7    1  0.5902966E-013  0.5052886E+02  0.7816164E-02  0.1300439E+00
        -11   -1    0    0    0    0  0.00000000000E+00  0.00000000000E+00  0.45593999997E+02  0.45594000000E+02  0.51100000000E-03 0.  1.
         11   -1    0    0    0    0 -0.00000000000E+00 -0.00000000000E+00 -0.45593999997E+02  0.45594000000E+02  0.51100000000E-03 0. -1.
    9900012    2    1    2    0    0 -0.18913942572E+02  0.33216981558E+02 -0.13858592458E+02  0.50528859916E+02  0.30000000200E+02 0.  0.
         12    1    1    2    0    0  0.18913942572E+02 -0.33216981558E+02  0.13858592458E+02  0.40659140084E+02  0.00000000000E+00 0. -1.
         11    1    3    3    0    0 -0.38867721542E+00  0.62171681324E+01  0.34181141992E+01  0.71054735595E+01  0.51100000000E-03 0. -1.
        -11    1    3    3    0    0 -0.19584299278E+02  0.30273392384E+02 -0.14019463674E+02  0.38685506673E+02  0.51100000000E-03 0.  1.
         12    1    3    3    0    0  0.10590339211E+01 -0.32735789576E+01 -0.32572429835E+01  0.47378796831E+01  0.00000000000E+00 0. -1.
</event>
<event>
 7    1  0.5902966E-013  0.5052889E+02  0.7816164E-02  0.1300439E+00
        -11   -1    0    0    0    0  0.00000000000E+00  0.00000000000E+00  0.45593999997E+02  0.45594000000E+02  0.51100000000E-03 0.  1.
         11   -1    0    0    0    0 -0.00000000000E+00 -0.00000000000E+00 -0.45593999997E+02  0.45594000000E+02  0.51100000000E-03 0. -1.
    9900012    2    1    2    0    0 -0.94329867666E+01 -0.22192340008E+02  0.32736553285E+02  0.50528891361E+02  0.30000095781E+02 0.  0.
         12    1    1    2    0    0  0.94329867666E+01  0.22192340008E+02 -0.32736553285E+02  0.40659108639E+02  0.00000000000E+00 0. -1.
         11    1    3    3    0    0 -0.33391531566E+01 -0.11662643304E+02  0.10884818262E+02  0.16298664408E+02  0.51100000000E-03 0. -1.
        -11    1    3    3    0    0 -0.66597166818E+01 -0.43377943070E+01  0.25711521845E+02  0.26911905201E+02  0.51100000000E-03 0.  1.
         12    1    3    3    0    0  0.56588307173E+00 -0.61919023974E+01 -0.38597868220E+01  0.73183217517E+01  0.00000000000E+00 0. -1.
</event>
<event>
 7    1  0.5902966E-013  0.5052886E+02  0.7816164E-02  0.1300439E+00
        -11   -1    0    0    0    0  0.00000000000E+00  0.00000000000E+00  0.45593999997E+02  0.45594000000E+02  0.51100000000E-03 0.  1.
         11   -1    0    0    0    0 -0.00000000000E+00 -0.00000000000E+00 -0.45593999997E+02  0.45594000000E+02  0.51100000000E-03 0. -1.
    9900012    2    1    2    0    0  0.17676721444E+02 -0.35588826181E+02  0.86101558821E+01  0.50528858171E+02  0.29999994896E+02 0.  0.
         12    1    1    2    0    0 -0.17676721444E+02  0.35588826181E+02 -0.86101558821E+01  0.40659141829E+02  0.00000000000E+00 0. -1.
         11    1    3    3    0    0  0.61775007541E+00  0.14044026126E+01  0.45012429430E+01  0.47555388913E+01  0.51100000000E-03 0. -1.
        -11    1    3    3    0    0  0.12916579217E+02 -0.13749048240E+02 -0.64124619417E+01  0.19924708645E+02  0.51100000000E-03 0.  1.
        -12    1    3    3    0    0  0.41423921521E+01 -0.23244180554E+02  0.10521374881E+02  0.25848610635E+02  0.00000000000E+00 0.  1.
</event>
<event>
 7    1  0.5902966E-013  0.5052886E+02  0.7816164E-02  0.1300439E+00
        -11   -1    0    0    0    0  0.00000000000E+00  0.00000000000E+00  0.45593999997E+02  0.45594000000E+02  0.51100000000E-03 0. -1.
         11   -1    0    0    0    0 -0.00000000000E+00 -0.00000000000E+00 -0.45593999997E+02  0.45594000000E+02  0.51100000000E-03 0.  1.
    9900012    2    1    2    0    0  0.25945150869E+02 -0.26466182222E+02 -0.16719933271E+02  0.50528858057E+02  0.29999994549E+02 0.  0.
         12    1    1    2    0    0 -0.25945150869E+02  0.26466182222E+02  0.16719933271E+02  0.40659141943E+02  0.00000000000E+00 0. -1.
         11    1    3    3    0    0 -0.30767764583E+01  0.88808670770E+00 -0.70208285100E+01  0.77166887071E+01  0.51100000000E-03 0. -1.
        -11    1    3    3    0    0  0.75634227924E+01 -0.22053752160E+01 -0.52194599273E+01  0.94504923879E+01  0.51100000000E-03 0.  1.
        -12    1    3    3    0    0  0.21458504534E+02 -0.25148893713E+02 -0.44796448336E+01  0.33361676962E+02  0.00000000000E+00 0.  1.
</event>
<event>
 7    1  0.5902966E-013  0.5052885E+02  0.7816164E-02  0.1300439E+00
        -11   -1    0    0    0    0  0.00000000000E+00  0.00000000000E+00  0.45593999997E+02  0.45594000000E+02  0.51100000000E-03 0.  1.
         11   -1    0    0    0    0 -0.00000000000E+00 -0.00000000000E+00 -0.45593999997E+02  0.45594000000E+02  0.51100000000E-03 0. -1.
    9900012    2    1    2    0    0  0.22365250742E+02 -0.27182900751E+02  0.20348263469E+02  0.50528851457E+02  0.29999974490E+02 0.  0.
         12    1    1    2    0    0 -0.22365250742E+02  0.27182900751E+02 -0.20348263469E+02  0.40659148543E+02  0.00000000000E+00 0. -1.
         11    1    3    3    0    0  0.10029384274E+02 -0.86736868893E+01  0.34879651880E+01  0.13710845874E+02  0.51100000000E-03 0.  1.
        -11    1    3    3    0    0  0.36551423778E+01 -0.22262471153E+02  0.82302203491E+01  0.24014874867E+02  0.51100000000E-03 0. -1.
         12    1    3    3    0    0  0.86807240901E+01  0.37532572910E+01  0.86300779321E+01  0.12803130716E+02  0.00000000000E+00 0. -1.
</event>
<event>
 7    1  0.5902966E-013  0.5052886E+02  0.7816164E-02  0.1300439E+00
        -11   -1    0    0    0    0  0.00000000000E+00  0.00000000000E+00  0.45593999997E+02  0.45594000000E+02  0.51100000000E-03 0. -1.
         11   -1    0    0    0    0 -0.00000000000E+00 -0.00000000000E+00 -0.45593999997E+02  0.45594000000E+02  0.51100000000E-03 0.  1.
    9900012    2    1    2    0    0 -0.25015722733E+02 -0.20001375594E+02 -0.25046435651E+02  0.50528863901E+02  0.30000012313E+02 0.  0.
         12    1    1    2    0    0  0.25015722733E+02  0.20001375594E+02  0.25046435651E+02  0.40659136099E+02  0.00000000000E+00 0. -1.
         11    1    3    3    0    0 -0.20636109714E+01 -0.36127720268E+01  0.13689323793E+01  0.43800214701E+01  0.51100000000E-03 0. -1.
        -11    1    3    3    0    0 -0.28285077751E+02 -0.11320376431E+02 -0.21826672404E+02  0.37477995870E+02  0.51100000000E-03 0.  1.
         12    1    3    3    0    0  0.53329659886E+01 -0.50682271358E+01 -0.45886956261E+01  0.86708465610E+01  0.00000000000E+00 0. -1.
</event>
<event>
 7    1  0.5902966E-013  0.5052886E+02  0.7816164E-02  0.1300439E+00
        -11   -1    0    0    0    0  0.00000000000E+00  0.00000000000E+00  0.45593999997E+02  0.45594000000E+02  0.51100000000E-03 0.  1.
         11   -1    0    0    0    0 -0.00000000000E+00 -0.00000000000E+00 -0.45593999997E+02  0.45594000000E+02  0.51100000000E-03 0. -1.
    9900012    2    1    2    0    0  0.39944619830E+02 -0.66410953366E+01  0.36726856255E+01  0.50528863016E+02  0.30000009622E+02 0.  0.
         12    1    1    2    0    0 -0.39944619830E+02  0.66410953366E+01 -0.36726856255E+01  0.40659136984E+02  0.00000000000E+00 0. -1.
         11    1    3    3    0    0  0.74321786806E+00  0.29439361477E+01  0.54279273822E+00  0.30844378837E+01  0.51100000000E-03 0. -1.
        -11    1    3    3    0    0  0.83438769446E+01 -0.10915440605E+02  0.84118841697E+01  0.16109839280E+02  0.51100000000E-03 0.  1.
        -12    1    3    3    0    0  0.30857525017E+02  0.13304091209E+01 -0.52819912824E+01  0.31334585852E+02  0.00000000000E+00 0.  1.
</event>
<event>
 7    1  0.5902966E-013  0.5052886E+02  0.7816164E-02  0.1300439E+00
        -11   -1    0    0    0    0  0.00000000000E+00  0.00000000000E+00  0.45593999997E+02  0.45594000000E+02  0.51100000000E-03 0.  1.
         11   -1    0    0    0    0 -0.00000000000E+00 -0.00000000000E+00 -0.45593999997E+02  0.45594000000E+02  0.51100000000E-03 0. -1.
    9900012    2    1    2    0    0 -0.11252012370E+02 -0.24542885976E+02 -0.30400733434E+02  0.50528860465E+02  0.30000001868E+02 0.  0.
         12    1    1    2    0    0  0.11252012370E+02  0.24542885976E+02  0.30400733434E+02  0.40659139535E+02  0.00000000000E+00 0. -1.
         11    1    3    3    0    0  0.28217554529E+01  0.13777803122E+01 -0.72496312366E+01  0.79004895894E+01  0.51100000000E-03 0. -1.
        -11    1    3    3    0    0  0.12527981843E+01 -0.18744797974E+02 -0.10718995937E+02  0.21629466672E+02  0.51100000000E-03 0.  1.
         12    1    3    3    0    0 -0.15326566007E+02 -0.71758683148E+01 -0.12432106261E+02  0.20998904203E+02  0.00000000000E+00 0. -1.
</event>
<event>
 7    1  0.5902966E-013  0.5052885E+02  0.7816164E-02  0.1300439E+00
        -11   -1    0    0    0    0  0.00000000000E+00  0.00000000000E+00  0.45593999997E+02  0.45594000000E+02  0.51100000000E-03 0.  1.
         11   -1    0    0    0    0 -0.00000000000E+00 -0.00000000000E+00 -0.45593999997E+02  0.45594000000E+02  0.51100000000E-03 0. -1.
    9900012    2    1    2    0    0  0.17719885265E+02 -0.70686083576E+01  0.35905533000E+02  0.50528845337E+02  0.29999955886E+02 0.  0.
         12    1    1    2    0    0 -0.17719885265E+02  0.70686083576E+01 -0.35905533000E+02  0.40659154663E+02  0.00000000000E+00 0. -1.
         11    1    3    3    0    0  0.13134580998E+02 -0.31065392508E+01  0.89840486512E+01  0.16213603379E+02  0.51100000000E-03 0. -1.
        -11    1    3    3    0    0  0.88254450695E+01 -0.10332791027E+02  0.18178334934E+02  0.22695966873E+02  0.51100000000E-03 0.  1.
         12    1    3    3    0    0 -0.42401408020E+01  0.63707219200E+01  0.87431494148E+01  0.11619275085E+02  0.00000000000E+00 0. -1.
</event>
<event>
 7    1  0.5902966E-013  0.5052886E+02  0.7816164E-02  0.1300439E+00
        -11   -1    0    0    0    0  0.00000000000E+00  0.00000000000E+00  0.45593999997E+02  0.45594000000E+02  0.51100000000E-03 0.  1.
         11   -1    0    0    0    0 -0.00000000000E+00 -0.00000000000E+00 -0.45593999997E+02  0.45594000000E+02  0.51100000000E-03 0. -1.
    9900012    2    1    2    0    0  0.39212845745E+02 -0.10721113223E+02 -0.75881955414E+00  0.50528863914E+02  0.30000012353E+02 0.  0.
         12    1    1    2    0    0 -0.39212845745E+02  0.10721113223E+02  0.75881955414E+00  0.40659136086E+02  0.00000000000E+00 0. -1.
         11    1    3    3    0    0  0.13463925967E+02 -0.10246862044E+01  0.87476091139E+01  0.16088752274E+02  0.51100000000E-03 0. -1.
        -11    1    3    3    0    0  0.28167147409E+02 -0.67281535047E+01 -0.67877655756E+01  0.29744411315E+02  0.51100000000E-03 0.  1.
         12    1    3    3    0    0 -0.24182276309E+01 -0.29682735136E+01 -0.27186630924E+01  0.46957003244E+01  0.00000000000E+00 0. -1.
</event>
<event>
 7    1  0.5902966E-013  0.5052886E+02  0.7816164E-02  0.1300439E+00
        -11   -1    0    0    0    0  0.00000000000E+00  0.00000000000E+00  0.45593999997E+02  0.45594000000E+02  0.51100000000E-03 0. -1.
         11   -1    0    0    0    0 -0.00000000000E+00 -0.00000000000E+00 -0.45593999997E+02  0.45594000000E+02  0.51100000000E-03 0.  1.
    9900012    2    1    2    0    0 -0.27453522423E+02  0.29977980658E+02  0.88898110471E+00  0.50528861972E+02  0.30000006450E+02 0.  0.
         12    1    1    2    0    0  0.27453522423E+02 -0.29977980658E+02 -0.88898110471E+00  0.40659138028E+02  0.00000000000E+00 0. -1.
         11    1    3    3    0    0  0.15859049936E+01  0.86524109306E+01 -0.71793890192E+01  0.11354423654E+02  0.51100000000E-03 0. -1.
        -11    1    3    3    0    0 -0.94822491845E+00  0.64826163237E+01  0.17413491734E+01  0.67790664624E+01  0.51100000000E-03 0.  1.
        -12    1    3    3    0    0 -0.28091202498E+02  0.14842953404E+02  0.63270209505E+01  0.32395371856E+02  0.00000000000E+00 0.  1.
</event>
<event>
 7    1  0.5902966E-013  0.5052886E+02  0.7816164E-02  0.1300439E+00
        -11   -1    0    0    0    0  0.00000000000E+00  0.00000000000E+00  0.45593999997E+02  0.45594000000E+02  0.51100000000E-03 0.  1.
         11   -1    0    0    0    0 -0.00000000000E+00 -0.00000000000E+00 -0.45593999997E+02  0.45594000000E+02  0.51100000000E-03 0. -1.
    9900012    2    1    2    0    0  0.29965959407E+02  0.17269884310E+02  0.21376578612E+02  0.50528859079E+02  0.29999997658E+02 0.  0.
         12    1    1    2    0    0 -0.29965959407E+02 -0.17269884310E+02 -0.21376578612E+02  0.40659140921E+02  0.00000000000E+00 0. -1.
         11    1    3    3    0    0  0.69474666305E+00 -0.73966584169E+00 -0.22631125473E+01  0.24802131251E+01  0.51100000000E-03 0. -1.
        -11    1    3    3    0    0  0.94329738518E+00  0.12141560023E+02  0.11245404456E+02  0.16576079494E+02  0.51100000000E-03 0.  1.
        -12    1    3    3    0    0  0.28327915359E+02  0.58679901282E+01  0.12394286703E+02  0.31472566460E+02  0.00000000000E+00 0.  1.
</event>
<event>
 7    1  0.5902966E-013  0.5052886E+02  0.7816164E-02  0.1300439E+00
        -11   -1    0    0    0    0  0.00000000000E+00  0.00000000000E+00  0.45593999997E+02  0.45594000000E+02  0.51100000000E-03 0. -1.
         11   -1    0    0    0    0 -0.00000000000E+00 -0.00000000000E+00 -0.45593999997E+02  0.45594000000E+02  0.51100000000E-03 0.  1.
    9900012    2    1    2    0    0  0.10696448425E+02 -0.39466602194E+01 -0.39027884135E+02  0.50528857413E+02  0.29999992593E+02 0.  0.
         12    1    1    2    0    0 -0.10696448425E+02  0.39466602194E+01  0.39027884135E+02  0.40659142587E+02  0.00000000000E+00 0. -1.
         11    1    3    3    0    0  0.16426490122E+02  0.19831079460E+01 -0.18100409036E+02  0.24523195191E+02  0.51100000000E-03 0.  1.
        -11    1    3    3    0    0  0.96308918548E+00 -0.35836494444E+01  0.20331256525E+00  0.37163719378E+01  0.51100000000E-03 0. -1.
        -12    1    3    3    0    0 -0.66931308820E+01 -0.23461187210E+01 -0.21130787664E+02  0.22289290284E+02  0.00000000000E+00 0.  1.
</event>
<event>
 7    1  0.5902966E-013  0.5052886E+02  0.7816164E-02  0.1300439E+00
        -11   -1    0    0    0    0  0.00000000000E+00  0.00000000000E+00  0.45593999997E+02  0.45594000000E+02  0.51100000000E-03 0. -1.
         11   -1    0    0    0    0 -0.00000000000E+00 -0.00000000000E+00 -0.45593999997E+02  0.45594000000E+02  0.51100000000E-03 0.  1.
    9900012    2    1    2    0    0  0.14592077632E+02  0.37523133607E+02  0.56790066317E+01  0.50528863246E+02  0.30000010321E+02 0.  0.
         12    1    1    2    0    0 -0.14592077632E+02 -0.37523133607E+02 -0.56790066317E+01  0.40659136754E+02  0.00000000000E+00 0. -1.
         11    1    3    3    0    0  0.89004247882E+00  0.11738714246E+02 -0.66919791247E+01  0.13541498168E+02  0.51100000000E-03 0. -1.
        -11    1    3    3    0    0  0.28774038993E+01  0.23640710462E+02  0.81042965533E+01  0.25156356398E+02  0.51100000000E-03 0.  1.
         12    1    3    3    0    0  0.10824631253E+02  0.21437088987E+01  0.42666892031E+01  0.11831008679E+02  0.00000000000E+00 0. -1.
</event>
<event>
 7    1  0.5902966E-013  0.5052885E+02  0.7816164E-02  0.1300439E+00
        -11   -1    0    0    0    0  0.00000000000E+00  0.00000000000E+00  0.45593999997E+02  0.45594000000E+02  0.51100000000E-03 0.  1.
         11   -1    0    0    0    0 -0.00000000000E+00 -0.00000000000E+00 -0.45593999997E+02  0.45594000000E+02  0.51100000000E-03 0. -1.
    9900012    2    1    2    0    0  0.31247891880E+02 -0.19018075543E+02  0.17749598019E+02  0.50528853746E+02  0.29999981446E+02 0.  0.
         12    1    1    2    0    0 -0.31247891880E+02  0.19018075543E+02 -0.17749598019E+02  0.40659146254E+02  0.00000000000E+00 0. -1.
         11    1    3    3    0    0  0.11965614857E+02 -0.46543921910E+01 -0.62724828014E+01  0.14289273821E+02  0.51100000000E-03 0. -1.
        -11    1    3    3    0    0  0.12497497622E+02 -0.59442389900E+01  0.57047348430E+01  0.14968815046E+02  0.51100000000E-03 0.  1.
         12    1    3    3    0    0  0.67847794004E+01 -0.84194443619E+01  0.18317345978E+02  0.21270764879E+02  0.00000000000E+00 0. -1.
</event>
<event>
 7    1  0.5902966E-013  0.5052886E+02  0.7816164E-02  0.1300439E+00
        -11   -1    0    0    0    0  0.00000000000E+00  0.00000000000E+00  0.45593999997E+02  0.45594000000E+02  0.51100000000E-03 0.  1.
         11   -1    0    0    0    0 -0.00000000000E+00 -0.00000000000E+00 -0.45593999997E+02  0.45594000000E+02  0.51100000000E-03 0. -1.
    9900012    2    1    2    0    0  0.36325827671E+02 -0.35437286203E+01  0.17917647455E+02  0.50528857623E+02  0.29999993230E+02 0.  0.
         12    1    1    2    0    0 -0.36325827671E+02  0.35437286203E+01 -0.17917647455E+02  0.40659142377E+02  0.00000000000E+00 0. -1.
         11    1    3    3    0    0  0.15365169714E+02 -0.99792600968E+00 -0.49606491787E+01  0.16176907529E+02  0.51100000000E-03 0. -1.
        -11    1    3    3    0    0  0.84586611262E+01  0.46716839274E+01  0.36985289597E+01  0.10346627252E+02  0.51100000000E-03 0.  1.
        -12    1    3    3    0    0  0.12501996831E+02 -0.72174865380E+01  0.19179767674E+02  0.24005322841E+02  0.00000000000E+00 0.  1.
</event>
<event>
 7    1  0.5902966E-013  0.5052881E+02  0.7816164E-02  0.1300439E+00
        -11   -1    0    0    0    0  0.00000000000E+00  0.00000000000E+00  0.45593999997E+02  0.45594000000E+02  0.51100000000E-03 0.  1.
         11   -1    0    0    0    0 -0.00000000000E+00 -0.00000000000E+00 -0.45593999997E+02  0.45594000000E+02  0.51100000000E-03 0. -1.
    9900012    2    1    2    0    0  0.15594148758E+02 -0.37409563912E+02  0.32429762019E+01  0.50528808638E+02  0.29999844337E+02 0.  0.
         12    1    1    2    0    0 -0.15594148758E+02  0.37409563912E+02 -0.32429762019E+01  0.40659191362E+02  0.00000000000E+00 0. -1.
         11    1    3    3    0    0  0.28830791422E+01 -0.15110989691E+01 -0.37766173514E+01  0.49858203251E+01  0.51100000000E-03 0. -1.
        -11    1    3    3    0    0  0.19685060318E+02 -0.24204677790E+02  0.29797365475E+01  0.31340817742E+02  0.51100000000E-03 0.  1.
        -12    1    3    3    0    0 -0.69739907023E+01 -0.11693787153E+02  0.40398570057E+01  0.14202170571E+02  0.00000000000E+00 0.  1.
</event>
<event>
 7    1  0.5902966E-013  0.5052886E+02  0.7816164E-02  0.1300439E+00
        -11   -1    0    0    0    0  0.00000000000E+00  0.00000000000E+00  0.45593999997E+02  0.45594000000E+02  0.51100000000E-03 0.  1.
         11   -1    0    0    0    0 -0.00000000000E+00 -0.00000000000E+00 -0.45593999997E+02  0.45594000000E+02  0.51100000000E-03 0. -1.
    9900012    2    1    2    0    0  0.21622878215E+02 -0.33351962588E+02 -0.85594109556E+01  0.50528858510E+02  0.29999995926E+02 0.  0.
         12    1    1    2    0    0 -0.21622878215E+02  0.33351962588E+02  0.85594109556E+01  0.40659141490E+02  0.00000000000E+00 0. -1.
         11    1    3    3    0    0 -0.63098406493E-01 -0.89849761569E+01  0.73614251908E+01  0.11615694514E+02  0.51100000000E-03 0. -1.
        -11    1    3    3    0    0  0.59810992922E+01 -0.17168420677E+02 -0.71238638102E+01  0.19526332301E+02  0.51100000000E-03 0.  1.
        -12    1    3    3    0    0  0.15704877330E+02 -0.71985657546E+01 -0.87969723362E+01  0.19386831694E+02  0.00000000000E+00 0.  1.
</event>
<event>
 7    1  0.5902966E-013  0.5052886E+02  0.7816164E-02  0.1300439E+00
        -11   -1    0    0    0    0  0.00000000000E+00  0.00000000000E+00  0.45593999997E+02  0.45594000000E+02  0.51100000000E-03 0.  1.
         11   -1    0    0    0    0 -0.00000000000E+00 -0.00000000000E+00 -0.45593999997E+02  0.45594000000E+02  0.51100000000E-03 0. -1.
    9900012    2    1    2    0    0  0.20435555056E+02 -0.46579486222E+01  0.34840455834E+02  0.50528858856E+02  0.29999996979E+02 0.  0.
         12    1    1    2    0    0 -0.20435555056E+02  0.46579486222E+01 -0.34840455834E+02  0.40659141144E+02  0.00000000000E+00 0. -1.
         11    1    3    3    0    0  0.19836724616E+01  0.24293017107E+01 -0.35129852036E+01  0.47093023409E+01  0.51100000000E-03 0. -1.
        -11    1    3    3    0    0  0.24616176198E+01 -0.78947692089E+01  0.18863601737E+02  0.20596660237E+02  0.51100000000E-03 0.  1.
         12    1    3    3    0    0  0.15990264975E+02  0.80751887596E+00  0.19489839301E+02  0.25222896278E+02  0.00000000000E+00 0. -1.
</event>
<event>
 7    1  0.5902966E-013  0.5052881E+02  0.7816164E-02  0.1300439E+00
        -11   -1    0    0    0    0  0.00000000000E+00  0.00000000000E+00  0.45593999997E+02  0.45594000000E+02  0.51100000000E-03 0. -1.
         11   -1    0    0    0    0 -0.00000000000E+00 -0.00000000000E+00 -0.45593999997E+02  0.45594000000E+02  0.51100000000E-03 0.  1.
    9900012    2    1    2    0    0  0.37727148654E+01  0.22228487800E+02  0.33835348123E+02  0.50528808789E+02  0.29999844795E+02 0.  0.
         12    1    1    2    0    0 -0.37727148654E+01 -0.22228487800E+02 -0.33835348123E+02  0.40659191211E+02  0.00000000000E+00 0. -1.
         11    1    3    3    0    0  0.13859348095E+01 -0.32187781646E+01  0.10062246290E+02  0.10655052737E+02  0.51100000000E-03 0. -1.
        -11    1    3    3    0    0  0.15534137954E+01  0.21727441083E+01 -0.32453477121E+01  0.42031171067E+01  0.51100000000E-03 0.  1.
         12    1    3    3    0    0  0.83336626048E+00  0.23274521857E+02  0.27018449545E+02  0.35670638945E+02  0.00000000000E+00 0. -1.
</event>
<event>
 7    1  0.5902966E-013  0.5052886E+02  0.7816164E-02  0.1300439E+00
        -11   -1    0    0    0    0  0.00000000000E+00  0.00000000000E+00  0.45593999997E+02  0.45594000000E+02  0.51100000000E-03 0. -1.
         11   -1    0    0    0    0 -0.00000000000E+00 -0.00000000000E+00 -0.45593999997E+02  0.45594000000E+02  0.51100000000E-03 0.  1.
    9900012    2    1    2    0    0  0.30202763324E+01  0.10892848076E+02 -0.39056237667E+02  0.50528857006E+02  0.29999991355E+02 0.  0.
         12    1    1    2    0    0 -0.30202763324E+01 -0.10892848076E+02  0.39056237667E+02  0.40659142994E+02  0.00000000000E+00 0. -1.
         11    1    3    3    0    0 -0.47787697364E+01  0.44828778591E+01 -0.33184918090E+01  0.73447411282E+01  0.51100000000E-03 0. -1.
        -11    1    3    3    0    0 -0.62191893214E+01  0.39231090237E+01 -0.39346137446E+01  0.83396813972E+01  0.51100000000E-03 0.  1.
        -12    1    3    3    0    0  0.14018235390E+02  0.24868611934E+01 -0.31803132113E+02  0.34844434480E+02  0.00000000000E+00 0.  1.
</event>
<event>
 7    1  0.5902966E-013  0.5052885E+02  0.7816164E-02  0.1300439E+00
        -11   -1    0    0    0    0  0.00000000000E+00  0.00000000000E+00  0.45593999997E+02  0.45594000000E+02  0.51100000000E-03 0.  1.
         11   -1    0    0    0    0 -0.00000000000E+00 -0.00000000000E+00 -0.45593999997E+02  0.45594000000E+02  0.51100000000E-03 0. -1.
    9900012    2    1    2    0    0 -0.34898180993E+02  0.18548200130E+02  0.95523724992E+01  0.50528848693E+02  0.29999966087E+02 0.  0.
         12    1    1    2    0    0  0.34898180993E+02 -0.18548200130E+02 -0.95523724992E+01  0.40659151307E+02  0.00000000000E+00 0. -1.
         11    1    3    3    0    0 -0.19285807823E+02  0.34909944033E+01  0.13830276692E+02  0.23987621370E+02  0.51100000000E-03 0. -1.
        -11    1    3    3    0    0 -0.45031181486E+01 -0.26902788409E+01 -0.55118015436E+00  0.52744168517E+01  0.51100000000E-03 0.  1.
         12    1    3    3    0    0 -0.11109255021E+02  0.17747484567E+02 -0.37267240389E+01  0.21266810472E+02  0.00000000000E+00 0. -1.
</event>
<event>
 7    1  0.5902966E-013  0.5052886E+02  0.7816164E-02  0.1300439E+00
        -11   -1    0    0    0    0  0.00000000000E+00  0.00000000000E+00  0.45593999997E+02  0.45594000000E+02  0.51100000000E-03 0.  1.
         11   -1    0    0    0    0 -0.00000000000E+00 -0.00000000000E+00 -0.45593999997E+02  0.45594000000E+02  0.51100000000E-03 0. -1.
    9900012    2    1    2    0    0 -0.28083249953E+02  0.20223445964E+02  0.21342665607E+02  0.50528855028E+02  0.29999985344E+02 0.  0.
         12    1    1    2    0    0  0.28083249953E+02 -0.20223445964E+02 -0.21342665607E+02  0.40659144972E+02  0.00000000000E+00 0. -1.
         11    1    3    3    0    0  0.58730811232E+00 -0.42049853032E+00  0.39309223098E+01  0.39967362059E+01  0.51100000000E-03 0. -1.
        -11    1    3    3    0    0 -0.77918360877E+01  0.39380409847E+01 -0.63217873414E+01  0.10778955045E+02  0.51100000000E-03 0.  1.
         12    1    3    3    0    0 -0.20878721978E+02  0.16705903510E+02  0.23733530639E+02  0.35753163777E+02  0.00000000000E+00 0. -1.
</event>
<event>
 7    1  0.5902966E-013  0.5052886E+02  0.7816164E-02  0.1300439E+00
        -11   -1    0    0    0    0  0.00000000000E+00  0.00000000000E+00  0.45593999997E+02  0.45594000000E+02  0.51100000000E-03 0.  1.
         11   -1    0    0    0    0 -0.00000000000E+00 -0.00000000000E+00 -0.45593999997E+02  0.45594000000E+02  0.51100000000E-03 0. -1.
    9900012    2    1    2    0    0 -0.39276651018E+02 -0.37167414216E+01  0.98334155683E+01  0.50528861498E+02  0.30000005008E+02 0.  0.
         12    1    1    2    0    0  0.39276651018E+02  0.37167414216E+01 -0.98334155683E+01  0.40659138502E+02  0.00000000000E+00 0. -1.
         11    1    3    3    0    0  0.23305540986E+01  0.33554478436E+00  0.34739093881E+01  0.41966795692E+01  0.51100000000E-03 0. -1.
        -11    1    3    3    0    0 -0.43256737118E+01 -0.33441969391E+01 -0.49407348350E+01  0.73692582530E+01  0.51100000000E-03 0.  1.
        -12    1    3    3    0    0 -0.37281531405E+02 -0.70808926680E+00  0.11300241015E+02  0.38962923675E+02  0.00000000000E+00 0.  1.
</event>
<event>
 7    1  0.5902966E-013  0.5052887E+02  0.7816164E-02  0.1300439E+00
        -11   -1    0    0    0    0  0.00000000000E+00  0.00000000000E+00  0.45593999997E+02  0.45594000000E+02  0.51100000000E-03 0.  1.
         11   -1    0    0    0    0 -0.00000000000E+00 -0.00000000000E+00 -0.45593999997E+02  0.45594000000E+02  0.51100000000E-03 0. -1.
    9900012    2    1    2    0    0 -0.18631912645E+02  0.13834298611E+02  0.33386057137E+02  0.50528870668E+02  0.30000032881E+02 0.  0.
         12    1    1    2    0    0  0.18631912645E+02 -0.13834298611E+02 -0.33386057137E+02  0.40659129332E+02  0.00000000000E+00 0. -1.
         11    1    3    3    0    0 -0.42338865482E+01  0.42281336324E+01 -0.46303999963E+01  0.75659443365E+01  0.51100000000E-03 0. -1.
        -11    1    3    3    0    0 -0.83428408998E+01  0.20158202644E+01  0.93281108240E+01  0.12675968500E+02  0.51100000000E-03 0.  1.
        -12    1    3    3    0    0 -0.60551851972E+01  0.75903447143E+01  0.28688346310E+02  0.30286957831E+02  0.00000000000E+00 0.  1.
</event>
<event>
 7    1  0.9584484E-013  0.5052886E+02  0.7816164E-02  0.1300439E+00
        -11   -1    0    0    0    0  0.00000000000E+00  0.00000000000E+00  0.45593999997E+02  0.45594000000E+02  0.51100000000E-03 0. -1.
         11   -1    0    0    0    0 -0.00000000000E+00 -0.00000000000E+00 -0.45593999997E+02  0.45594000000E+02  0.51100000000E-03 0.  1.
    9900012    2    1    2    0    0  0.11072898167E+02 -0.13687762641E+02 -0.36649712995E+02  0.50528863480E+02  0.30000011033E+02 0.  0.
         12    1    1    2    0    0 -0.11072898167E+02  0.13687762641E+02  0.36649712995E+02  0.40659136520E+02  0.00000000000E+00 0. -1.
         11    1    3    3    0    0  0.58173631735E+01 -0.97474420835E+01 -0.15062998643E+02  0.18861290249E+02  0.51100000000E-03 0. -1.
        -11    1    3    3    0    0  0.34829854222E+01 -0.25995068923E+01 -0.26194063436E+02  0.26552167202E+02  0.51100000000E-03 0.  1.
         12    1    3    3    0    0  0.17725495713E+01 -0.13408136651E+01  0.46073490840E+01  0.51154060297E+01  0.00000000000E+00 0. -1.
</event>
<event>
 7    1  0.5902966E-013  0.5052883E+02  0.7816164E-02  0.1300439E+00
        -11   -1    0    0    0    0  0.00000000000E+00  0.00000000000E+00  0.45593999997E+02  0.45594000000E+02  0.51100000000E-03 0. -1.
         11   -1    0    0    0    0 -0.00000000000E+00 -0.00000000000E+00 -0.45593999997E+02  0.45594000000E+02  0.51100000000E-03 0.  1.
    9900012    2    1    2    0    0 -0.27526333970E+02  0.34903039923E+01  0.29720139134E+02  0.50528831859E+02  0.29999914918E+02 0.  0.
         12    1    1    2    0    0  0.27526333970E+02 -0.34903039923E+01 -0.29720139134E+02  0.40659168141E+02  0.00000000000E+00 0. -1.
         11    1    3    3    0    0 -0.92705406962E+01 -0.20500103057E+01  0.21012230066E+02  0.23057737956E+02  0.51100000000E-03 0. -1.
        -11    1    3    3    0    0 -0.81093920732E+01 -0.62925745652E+01  0.17978144700E+01  0.10420694391E+02  0.51100000000E-03 0.  1.
         12    1    3    3    0    0 -0.10146401201E+02  0.11832888863E+02  0.69100945979E+01  0.17050399512E+02  0.00000000000E+00 0. -1.
</event>
<event>
 7    1  0.5902966E-013  0.5052884E+02  0.7816164E-02  0.1300439E+00
        -11   -1    0    0    0    0  0.00000000000E+00  0.00000000000E+00  0.45593999997E+02  0.45594000000E+02  0.51100000000E-03 0.  1.
         11   -1    0    0    0    0 -0.00000000000E+00 -0.00000000000E+00 -0.45593999997E+02  0.45594000000E+02  0.51100000000E-03 0. -1.
    9900012    2    1    2    0    0 -0.20775871656E+02  0.31703563249E+02  0.14711033413E+02  0.50528840271E+02  0.29999940489E+02 0.  0.
         12    1    1    2    0    0  0.20775871656E+02 -0.31703563249E+02 -0.14711033413E+02  0.40659159729E+02  0.00000000000E+00 0. -1.
         11    1    3    3    0    0  0.46251398339E+01  0.63703189719E+00 -0.11880531370E+01  0.48175926186E+01  0.51100000000E-03 0. -1.
        -11    1    3    3    0    0 -0.56389527598E+01  0.11338615633E+02 -0.15899947608E+01  0.12762839665E+02  0.51100000000E-03 0.  1.
        -12    1    3    3    0    0 -0.19762058730E+02  0.19727915719E+02  0.17489081311E+02  0.32948407988E+02  0.00000000000E+00 0.  1.
</event>
<event>
 7    1  0.5902966E-013  0.5052886E+02  0.7816164E-02  0.1300439E+00
        -11   -1    0    0    0    0  0.00000000000E+00  0.00000000000E+00  0.45593999997E+02  0.45594000000E+02  0.51100000000E-03 0. -1.
         11   -1    0    0    0    0 -0.00000000000E+00 -0.00000000000E+00 -0.45593999997E+02  0.45594000000E+02  0.51100000000E-03 0.  1.
    9900012    2    1    2    0    0  0.24268437137E+02 -0.14835342316E+02 -0.29053765122E+02  0.50528859693E+02  0.29999999524E+02 0.  0.
         12    1    1    2    0    0 -0.24268437137E+02  0.14835342316E+02  0.29053765122E+02  0.40659140307E+02  0.00000000000E+00 0. -1.
         11    1    3    3    0    0 -0.42755307189E+01  0.23108662418E+01 -0.45394926745E+01  0.66503578640E+01  0.51100000000E-03 0. -1.
        -11    1    3    3    0    0  0.11792704091E+02 -0.54282483071E+01 -0.14568114289E+01  0.13063538925E+02  0.51100000000E-03 0.  1.
        -12    1    3    3    0    0  0.16751263765E+02 -0.11717960251E+02 -0.23057461018E+02  0.30814962904E+02  0.00000000000E+00 0.  1.
</event>
<event>
 7    1  0.5902966E-013  0.5052886E+02  0.7816164E-02  0.1300439E+00
        -11   -1    0    0    0    0  0.00000000000E+00  0.00000000000E+00  0.45593999997E+02  0.45594000000E+02  0.51100000000E-03 0.  1.
         11   -1    0    0    0    0 -0.00000000000E+00 -0.00000000000E+00 -0.45593999997E+02  0.45594000000E+02  0.51100000000E-03 0. -1.
    9900012    2    1    2    0    0  0.26456067604E+01  0.39560675529E+02  0.90066479277E+01  0.50528856006E+02  0.29999988316E+02 0.  0.
         12    1    1    2    0    0 -0.26456067604E+01 -0.39560675529E+02 -0.90066479277E+01  0.40659143994E+02  0.00000000000E+00 0. -1.
         11    1    3    3    0    0  0.18923037800E+01  0.13549448953E+02 -0.51500207187E+01  0.14618176842E+02  0.51100000000E-03 0. -1.
        -11    1    3    3    0    0  0.23946498472E+01  0.15829306690E+02 -0.26151606240E+01  0.16221601756E+02  0.51100000000E-03 0.  1.
         12    1    3    3    0    0 -0.16413468668E+01  0.10181919886E+02  0.16771829270E+02  0.19689077408E+02  0.00000000000E+00 0. -1.
</event>
<event>
 7    1  0.5902966E-013  0.5052884E+02  0.7816164E-02  0.1300439E+00
        -11   -1    0    0    0    0  0.00000000000E+00  0.00000000000E+00  0.45593999997E+02  0.45594000000E+02  0.51100000000E-03 0.  1.
         11   -1    0    0    0    0 -0.00000000000E+00 -0.00000000000E+00 -0.45593999997E+02  0.45594000000E+02  0.51100000000E-03 0. -1.
    9900012    2    1    2    0    0 -0.21675300203E+02 -0.11612937650E+02  0.32380368636E+02  0.50528840727E+02  0.29999941875E+02 0.  0.
         12    1    1    2    0    0  0.21675300203E+02  0.11612937650E+02 -0.32380368636E+02  0.40659159273E+02  0.00000000000E+00 0. -1.
         11    1    3    3    0    0  0.42598762416E+01 -0.51807721350E+01  0.10224084244E+02  0.12227789841E+02  0.51100000000E-03 0. -1.
        -11    1    3    3    0    0 -0.24733087474E+01  0.36031098778E+01  0.80090125548E+01  0.91238116659E+01  0.51100000000E-03 0.  1.
        -12    1    3    3    0    0 -0.23461867698E+02 -0.10035275393E+02  0.14147271836E+02  0.29177239220E+02  0.00000000000E+00 0.  1.
</event>
<event>
 7    1  0.5902966E-013  0.5052886E+02  0.7816164E-02  0.1300439E+00
        -11   -1    0    0    0    0  0.00000000000E+00  0.00000000000E+00  0.45593999997E+02  0.45594000000E+02  0.51100000000E-03 0.  1.
         11   -1    0    0    0    0 -0.00000000000E+00 -0.00000000000E+00 -0.45593999997E+02  0.45594000000E+02  0.51100000000E-03 0. -1.
    9900012    2    1    2    0    0  0.13048119667E+02 -0.25887435686E+02  0.28508816679E+02  0.50528863491E+02  0.30000011066E+02 0.  0.
         12    1    1    2    0    0 -0.13048119667E+02  0.25887435686E+02 -0.28508816679E+02  0.40659136509E+02  0.00000000000E+00 0. -1.
         11    1    3    3    0    0  0.33562617814E+01 -0.67708057605E+01  0.17898612861E+02  0.19428552350E+02  0.51100000000E-03 0.  1.
        -11    1    3    3    0    0 -0.24929229533E+01 -0.14839285674E+02  0.11479043832E+01  0.15090949238E+02  0.51100000000E-03 0. -1.
        -12    1    3    3    0    0  0.12184780839E+02 -0.42773442508E+01  0.94622994348E+01  0.16009361903E+02  0.00000000000E+00 0.  1.
</event>
<event>
 7    1  0.5902966E-013  0.5052886E+02  0.7816164E-02  0.1300439E+00
        -11   -1    0    0    0    0  0.00000000000E+00  0.00000000000E+00  0.45593999997E+02  0.45594000000E+02  0.51100000000E-03 0.  1.
         11   -1    0    0    0    0 -0.00000000000E+00 -0.00000000000E+00 -0.45593999997E+02  0.45594000000E+02  0.51100000000E-03 0. -1.
    9900012    2    1    2    0    0  0.35130320346E+02 -0.20329981289E+02 -0.23913030825E+01  0.50528857396E+02  0.29999992542E+02 0.  0.
         12    1    1    2    0    0 -0.35130320346E+02  0.20329981289E+02  0.23913030825E+01  0.40659142604E+02  0.00000000000E+00 0. -1.
         11    1    3    3    0    0  0.12089053463E+02 -0.37296609821E+01  0.83638698535E+01  0.15166077405E+02  0.51100000000E-03 0.  1.
        -11    1    3    3    0    0 -0.28122032166E+01 -0.58058671156E-01 -0.19812671192E+01  0.34405344642E+01  0.51100000000E-03 0. -1.
        -12    1    3    3    0    0  0.25853470100E+02 -0.16542261635E+02 -0.87739058168E+01  0.31922245527E+02  0.00000000000E+00 0.  1.
</event>
<event>
 7    1  0.5902966E-013  0.5052885E+02  0.7816164E-02  0.1300439E+00
        -11   -1    0    0    0    0  0.00000000000E+00  0.00000000000E+00  0.45593999997E+02  0.45594000000E+02  0.51100000000E-03 0. -1.
         11   -1    0    0    0    0 -0.00000000000E+00 -0.00000000000E+00 -0.45593999997E+02  0.45594000000E+02  0.51100000000E-03 0.  1.
    9900012    2    1    2    0    0 -0.29165318119E+02  0.27546677640E+02  0.66129819991E+01  0.50528846530E+02  0.29999959514E+02 0.  0.
         12    1    1    2    0    0  0.29165318119E+02 -0.27546677640E+02 -0.66129819991E+01  0.40659153470E+02  0.00000000000E+00 0. -1.
         11    1    3    3    0    0  0.28156888793E+01  0.75232435236E+00 -0.95901890138E+00  0.30681938189E+01  0.51100000000E-03 0. -1.
        -11    1    3    3    0    0 -0.23539078632E+02  0.13006790318E+02 -0.45216707883E+01  0.27271052862E+02  0.51100000000E-03 0.  1.
         12    1    3    3    0    0 -0.84419283663E+01  0.13787562969E+02  0.12093671689E+02  0.20189599850E+02  0.00000000000E+00 0. -1.
</event>
<event>
 7    1  0.5902966E-013  0.5052885E+02  0.7816164E-02  0.1300439E+00
        -11   -1    0    0    0    0  0.00000000000E+00  0.00000000000E+00  0.45593999997E+02  0.45594000000E+02  0.51100000000E-03 0.  1.
         11   -1    0    0    0    0 -0.00000000000E+00 -0.00000000000E+00 -0.45593999997E+02  0.45594000000E+02  0.51100000000E-03 0. -1.
    9900012    2    1    2    0    0  0.83151353240E+01  0.33499496268E+02  0.21489732919E+02  0.50528851624E+02  0.29999974997E+02 0.  0.
         12    1    1    2    0    0 -0.83151353240E+01 -0.33499496268E+02 -0.21489732919E+02  0.40659148376E+02  0.00000000000E+00 0. -1.
         11    1    3    3    0    0  0.48507409290E+01  0.95935423298E+01 -0.36561265418E+01  0.11354866954E+02  0.51100000000E-03 0. -1.
        -11    1    3    3    0    0  0.29891742544E+00 -0.25116393489E+01  0.56463923013E+01  0.61870372657E+01  0.51100000000E-03 0.  1.
         12    1    3    3    0    0  0.31654769696E+01  0.26417593287E+02  0.19499467160E+02  0.32986947405E+02  0.00000000000E+00 0. -1.
</event>
<event>
 7    1  0.5902966E-013  0.5052888E+02  0.7816164E-02  0.1300439E+00
        -11   -1    0    0    0    0  0.00000000000E+00  0.00000000000E+00  0.45593999997E+02  0.45594000000E+02  0.51100000000E-03 0.  1.
         11   -1    0    0    0    0 -0.00000000000E+00 -0.00000000000E+00 -0.45593999997E+02  0.45594000000E+02  0.51100000000E-03 0. -1.
    9900012    2    1    2    0    0 -0.31232209108E+01 -0.78155088948E+01  0.39778479351E+02  0.50528879158E+02  0.30000058690E+02 0.  0.
         12    1    1    2    0    0  0.31232209108E+01  0.78155088948E+01 -0.39778479351E+02  0.40659120842E+02  0.00000000000E+00 0. -1.
         11    1    3    3    0    0 -0.41371339994E+00  0.62691128269E+01  0.88958954172E+01  0.10890816771E+02  0.51100000000E-03 0. -1.
        -11    1    3    3    0    0  0.88088485022E+01 -0.65052970572E+01  0.11839451598E+02  0.16127222828E+02  0.51100000000E-03 0.  1.
         12    1    3    3    0    0 -0.11518356013E+02 -0.75793246645E+01  0.19043132335E+02  0.23510839559E+02  0.00000000000E+00 0. -1.
</event>
<event>
 7    1  0.5902966E-013  0.5052886E+02  0.7816164E-02  0.1300439E+00
        -11   -1    0    0    0    0  0.00000000000E+00  0.00000000000E+00  0.45593999997E+02  0.45594000000E+02  0.51100000000E-03 0. -1.
         11   -1    0    0    0    0 -0.00000000000E+00 -0.00000000000E+00 -0.45593999997E+02  0.45594000000E+02  0.51100000000E-03 0.  1.
    9900012    2    1    2    0    0 -0.12332197004E+02  0.39888113184E+01 -0.38537934163E+02  0.50528855048E+02  0.29999985404E+02 0.  0.
         12    1    1    2    0    0  0.12332197004E+02 -0.39888113184E+01  0.38537934163E+02  0.40659144952E+02  0.00000000000E+00 0. -1.
         11    1    3    3    0    0 -0.55405415490E+01  0.22331535297E+01 -0.19548071708E+02  0.20440442341E+02  0.51100000000E-03 0.  1.
        -11    1    3    3    0    0  0.37018388949E+01  0.92654668964E+01 -0.11267751531E+02  0.15050405737E+02  0.51100000000E-03 0. -1.
         12    1    3    3    0    0 -0.10493494350E+02 -0.75098091077E+01 -0.77221109235E+01  0.15038006970E+02  0.00000000000E+00 0. -1.
</event>
<event>
 7    1  0.5902966E-013  0.5052886E+02  0.7816164E-02  0.1300439E+00
        -11   -1    0    0    0    0  0.00000000000E+00  0.00000000000E+00  0.45593999997E+02  0.45594000000E+02  0.51100000000E-03 0.  1.
         11   -1    0    0    0    0 -0.00000000000E+00 -0.00000000000E+00 -0.45593999997E+02  0.45594000000E+02  0.51100000000E-03 0. -1.
    9900012    2    1    2    0    0 -0.10874565610E+02  0.39177682451E+02 -0.13588445958E+00  0.50528862724E+02  0.30000008737E+02 0.  0.
         12    1    1    2    0    0  0.10874565610E+02 -0.39177682451E+02  0.13588445958E+00  0.40659137276E+02  0.00000000000E+00 0. -1.
         11    1    3    3    0    0 -0.29366138174E+01  0.16741888376E+02  0.52407653687E+01  0.17787078147E+02  0.51100000000E-03 0.  1.
        -11    1    3    3    0    0  0.57520171267E+01  0.44410819766E+01  0.39643134323E+01  0.82779642062E+01  0.51100000000E-03 0. -1.
         12    1    3    3    0    0 -0.13689968919E+02  0.17994712099E+02 -0.93409632605E+01  0.24463820371E+02  0.00000000000E+00 0. -1.
</event>
<event>
 7    1  0.5902966E-013  0.5052885E+02  0.7816164E-02  0.1300439E+00
        -11   -1    0    0    0    0  0.00000000000E+00  0.00000000000E+00  0.45593999997E+02  0.45594000000E+02  0.51100000000E-03 0.  1.
         11   -1    0    0    0    0 -0.00000000000E+00 -0.00000000000E+00 -0.45593999997E+02  0.45594000000E+02  0.51100000000E-03 0. -1.
    9900012    2    1    2    0    0  0.11141179703E+02 -0.22397462523E+02  0.32052991657E+02  0.50528849901E+02  0.29999969759E+02 0.  0.
         12    1    1    2    0    0 -0.11141179703E+02  0.22397462523E+02 -0.32052991657E+02  0.40659150099E+02  0.00000000000E+00 0. -1.
         11    1    3    3    0    0  0.74541739320E+01  0.23892361455E+01  0.16834920179E+02  0.18565766778E+02  0.51100000000E-03 0. -1.
        -11    1    3    3    0    0  0.66514139105E+00 -0.98826416253E+01 -0.72348006592E+00  0.99313867224E+01  0.51100000000E-03 0.  1.
        -12    1    3    3    0    0  0.30218643795E+01 -0.14904057043E+02  0.15941551544E+02  0.22031696401E+02  0.00000000000E+00 0.  1.
</event>
<event>
 7    1  0.5902966E-013  0.5052886E+02  0.7816164E-02  0.1300439E+00
        -11   -1    0    0    0    0  0.00000000000E+00  0.00000000000E+00  0.45593999997E+02  0.45594000000E+02  0.51100000000E-03 0.  1.
         11   -1    0    0    0    0 -0.00000000000E+00 -0.00000000000E+00 -0.45593999997E+02  0.45594000000E+02  0.51100000000E-03 0. -1.
    9900012    2    1    2    0    0  0.20604277624E+02 -0.21357700865E+02  0.27793487294E+02  0.50528861069E+02  0.30000003706E+02 0.  0.
         12    1    1    2    0    0 -0.20604277624E+02  0.21357700865E+02 -0.27793487294E+02  0.40659138931E+02  0.00000000000E+00 0. -1.
         11    1    3    3    0    0 -0.22558212045E+01  0.36829610005E+01  0.20829166947E+01  0.47949424664E+01  0.51100000000E-03 0. -1.
        -11    1    3    3    0    0  0.14977241848E+02 -0.55062477147E+01  0.65194396986E+01  0.17237738584E+02  0.51100000000E-03 0.  1.
        -12    1    3    3    0    0  0.78828569806E+01 -0.19534414151E+02  0.19191130901E+02  0.28496180018E+02  0.00000000000E+00 0.  1.
</event>
<event>
 7    1  0.5902966E-013  0.5052886E+02  0.7816164E-02  0.1300439E+00
        -11   -1    0    0    0    0  0.00000000000E+00  0.00000000000E+00  0.45593999997E+02  0.45594000000E+02  0.51100000000E-03 0.  1.
         11   -1    0    0    0    0 -0.00000000000E+00 -0.00000000000E+00 -0.45593999997E+02  0.45594000000E+02  0.51100000000E-03 0. -1.
    9900012    2    1    2    0    0 -0.20513954857E+02 -0.20031674570E+02  0.28828383650E+02  0.50528855471E+02  0.29999986689E+02 0.  0.
         12    1    1    2    0    0  0.20513954857E+02  0.20031674570E+02 -0.28828383650E+02  0.40659144529E+02  0.00000000000E+00 0. -1.
         11    1    3    3    0    0 -0.15390012849E+02 -0.14774505047E+02  0.69447857357E+01  0.22435876271E+02  0.51100000000E-03 0. -1.
        -11    1    3    3    0    0 -0.82971971782E+00 -0.10159408282E+02  0.87597015362E+01  0.13440029119E+02  0.51100000000E-03 0.  1.
        -12    1    3    3    0    0 -0.42942222904E+01  0.49022387585E+01  0.13123896378E+02  0.14652950081E+02  0.00000000000E+00 0.  1.
</event>
<event>
 7    1  0.5902966E-013  0.5052886E+02  0.7816164E-02  0.1300439E+00
        -11   -1    0    0    0    0  0.00000000000E+00  0.00000000000E+00  0.45593999997E+02  0.45594000000E+02  0.51100000000E-03 0. -1.
         11   -1    0    0    0    0 -0.00000000000E+00 -0.00000000000E+00 -0.45593999997E+02  0.45594000000E+02  0.51100000000E-03 0.  1.
    9900012    2    1    2    0    0  0.87903993085E+01  0.31002090477E+02 -0.24794457556E+02  0.50528857616E+02  0.29999993209E+02 0.  0.
         12    1    1    2    0    0 -0.87903993085E+01 -0.31002090477E+02  0.24794457556E+02  0.40659142384E+02  0.00000000000E+00 0. -1.
         11    1    3    3    0    0  0.22507404590E+00  0.98533002396E+01 -0.12791213124E+02  0.16147857981E+02  0.51100000000E-03 0.  1.
        -11    1    3    3    0    0  0.12642650205E+02  0.24063600823E+02 -0.96577522533E+01  0.28847281807E+02  0.51100000000E-03 0. -1.
         12    1    3    3    0    0 -0.40773249421E+01 -0.29148105864E+01 -0.23454921791E+01  0.55337178280E+01  0.00000000000E+00 0. -1.
</event>
<event>
 7    1  0.5902966E-013  0.5052886E+02  0.7816164E-02  0.1300439E+00
        -11   -1    0    0    0    0  0.00000000000E+00  0.00000000000E+00  0.45593999997E+02  0.45594000000E+02  0.51100000000E-03 0.  1.
         11   -1    0    0    0    0 -0.00000000000E+00 -0.00000000000E+00 -0.45593999997E+02  0.45594000000E+02  0.51100000000E-03 0. -1.
    9900012    2    1    2    0    0  0.38574783470E+02 -0.97827259072E+01  0.83336466570E+01  0.50528864341E+02  0.30000013650E+02 0.  0.
         12    1    1    2    0    0 -0.38574783470E+02  0.97827259072E+01 -0.83336466570E+01  0.40659135659E+02  0.00000000000E+00 0. -1.
         11    1    3    3    0    0  0.87617063527E+01  0.36129740686E+00  0.77237908980E+01  0.11685674141E+02  0.51100000000E-03 0. -1.
        -11    1    3    3    0    0 -0.16817725886E+01  0.20275670015E+01 -0.39747013190E+01  0.47683999226E+01  0.51100000000E-03 0.  1.
        -12    1    3    3    0    0  0.31494849706E+02 -0.12171590316E+02  0.45845570780E+01  0.34074790277E+02  0.00000000000E+00 0.  1.
</event>
<event>
 7    1  0.5902966E-013  0.5052883E+02  0.7816164E-02  0.1300439E+00
        -11   -1    0    0    0    0  0.00000000000E+00  0.00000000000E+00  0.45593999997E+02  0.45594000000E+02  0.51100000000E-03 0.  1.
         11   -1    0    0    0    0 -0.00000000000E+00 -0.00000000000E+00 -0.45593999997E+02  0.45594000000E+02  0.51100000000E-03 0. -1.
    9900012    2    1    2    0    0 -0.29043811740E+02 -0.19885757183E+02  0.20351447849E+02  0.50528834137E+02  0.29999921842E+02 0.  0.
         12    1    1    2    0    0  0.29043811740E+02  0.19885757183E+02 -0.20351447849E+02  0.40659165863E+02  0.00000000000E+00 0. -1.
         11    1    3    3    0    0  0.68103119532E+00 -0.55887194889E+01 -0.38977626415E+01  0.68476377595E+01  0.51100000000E-03 0. -1.
        -11    1    3    3    0    0 -0.13680248148E+02 -0.14355689162E+02  0.99365877811E+01  0.22180414282E+02  0.51100000000E-03 0.  1.
         12    1    3    3    0    0 -0.16044594788E+02  0.58651468159E-01  0.14312622709E+02  0.21500782096E+02  0.00000000000E+00 0. -1.
</event>
<event>
 7    1  0.5902966E-013  0.5052886E+02  0.7816164E-02  0.1300439E+00
        -11   -1    0    0    0    0  0.00000000000E+00  0.00000000000E+00  0.45593999997E+02  0.45594000000E+02  0.51100000000E-03 0. -1.
         11   -1    0    0    0    0 -0.00000000000E+00 -0.00000000000E+00 -0.45593999997E+02  0.45594000000E+02  0.51100000000E-03 0.  1.
    9900012    2    1    2    0    0  0.36886631517E+02 -0.86773328508E+01 -0.14739261887E+02  0.50528861654E+02  0.30000005484E+02 0.  0.
         12    1    1    2    0    0 -0.36886631517E+02  0.86773328508E+01  0.14739261887E+02  0.40659138346E+02  0.00000000000E+00 0. -1.
         11    1    3    3    0    0  0.22099161857E+02 -0.15048918063E+02 -0.11887316309E+02  0.29260061158E+02  0.51100000000E-03 0. -1.
        -11    1    3    3    0    0  0.69355252403E+01 -0.39729558154E+01 -0.20789107056E+01  0.82587988384E+01  0.51100000000E-03 0.  1.
        -12    1    3    3    0    0  0.78519444189E+01  0.10344541027E+02 -0.77303487195E+00  0.13010001658E+02  0.00000000000E+00 0.  1.
</event>
<event>
 7    1  0.5902966E-013  0.5052890E+02  0.7816164E-02  0.1300439E+00
        -11   -1    0    0    0    0  0.00000000000E+00  0.00000000000E+00  0.45593999997E+02  0.45594000000E+02  0.51100000000E-03 0.  1.
         11   -1    0    0    0    0 -0.00000000000E+00 -0.00000000000E+00 -0.45593999997E+02  0.45594000000E+02  0.51100000000E-03 0. -1.
    9900012    2    1    2    0    0  0.58563023372E+01  0.11243178799E+02  0.38632330546E+02  0.50528901265E+02  0.30000125884E+02 0.  0.
         12    1    1    2    0    0 -0.58563023372E+01 -0.11243178799E+02 -0.38632330546E+02  0.40659098735E+02  0.00000000000E+00 0. -1.
         11    1    3    3    0    0  0.31709647718E+01  0.28424341802E+01  0.19820385732E+02  0.20272694455E+02  0.51100000000E-03 0.  1.
        -11    1    3    3    0    0 -0.56236382402E+01 -0.50068951040E+01  0.87635157637E+01  0.11553939347E+02  0.51100000000E-03 0. -1.
         12    1    3    3    0    0  0.83089758055E+01  0.13407639722E+02  0.10048429050E+02  0.18702267462E+02  0.00000000000E+00 0. -1.
</event>
<event>
 7    1  0.5902966E-013  0.5052886E+02  0.7816164E-02  0.1300439E+00
        -11   -1    0    0    0    0  0.00000000000E+00  0.00000000000E+00  0.45593999997E+02  0.45594000000E+02  0.51100000000E-03 0.  1.
         11   -1    0    0    0    0 -0.00000000000E+00 -0.00000000000E+00 -0.45593999997E+02  0.45594000000E+02  0.51100000000E-03 0. -1.
    9900012    2    1    2    0    0  0.53449825401E+01 -0.88151588174E+00  0.40296642725E+02  0.50528864206E+02  0.30000013240E+02 0.  0.
         12    1    1    2    0    0 -0.53449825401E+01  0.88151588174E+00 -0.40296642725E+02  0.40659135794E+02  0.00000000000E+00 0. -1.
         11    1    3    3    0    0  0.63241095308E+01 -0.22949746889E+01  0.32024186244E+01  0.74509566827E+01  0.51100000000E-03 0. -1.
        -11    1    3    3    0    0 -0.33703862995E+01  0.85613226347E+01  0.57717731230E+01  0.10861358769E+02  0.51100000000E-03 0.  1.
        -12    1    3    3    0    0  0.23912593089E+01 -0.71478638275E+01  0.31322450978E+02  0.32216548754E+02  0.00000000000E+00 0.  1.
</event>
<event>
 7    1  0.5902966E-013  0.5052886E+02  0.7816164E-02  0.1300439E+00
        -11   -1    0    0    0    0  0.00000000000E+00  0.00000000000E+00  0.45593999997E+02  0.45594000000E+02  0.51100000000E-03 0.  1.
         11   -1    0    0    0    0 -0.00000000000E+00 -0.00000000000E+00 -0.45593999997E+02  0.45594000000E+02  0.51100000000E-03 0. -1.
    9900012    2    1    2    0    0 -0.17583023655E+02  0.26004120838E+00  0.36659724600E+02  0.50528858961E+02  0.29999997299E+02 0.  0.
         12    1    1    2    0    0  0.17583023655E+02 -0.26004120838E+00 -0.36659724600E+02  0.40659141039E+02  0.00000000000E+00 0. -1.
         11    1    3    3    0    0  0.19551152542E+00  0.70980328514E+01  0.40028736662E+01  0.81512755422E+01  0.51100000000E-03 0. -1.
        -11    1    3    3    0    0 -0.46143486790E+01 -0.17890499541E+01  0.26559091317E+02  0.27016258907E+02  0.51100000000E-03 0.  1.
         12    1    3    3    0    0 -0.13164186502E+02 -0.50489416889E+01  0.60977596161E+01  0.15361324512E+02  0.00000000000E+00 0. -1.
</event>
<event>
 7    1  0.5902966E-013  0.5052885E+02  0.7816164E-02  0.1300439E+00
        -11   -1    0    0    0    0  0.00000000000E+00  0.00000000000E+00  0.45593999997E+02  0.45594000000E+02  0.51100000000E-03 0.  1.
         11   -1    0    0    0    0 -0.00000000000E+00 -0.00000000000E+00 -0.45593999997E+02  0.45594000000E+02  0.51100000000E-03 0. -1.
    9900012    2    1    2    0    0  0.26736324073E+02  0.12385007742E+02  0.28016899802E+02  0.50528854458E+02  0.29999983611E+02 0.  0.
         12    1    1    2    0    0 -0.26736324073E+02 -0.12385007742E+02 -0.28016899802E+02  0.40659145542E+02  0.00000000000E+00 0. -1.
         11    1    3    3    0    0  0.95874307115E+01 -0.13798623351E+01  0.47289283792E+01  0.10778942972E+02  0.51100000000E-03 0. -1.
        -11    1    3    3    0    0  0.15620894547E+02  0.11580137112E+02  0.34686147928E+01  0.19752043207E+02  0.51100000000E-03 0.  1.
         12    1    3    3    0    0  0.15279988142E+01  0.21847329644E+01  0.19819356630E+02  0.19997868280E+02  0.00000000000E+00 0. -1.
</event>
<event>
 7    1  0.5902966E-013  0.5052886E+02  0.7816164E-02  0.1300439E+00
        -11   -1    0    0    0    0  0.00000000000E+00  0.00000000000E+00  0.45593999997E+02  0.45594000000E+02  0.51100000000E-03 0.  1.
         11   -1    0    0    0    0 -0.00000000000E+00 -0.00000000000E+00 -0.45593999997E+02  0.45594000000E+02  0.51100000000E-03 0. -1.
    9900012    2    1    2    0    0  0.13687012902E+02  0.37081461879E+02  0.95287239879E+01  0.50528859354E+02  0.29999998492E+02 0.  0.
         12    1    1    2    0    0 -0.13687012902E+02 -0.37081461879E+02 -0.95287239879E+01  0.40659140646E+02  0.00000000000E+00 0. -1.
         11    1    3    3    0    0  0.54584552414E+01  0.31012327542E+01  0.19295852634E+01  0.65677757093E+01  0.51100000000E-03 0. -1.
        -11    1    3    3    0    0  0.13196259280E+02  0.33828745441E+02  0.18458844363E+01  0.36358390596E+02  0.51100000000E-03 0.  1.
         12    1    3    3    0    0 -0.49677016191E+01  0.15148368310E+00  0.57532542882E+01  0.76026930483E+01  0.00000000000E+00 0. -1.
</event>
<event>
 7    1  0.5902966E-013  0.5052887E+02  0.7816164E-02  0.1300439E+00
        -11   -1    0    0    0    0  0.00000000000E+00  0.00000000000E+00  0.45593999997E+02  0.45594000000E+02  0.51100000000E-03 0. -1.
         11   -1    0    0    0    0 -0.00000000000E+00 -0.00000000000E+00 -0.45593999997E+02  0.45594000000E+02  0.51100000000E-03 0.  1.
    9900012    2    1    2    0    0 -0.37493362506E+02  0.55662514389E+01 -0.14711553280E+02  0.50528865885E+02  0.30000018344E+02 0.  0.
         12    1    1    2    0    0  0.37493362506E+02 -0.55662514389E+01  0.14711553280E+02  0.40659134115E+02  0.00000000000E+00 0. -1.
         11    1    3    3    0    0 -0.12347831538E+02 -0.70871537257E+01  0.13624639109E+01  0.14302202620E+02  0.51100000000E-03 0. -1.
        -11    1    3    3    0    0 -0.16997264301E+02 -0.48525829928E+00 -0.82844012872E+01  0.18914908784E+02  0.51100000000E-03 0.  1.
         12    1    3    3    0    0 -0.81482666664E+01  0.13138663464E+02 -0.77896159039E+01  0.17311754481E+02  0.00000000000E+00 0. -1.
</event>
<event>
 7    1  0.5902966E-013  0.5052886E+02  0.7816164E-02  0.1300439E+00
        -11   -1    0    0    0    0  0.00000000000E+00  0.00000000000E+00  0.45593999997E+02  0.45594000000E+02  0.51100000000E-03 0.  1.
         11   -1    0    0    0    0 -0.00000000000E+00 -0.00000000000E+00 -0.45593999997E+02  0.45594000000E+02  0.51100000000E-03 0. -1.
    9900012    2    1    2    0    0 -0.29403350309E+02 -0.27823045585E+02  0.38061702845E+01  0.50528858257E+02  0.29999995158E+02 0.  0.
         12    1    1    2    0    0  0.29403350309E+02  0.27823045585E+02 -0.38061702845E+01  0.40659141743E+02  0.00000000000E+00 0. -1.
         11    1    3    3    0    0  0.68363198352E+00  0.26258320885E+01 -0.35353139458E+01  0.44565448278E+01  0.51100000000E-03 0.  1.
        -11    1    3    3    0    0 -0.68484136685E+01 -0.44897330662E+00  0.40810979463E+01  0.79848423599E+01  0.51100000000E-03 0. -1.
        -12    1    3    3    0    0 -0.23238568624E+02 -0.29999904367E+02  0.32603862840E+01  0.38087471069E+02  0.00000000000E+00 0.  1.
</event>
<event>
 7    1  0.5902966E-013  0.5052887E+02  0.7816164E-02  0.1300439E+00
        -11   -1    0    0    0    0  0.00000000000E+00  0.00000000000E+00  0.45593999997E+02  0.45594000000E+02  0.51100000000E-03 0. -1.
         11   -1    0    0    0    0 -0.00000000000E+00 -0.00000000000E+00 -0.45593999997E+02  0.45594000000E+02  0.51100000000E-03 0.  1.
    9900012    2    1    2    0    0 -0.13763820434E+02 -0.38174754919E+02  0.25319020148E+01  0.50528865800E+02  0.30000018086E+02 0.  0.
         12    1    1    2    0    0  0.13763820434E+02  0.38174754919E+02 -0.25319020148E+01  0.40659134200E+02  0.00000000000E+00 0. -1.
         11    1    3    3    0    0  0.15773352255E+01 -0.58640969829E+01 -0.50238438115E+01  0.78812833182E+01  0.51100000000E-03 0. -1.
        -11    1    3    3    0    0 -0.12903836076E+02 -0.29502550367E+02 -0.21311809992E+01  0.32271526092E+02  0.51100000000E-03 0.  1.
         12    1    3    3    0    0 -0.24373195832E+01 -0.28081075696E+01  0.96869268254E+01  0.10376056389E+02  0.00000000000E+00 0. -1.
</event>
<event>
 7    1  0.5902966E-013  0.5052885E+02  0.7816164E-02  0.1300439E+00
        -11   -1    0    0    0    0  0.00000000000E+00  0.00000000000E+00  0.45593999997E+02  0.45594000000E+02  0.51100000000E-03 0.  1.
         11   -1    0    0    0    0 -0.00000000000E+00 -0.00000000000E+00 -0.45593999997E+02  0.45594000000E+02  0.51100000000E-03 0. -1.
    9900012    2    1    2    0    0 -0.39613532265E+02 -0.61974099167E+01  0.67473693599E+01  0.50528845785E+02  0.29999957249E+02 0.  0.
         12    1    1    2    0    0  0.39613532265E+02  0.61974099167E+01 -0.67473693599E+01  0.40659154215E+02  0.00000000000E+00 0. -1.
         11    1    3    3    0    0 -0.46198910877E+00 -0.53893460261E+01  0.53479727476E+01  0.76065299116E+01  0.51100000000E-03 0. -1.
        -11    1    3    3    0    0 -0.28033186274E+01  0.17629673878E+01 -0.49286743933E+01  0.59378852189E+01  0.51100000000E-03 0.  1.
        -12    1    3    3    0    0 -0.36348224529E+02 -0.25710312783E+01  0.63280710056E+01  0.36984430655E+02  0.00000000000E+00 0.  1.
</event>
<event>
 7    1  0.5902966E-013  0.5052886E+02  0.7816164E-02  0.1300439E+00
        -11   -1    0    0    0    0  0.00000000000E+00  0.00000000000E+00  0.45593999997E+02  0.45594000000E+02  0.51100000000E-03 0.  1.
         11   -1    0    0    0    0 -0.00000000000E+00 -0.00000000000E+00 -0.45593999997E+02  0.45594000000E+02  0.51100000000E-03 0. -1.
    9900012    2    1    2    0    0 -0.38344864709E+01  0.21773669121E+01  0.40419319741E+02  0.50528860542E+02  0.30000002103E+02 0.  0.
         12    1    1    2    0    0  0.38344864709E+01 -0.21773669121E+01 -0.40419319741E+02  0.40659139458E+02  0.00000000000E+00 0. -1.
         11    1    3    3    0    0  0.13209193496E+01 -0.43739562511E+00 -0.19105169286E+01  0.23635181523E+01  0.51100000000E-03 0. -1.
        -11    1    3    3    0    0  0.67073939088E+00  0.11299783595E+02  0.14234758403E+02  0.18186900442E+02  0.51100000000E-03 0.  1.
        -12    1    3    3    0    0 -0.58261452114E+01 -0.86850210578E+01  0.28095078267E+02  0.29978441948E+02  0.00000000000E+00 0.  1.
</event>
<event>
 7    1  0.5902966E-013  0.5052886E+02  0.7816164E-02  0.1300439E+00
        -11   -1    0    0    0    0  0.00000000000E+00  0.00000000000E+00  0.45593999997E+02  0.45594000000E+02  0.51100000000E-03 0.  1.
         11   -1    0    0    0    0 -0.00000000000E+00 -0.00000000000E+00 -0.45593999997E+02  0.45594000000E+02  0.51100000000E-03 0. -1.
    9900012    2    1    2    0    0  0.23344020611E+02 -0.85498642955E+01  0.32173315042E+02  0.50528859840E+02  0.29999999969E+02 0.  0.
         12    1    1    2    0    0 -0.23344020611E+02  0.85498642955E+01 -0.32173315042E+02  0.40659140160E+02  0.00000000000E+00 0. -1.
         11    1    3    3    0    0  0.34322804737E+01 -0.56995086896E+01  0.53343917476E+00  0.66745416448E+01  0.51100000000E-03 0. -1.
        -11    1    3    3    0    0  0.12343422597E+02 -0.57964458242E+01  0.32919906654E+02  0.35632557022E+02  0.51100000000E-03 0.  1.
         12    1    3    3    0    0  0.75683175408E+01  0.29460902183E+01 -0.12800307861E+01  0.82217611730E+01  0.00000000000E+00 0. -1.
</event>
<event>
 7    1  0.5902966E-013  0.5052886E+02  0.7816164E-02  0.1300439E+00
        -11   -1    0    0    0    0  0.00000000000E+00  0.00000000000E+00  0.45593999997E+02  0.45594000000E+02  0.51100000000E-03 0.  1.
         11   -1    0    0    0    0 -0.00000000000E+00 -0.00000000000E+00 -0.45593999997E+02  0.45594000000E+02  0.51100000000E-03 0. -1.
    9900012    2    1    2    0    0  0.16263992090E+02  0.30925893752E+02  0.20790318455E+02  0.50528859766E+02  0.29999999746E+02 0.  0.
         12    1    1    2    0    0 -0.16263992090E+02 -0.30925893752E+02 -0.20790318455E+02  0.40659140234E+02  0.00000000000E+00 0. -1.
         11    1    3    3    0    0  0.12235266722E+02  0.35207169801E+01  0.76435831853E+01  0.14849968484E+02  0.51100000000E-03 0.  1.
        -11    1    3    3    0    0  0.19218412058E+01  0.80335240352E+01  0.13910361239E+02  0.16178044755E+02  0.51100000000E-03 0. -1.
         12    1    3    3    0    0  0.21068841622E+01  0.19371652737E+02 -0.76362596945E+00  0.19500846527E+02  0.00000000000E+00 0. -1.
</event>
<event>
 7    1  0.5902966E-013  0.5052886E+02  0.7816164E-02  0.1300439E+00
        -11   -1    0    0    0    0  0.00000000000E+00  0.00000000000E+00  0.45593999997E+02  0.45594000000E+02  0.51100000000E-03 0.  1.
         11   -1    0    0    0    0 -0.00000000000E+00 -0.00000000000E+00 -0.45593999997E+02  0.45594000000E+02  0.51100000000E-03 0. -1.
    9900012    2    1    2    0    0  0.61281365144E+01 -0.30751683280E+02  0.25883305318E+02  0.50528861103E+02  0.30000003808E+02 0.  0.
         12    1    1    2    0    0 -0.61281365144E+01  0.30751683280E+02 -0.25883305318E+02  0.40659138897E+02  0.00000000000E+00 0. -1.
         11    1    3    3    0    0  0.13112955261E+02 -0.27659507909E+02  0.15757724180E+02  0.34428241968E+02  0.51100000000E-03 0. -1.
        -11    1    3    3    0    0 -0.15587084085E+01 -0.38512617809E+01  0.97623086540E+01  0.10609639943E+02  0.51100000000E-03 0.  1.
        -12    1    3    3    0    0 -0.54261103382E+01  0.75908640991E+00  0.36327248419E+00  0.54909791911E+01  0.00000000000E+00 0.  1.
</event>
<event>
 7    1  0.5902966E-013  0.5052886E+02  0.7816164E-02  0.1300439E+00
        -11   -1    0    0    0    0  0.00000000000E+00  0.00000000000E+00  0.45593999997E+02  0.45594000000E+02  0.51100000000E-03 0. -1.
         11   -1    0    0    0    0 -0.00000000000E+00 -0.00000000000E+00 -0.45593999997E+02  0.45594000000E+02  0.51100000000E-03 0.  1.
    9900012    2    1    2    0    0 -0.16272654730E+02 -0.13608390907E+02 -0.34686860674E+02  0.50528857136E+02  0.29999991750E+02 0.  0.
         12    1    1    2    0    0  0.16272654730E+02  0.13608390907E+02  0.34686860674E+02  0.40659142864E+02  0.00000000000E+00 0. -1.
         11    1    3    3    0    0  0.20025229377E+01  0.16335670650E+01  0.32374419649E+00  0.26045057185E+01  0.51100000000E-03 0. -1.
        -11    1    3    3    0    0 -0.12014633624E+02 -0.40619747194E+01 -0.24283784685E+01  0.12913097304E+02  0.51100000000E-03 0.  1.
         12    1    3    3    0    0 -0.62605440438E+01 -0.11179983253E+02 -0.32582226402E+02  0.35011254113E+02  0.00000000000E+00 0. -1.
</event>
<event>
 7    1  0.5902966E-013  0.5052886E+02  0.7816164E-02  0.1300439E+00
        -11   -1    0    0    0    0  0.00000000000E+00  0.00000000000E+00  0.45593999997E+02  0.45594000000E+02  0.51100000000E-03 0.  1.
         11   -1    0    0    0    0 -0.00000000000E+00 -0.00000000000E+00 -0.45593999997E+02  0.45594000000E+02  0.51100000000E-03 0. -1.
    9900012    2    1    2    0    0 -0.21290661537E+02 -0.21733039971E+02  0.26973102994E+02  0.50528861050E+02  0.30000003647E+02 0.  0.
         12    1    1    2    0    0  0.21290661537E+02  0.21733039971E+02 -0.26973102994E+02  0.40659138950E+02  0.00000000000E+00 0. -1.
         11    1    3    3    0    0 -0.14065412375E+02 -0.39741653933E+01  0.18139045628E+02  0.23294952080E+02  0.51100000000E-03 0. -1.
        -11    1    3    3    0    0 -0.10174687576E+02 -0.35912794742E+01  0.11554494061E+01  0.10851572196E+02  0.51100000000E-03 0.  1.
         12    1    3    3    0    0  0.29494384142E+01 -0.14167595104E+02  0.76786079595E+01  0.16382336774E+02  0.00000000000E+00 0. -1.
</event>
<event>
 7    1  0.5902966E-013  0.5052886E+02  0.7816164E-02  0.1300439E+00
        -11   -1    0    0    0    0  0.00000000000E+00  0.00000000000E+00  0.45593999997E+02  0.45594000000E+02  0.51100000000E-03 0. -1.
         11   -1    0    0    0    0 -0.00000000000E+00 -0.00000000000E+00 -0.45593999997E+02  0.45594000000E+02  0.51100000000E-03 0.  1.
    9900012    2    1    2    0    0 -0.23509058292E+02 -0.78697830444E+01 -0.32226640059E+02  0.50528860358E+02  0.30000001544E+02 0.  0.
         12    1    1    2    0    0  0.23509058292E+02  0.78697830444E+01  0.32226640059E+02  0.40659139642E+02  0.00000000000E+00 0. -1.
         11    1    3    3    0    0 -0.14534201200E+02 -0.44225959638E+01 -0.73969236432E+01  0.16897243539E+02  0.51100000000E-03 0. -1.
        -11    1    3    3    0    0 -0.78471747318E+01 -0.96217262238E+01 -0.24354794484E+02  0.27337003885E+02  0.51100000000E-03 0.  1.
         12    1    3    3    0    0 -0.11276823602E+01  0.61745391432E+01 -0.47492193148E+00  0.62946129331E+01  0.00000000000E+00 0. -1.
</event>
<event>
 7    1  0.5902966E-013  0.5052886E+02  0.7816164E-02  0.1300439E+00
        -11   -1    0    0    0    0  0.00000000000E+00  0.00000000000E+00  0.45593999997E+02  0.45594000000E+02  0.51100000000E-03 0.  1.
         11   -1    0    0    0    0 -0.00000000000E+00 -0.00000000000E+00 -0.45593999997E+02  0.45594000000E+02  0.51100000000E-03 0. -1.
    9900012    2    1    2    0    0 -0.83842047867E+01  0.83391529333E+01  0.38901534880E+02  0.50528858622E+02  0.29999996268E+02 0.  0.
         12    1    1    2    0    0  0.83842047867E+01 -0.83391529333E+01 -0.38901534880E+02  0.40659141378E+02  0.00000000000E+00 0. -1.
         11    1    3    3    0    0  0.60963735027E+01 -0.50230611960E+01  0.11899549857E+02  0.14282723855E+02  0.51100000000E-03 0. -1.
        -11    1    3    3    0    0 -0.78207355512E+00  0.52220469294E+01  0.16087669357E+02  0.16932055953E+02  0.51100000000E-03 0.  1.
        -12    1    3    3    0    0 -0.13698504734E+02  0.81401671998E+01  0.10914315666E+02  0.19314078815E+02  0.00000000000E+00 0.  1.
</event>
<event>
 7    1  0.5902966E-013  0.5052873E+02  0.7816164E-02  0.1300439E+00
        -11   -1    0    0    0    0  0.00000000000E+00  0.00000000000E+00  0.45593999997E+02  0.45594000000E+02  0.51100000000E-03 0.  1.
         11   -1    0    0    0    0 -0.00000000000E+00 -0.00000000000E+00 -0.45593999997E+02  0.45594000000E+02  0.51100000000E-03 0. -1.
    9900012    2    1    2    0    0  0.38352212569E+02  0.12136343906E+02  0.59155353980E+01  0.50528725396E+02  0.29999591310E+02 0.  0.
         12    1    1    2    0    0 -0.38352212569E+02 -0.12136343906E+02 -0.59155353980E+01  0.40659274604E+02  0.00000000000E+00 0. -1.
         11    1    3    3    0    0  0.19685724382E+02  0.11117694251E+02  0.11855147789E+02  0.25527933706E+02  0.51100000000E-03 0. -1.
        -11    1    3    3    0    0  0.14292986492E+02 -0.47558375517E+01  0.82981787859E+00  0.15086286874E+02  0.51100000000E-03 0.  1.
         12    1    3    3    0    0  0.43735016942E+01  0.57744872067E+01 -0.67694302697E+01  0.99145048160E+01  0.00000000000E+00 0. -1.
</event>
<event>
 7    1  0.5902966E-013  0.5052887E+02  0.7816164E-02  0.1300439E+00
        -11   -1    0    0    0    0  0.00000000000E+00  0.00000000000E+00  0.45593999997E+02  0.45594000000E+02  0.51100000000E-03 0.  1.
         11   -1    0    0    0    0 -0.00000000000E+00 -0.00000000000E+00 -0.45593999997E+02  0.45594000000E+02  0.51100000000E-03 0. -1.
    9900012    2    1    2    0    0 -0.12570129313E+02 -0.37877325781E+02 -0.77759422590E+01  0.50528865266E+02  0.30000016463E+02 0.  0.
         12    1    1    2    0    0  0.12570129313E+02  0.37877325781E+02  0.77759422590E+01  0.40659134734E+02  0.00000000000E+00 0. -1.
         11    1    3    3    0    0  0.61381954961E+00 -0.20394961836E+02 -0.97069148970E+01  0.22595473879E+02  0.51100000000E-03 0. -1.
        -11    1    3    3    0    0  0.33452332215E+01 -0.33787767578E+01  0.38533899978E+01  0.61200761778E+01  0.51100000000E-03 0.  1.
        -12    1    3    3    0    0 -0.16529182084E+02 -0.14103587188E+02 -0.19224173598E+01  0.21813315210E+02  0.00000000000E+00 0.  1.
</event>
<event>
 7    1  0.5902966E-013  0.5052886E+02  0.7816164E-02  0.1300439E+00
        -11   -1    0    0    0    0  0.00000000000E+00  0.00000000000E+00  0.45593999997E+02  0.45594000000E+02  0.51100000000E-03 0.  1.
         11   -1    0    0    0    0 -0.00000000000E+00 -0.00000000000E+00 -0.45593999997E+02  0.45594000000E+02  0.51100000000E-03 0. -1.
    9900012    2    1    2    0    0  0.30862730900E+02 -0.25056878226E+02  0.85329117525E+01  0.50528857264E+02  0.29999992140E+02 0.  0.
         12    1    1    2    0    0 -0.30862730900E+02  0.25056878226E+02 -0.85329117525E+01  0.40659142736E+02  0.00000000000E+00 0. -1.
         11    1    3    3    0    0  0.30441065210E+01  0.10683219666E+01 -0.42664894004E+01  0.53489090851E+01  0.51100000000E-03 0. -1.
        -11    1    3    3    0    0  0.14797587400E+02 -0.14547018423E+02 -0.38218033707E+01  0.21099538363E+02  0.51100000000E-03 0.  1.
         12    1    3    3    0    0  0.13021036979E+02 -0.11578181770E+02  0.16621204524E+02  0.24080409816E+02  0.00000000000E+00 0. -1.
</event>
<event>
 7    1  0.5902966E-013  0.5052876E+02  0.7816164E-02  0.1300439E+00
        -11   -1    0    0    0    0  0.00000000000E+00  0.00000000000E+00  0.45593999997E+02  0.45594000000E+02  0.51100000000E-03 0.  1.
         11   -1    0    0    0    0 -0.00000000000E+00 -0.00000000000E+00 -0.45593999997E+02  0.45594000000E+02  0.51100000000E-03 0. -1.
    9900012    2    1    2    0    0  0.36330508801E+02 -0.16348248505E+02  0.81242252670E+01  0.50528755847E+02  0.29999683871E+02 0.  0.
         12    1    1    2    0    0 -0.36330508801E+02  0.16348248505E+02 -0.81242252670E+01  0.40659244153E+02  0.00000000000E+00 0. -1.
         11    1    3    3    0    0  0.15509859246E+02  0.40027460630E+01  0.43743613087E+01  0.16604600176E+02  0.51100000000E-03 0.  1.
        -11    1    3    3    0    0  0.14983361773E+02 -0.86936940630E+01 -0.52282651406E+01  0.18094645703E+02  0.51100000000E-03 0. -1.
        -12    1    3    3    0    0  0.58372877817E+01 -0.11657300505E+02  0.89781290988E+01  0.15829509968E+02  0.00000000000E+00 0.  1.
</event>
<event>
 7    1  0.5902966E-013  0.5052885E+02  0.7816164E-02  0.1300439E+00
        -11   -1    0    0    0    0  0.00000000000E+00  0.00000000000E+00  0.45593999997E+02  0.45594000000E+02  0.51100000000E-03 0.  1.
         11   -1    0    0    0    0 -0.00000000000E+00 -0.00000000000E+00 -0.45593999997E+02  0.45594000000E+02  0.51100000000E-03 0. -1.
    9900012    2    1    2    0    0 -0.24930882075E+02  0.28310147072E+02  0.15170790916E+02  0.50528853363E+02  0.29999980282E+02 0.  0.
         12    1    1    2    0    0  0.24930882075E+02 -0.28310147072E+02 -0.15170790916E+02  0.40659146637E+02  0.00000000000E+00 0. -1.
         11    1    3    3    0    0  0.33540237576E+01  0.64696421301E+01  0.37847074930E+01  0.82115623195E+01  0.51100000000E-03 0. -1.
        -11    1    3    3    0    0 -0.14687063116E+02  0.72178569999E+01  0.14793905892E+02  0.22060528880E+02  0.51100000000E-03 0.  1.
        -12    1    3    3    0    0 -0.13597842717E+02  0.14622647942E+02 -0.34078224697E+01  0.20256762164E+02  0.00000000000E+00 0.  1.
</event>
<event>
 7    1  0.5902966E-013  0.5052885E+02  0.7816164E-02  0.1300439E+00
        -11   -1    0    0    0    0  0.00000000000E+00  0.00000000000E+00  0.45593999997E+02  0.45594000000E+02  0.51100000000E-03 0.  1.
         11   -1    0    0    0    0 -0.00000000000E+00 -0.00000000000E+00 -0.45593999997E+02  0.45594000000E+02  0.51100000000E-03 0. -1.
    9900012    2    1    2    0    0 -0.17126122028E+02  0.15071536471E+02  0.33655769432E+02  0.50528854862E+02  0.29999984838E+02 0.  0.
         12    1    1    2    0    0  0.17126122028E+02 -0.15071536471E+02 -0.33655769432E+02  0.40659145138E+02  0.00000000000E+00 0. -1.
         11    1    3    3    0    0 -0.10618108115E+02  0.12431260770E+02  0.14370384523E+02  0.21766681324E+02  0.51100000000E-03 0. -1.
        -11    1    3    3    0    0 -0.98714355051E+00  0.70018126938E+01  0.20443335587E+02  0.21631685177E+02  0.51100000000E-03 0.  1.
        -12    1    3    3    0    0 -0.55208703624E+01 -0.43615369925E+01 -0.11579506783E+01  0.71304883612E+01  0.00000000000E+00 0.  1.
</event>
<event>
 7    1  0.5902966E-013  0.5052886E+02  0.7816164E-02  0.1300439E+00
        -11   -1    0    0    0    0  0.00000000000E+00  0.00000000000E+00  0.45593999997E+02  0.45594000000E+02  0.51100000000E-03 0.  1.
         11   -1    0    0    0    0 -0.00000000000E+00 -0.00000000000E+00 -0.45593999997E+02  0.45594000000E+02  0.51100000000E-03 0. -1.
    9900012    2    1    2    0    0  0.39429126965E+02  0.26311571627E+00  0.99217070606E+01  0.50528861370E+02  0.30000004621E+02 0.  0.
         12    1    1    2    0    0 -0.39429126965E+02 -0.26311571627E+00 -0.99217070606E+01  0.40659138630E+02  0.00000000000E+00 0. -1.
         11    1    3    3    0    0  0.45688635949E+01  0.54376979884E+01 -0.43784362629E+01  0.83434871805E+01  0.51100000000E-03 0. -1.
        -11    1    3    3    0    0  0.16281157127E+02 -0.58821884514E+01 -0.20425368889E+01  0.17431241367E+02  0.51100000000E-03 0.  1.
         12    1    3    3    0    0  0.18579106243E+02  0.70760617917E+00  0.16342680212E+02  0.24754132823E+02  0.00000000000E+00 0. -1.
</event>
<event>
 7    1  0.5902966E-013  0.5052885E+02  0.7816164E-02  0.1300439E+00
        -11   -1    0    0    0    0  0.00000000000E+00  0.00000000000E+00  0.45593999997E+02  0.45594000000E+02  0.51100000000E-03 0. -1.
         11   -1    0    0    0    0 -0.00000000000E+00 -0.00000000000E+00 -0.45593999997E+02  0.45594000000E+02  0.51100000000E-03 0.  1.
    9900012    2    1    2    0    0  0.18333938551E+02 -0.34099204881E+02 -0.12420834403E+02  0.50528853384E+02  0.29999980346E+02 0.  0.
         12    1    1    2    0    0 -0.18333938551E+02  0.34099204881E+02  0.12420834403E+02  0.40659146616E+02  0.00000000000E+00 0. -1.
         11    1    3    3    0    0  0.13870261766E+02 -0.12028967169E+02  0.56411502585E+01  0.19206842247E+02  0.51100000000E-03 0. -1.
        -11    1    3    3    0    0 -0.39217947616E+01 -0.74179064769E+01 -0.37541069797E+01  0.91923408405E+01  0.51100000000E-03 0.  1.
        -12    1    3    3    0    0  0.83854715460E+01 -0.14652331235E+02 -0.14307877681E+02  0.22129670296E+02  0.00000000000E+00 0.  1.
</event>
<event>
 7    1  0.5902966E-013  0.5052885E+02  0.7816164E-02  0.1300439E+00
        -11   -1    0    0    0    0  0.00000000000E+00  0.00000000000E+00  0.45593999997E+02  0.45594000000E+02  0.51100000000E-03 0. -1.
         11   -1    0    0    0    0 -0.00000000000E+00 -0.00000000000E+00 -0.45593999997E+02  0.45594000000E+02  0.51100000000E-03 0.  1.
    9900012    2    1    2    0    0 -0.13648479380E+02 -0.15577485100E+02 -0.34988960687E+02  0.50528850951E+02  0.29999972950E+02 0.  0.
         12    1    1    2    0    0  0.13648479380E+02  0.15577485100E+02  0.34988960687E+02  0.40659149049E+02  0.00000000000E+00 0. -1.
         11    1    3    3    0    0  0.16893914881E+01 -0.72992535242E+01 -0.72485020502E+01  0.10424678788E+02  0.51100000000E-03 0. -1.
        -11    1    3    3    0    0 -0.59975144630E+01 -0.54624677567E+01 -0.29140569298E+02  0.30248661342E+02  0.51100000000E-03 0.  1.
         12    1    3    3    0    0 -0.93403564054E+01 -0.28157638189E+01  0.14001106610E+01  0.98555108201E+01  0.00000000000E+00 0. -1.
</event>
<event>
 7    1  0.5902966E-013  0.5052884E+02  0.7816164E-02  0.1300439E+00
        -11   -1    0    0    0    0  0.00000000000E+00  0.00000000000E+00  0.45593999997E+02  0.45594000000E+02  0.51100000000E-03 0.  1.
         11   -1    0    0    0    0 -0.00000000000E+00 -0.00000000000E+00 -0.45593999997E+02  0.45594000000E+02  0.51100000000E-03 0. -1.
    9900012    2    1    2    0    0  0.15131519243E+02 -0.24722895032E+02  0.28512847760E+02  0.50528844810E+02  0.29999954285E+02 0.  0.
         12    1    1    2    0    0 -0.15131519243E+02  0.24722895032E+02 -0.28512847760E+02  0.40659155190E+02  0.00000000000E+00 0. -1.
         11    1    3    3    0    0  0.16044401886E+02 -0.27063987085E+01  0.10223559553E+02  0.19216362716E+02  0.51100000000E-03 0. -1.
        -11    1    3    3    0    0  0.49897864683E+01 -0.16717885745E+02  0.11776237387E+02  0.21049119698E+02  0.51100000000E-03 0.  1.
        -12    1    3    3    0    0 -0.59026691112E+01 -0.52986105784E+01  0.65130508197E+01  0.10263362396E+02  0.00000000000E+00 0.  1.
</event>
<event>
 7    1  0.5902966E-013  0.5052885E+02  0.7816164E-02  0.1300439E+00
        -11   -1    0    0    0    0  0.00000000000E+00  0.00000000000E+00  0.45593999997E+02  0.45594000000E+02  0.51100000000E-03 0. -1.
         11   -1    0    0    0    0 -0.00000000000E+00 -0.00000000000E+00 -0.45593999997E+02  0.45594000000E+02  0.51100000000E-03 0.  1.
    9900012    2    1    2    0    0 -0.15221282951E+02 -0.15097821686E+02 -0.34547576703E+02  0.50528846906E+02  0.29999960654E+02 0.  0.
         12    1    1    2    0    0  0.15221282951E+02  0.15097821686E+02  0.34547576703E+02  0.40659153094E+02  0.00000000000E+00 0. -1.
         11    1    3    3    0    0 -0.14361395063E+02 -0.39503493278E+01 -0.31518745115E+01  0.15224626142E+02  0.51100000000E-03 0. -1.
        -11    1    3    3    0    0 -0.23981181214E+01 -0.12439061844E+02 -0.30644601694E+02  0.33159807649E+02  0.51100000000E-03 0.  1.
         12    1    3    3    0    0  0.15382302334E+01  0.12915894857E+01 -0.75110049755E+00  0.21444131150E+01  0.00000000000E+00 0. -1.
</event>
<event>
 7    1  0.5902966E-013  0.5052886E+02  0.7816164E-02  0.1300439E+00
        -11   -1    0    0    0    0  0.00000000000E+00  0.00000000000E+00  0.45593999997E+02  0.45594000000E+02  0.51100000000E-03 0. -1.
         11   -1    0    0    0    0 -0.00000000000E+00 -0.00000000000E+00 -0.45593999997E+02  0.45594000000E+02  0.51100000000E-03 0.  1.
    9900012    2    1    2    0    0 -0.40191679676E+02 -0.49488438299E+01  0.36474075813E+01  0.50528858931E+02  0.29999997207E+02 0.  0.
         12    1    1    2    0    0  0.40191679676E+02  0.49488438299E+01 -0.36474075813E+01  0.40659141069E+02  0.00000000000E+00 0. -1.
         11    1    3    3    0    0  0.38586196344E+01  0.58861533238E+00 -0.16956000558E+01  0.42556401755E+01  0.51100000000E-03 0. -1.
        -11    1    3    3    0    0 -0.10833270051E+02  0.96139130765E+00 -0.32529964995E+01  0.11351916126E+02  0.51100000000E-03 0.  1.
        -12    1    3    3    0    0 -0.33217029259E+02 -0.64988504699E+01  0.85960041365E+01  0.34921302629E+02  0.00000000000E+00 0.  1.
</event>
<event>
 7    1  0.5902966E-013  0.5052886E+02  0.7816164E-02  0.1300439E+00
        -11   -1    0    0    0    0  0.00000000000E+00  0.00000000000E+00  0.45593999997E+02  0.45594000000E+02  0.51100000000E-03 0.  1.
         11   -1    0    0    0    0 -0.00000000000E+00 -0.00000000000E+00 -0.45593999997E+02  0.45594000000E+02  0.51100000000E-03 0. -1.
    9900012    2    1    2    0    0  0.24159779192E+01  0.37639152117E+02  0.15186280284E+02  0.50528857974E+02  0.29999994299E+02 0.  0.
         12    1    1    2    0    0 -0.24159779192E+01 -0.37639152117E+02 -0.15186280284E+02  0.40659142026E+02  0.00000000000E+00 0. -1.
         11    1    3    3    0    0  0.16291993334E+01  0.89109229636E+01 -0.27755987221E+01  0.94743225118E+01  0.51100000000E-03 0. -1.
        -11    1    3    3    0    0  0.10553849017E+02  0.61928479135E+01  0.44388241661E+01  0.13016845032E+02  0.51100000000E-03 0.  1.
        -12    1    3    3    0    0 -0.97670704315E+01  0.22535381240E+02  0.13523054840E+02  0.28037690430E+02  0.00000000000E+00 0.  1.
</event>
<event>
 7    1  0.5902966E-013  0.5052886E+02  0.7816164E-02  0.1300439E+00
        -11   -1    0    0    0    0  0.00000000000E+00  0.00000000000E+00  0.45593999997E+02  0.45594000000E+02  0.51100000000E-03 0. -1.
         11   -1    0    0    0    0 -0.00000000000E+00 -0.00000000000E+00 -0.45593999997E+02  0.45594000000E+02  0.51100000000E-03 0.  1.
    9900012    2    1    2    0    0  0.61512985138E+01 -0.27667651631E+02 -0.29151808691E+02  0.50528863633E+02  0.30000011498E+02 0.  0.
         12    1    1    2    0    0 -0.61512985138E+01  0.27667651631E+02  0.29151808691E+02  0.40659136367E+02  0.00000000000E+00 0. -1.
         11    1    3    3    0    0  0.51542646799E+01 -0.10867456751E+02 -0.90921606201E+01  0.15077647218E+02  0.51100000000E-03 0. -1.
        -11    1    3    3    0    0  0.94565638705E+01 -0.94436606010E+01 -0.20222042268E+02  0.24239231001E+02  0.51100000000E-03 0.  1.
         12    1    3    3    0    0 -0.84595300366E+01 -0.73565342790E+01  0.16239419698E+00  0.11211985414E+02  0.00000000000E+00 0. -1.
</event>
<event>
 7    1  0.5902966E-013  0.5052886E+02  0.7816164E-02  0.1300439E+00
        -11   -1    0    0    0    0  0.00000000000E+00  0.00000000000E+00  0.45593999997E+02  0.45594000000E+02  0.51100000000E-03 0. -1.
         11   -1    0    0    0    0 -0.00000000000E+00 -0.00000000000E+00 -0.45593999997E+02  0.45594000000E+02  0.51100000000E-03 0.  1.
    9900012    2    1    2    0    0 -0.28415907505E+02 -0.23243925322E+02 -0.17476324167E+02  0.50528858714E+02  0.29999996547E+02 0.  0.
         12    1    1    2    0    0  0.28415907505E+02  0.23243925322E+02  0.17476324167E+02  0.40659141286E+02  0.00000000000E+00 0. -1.
         11    1    3    3    0    0 -0.73024920816E+01 -0.56443668682E+01  0.48814303986E+01  0.10440959292E+02  0.51100000000E-03 0. -1.
        -11    1    3    3    0    0 -0.16478198459E+02 -0.55938959352E+01 -0.43203738399E+01  0.17930095553E+02  0.51100000000E-03 0.  1.
         12    1    3    3    0    0 -0.46352169649E+01 -0.12005662519E+02 -0.18037380726E+02  0.22157803869E+02  0.00000000000E+00 0. -1.
</event>
<event>
 7    1  0.5902966E-013  0.5052886E+02  0.7816164E-02  0.1300439E+00
        -11   -1    0    0    0    0  0.00000000000E+00  0.00000000000E+00  0.45593999997E+02  0.45594000000E+02  0.51100000000E-03 0.  1.
         11   -1    0    0    0    0 -0.00000000000E+00 -0.00000000000E+00 -0.45593999997E+02  0.45594000000E+02  0.51100000000E-03 0. -1.
    9900012    2    1    2    0    0  0.40269982432E+02 -0.18261140008E+01 -0.53065452525E+01  0.50528860807E+02  0.30000002908E+02 0.  0.
         12    1    1    2    0    0 -0.40269982432E+02  0.18261140008E+01  0.53065452525E+01  0.40659139193E+02  0.00000000000E+00 0. -1.
         11    1    3    3    0    0  0.43340800677E+01 -0.42963864783E+01 -0.80590592308E+01  0.10108987227E+02  0.51100000000E-03 0. -1.
        -11    1    3    3    0    0  0.20378216169E+02 -0.10372587561E+01 -0.71807019615E+01  0.21631229297E+02  0.51100000000E-03 0.  1.
         12    1    3    3    0    0  0.15557686195E+02  0.35075312336E+01  0.99332159398E+01  0.18788644283E+02  0.00000000000E+00 0. -1.
</event>
<event>
 7    1  0.5902966E-013  0.5052886E+02  0.7816164E-02  0.1300439E+00
        -11   -1    0    0    0    0  0.00000000000E+00  0.00000000000E+00  0.45593999997E+02  0.45594000000E+02  0.51100000000E-03 0.  1.
         11   -1    0    0    0    0 -0.00000000000E+00 -0.00000000000E+00 -0.45593999997E+02  0.45594000000E+02  0.51100000000E-03 0. -1.
    9900012    2    1    2    0    0 -0.21343177147E+02 -0.31976574117E+02  0.13233801327E+02  0.50528855880E+02  0.29999987934E+02 0.  0.
         12    1    1    2    0    0  0.21343177147E+02  0.31976574117E+02 -0.13233801327E+02  0.40659144120E+02  0.00000000000E+00 0. -1.
         11    1    3    3    0    0  0.16630647129E+01 -0.11164389946E+01  0.11082148745E+01  0.22891834214E+01  0.51100000000E-03 0. -1.
        -11    1    3    3    0    0  0.40659198878E+01 -0.13257761918E+02  0.36140700402E+00  0.13871934648E+02  0.51100000000E-03 0.  1.
         12    1    3    3    0    0 -0.27072161748E+02 -0.17602373205E+02  0.11764179449E+02  0.34367737811E+02  0.00000000000E+00 0. -1.
</event>
<event>
 7    1  0.5902966E-013  0.5052882E+02  0.7816164E-02  0.1300439E+00
        -11   -1    0    0    0    0  0.00000000000E+00  0.00000000000E+00  0.45593999997E+02  0.45594000000E+02  0.51100000000E-03 0. -1.
         11   -1    0    0    0    0 -0.00000000000E+00 -0.00000000000E+00 -0.45593999997E+02  0.45594000000E+02  0.51100000000E-03 0.  1.
    9900012    2    1    2    0    0 -0.38716253430E+02  0.12357003278E+02 -0.12349662481E+01  0.50528819593E+02  0.29999877636E+02 0.  0.
         12    1    1    2    0    0  0.38716253430E+02 -0.12357003278E+02  0.12349662481E+01  0.40659180407E+02  0.00000000000E+00 0. -1.
         11    1    3    3    0    0 -0.25700945886E+01  0.23344633781E+01 -0.43949006478E+01  0.56009157665E+01  0.51100000000E-03 0. -1.
        -11    1    3    3    0    0 -0.11965470999E+02  0.54388060348E+01 -0.10461383432E+02  0.16798620505E+02  0.51100000000E-03 0.  1.
         12    1    3    3    0    0 -0.24180687843E+02  0.45837338648E+01  0.13621317832E+02  0.28129283322E+02  0.00000000000E+00 0. -1.
</event>
<event>
 7    1  0.5902966E-013  0.5052886E+02  0.7816164E-02  0.1300439E+00
        -11   -1    0    0    0    0  0.00000000000E+00  0.00000000000E+00  0.45593999997E+02  0.45594000000E+02  0.51100000000E-03 0.  1.
         11   -1    0    0    0    0 -0.00000000000E+00 -0.00000000000E+00 -0.45593999997E+02  0.45594000000E+02  0.51100000000E-03 0. -1.
    9900012    2    1    2    0    0  0.22969798267E+02  0.13579181403E+02  0.30678328736E+02  0.50528860142E+02  0.30000000888E+02 0.  0.
         12    1    1    2    0    0 -0.22969798267E+02 -0.13579181403E+02 -0.30678328736E+02  0.40659139858E+02  0.00000000000E+00 0. -1.
         11    1    3    3    0    0 -0.28550967374E+01  0.68740351530E+01  0.18088784954E+01  0.76600246955E+01  0.51100000000E-03 0. -1.
        -11    1    3    3    0    0  0.15907352215E+02  0.90252010659E+01  0.86559498032E+01  0.20234217949E+02  0.51100000000E-03 0.  1.
         12    1    3    3    0    0  0.99175427891E+01 -0.23200548161E+01  0.20213500437E+02  0.22634617497E+02  0.00000000000E+00 0. -1.
</event>
<event>
 7    1  0.5902966E-013  0.5052887E+02  0.7816164E-02  0.1300439E+00
        -11   -1    0    0    0    0  0.00000000000E+00  0.00000000000E+00  0.45593999997E+02  0.45594000000E+02  0.51100000000E-03 0. -1.
         11   -1    0    0    0    0 -0.00000000000E+00 -0.00000000000E+00 -0.45593999997E+02  0.45594000000E+02  0.51100000000E-03 0.  1.
    9900012    2    1    2    0    0 -0.23739269675E+02 -0.28260523905E+02  0.17057404916E+02  0.50528865743E+02  0.30000017911E+02 0.  0.
         12    1    1    2    0    0  0.23739269675E+02  0.28260523905E+02 -0.17057404916E+02  0.40659134257E+02  0.00000000000E+00 0. -1.
         11    1    3    3    0    0  0.27657908100E+01 -0.51700162943E+01  0.91590055883E+01  0.10875019582E+02  0.51100000000E-03 0. -1.
        -11    1    3    3    0    0 -0.27626020131E+00 -0.37805384710E+01 -0.34873832185E+01  0.51507895320E+01  0.51100000000E-03 0.  1.
        -12    1    3    3    0    0 -0.26228800284E+02 -0.19309969140E+02  0.11385782546E+02  0.34503056628E+02  0.00000000000E+00 0.  1.
</event>
<event>
 7    1  0.5902966E-013  0.5052886E+02  0.7816164E-02  0.1300439E+00
        -11   -1    0    0    0    0  0.00000000000E+00  0.00000000000E+00  0.45593999997E+02  0.45594000000E+02  0.51100000000E-03 0.  1.
         11   -1    0    0    0    0 -0.00000000000E+00 -0.00000000000E+00 -0.45593999997E+02  0.45594000000E+02  0.51100000000E-03 0. -1.
    9900012    2    1    2    0    0 -0.14525644697E+02 -0.30938521594E+02  0.22022238530E+02  0.50528862501E+02  0.30000008058E+02 0.  0.
         12    1    1    2    0    0  0.14525644697E+02  0.30938521594E+02 -0.22022238530E+02  0.40659137499E+02  0.00000000000E+00 0. -1.
         11    1    3    3    0    0 -0.15351031992E+02 -0.17792795642E+02  0.67843991403E+01  0.24459473256E+02  0.51100000000E-03 0. -1.
        -11    1    3    3    0    0 -0.55720628368E+01 -0.13569641828E+02  0.11570665613E+02  0.18683237583E+02  0.51100000000E-03 0.  1.
         12    1    3    3    0    0  0.63974501324E+01  0.42391587620E+00  0.36671737765E+01  0.73861516620E+01  0.00000000000E+00 0. -1.
</event>
<event>
 7    1  0.5902966E-013  0.5052887E+02  0.7816164E-02  0.1300439E+00
        -11   -1    0    0    0    0  0.00000000000E+00  0.00000000000E+00  0.45593999997E+02  0.45594000000E+02  0.51100000000E-03 0.  1.
         11   -1    0    0    0    0 -0.00000000000E+00 -0.00000000000E+00 -0.45593999997E+02  0.45594000000E+02  0.51100000000E-03 0. -1.
    9900012    2    1    2    0    0 -0.35905703471E+02 -0.17624027160E+02  0.73033333024E+01  0.50528873689E+02  0.30000042064E+02 0.  0.
         12    1    1    2    0    0  0.35905703471E+02  0.17624027160E+02 -0.73033333024E+01  0.40659126311E+02  0.00000000000E+00 0. -1.
         11    1    3    3    0    0 -0.22650706397E+02 -0.14213219233E+02 -0.90544881918E+01  0.28232142284E+02  0.51100000000E-03 0. -1.
        -11    1    3    3    0    0 -0.18483151071E+01 -0.61651209535E+00  0.70419618208E+01  0.73065438099E+01  0.51100000000E-03 0.  1.
        -12    1    3    3    0    0 -0.11406681967E+02 -0.27942958316E+01  0.93158596734E+01  0.14990187595E+02  0.00000000000E+00 0.  1.
</event>
<event>
 7    1  0.5902966E-013  0.5052887E+02  0.7816164E-02  0.1300439E+00
        -11   -1    0    0    0    0  0.00000000000E+00  0.00000000000E+00  0.45593999997E+02  0.45594000000E+02  0.51100000000E-03 0.  1.
         11   -1    0    0    0    0 -0.00000000000E+00 -0.00000000000E+00 -0.45593999997E+02  0.45594000000E+02  0.51100000000E-03 0. -1.
    9900012    2    1    2    0    0  0.20456137173E+02  0.20262578302E+02  0.28707818935E+02  0.50528874389E+02  0.30000044192E+02 0.  0.
         12    1    1    2    0    0 -0.20456137173E+02 -0.20262578302E+02 -0.28707818935E+02  0.40659125611E+02  0.00000000000E+00 0. -1.
         11    1    3    3    0    0  0.91399940190E+01  0.12298933086E+02  0.22854072886E+02  0.27515666328E+02  0.51100000000E-03 0.  1.
        -11    1    3    3    0    0  0.14378659905E+02  0.19980061951E+01  0.71518413286E+01  0.16182914573E+02  0.51100000000E-03 0. -1.
         12    1    3    3    0    0 -0.30625167509E+01  0.59656390205E+01 -0.12980952801E+01  0.68302934877E+01  0.00000000000E+00 0. -1.
</event>
<event>
 7    1  0.5902966E-013  0.5052887E+02  0.7816164E-02  0.1300439E+00
        -11   -1    0    0    0    0  0.00000000000E+00  0.00000000000E+00  0.45593999997E+02  0.45594000000E+02  0.51100000000E-03 0.  1.
         11   -1    0    0    0    0 -0.00000000000E+00 -0.00000000000E+00 -0.45593999997E+02  0.45594000000E+02  0.51100000000E-03 0. -1.
    9900012    2    1    2    0    0  0.40525245155E+02  0.17887545595E+01  0.27694788782E+01  0.50528866328E+02  0.30000019689E+02 0.  0.
         12    1    1    2    0    0 -0.40525245155E+02 -0.17887545595E+01 -0.27694788782E+01  0.40659133672E+02  0.00000000000E+00 0. -1.
         11    1    3    3    0    0  0.45884006528E+01 -0.30399548232E+01 -0.62050871353E+01  0.82944470880E+01  0.51100000000E-03 0. -1.
        -11    1    3    3    0    0  0.29833857204E+02 -0.35663210615E+01  0.28451247369E+01  0.30180662959E+02  0.51100000000E-03 0.  1.
        -12    1    3    3    0    0  0.61029872978E+01  0.83950304441E+01  0.61294412766E+01  0.12053756281E+02  0.00000000000E+00 0.  1.
</event>
<event>
 7    1  0.5902966E-013  0.5052886E+02  0.7816164E-02  0.1300439E+00
        -11   -1    0    0    0    0  0.00000000000E+00  0.00000000000E+00  0.45593999997E+02  0.45594000000E+02  0.51100000000E-03 0.  1.
         11   -1    0    0    0    0 -0.00000000000E+00 -0.00000000000E+00 -0.45593999997E+02  0.45594000000E+02  0.51100000000E-03 0. -1.
    9900012    2    1    2    0    0  0.34189186955E+02  0.21000890321E+02  0.65747796800E+01  0.50528860477E+02  0.30000001906E+02 0.  0.
         12    1    1    2    0    0 -0.34189186955E+02 -0.21000890321E+02 -0.65747796800E+01  0.40659139523E+02  0.00000000000E+00 0. -1.
         11    1    3    3    0    0  0.73233456323E+01  0.13398163571E+02  0.82578074811E+01  0.17358962037E+02  0.51100000000E-03 0. -1.
        -11    1    3    3    0    0  0.10069081089E+02  0.99337073264E+00  0.78043139851E+01  0.12778125701E+02  0.51100000000E-03 0.  1.
         12    1    3    3    0    0  0.16796760234E+02  0.66093560170E+01 -0.94873417861E+01  0.20391772740E+02  0.00000000000E+00 0. -1.
</event>
<event>
 7    1  0.5902966E-013  0.5052887E+02  0.7816164E-02  0.1300439E+00
        -11   -1    0    0    0    0  0.00000000000E+00  0.00000000000E+00  0.45593999997E+02  0.45594000000E+02  0.51100000000E-03 0. -1.
         11   -1    0    0    0    0 -0.00000000000E+00 -0.00000000000E+00 -0.45593999997E+02  0.45594000000E+02  0.51100000000E-03 0.  1.
    9900012    2    1    2    0    0  0.35190118995E+02  0.87156419011E+01  0.18408098107E+02  0.50528868620E+02  0.30000026657E+02 0.  0.
         12    1    1    2    0    0 -0.35190118995E+02 -0.87156419011E+01 -0.18408098107E+02  0.40659131380E+02  0.00000000000E+00 0. -1.
         11    1    3    3    0    0  0.92533749587E+01 -0.49386832579E+01 -0.16561666238E+00  0.10490136776E+02  0.51100000000E-03 0. -1.
        -11    1    3    3    0    0  0.13386967162E+02 -0.29372739992E+01  0.12014140969E+02  0.18225752435E+02  0.51100000000E-03 0.  1.
        -12    1    3    3    0    0  0.12549776875E+02  0.16591599158E+02  0.65595738005E+01  0.21812979409E+02  0.00000000000E+00 0.  1.
</event>
<event>
 7    1  0.5902966E-013  0.5052886E+02  0.7816164E-02  0.1300439E+00
        -11   -1    0    0    0    0  0.00000000000E+00  0.00000000000E+00  0.45593999997E+02  0.45594000000E+02  0.51100000000E-03 0.  1.
         11   -1    0    0    0    0 -0.00000000000E+00 -0.00000000000E+00 -0.45593999997E+02  0.45594000000E+02  0.51100000000E-03 0. -1.
    9900012    2    1    2    0    0  0.33220707618E+02 -0.10424764612E+02  0.20997014988E+02  0.50528858712E+02  0.29999996542E+02 0.  0.
         12    1    1    2    0    0 -0.33220707618E+02  0.10424764612E+02 -0.20997014988E+02  0.40659141288E+02  0.00000000000E+00 0. -1.
         11    1    3    3    0    0  0.23687717299E+02 -0.10908151234E+02  0.11475391546E+02  0.28491758906E+02  0.51100000000E-03 0. -1.
        -11    1    3    3    0    0 -0.12178147644E+01 -0.62858141913E+01  0.61842439952E+01  0.89016519198E+01  0.51100000000E-03 0.  1.
        -12    1    3    3    0    0  0.10750805083E+02  0.67692008135E+01  0.33373794467E+01  0.13135447886E+02  0.00000000000E+00 0.  1.
</event>
<event>
 7    1  0.5902966E-013  0.5052886E+02  0.7816164E-02  0.1300439E+00
        -11   -1    0    0    0    0  0.00000000000E+00  0.00000000000E+00  0.45593999997E+02  0.45594000000E+02  0.51100000000E-03 0.  1.
         11   -1    0    0    0    0 -0.00000000000E+00 -0.00000000000E+00 -0.45593999997E+02  0.45594000000E+02  0.51100000000E-03 0. -1.
    9900012    2    1    2    0    0  0.26446929195E+02  0.82344622329E+01 -0.29764397101E+02  0.50528858754E+02  0.29999996669E+02 0.  0.
         12    1    1    2    0    0 -0.26446929195E+02 -0.82344622329E+01  0.29764397101E+02  0.40659141246E+02  0.00000000000E+00 0. -1.
         11    1    3    3    0    0  0.23967540541E+02  0.87497312271E+01 -0.22278284403E+02  0.33872153051E+02  0.51100000000E-03 0. -1.
        -11    1    3    3    0    0  0.29874117255E+01  0.20499439296E+01 -0.11393105510E+02  0.11955323181E+02  0.51100000000E-03 0.  1.
        -12    1    3    3    0    0 -0.50802307213E+00 -0.25652129237E+01  0.39069928119E+01  0.47013825220E+01  0.00000000000E+00 0.  1.
</event>
<event>
 7    1  0.5902966E-013  0.5052887E+02  0.7816164E-02  0.1300439E+00
        -11   -1    0    0    0    0  0.00000000000E+00  0.00000000000E+00  0.45593999997E+02  0.45594000000E+02  0.51100000000E-03 0.  1.
         11   -1    0    0    0    0 -0.00000000000E+00 -0.00000000000E+00 -0.45593999997E+02  0.45594000000E+02  0.51100000000E-03 0. -1.
    9900012    2    1    2    0    0  0.36570782561E+02 -0.13273072215E+02  0.11813913951E+02  0.50528866389E+02  0.30000019877E+02 0.  0.
         12    1    1    2    0    0 -0.36570782561E+02  0.13273072215E+02 -0.11813913951E+02  0.40659133611E+02  0.00000000000E+00 0. -1.
         11    1    3    3    0    0  0.53469727703E+01 -0.68810917192E+01  0.40610515351E+00  0.87237871771E+01  0.51100000000E-03 0. -1.
        -11    1    3    3    0    0  0.74488677439E+00 -0.92832663892E+01  0.58053401959E+00  0.93311795165E+01  0.51100000000E-03 0.  1.
         12    1    3    3    0    0  0.30478923016E+02  0.28912858931E+01  0.10827274778E+02  0.32473899696E+02  0.00000000000E+00 0. -1.
</event>
<event>
 7    1  0.5902966E-013  0.5052887E+02  0.7816164E-02  0.1300439E+00
        -11   -1    0    0    0    0  0.00000000000E+00  0.00000000000E+00  0.45593999997E+02  0.45594000000E+02  0.51100000000E-03 0. -1.
         11   -1    0    0    0    0 -0.00000000000E+00 -0.00000000000E+00 -0.45593999997E+02  0.45594000000E+02  0.51100000000E-03 0.  1.
    9900012    2    1    2    0    0  0.39743735573E+02  0.61810082423E+01  0.59493935361E+01  0.50528872321E+02  0.30000037907E+02 0.  0.
         12    1    1    2    0    0 -0.39743735573E+02 -0.61810082423E+01 -0.59493935361E+01  0.40659127679E+02  0.00000000000E+00 0. -1.
         11    1    3    3    0    0  0.35396493501E+01  0.55444560787E+01  0.53764596233E+01  0.84956711962E+01  0.51100000000E-03 0. -1.
        -11    1    3    3    0    0  0.37278322117E+02 -0.95289523460E+00  0.45993990046E+01  0.37573072548E+02  0.51100000000E-03 0.  1.
         12    1    3    3    0    0 -0.10742358948E+01  0.15894473981E+01 -0.40264650918E+01  0.44601285771E+01  0.00000000000E+00 0. -1.
</event>
<event>
 7    1  0.5902966E-013  0.5052888E+02  0.7816164E-02  0.1300439E+00
        -11   -1    0    0    0    0  0.00000000000E+00  0.00000000000E+00  0.45593999997E+02  0.45594000000E+02  0.51100000000E-03 0.  1.
         11   -1    0    0    0    0 -0.00000000000E+00 -0.00000000000E+00 -0.45593999997E+02  0.45594000000E+02  0.51100000000E-03 0. -1.
    9900012    2    1    2    0    0  0.22805445240E+01 -0.30901381633E+02  0.26326177503E+02  0.50528881809E+02  0.30000066747E+02 0.  0.
         12    1    1    2    0    0 -0.22805445240E+01  0.30901381633E+02 -0.26326177503E+02  0.40659118191E+02  0.00000000000E+00 0. -1.
         11    1    3    3    0    0  0.25171187444E+01 -0.13930309633E+01 -0.39277605175E+01  0.48686471409E+01  0.51100000000E-03 0. -1.
        -11    1    3    3    0    0  0.33686666360E+01 -0.22539120323E+02  0.11921778057E+02  0.25719421692E+02  0.51100000000E-03 0.  1.
        -12    1    3    3    0    0 -0.36052408565E+01 -0.69692303464E+01  0.18332159963E+02  0.19940812977E+02  0.00000000000E+00 0.  1.
</event>
<event>
 7    1  0.5902966E-013  0.5052886E+02  0.7816164E-02  0.1300439E+00
        -11   -1    0    0    0    0  0.00000000000E+00  0.00000000000E+00  0.45593999997E+02  0.45594000000E+02  0.51100000000E-03 0.  1.
         11   -1    0    0    0    0 -0.00000000000E+00 -0.00000000000E+00 -0.45593999997E+02  0.45594000000E+02  0.51100000000E-03 0. -1.
    9900012    2    1    2    0    0 -0.76870409546E+01  0.32000324194E+02 -0.23875814537E+02  0.50528857523E+02  0.29999992927E+02 0.  0.
         12    1    1    2    0    0  0.76870409546E+01 -0.32000324194E+02  0.23875814537E+02  0.40659142477E+02  0.00000000000E+00 0. -1.
         11    1    3    3    0    0 -0.31685149914E+01  0.98998558118E+01 -0.10725617345E+02  0.14936047002E+02  0.51100000000E-03 0. -1.
        -11    1    3    3    0    0  0.90324779647E+01  0.12858644707E+02 -0.10693455670E+02  0.19007377418E+02  0.51100000000E-03 0.  1.
         12    1    3    3    0    0 -0.13551003928E+02  0.92418236751E+01 -0.24567415209E+01  0.16585433103E+02  0.00000000000E+00 0. -1.
</event>
<event>
 7    1  0.5902966E-013  0.5052889E+02  0.7816164E-02  0.1300439E+00
        -11   -1    0    0    0    0  0.00000000000E+00  0.00000000000E+00  0.45593999997E+02  0.45594000000E+02  0.51100000000E-03 0.  1.
         11   -1    0    0    0    0 -0.00000000000E+00 -0.00000000000E+00 -0.45593999997E+02  0.45594000000E+02  0.51100000000E-03 0. -1.
    9900012    2    1    2    0    0  0.12997828397E+02 -0.65712200487E+01  0.37961017981E+02  0.50528888326E+02  0.30000086554E+02 0.  0.
         12    1    1    2    0    0 -0.12997828397E+02  0.65712200487E+01 -0.37961017981E+02  0.40659111674E+02  0.00000000000E+00 0. -1.
         11    1    3    3    0    0  0.10279177041E+02 -0.30726078647E+01  0.10419391986E+02  0.14955471552E+02  0.51100000000E-03 0. -1.
        -11    1    3    3    0    0  0.10349943444E+02 -0.73133307561E+01  0.10279035485E+02  0.16317619520E+02  0.51100000000E-03 0.  1.
        -12    1    3    3    0    0 -0.76312920883E+01  0.38147185721E+01  0.17262590510E+02  0.19255797253E+02  0.00000000000E+00 0.  1.
</event>
<event>
 7    1  0.5902966E-013  0.5052885E+02  0.7816164E-02  0.1300439E+00
        -11   -1    0    0    0    0  0.00000000000E+00  0.00000000000E+00  0.45593999997E+02  0.45594000000E+02  0.51100000000E-03 0.  1.
         11   -1    0    0    0    0 -0.00000000000E+00 -0.00000000000E+00 -0.45593999997E+02  0.45594000000E+02  0.51100000000E-03 0. -1.
    9900012    2    1    2    0    0 -0.15136461041E+02 -0.19652741644E+02  0.32215274276E+02  0.50528848464E+02  0.29999965391E+02 0.  0.
         12    1    1    2    0    0  0.15136461041E+02  0.19652741644E+02 -0.32215274276E+02  0.40659151536E+02  0.00000000000E+00 0. -1.
         11    1    3    3    0    0 -0.13097853324E+02 -0.17319220005E+01  0.33753439492E+01  0.13636211444E+02  0.51100000000E-03 0. -1.
        -11    1    3    3    0    0 -0.72712428192E+01 -0.96596824971E+01  0.10097345718E+02  0.15752359471E+02  0.51100000000E-03 0.  1.
        -12    1    3    3    0    0  0.52326351019E+01 -0.82611371461E+01  0.18742584609E+02  0.21140277550E+02  0.00000000000E+00 0.  1.
</event>
<event>
 7    1  0.5902966E-013  0.5052887E+02  0.7816164E-02  0.1300439E+00
        -11   -1    0    0    0    0  0.00000000000E+00  0.00000000000E+00  0.45593999997E+02  0.45594000000E+02  0.51100000000E-03 0.  1.
         11   -1    0    0    0    0 -0.00000000000E+00 -0.00000000000E+00 -0.45593999997E+02  0.45594000000E+02  0.51100000000E-03 0. -1.
    9900012    2    1    2    0    0 -0.37400542745E+02  0.15761253523E+02 -0.24386644267E+01  0.50528870713E+02  0.30000033019E+02 0.  0.
         12    1    1    2    0    0  0.37400542745E+02 -0.15761253523E+02  0.24386644267E+01  0.40659129287E+02  0.00000000000E+00 0. -1.
         11    1    3    3    0    0 -0.29399779957E+01 -0.59725317097E+01 -0.20044090328E+00  0.66599386225E+01  0.51100000000E-03 0. -1.
        -11    1    3    3    0    0 -0.20303466283E+02  0.33245445515E+01 -0.16167369523E+01  0.20637276424E+02  0.51100000000E-03 0.  1.
        -12    1    3    3    0    0 -0.14157098466E+02  0.18409240681E+02 -0.62148657112E+00  0.23231655666E+02  0.00000000000E+00 0.  1.
</event>
<event>
 7    1  0.5902966E-013  0.5052886E+02  0.7816164E-02  0.1300439E+00
        -11   -1    0    0    0    0  0.00000000000E+00  0.00000000000E+00  0.45593999997E+02  0.45594000000E+02  0.51100000000E-03 0. -1.
         11   -1    0    0    0    0 -0.00000000000E+00 -0.00000000000E+00 -0.45593999997E+02  0.45594000000E+02  0.51100000000E-03 0.  1.
    9900012    2    1    2    0    0  0.11551803412E+02  0.28439221989E+02 -0.26663313269E+02  0.50528858545E+02  0.29999996033E+02 0.  0.
         12    1    1    2    0    0 -0.11551803412E+02 -0.28439221989E+02  0.26663313269E+02  0.40659141455E+02  0.00000000000E+00 0. -1.
         11    1    3    3    0    0 -0.45202643152E+01  0.10511275007E+01 -0.67704181053E+01  0.82083019001E+01  0.51100000000E-03 0. -1.
        -11    1    3    3    0    0  0.96905412121E+01  0.67694240907E+01 -0.16762200616E+02  0.20511047297E+02  0.51100000000E-03 0.  1.
        -12    1    3    3    0    0  0.63815265147E+01  0.20618670397E+02 -0.31306945480E+01  0.21809509347E+02  0.00000000000E+00 0.  1.
</event>
<event>
 7    1  0.5902966E-013  0.5052886E+02  0.7816164E-02  0.1300439E+00
        -11   -1    0    0    0    0  0.00000000000E+00  0.00000000000E+00  0.45593999997E+02  0.45594000000E+02  0.51100000000E-03 0. -1.
         11   -1    0    0    0    0 -0.00000000000E+00 -0.00000000000E+00 -0.45593999997E+02  0.45594000000E+02  0.51100000000E-03 0.  1.
    9900012    2    1    2    0    0  0.90895057709E+01  0.39630119567E+02 -0.24015984687E-01  0.50528855041E+02  0.29999985383E+02 0.  0.
         12    1    1    2    0    0 -0.90895057709E+01 -0.39630119567E+02  0.24015984687E-01  0.40659144959E+02  0.00000000000E+00 0. -1.
         11    1    3    3    0    0  0.97710440582E+01  0.10008506626E+02 -0.12419365757E+00  0.13987813667E+02  0.51100000000E-03 0. -1.
        -11    1    3    3    0    0 -0.21045705891E+01  0.19686205361E+02 -0.10104349673E+02  0.22227770501E+02  0.51100000000E-03 0.  1.
         12    1    3    3    0    0  0.14230323019E+01  0.99354075794E+01  0.10204527346E+02  0.14313270872E+02  0.00000000000E+00 0. -1.
</event>
<event>
 7    1  0.5902966E-013  0.5052886E+02  0.7816164E-02  0.1300439E+00
        -11   -1    0    0    0    0  0.00000000000E+00  0.00000000000E+00  0.45593999997E+02  0.45594000000E+02  0.51100000000E-03 0.  1.
         11   -1    0    0    0    0 -0.00000000000E+00 -0.00000000000E+00 -0.45593999997E+02  0.45594000000E+02  0.51100000000E-03 0. -1.
    9900012    2    1    2    0    0 -0.35069830284E+02  0.91283522504E+00  0.20553325187E+02  0.50528862767E+02  0.30000008867E+02 0.  0.
         12    1    1    2    0    0  0.35069830284E+02 -0.91283522504E+00 -0.20553325187E+02  0.40659137233E+02  0.00000000000E+00 0. -1.
         11    1    3    3    0    0 -0.19707949411E+02 -0.78613847694E+01  0.13087948226E+02  0.24929882260E+02  0.51100000000E-03 0. -1.
        -11    1    3    3    0    0 -0.15791044045E+02  0.35157448236E+01  0.10713325800E+02  0.19403424534E+02  0.51100000000E-03 0.  1.
         12    1    3    3    0    0  0.42916317211E+00  0.52584751708E+01 -0.32479488389E+01  0.61955559727E+01  0.00000000000E+00 0. -1.
</event>
<event>
 7    1  0.5902966E-013  0.5052885E+02  0.7816164E-02  0.1300439E+00
        -11   -1    0    0    0    0  0.00000000000E+00  0.00000000000E+00  0.45593999997E+02  0.45594000000E+02  0.51100000000E-03 0. -1.
         11   -1    0    0    0    0 -0.00000000000E+00 -0.00000000000E+00 -0.45593999997E+02  0.45594000000E+02  0.51100000000E-03 0.  1.
    9900012    2    1    2    0    0 -0.34892990070E+02 -0.12449627567E+02 -0.16752678151E+02  0.50528853332E+02  0.29999980187E+02 0.  0.
         12    1    1    2    0    0  0.34892990070E+02  0.12449627567E+02  0.16752678151E+02  0.40659146668E+02  0.00000000000E+00 0. -1.
         11    1    3    3    0    0 -0.28238659387E+01 -0.91795068720E+01 -0.56056740069E+01  0.11120303350E+02  0.51100000000E-03 0. -1.
        -11    1    3    3    0    0 -0.51678441288E+01 -0.59964818021E+01 -0.94340517986E+01  0.12315264534E+02  0.51100000000E-03 0.  1.
         12    1    3    3    0    0 -0.26901280002E+02  0.27263611070E+01 -0.17129523451E+01  0.27093285448E+02  0.00000000000E+00 0. -1.
</event>
<event>
 7    1  0.5902966E-013  0.5052886E+02  0.7816164E-02  0.1300439E+00
        -11   -1    0    0    0    0  0.00000000000E+00  0.00000000000E+00  0.45593999997E+02  0.45594000000E+02  0.51100000000E-03 0. -1.
         11   -1    0    0    0    0 -0.00000000000E+00 -0.00000000000E+00 -0.45593999997E+02  0.45594000000E+02  0.51100000000E-03 0.  1.
    9900012    2    1    2    0    0 -0.15440494918E+02  0.37310341599E+02  0.47639079922E+01  0.50528864582E+02  0.30000014384E+02 0.  0.
         12    1    1    2    0    0  0.15440494918E+02 -0.37310341599E+02 -0.47639079922E+01  0.40659135418E+02  0.00000000000E+00 0. -1.
         11    1    3    3    0    0  0.22667418086E+01 -0.13864850209E+01 -0.26023319446E+01  0.37192191319E+01  0.51100000000E-03 0. -1.
        -11    1    3    3    0    0 -0.58006213179E+01  0.21878589657E+02 -0.44326655725E+01  0.23064440539E+02  0.51100000000E-03 0.  1.
         12    1    3    3    0    0 -0.11906615409E+02  0.16818236963E+02  0.11798905509E+02  0.23745204911E+02  0.00000000000E+00 0. -1.
</event>
<event>
 7    1  0.5902966E-013  0.5052886E+02  0.7816164E-02  0.1300439E+00
        -11   -1    0    0    0    0  0.00000000000E+00  0.00000000000E+00  0.45593999997E+02  0.45594000000E+02  0.51100000000E-03 0. -1.
         11   -1    0    0    0    0 -0.00000000000E+00 -0.00000000000E+00 -0.45593999997E+02  0.45594000000E+02  0.51100000000E-03 0.  1.
    9900012    2    1    2    0    0 -0.15834915057E+02 -0.35677469414E+02 -0.11381528548E+02  0.50528861412E+02  0.30000004748E+02 0.  0.
         12    1    1    2    0    0  0.15834915057E+02  0.35677469414E+02  0.11381528548E+02  0.40659138588E+02  0.00000000000E+00 0. -1.
         11    1    3    3    0    0 -0.38332879386E+01  0.40917122908E+01  0.83605757158E+00  0.56687916186E+01  0.51100000000E-03 0. -1.
        -11    1    3    3    0    0  0.15530569995E+01 -0.10558979958E+02 -0.83347292363E+00  0.10705079223E+02  0.51100000000E-03 0.  1.
         12    1    3    3    0    0 -0.13554684118E+02 -0.29210201746E+02 -0.11384113196E+02  0.34154990570E+02  0.00000000000E+00 0. -1.
</event>
<event>
 7    1  0.5902966E-013  0.5052883E+02  0.7816164E-02  0.1300439E+00
        -11   -1    0    0    0    0  0.00000000000E+00  0.00000000000E+00  0.45593999997E+02  0.45594000000E+02  0.51100000000E-03 0.  1.
         11   -1    0    0    0    0 -0.00000000000E+00 -0.00000000000E+00 -0.45593999997E+02  0.45594000000E+02  0.51100000000E-03 0. -1.
    9900012    2    1    2    0    0  0.15798346355E+02  0.87731377693E+01  0.36422687929E+02  0.50528832647E+02  0.29999917315E+02 0.  0.
         12    1    1    2    0    0 -0.15798346355E+02 -0.87731377693E+01 -0.36422687929E+02  0.40659167353E+02  0.00000000000E+00 0. -1.
         11    1    3    3    0    0  0.12081210966E+02  0.14125820041E+00  0.70288337655E+01  0.13977843777E+02  0.51100000000E-03 0. -1.
        -11    1    3    3    0    0  0.70716507574E+01 -0.21746753130E+01  0.21545346744E+02  0.22780241960E+02  0.51100000000E-03 0.  1.
         12    1    3    3    0    0 -0.33545153688E+01  0.10806554882E+02  0.78485074188E+01  0.13770746911E+02  0.00000000000E+00 0. -1.
</event>
<event>
 7    1  0.5902966E-013  0.5052889E+02  0.7816164E-02  0.1300439E+00
        -11   -1    0    0    0    0  0.00000000000E+00  0.00000000000E+00  0.45593999997E+02  0.45594000000E+02  0.51100000000E-03 0.  1.
         11   -1    0    0    0    0 -0.00000000000E+00 -0.00000000000E+00 -0.45593999997E+02  0.45594000000E+02  0.51100000000E-03 0. -1.
    9900012    2    1    2    0    0  0.72525777671E+01 -0.25154637219E+02  0.31109609482E+02  0.50528887123E+02  0.30000082898E+02 0.  0.
         12    1    1    2    0    0 -0.72525777671E+01  0.25154637219E+02 -0.31109609482E+02  0.40659112877E+02  0.00000000000E+00 0. -1.
         11    1    3    3    0    0  0.38972631395E+01  0.15211370456E+01  0.33226880350E+01  0.53425437695E+01  0.51100000000E-03 0. -1.
        -11    1    3    3    0    0  0.85169394198E+01 -0.43527152080E+00  0.96216030303E+01  0.12857020009E+02  0.51100000000E-03 0.  1.
        -12    1    3    3    0    0 -0.51616247921E+01 -0.26240502743E+02  0.18165318416E+02  0.32329323344E+02  0.00000000000E+00 0.  1.
</event>
<event>
 7    1  0.5902966E-013  0.5052885E+02  0.7816164E-02  0.1300439E+00
        -11   -1    0    0    0    0  0.00000000000E+00  0.00000000000E+00  0.45593999997E+02  0.45594000000E+02  0.51100000000E-03 0. -1.
         11   -1    0    0    0    0 -0.00000000000E+00 -0.00000000000E+00 -0.45593999997E+02  0.45594000000E+02  0.51100000000E-03 0.  1.
    9900012    2    1    2    0    0 -0.27533934500E+02  0.26552106455E+02 -0.13785303233E+02  0.50528849843E+02  0.29999969584E+02 0.  0.
         12    1    1    2    0    0  0.27533934500E+02 -0.26552106455E+02  0.13785303233E+02  0.40659150157E+02  0.00000000000E+00 0. -1.
         11    1    3    3    0    0 -0.18287231837E+02  0.81759301670E+01 -0.13959624188E+01  0.20080273746E+02  0.51100000000E-03 0. -1.
        -11    1    3    3    0    0 -0.11160742078E+02  0.21377750410E+02 -0.97284244578E+01  0.26004088506E+02  0.51100000000E-03 0.  1.
         12    1    3    3    0    0  0.19140394162E+01 -0.30015741218E+01 -0.26609163562E+01  0.44444875914E+01  0.00000000000E+00 0. -1.
</event>
<event>
 7    1  0.5902966E-013  0.5052887E+02  0.7816164E-02  0.1300439E+00
        -11   -1    0    0    0    0  0.00000000000E+00  0.00000000000E+00  0.45593999997E+02  0.45594000000E+02  0.51100000000E-03 0. -1.
         11   -1    0    0    0    0 -0.00000000000E+00 -0.00000000000E+00 -0.45593999997E+02  0.45594000000E+02  0.51100000000E-03 0.  1.
    9900012    2    1    2    0    0  0.18648845980E+02  0.23454673385E+02 -0.27482059760E+02  0.50528871030E+02  0.30000033982E+02 0.  0.
         12    1    1    2    0    0 -0.18648845980E+02 -0.23454673385E+02  0.27482059760E+02  0.40659128970E+02  0.00000000000E+00 0. -1.
         11    1    3    3    0    0 -0.10722581976E+01 -0.39221478989E+00 -0.92778172432E+01  0.93478052581E+01  0.51100000000E-03 0. -1.
        -11    1    3    3    0    0 -0.81127150782E-02  0.13938660609E+02 -0.11608024254E+02  0.18139254470E+02  0.51100000000E-03 0.  1.
        -12    1    3    3    0    0  0.19729216892E+02  0.99082275660E+01 -0.65962182627E+01  0.23041811301E+02  0.00000000000E+00 0.  1.
</event>
<event>
 7    1  0.5902966E-013  0.5052886E+02  0.7816164E-02  0.1300439E+00
        -11   -1    0    0    0    0  0.00000000000E+00  0.00000000000E+00  0.45593999997E+02  0.45594000000E+02  0.51100000000E-03 0.  1.
         11   -1    0    0    0    0 -0.00000000000E+00 -0.00000000000E+00 -0.45593999997E+02  0.45594000000E+02  0.51100000000E-03 0. -1.
    9900012    2    1    2    0    0 -0.11935173034E+02  0.12131061230E+01  0.38849010164E+02  0.50528861144E+02  0.30000003932E+02 0.  0.
         12    1    1    2    0    0  0.11935173034E+02 -0.12131061230E+01 -0.38849010164E+02  0.40659138856E+02  0.00000000000E+00 0. -1.
         11    1    3    3    0    0  0.58596131208E-01  0.14794201926E-01 -0.45566847997E+01  0.45570855818E+01  0.51100000000E-03 0. -1.
        -11    1    3    3    0    0 -0.27583811524E+01  0.45458788398E+01  0.15727261788E+02  0.16601820521E+02  0.51100000000E-03 0.  1.
        -12    1    3    3    0    0 -0.92353880129E+01 -0.33475669187E+01  0.27678433176E+02  0.29369955040E+02  0.00000000000E+00 0.  1.
</event>
<event>
 7    1  0.5902966E-013  0.5052883E+02  0.7816164E-02  0.1300439E+00
        -11   -1    0    0    0    0  0.00000000000E+00  0.00000000000E+00  0.45593999997E+02  0.45594000000E+02  0.51100000000E-03 0. -1.
         11   -1    0    0    0    0 -0.00000000000E+00 -0.00000000000E+00 -0.45593999997E+02  0.45594000000E+02  0.51100000000E-03 0.  1.
    9900012    2    1    2    0    0 -0.31611319200E+02  0.19063928062E+02 -0.17042860689E+02  0.50528831844E+02  0.29999914873E+02 0.  0.
         12    1    1    2    0    0  0.31611319200E+02 -0.19063928062E+02  0.17042860689E+02  0.40659168156E+02  0.00000000000E+00 0. -1.
         11    1    3    3    0    0 -0.60013329152E+01 -0.54212327013E+01  0.54874710541E+00  0.81059783129E+01  0.51100000000E-03 0. -1.
        -11    1    3    3    0    0 -0.15423270364E+02  0.49053799614E+01 -0.46589279801E+01  0.16841782313E+02  0.51100000000E-03 0.  1.
         12    1    3    3    0    0 -0.10186715920E+02  0.19579780802E+02 -0.12932679814E+02  0.25581071218E+02  0.00000000000E+00 0. -1.
</event>
<event>
 7    1  0.5902966E-013  0.5052885E+02  0.7816164E-02  0.1300439E+00
        -11   -1    0    0    0    0  0.00000000000E+00  0.00000000000E+00  0.45593999997E+02  0.45594000000E+02  0.51100000000E-03 0.  1.
         11   -1    0    0    0    0 -0.00000000000E+00 -0.00000000000E+00 -0.45593999997E+02  0.45594000000E+02  0.51100000000E-03 0. -1.
    9900012    2    1    2    0    0 -0.28249034039E+02 -0.28338325097E+02  0.72178622601E+01  0.50528854300E+02  0.29999983130E+02 0.  0.
         12    1    1    2    0    0  0.28249034039E+02  0.28338325097E+02 -0.72178622601E+01  0.40659145700E+02  0.00000000000E+00 0. -1.
         11    1    3    3    0    0 -0.11791372096E+02 -0.49602781266E+01  0.10686633497E+02  0.16668681735E+02  0.51100000000E-03 0. -1.
        -11    1    3    3    0    0 -0.16995012433E+02 -0.24361208313E+02  0.52913805293E+00  0.29708229590E+02  0.51100000000E-03 0.  1.
         12    1    3    3    0    0  0.53735048920E+00  0.98316134267E+00 -0.39979092901E+01  0.41519429748E+01  0.00000000000E+00 0. -1.
</event>
<event>
 7    1  0.5902966E-013  0.5052885E+02  0.7816164E-02  0.1300439E+00
        -11   -1    0    0    0    0  0.00000000000E+00  0.00000000000E+00  0.45593999997E+02  0.45594000000E+02  0.51100000000E-03 0. -1.
         11   -1    0    0    0    0 -0.00000000000E+00 -0.00000000000E+00 -0.45593999997E+02  0.45594000000E+02  0.51100000000E-03 0.  1.
    9900012    2    1    2    0    0 -0.44555673774E+00  0.39202211808E+02 -0.10777484325E+02  0.50528854660E+02  0.29999984223E+02 0.  0.
         12    1    1    2    0    0  0.44555673774E+00 -0.39202211808E+02  0.10777484325E+02  0.40659145340E+02  0.00000000000E+00 0. -1.
         11    1    3    3    0    0  0.96280043095E+00 -0.77932642511E+00  0.45620250542E+00  0.13200209596E+01  0.51100000000E-03 0. -1.
        -11    1    3    3    0    0  0.73898489209E+01  0.33524567326E+02 -0.15270894156E+02  0.37572685425E+02  0.51100000000E-03 0.  1.
        -12    1    3    3    0    0 -0.87982060896E+01  0.64569709065E+01  0.40372073249E+01  0.11636148275E+02  0.00000000000E+00 0.  1.
</event>
<event>
 7    1  0.5902966E-013  0.5052886E+02  0.7816164E-02  0.1300439E+00
        -11   -1    0    0    0    0  0.00000000000E+00  0.00000000000E+00  0.45593999997E+02  0.45594000000E+02  0.51100000000E-03 0.  1.
         11   -1    0    0    0    0 -0.00000000000E+00 -0.00000000000E+00 -0.45593999997E+02  0.45594000000E+02  0.51100000000E-03 0. -1.
    9900012    2    1    2    0    0  0.13826081861E+02 -0.26088068614E+02  0.27953851353E+02  0.50528859956E+02  0.30000000322E+02 0.  0.
         12    1    1    2    0    0 -0.13826081861E+02  0.26088068614E+02 -0.27953851353E+02  0.40659140044E+02  0.00000000000E+00 0. -1.
         11    1    3    3    0    0  0.91264433312E+01 -0.11030618767E+02  0.35812289946E+00  0.14321130211E+02  0.51100000000E-03 0. -1.
        -11    1    3    3    0    0  0.95290219354E+01 -0.15745796793E+02  0.23420105938E+02  0.29786469044E+02  0.51100000000E-03 0.  1.
         12    1    3    3    0    0 -0.48293834052E+01  0.68834694575E+00  0.41756225162E+01  0.64212607010E+01  0.00000000000E+00 0. -1.
</event>
<event>
 7    1  0.5902966E-013  0.5052886E+02  0.7816164E-02  0.1300439E+00
        -11   -1    0    0    0    0  0.00000000000E+00  0.00000000000E+00  0.45593999997E+02  0.45594000000E+02  0.51100000000E-03 0. -1.
         11   -1    0    0    0    0 -0.00000000000E+00 -0.00000000000E+00 -0.45593999997E+02  0.45594000000E+02  0.51100000000E-03 0.  1.
    9900012    2    1    2    0    0 -0.26440477683E+02  0.30655747749E+02  0.37804434356E+01  0.50528862248E+02  0.30000007289E+02 0.  0.
         12    1    1    2    0    0  0.26440477683E+02 -0.30655747749E+02 -0.37804434356E+01  0.40659137752E+02  0.00000000000E+00 0. -1.
         11    1    3    3    0    0 -0.13565883050E+02  0.62178739232E+01  0.10076446222E+02  0.18006385194E+02  0.51100000000E-03 0. -1.
        -11    1    3    3    0    0 -0.98949556682E+01  0.19233207009E+02  0.26092130591E+01  0.21786105493E+02  0.51100000000E-03 0.  1.
         12    1    3    3    0    0 -0.29796389654E+01  0.52046668174E+01 -0.89052158451E+01  0.10736371561E+02  0.00000000000E+00 0. -1.
</event>
<event>
 7    1  0.5902966E-013  0.5052882E+02  0.7816164E-02  0.1300439E+00
        -11   -1    0    0    0    0  0.00000000000E+00  0.00000000000E+00  0.45593999997E+02  0.45594000000E+02  0.51100000000E-03 0.  1.
         11   -1    0    0    0    0 -0.00000000000E+00 -0.00000000000E+00 -0.45593999997E+02  0.45594000000E+02  0.51100000000E-03 0. -1.
    9900012    2    1    2    0    0  0.28952957461E+02  0.14674726179E+02  0.24485653040E+02  0.50528824664E+02  0.29999893050E+02 0.  0.
         12    1    1    2    0    0 -0.28952957461E+02 -0.14674726179E+02 -0.24485653040E+02  0.40659175336E+02  0.00000000000E+00 0. -1.
         11    1    3    3    0    0  0.14670986918E+02 -0.10012209722E+00  0.61940851616E+01  0.15925280934E+02  0.51100000000E-03 0. -1.
        -11    1    3    3    0    0  0.18156382723E+02  0.15177629687E+02  0.10493752279E+02  0.25886937124E+02  0.51100000000E-03 0.  1.
         12    1    3    3    0    0 -0.38744121802E+01 -0.40278141042E+00  0.77978155995E+01  0.87166066064E+01  0.00000000000E+00 0. -1.
</event>
<event>
 7    1  0.5902966E-013  0.5052886E+02  0.7816164E-02  0.1300439E+00
        -11   -1    0    0    0    0  0.00000000000E+00  0.00000000000E+00  0.45593999997E+02  0.45594000000E+02  0.51100000000E-03 0. -1.
         11   -1    0    0    0    0 -0.00000000000E+00 -0.00000000000E+00 -0.45593999997E+02  0.45594000000E+02  0.51100000000E-03 0.  1.
    9900012    2    1    2    0    0 -0.32877320730E+02 -0.59757360972E+01 -0.23163282544E+02  0.50528864514E+02  0.30000014176E+02 0.  0.
         12    1    1    2    0    0  0.32877320730E+02  0.59757360972E+01  0.23163282544E+02  0.40659135486E+02  0.00000000000E+00 0. -1.
         11    1    3    3    0    0 -0.11343039474E+02  0.41495421557E+01 -0.68875743241E+01  0.13904025494E+02  0.51100000000E-03 0. -1.
        -11    1    3    3    0    0 -0.41893949245E+01  0.85905819549E+00 -0.15500603088E+02  0.16079729698E+02  0.51100000000E-03 0.  1.
         12    1    3    3    0    0 -0.17344886331E+02 -0.10984336448E+02 -0.77510513164E+00  0.20545109321E+02  0.00000000000E+00 0. -1.
</event>
<event>
 7    1  0.5902966E-013  0.5052887E+02  0.7816164E-02  0.1300439E+00
        -11   -1    0    0    0    0  0.00000000000E+00  0.00000000000E+00  0.45593999997E+02  0.45594000000E+02  0.51100000000E-03 0. -1.
         11   -1    0    0    0    0 -0.00000000000E+00 -0.00000000000E+00 -0.45593999997E+02  0.45594000000E+02  0.51100000000E-03 0.  1.
    9900012    2    1    2    0    0 -0.30477276874E+02  0.26865954955E+02 -0.15878229650E+01  0.50528866671E+02  0.30000020733E+02 0.  0.
         12    1    1    2    0    0  0.30477276874E+02 -0.26865954955E+02  0.15878229650E+01  0.40659133329E+02  0.00000000000E+00 0. -1.
         11    1    3    3    0    0 -0.18958401661E+01  0.16971200542E+01 -0.67414256889E+01  0.72056399433E+01  0.51100000000E-03 0. -1.
        -11    1    3    3    0    0 -0.12959034995E+02  0.21153688233E+02 -0.34429325983E+01  0.25045336872E+02  0.51100000000E-03 0.  1.
         12    1    3    3    0    0 -0.15622401713E+02  0.40151466671E+01  0.85965353222E+01  0.18277889856E+02  0.00000000000E+00 0. -1.
</event>
<event>
 7    1  0.5902966E-013  0.5052885E+02  0.7816164E-02  0.1300439E+00
        -11   -1    0    0    0    0  0.00000000000E+00  0.00000000000E+00  0.45593999997E+02  0.45594000000E+02  0.51100000000E-03 0. -1.
         11   -1    0    0    0    0 -0.00000000000E+00 -0.00000000000E+00 -0.45593999997E+02  0.45594000000E+02  0.51100000000E-03 0.  1.
    9900012    2    1    2    0    0  0.65351629742E+01  0.20724266491E+02  0.34365137822E+02  0.50528852515E+02  0.29999977704E+02 0.  0.
         12    1    1    2    0    0 -0.65351629742E+01 -0.20724266491E+02 -0.34365137822E+02  0.40659147485E+02  0.00000000000E+00 0. -1.
         11    1    3    3    0    0  0.41889808144E+01  0.69079236440E+01  0.15998075383E+02  0.17922203703E+02  0.51100000000E-03 0. -1.
        -11    1    3    3    0    0  0.48208879532E+01  0.15168358115E+02  0.22526178903E+02  0.27581674801E+02  0.51100000000E-03 0.  1.
        -12    1    3    3    0    0 -0.24747057934E+01 -0.13520152680E+01 -0.41591164644E+01  0.50249740112E+01  0.00000000000E+00 0.  1.
</event>
<event>
 7    1  0.5902966E-013  0.5052885E+02  0.7816164E-02  0.1300439E+00
        -11   -1    0    0    0    0  0.00000000000E+00  0.00000000000E+00  0.45593999997E+02  0.45594000000E+02  0.51100000000E-03 0.  1.
         11   -1    0    0    0    0 -0.00000000000E+00 -0.00000000000E+00 -0.45593999997E+02  0.45594000000E+02  0.51100000000E-03 0. -1.
    9900012    2    1    2    0    0 -0.19480188531E+02 -0.34172240716E+02  0.10293052133E+02  0.50528847242E+02  0.29999961678E+02 0.  0.
         12    1    1    2    0    0  0.19480188531E+02  0.34172240716E+02 -0.10293052133E+02  0.40659152758E+02  0.00000000000E+00 0. -1.
         11    1    3    3    0    0 -0.60003195009E+01 -0.15221819491E+02  0.12235784878E+02  0.20430909294E+02  0.51100000000E-03 0. -1.
        -11    1    3    3    0    0 -0.12694194911E+02 -0.29611568420E+01  0.29377905923E+01  0.13361947766E+02  0.51100000000E-03 0.  1.
         12    1    3    3    0    0 -0.78567411938E+00 -0.15989264383E+02 -0.48805233381E+01  0.16735990182E+02  0.00000000000E+00 0. -1.
</event>
<event>
 7    1  0.5902966E-013  0.5052885E+02  0.7816164E-02  0.1300439E+00
        -11   -1    0    0    0    0  0.00000000000E+00  0.00000000000E+00  0.45593999997E+02  0.45594000000E+02  0.51100000000E-03 0.  1.
         11   -1    0    0    0    0 -0.00000000000E+00 -0.00000000000E+00 -0.45593999997E+02  0.45594000000E+02  0.51100000000E-03 0. -1.
    9900012    2    1    2    0    0  0.76880928618E+01  0.27578788612E+02  0.28869876840E+02  0.50528854142E+02  0.29999982649E+02 0.  0.
         12    1    1    2    0    0 -0.76880928618E+01 -0.27578788612E+02 -0.28869876840E+02  0.40659145858E+02  0.00000000000E+00 0. -1.
         11    1    3    3    0    0 -0.40029566810E+01  0.10636777184E+02  0.12440007632E+01  0.11432944906E+02  0.51100000000E-03 0. -1.
        -11    1    3    3    0    0 -0.41308023171E+01  0.22818008202E+01  0.10644772389E+02  0.11643939292E+02  0.51100000000E-03 0.  1.
        -12    1    3    3    0    0  0.15821851860E+02  0.14660210608E+02  0.16981103688E+02  0.27451969944E+02  0.00000000000E+00 0.  1.
</event>
<event>
 7    1  0.9422020E-013  0.5052886E+02  0.7816164E-02  0.1300439E+00
        -11   -1    0    0    0    0  0.00000000000E+00  0.00000000000E+00  0.45593999997E+02  0.45594000000E+02  0.51100000000E-03 0. -1.
         11   -1    0    0    0    0 -0.00000000000E+00 -0.00000000000E+00 -0.45593999997E+02  0.45594000000E+02  0.51100000000E-03 0.  1.
    9900012    2    1    2    0    0  0.85905368390E+01 -0.25052802056E+02 -0.30850044940E+02  0.50528862198E+02  0.30000007137E+02 0.  0.
         12    1    1    2    0    0 -0.85905368390E+01  0.25052802056E+02  0.30850044940E+02  0.40659137802E+02  0.00000000000E+00 0. -1.
         11    1    3    3    0    0  0.50015633646E+01 -0.80546043186E+01  0.19164118872E+01  0.96728962364E+01  0.51100000000E-03 0. -1.
        -11    1    3    3    0    0  0.95040868471E+01 -0.44717385955E+01 -0.15406799184E+02  0.18646543224E+02  0.51100000000E-03 0.  1.
        -12    1    3    3    0    0 -0.59151133727E+01 -0.12526459141E+02 -0.17359657643E+02  0.22209422737E+02  0.00000000000E+00 0.  1.
</event>
<event>
 7    1  0.5902966E-013  0.5052885E+02  0.7816164E-02  0.1300439E+00
        -11   -1    0    0    0    0  0.00000000000E+00  0.00000000000E+00  0.45593999997E+02  0.45594000000E+02  0.51100000000E-03 0. -1.
         11   -1    0    0    0    0 -0.00000000000E+00 -0.00000000000E+00 -0.45593999997E+02  0.45594000000E+02  0.51100000000E-03 0.  1.
    9900012    2    1    2    0    0 -0.20387420142E+02  0.10965722561E+02 -0.33425629120E+02  0.50528847852E+02  0.29999963531E+02 0.  0.
         12    1    1    2    0    0  0.20387420142E+02 -0.10965722561E+02  0.33425629120E+02  0.40659152148E+02  0.00000000000E+00 0. -1.
         11    1    3    3    0    0  0.51822958251E+01  0.15725961886E+01 -0.69563832608E+01  0.88159240652E+01  0.51100000000E-03 0. -1.
        -11    1    3    3    0    0 -0.57249453882E+01 -0.46114612139E+01 -0.98154343869E+01  0.12263087975E+02  0.51100000000E-03 0.  1.
         12    1    3    3    0    0 -0.19844770579E+02  0.14004587586E+02 -0.16653811472E+02  0.29449835812E+02  0.00000000000E+00 0. -1.
</event>
<event>
 7    1  0.5902966E-013  0.5052886E+02  0.7816164E-02  0.1300439E+00
        -11   -1    0    0    0    0  0.00000000000E+00  0.00000000000E+00  0.45593999997E+02  0.45594000000E+02  0.51100000000E-03 0.  1.
         11   -1    0    0    0    0 -0.00000000000E+00 -0.00000000000E+00 -0.45593999997E+02  0.45594000000E+02  0.51100000000E-03 0. -1.
    9900012    2    1    2    0    0 -0.10112993117E+01  0.52179529611E+01  0.40310243395E+02  0.50528862258E+02  0.30000007319E+02 0.  0.
         12    1    1    2    0    0  0.10112993117E+01 -0.52179529611E+01 -0.40310243395E+02  0.40659137742E+02  0.00000000000E+00 0. -1.
         11    1    3    3    0    0 -0.35094175173E+01 -0.43667216362E+01 -0.38764778336E+00  0.56155623248E+01  0.51100000000E-03 0. -1.
        -11    1    3    3    0    0  0.60060194789E+01  0.88369398190E+01  0.12312452585E+02  0.16302155203E+02  0.51100000000E-03 0.  1.
        -12    1    3    3    0    0 -0.35079012734E+01  0.74773477831E+00  0.28385438593E+02  0.28611144730E+02  0.00000000000E+00 0.  1.
</event>
<event>
 7    1  0.5902966E-013  0.5052888E+02  0.7816164E-02  0.1300439E+00
        -11   -1    0    0    0    0  0.00000000000E+00  0.00000000000E+00  0.45593999997E+02  0.45594000000E+02  0.51100000000E-03 0.  1.
         11   -1    0    0    0    0 -0.00000000000E+00 -0.00000000000E+00 -0.45593999997E+02  0.45594000000E+02  0.51100000000E-03 0. -1.
    9900012    2    1    2    0    0 -0.31255772081E+02  0.59232903232E+00  0.25997889130E+02  0.50528875794E+02  0.30000048462E+02 0.  0.
         12    1    1    2    0    0  0.31255772081E+02 -0.59232903232E+00 -0.25997889130E+02  0.40659124206E+02  0.00000000000E+00 0. -1.
         11    1    3    3    0    0 -0.76875718310E+01 -0.29261751993E+01 -0.23278449621E+01  0.85486913842E+01  0.51100000000E-03 0. -1.
        -11    1    3    3    0    0  0.75234561262E+00 -0.49992475462E+01  0.63233731467E+01  0.80958969955E+01  0.51100000000E-03 0.  1.
        -12    1    3    3    0    0 -0.24320545862E+02  0.85177517778E+01  0.22002360945E+02  0.33884287414E+02  0.00000000000E+00 0.  1.
</event>
<event>
 7    1  0.5902966E-013  0.5052898E+02  0.7816164E-02  0.1300438E+00
        -11   -1    0    0    0    0  0.00000000000E+00  0.00000000000E+00  0.45593999997E+02  0.45594000000E+02  0.51100000000E-03 0. -1.
         11   -1    0    0    0    0 -0.00000000000E+00 -0.00000000000E+00 -0.45593999997E+02  0.45594000000E+02  0.51100000000E-03 0.  1.
    9900012    2    1    2    0    0 -0.23134342069E+02 -0.33293969997E+02  0.30772246289E+01  0.50528984609E+02  0.30000379215E+02 0.  0.
         12    1    1    2    0    0  0.23134342069E+02  0.33293969997E+02 -0.30772246289E+01  0.40659015391E+02  0.00000000000E+00 0. -1.
         11    1    3    3    0    0 -0.27542001749E+01 -0.23313548951E+02  0.23477209115E+01  0.23592773831E+02  0.51100000000E-03 0. -1.
        -11    1    3    3    0    0 -0.14383151025E+02 -0.12810381774E+02 -0.27357695414E+01  0.19454185921E+02  0.51100000000E-03 0.  1.
        -12    1    3    3    0    0 -0.59969908690E+01  0.28299607275E+01  0.34652732588E+01  0.74820248570E+01  0.00000000000E+00 0.  1.
</event>
<event>
 7    1  0.5902966E-013  0.5052885E+02  0.7816164E-02  0.1300439E+00
        -11   -1    0    0    0    0  0.00000000000E+00  0.00000000000E+00  0.45593999997E+02  0.45594000000E+02  0.51100000000E-03 0.  1.
         11   -1    0    0    0    0 -0.00000000000E+00 -0.00000000000E+00 -0.45593999997E+02  0.45594000000E+02  0.51100000000E-03 0. -1.
    9900012    2    1    2    0    0  0.87235899953E+01 -0.35349185575E+02  0.18096979061E+02  0.50528848578E+02  0.29999965738E+02 0.  0.
         12    1    1    2    0    0 -0.87235899953E+01  0.35349185575E+02 -0.18096979061E+02  0.40659151422E+02  0.00000000000E+00 0. -1.
         11    1    3    3    0    0 -0.93932792598E+00 -0.72646676116E+01 -0.24744828213E+01  0.77318043143E+01  0.51100000000E-03 0. -1.
        -11    1    3    3    0    0  0.26280724571E+01  0.35644932485E+01  0.54047503791E-01  0.44289161600E+01  0.51100000000E-03 0.  1.
        -12    1    3    3    0    0  0.70348454642E+01 -0.31649011212E+02  0.20517414378E+02  0.38368128104E+02  0.00000000000E+00 0.  1.
</event>
<event>
 7    1  0.5902966E-013  0.5052892E+02  0.7816164E-02  0.1300439E+00
        -11   -1    0    0    0    0  0.00000000000E+00  0.00000000000E+00  0.45593999997E+02  0.45594000000E+02  0.51100000000E-03 0. -1.
         11   -1    0    0    0    0 -0.00000000000E+00 -0.00000000000E+00 -0.45593999997E+02  0.45594000000E+02  0.51100000000E-03 0.  1.
    9900012    2    1    2    0    0  0.27316798352E+02 -0.46679455983E+00 -0.30112044386E+02  0.50528922459E+02  0.30000190306E+02 0.  0.
         12    1    1    2    0    0 -0.27316798352E+02  0.46679455983E+00  0.30112044386E+02  0.40659077541E+02  0.00000000000E+00 0. -1.
         11    1    3    3    0    0  0.11089127100E+00  0.29991914547E+01  0.10883713146E+01  0.31924909766E+01  0.51100000000E-03 0. -1.
        -11    1    3    3    0    0  0.17995616242E+01  0.46282402102E+01 -0.15760419321E+02  0.16524220010E+02  0.51100000000E-03 0.  1.
        -12    1    3    3    0    0  0.25406345457E+02 -0.80942262247E+01 -0.15439996380E+02  0.30812211473E+02  0.00000000000E+00 0.  1.
</event>
<event>
 7    1  0.5902966E-013  0.5052887E+02  0.7816164E-02  0.1300439E+00
        -11   -1    0    0    0    0  0.00000000000E+00  0.00000000000E+00  0.45593999997E+02  0.45594000000E+02  0.51100000000E-03 0.  1.
         11   -1    0    0    0    0 -0.00000000000E+00 -0.00000000000E+00 -0.45593999997E+02  0.45594000000E+02  0.51100000000E-03 0. -1.
    9900012    2    1    2    0    0 -0.29033351731E+02  0.10072765325E+02  0.26622714349E+02  0.50528867774E+02  0.30000024086E+02 0.  0.
         12    1    1    2    0    0  0.29033351731E+02 -0.10072765325E+02 -0.26622714349E+02  0.40659132226E+02  0.00000000000E+00 0. -1.
         11    1    3    3    0    0 -0.91863650009E+01  0.16672302385E+02  0.99703700416E+01  0.21488677199E+02  0.51100000000E-03 0. -1.
        -11    1    3    3    0    0  0.11315352456E+01  0.66053966058E+00  0.35569062166E-01  0.13107059451E+01  0.51100000000E-03 0.  1.
        -12    1    3    3    0    0 -0.20978521976E+02 -0.72600767200E+01  0.16616775246E+02  0.27729484630E+02  0.00000000000E+00 0.  1.
</event>
<event>
 7    1  0.5902966E-013  0.5052879E+02  0.7816164E-02  0.1300439E+00
        -11   -1    0    0    0    0  0.00000000000E+00  0.00000000000E+00  0.45593999997E+02  0.45594000000E+02  0.51100000000E-03 0. -1.
         11   -1    0    0    0    0 -0.00000000000E+00 -0.00000000000E+00 -0.45593999997E+02  0.45594000000E+02  0.51100000000E-03 0.  1.
    9900012    2    1    2    0    0 -0.37273771258E+02 -0.15886847270E+02  0.33831458340E+01  0.50528786829E+02  0.29999778044E+02 0.  0.
         12    1    1    2    0    0  0.37273771258E+02  0.15886847270E+02 -0.33831458340E+01  0.40659213171E+02  0.00000000000E+00 0. -1.
         11    1    3    3    0    0 -0.11621182426E+02 -0.43982452732E+01 -0.56677236603E+00  0.12438555931E+02  0.51100000000E-03 0. -1.
        -11    1    3    3    0    0 -0.18612462936E+02 -0.12849707614E+02 -0.81370000491E+01  0.24036420956E+02  0.51100000000E-03 0.  1.
         12    1    3    3    0    0 -0.70401258950E+01  0.13611056170E+01  0.12086918249E+02  0.14053809942E+02  0.00000000000E+00 0. -1.
</event>
<event>
 7    1  0.5902966E-013  0.5052887E+02  0.7816164E-02  0.1300439E+00
        -11   -1    0    0    0    0  0.00000000000E+00  0.00000000000E+00  0.45593999997E+02  0.45594000000E+02  0.51100000000E-03 0.  1.
         11   -1    0    0    0    0 -0.00000000000E+00 -0.00000000000E+00 -0.45593999997E+02  0.45594000000E+02  0.51100000000E-03 0. -1.
    9900012    2    1    2    0    0 -0.33304814791E+01  0.29688932810E+02  0.27579708653E+02  0.50528866123E+02  0.30000019067E+02 0.  0.
         12    1    1    2    0    0  0.33304814791E+01 -0.29688932810E+02 -0.27579708653E+02  0.40659133877E+02  0.00000000000E+00 0. -1.
         11    1    3    3    0    0  0.18616044008E+01  0.12867767075E+02  0.13219376339E+02  0.18541761283E+02  0.51100000000E-03 0. -1.
        -11    1    3    3    0    0 -0.88948106385E+01  0.12165102330E+02  0.19136597628E+02  0.24358093933E+02  0.51100000000E-03 0.  1.
         12    1    3    3    0    0  0.37027247586E+01  0.46560634052E+01 -0.47762653139E+01  0.76290109071E+01  0.00000000000E+00 0. -1.
</event>
<event>
 7    1  0.5902966E-013  0.5052886E+02  0.7816164E-02  0.1300439E+00
        -11   -1    0    0    0    0  0.00000000000E+00  0.00000000000E+00  0.45593999997E+02  0.45594000000E+02  0.51100000000E-03 0.  1.
         11   -1    0    0    0    0 -0.00000000000E+00 -0.00000000000E+00 -0.45593999997E+02  0.45594000000E+02  0.51100000000E-03 0. -1.
    9900012    2    1    2    0    0 -0.37619055843E+02 -0.52164637594E+01  0.14517603518E+02  0.50528859963E+02  0.30000000342E+02 0.  0.
         12    1    1    2    0    0  0.37619055843E+02  0.52164637594E+01 -0.14517603518E+02  0.40659140037E+02  0.00000000000E+00 0. -1.
         11    1    3    3    0    0 -0.38746500231E+01  0.86606810272E+01 -0.39788781261E+00  0.94962426058E+01  0.51100000000E-03 0. -1.
        -11    1    3    3    0    0 -0.72070799260E+01 -0.60348547959E+01 -0.39351078429E+00  0.94083114567E+01  0.51100000000E-03 0.  1.
        -12    1    3    3    0    0 -0.26537325894E+02 -0.78422899907E+01  0.15309002115E+02  0.31624305900E+02  0.00000000000E+00 0.  1.
</event>
<event>
 7    1  0.5902966E-013  0.5052885E+02  0.7816164E-02  0.1300439E+00
        -11   -1    0    0    0    0  0.00000000000E+00  0.00000000000E+00  0.45593999997E+02  0.45594000000E+02  0.51100000000E-03 0.  1.
         11   -1    0    0    0    0 -0.00000000000E+00 -0.00000000000E+00 -0.45593999997E+02  0.45594000000E+02  0.51100000000E-03 0. -1.
    9900012    2    1    2    0    0  0.21940754749E+01  0.48459988684E+01  0.40309656924E+02  0.50528854491E+02  0.29999983710E+02 0.  0.
         12    1    1    2    0    0 -0.21940754749E+01 -0.48459988684E+01 -0.40309656924E+02  0.40659145509E+02  0.00000000000E+00 0. -1.
         11    1    3    3    0    0 -0.75094704769E+01  0.51629094786E+01  0.51299070905E+01  0.10457711420E+02  0.51100000000E-03 0. -1.
        -11    1    3    3    0    0 -0.46478237956E+01 -0.10973727124E+01  0.77273611143E+01  0.90839750637E+01  0.51100000000E-03 0.  1.
         12    1    3    3    0    0  0.14351369747E+02  0.78046210219E+00  0.27452388719E+02  0.30987168007E+02  0.00000000000E+00 0. -1.
</event>
<event>
 7    1  0.5902966E-013  0.5052886E+02  0.7816164E-02  0.1300439E+00
        -11   -1    0    0    0    0  0.00000000000E+00  0.00000000000E+00  0.45593999997E+02  0.45594000000E+02  0.51100000000E-03 0. -1.
         11   -1    0    0    0    0 -0.00000000000E+00 -0.00000000000E+00 -0.45593999997E+02  0.45594000000E+02  0.51100000000E-03 0.  1.
    9900012    2    1    2    0    0  0.14952969554E+02 -0.15969958875E+02 -0.34271484978E+02  0.50528861205E+02  0.30000004118E+02 0.  0.
         12    1    1    2    0    0 -0.14952969554E+02  0.15969958875E+02  0.34271484978E+02  0.40659138795E+02  0.00000000000E+00 0. -1.
         11    1    3    3    0    0 -0.14524518528E+01  0.18918937097E+01 -0.70929795576E+01  0.74832638239E+01  0.51100000000E-03 0.  1.
        -11    1    3    3    0    0  0.14805807551E+02 -0.21279197064E+02 -0.14258348520E+02  0.29585751093E+02  0.51100000000E-03 0. -1.
         12    1    3    3    0    0  0.15996138555E+01  0.34173444787E+01 -0.12920156900E+02  0.13459846288E+02  0.00000000000E+00 0. -1.
</event>
<event>
 7    1  0.5902966E-013  0.5052886E+02  0.7816164E-02  0.1300439E+00
        -11   -1    0    0    0    0  0.00000000000E+00  0.00000000000E+00  0.45593999997E+02  0.45594000000E+02  0.51100000000E-03 0.  1.
         11   -1    0    0    0    0 -0.00000000000E+00 -0.00000000000E+00 -0.45593999997E+02  0.45594000000E+02  0.51100000000E-03 0. -1.
    9900012    2    1    2    0    0  0.63030137989E+01 -0.39780719054E+02 -0.55616915677E+01  0.50528855832E+02  0.29999987786E+02 0.  0.
         12    1    1    2    0    0 -0.63030137989E+01  0.39780719054E+02  0.55616915677E+01  0.40659144168E+02  0.00000000000E+00 0. -1.
         11    1    3    3    0    0 -0.12707972488E+01 -0.55006065051E+01 -0.10728156205E+02  0.12122909444E+02  0.51100000000E-03 0. -1.
        -11    1    3    3    0    0  0.66885592747E+01 -0.10559217320E+02 -0.37490122803E+01  0.13049482324E+02  0.51100000000E-03 0.  1.
        -12    1    3    3    0    0  0.88525177306E+00 -0.23720895229E+02  0.89154769174E+01  0.25356464064E+02  0.00000000000E+00 0.  1.
</event>
<event>
 7    1  0.5902966E-013  0.5052886E+02  0.7816164E-02  0.1300439E+00
        -11   -1    0    0    0    0  0.00000000000E+00  0.00000000000E+00  0.45593999997E+02  0.45594000000E+02  0.51100000000E-03 0.  1.
         11   -1    0    0    0    0 -0.00000000000E+00 -0.00000000000E+00 -0.45593999997E+02  0.45594000000E+02  0.51100000000E-03 0. -1.
    9900012    2    1    2    0    0 -0.23996394427E+01 -0.13036230305E+02  0.38437796666E+02  0.50528858561E+02  0.29999996083E+02 0.  0.
         12    1    1    2    0    0  0.23996394427E+01  0.13036230305E+02 -0.38437796666E+02  0.40659141439E+02  0.00000000000E+00 0. -1.
         11    1    3    3    0    0 -0.24214411518E+01 -0.64976083207E+00 -0.27722272347E+01  0.37377547394E+01  0.51100000000E-03 0. -1.
        -11    1    3    3    0    0 -0.79799768406E+01 -0.27387543202E+01  0.95653829383E+01  0.12754503386E+02  0.51100000000E-03 0.  1.
        -12    1    3    3    0    0  0.80017785497E+01 -0.96477151528E+01  0.31644640962E+02  0.34036600436E+02  0.00000000000E+00 0.  1.
</event>
<event>
 7    1  0.5902966E-013  0.5052885E+02  0.7816164E-02  0.1300439E+00
        -11   -1    0    0    0    0  0.00000000000E+00  0.00000000000E+00  0.45593999997E+02  0.45594000000E+02  0.51100000000E-03 0. -1.
         11   -1    0    0    0    0 -0.00000000000E+00 -0.00000000000E+00 -0.45593999997E+02  0.45594000000E+02  0.51100000000E-03 0.  1.
    9900012    2    1    2    0    0 -0.37435517023E+01 -0.95344363196E+01 -0.39347770235E+02  0.50528847552E+02  0.29999962620E+02 0.  0.
         12    1    1    2    0    0  0.37435517023E+01  0.95344363196E+01  0.39347770235E+02  0.40659152448E+02  0.00000000000E+00 0. -1.
         11    1    3    3    0    0  0.20328064397E+01 -0.15434941807E+02 -0.79746057041E+01  0.17491828578E+02  0.51100000000E-03 0.  1.
        -11    1    3    3    0    0  0.74478863261E+00  0.16715388543E+00 -0.90875401204E+01  0.91195414485E+01  0.51100000000E-03 0. -1.
        -12    1    3    3    0    0 -0.65211467747E+01  0.57333516016E+01 -0.22285624411E+02  0.23917477526E+02  0.00000000000E+00 0.  1.
</event>
<event>
 7    1  0.5902966E-013  0.5052886E+02  0.7816164E-02  0.1300439E+00
        -11   -1    0    0    0    0  0.00000000000E+00  0.00000000000E+00  0.45593999997E+02  0.45594000000E+02  0.51100000000E-03 0.  1.
         11   -1    0    0    0    0 -0.00000000000E+00 -0.00000000000E+00 -0.45593999997E+02  0.45594000000E+02  0.51100000000E-03 0. -1.
    9900012    2    1    2    0    0 -0.14771614339E+02 -0.25760402931E+02  0.27773485269E+02  0.50528862856E+02  0.30000009136E+02 0.  0.
         12    1    1    2    0    0  0.14771614339E+02  0.25760402931E+02 -0.27773485269E+02  0.40659137144E+02  0.00000000000E+00 0. -1.
         11    1    3    3    0    0 -0.62037282856E+01  0.32097705434E+01  0.79433168898E+00  0.70299242298E+01  0.51100000000E-03 0. -1.
        -11    1    3    3    0    0 -0.11960999579E+01 -0.22076954277E+01  0.11386822629E+02  0.11660373239E+02  0.51100000000E-03 0.  1.
         12    1    3    3    0    0 -0.73717860958E+01 -0.26762478047E+02  0.15592330950E+02  0.31838565387E+02  0.00000000000E+00 0. -1.
</event>
<event>
 7    1  0.5902966E-013  0.5052885E+02  0.7816164E-02  0.1300439E+00
        -11   -1    0    0    0    0  0.00000000000E+00  0.00000000000E+00  0.45593999997E+02  0.45594000000E+02  0.51100000000E-03 0.  1.
         11   -1    0    0    0    0 -0.00000000000E+00 -0.00000000000E+00 -0.45593999997E+02  0.45594000000E+02  0.51100000000E-03 0. -1.
    9900012    2    1    2    0    0  0.18636746643E+02 -0.17363418772E+02  0.31691480593E+02  0.50528848766E+02  0.29999966309E+02 0.  0.
         12    1    1    2    0    0 -0.18636746643E+02  0.17363418772E+02 -0.31691480593E+02  0.40659151234E+02  0.00000000000E+00 0. -1.
         11    1    3    3    0    0 -0.45831525901E+01 -0.59764866182E+00 -0.21964053912E+01  0.51172911281E+01  0.51100000000E-03 0. -1.
        -11    1    3    3    0    0  0.17924812822E+02 -0.13056160124E+02  0.19081482346E+02  0.29255173913E+02  0.51100000000E-03 0.  1.
        -12    1    3    3    0    0  0.52950864110E+01 -0.37096099852E+01  0.14806403639E+02  0.16156383725E+02  0.00000000000E+00 0.  1.
</event>
<event>
 7    1  0.5902966E-013  0.5052886E+02  0.7816164E-02  0.1300439E+00
        -11   -1    0    0    0    0  0.00000000000E+00  0.00000000000E+00  0.45593999997E+02  0.45594000000E+02  0.51100000000E-03 0.  1.
         11   -1    0    0    0    0 -0.00000000000E+00 -0.00000000000E+00 -0.45593999997E+02  0.45594000000E+02  0.51100000000E-03 0. -1.
    9900012    2    1    2    0    0  0.70922120721E+00  0.44099415632E+01  0.40413057903E+02  0.50528857998E+02  0.29999994370E+02 0.  0.
         12    1    1    2    0    0 -0.70922120721E+00 -0.44099415632E+01 -0.40413057903E+02  0.40659142002E+02  0.00000000000E+00 0. -1.
         11    1    3    3    0    0  0.29299321504E+01 -0.23561244616E+01  0.18941918134E+01  0.42099629180E+01  0.51100000000E-03 0. -1.
        -11    1    3    3    0    0 -0.77562019799E+01  0.18221921765E+01  0.94984615896E+00  0.80237934587E+01  0.51100000000E-03 0.  1.
        -12    1    3    3    0    0  0.55354910368E+01  0.49438738482E+01  0.37569019930E+02  0.38295101621E+02  0.00000000000E+00 0.  1.
</event>
<event>
 7    1  0.5902966E-013  0.5052886E+02  0.7816164E-02  0.1300439E+00
        -11   -1    0    0    0    0  0.00000000000E+00  0.00000000000E+00  0.45593999997E+02  0.45594000000E+02  0.51100000000E-03 0. -1.
         11   -1    0    0    0    0 -0.00000000000E+00 -0.00000000000E+00 -0.45593999997E+02  0.45594000000E+02  0.51100000000E-03 0.  1.
    9900012    2    1    2    0    0 -0.16130918291E+01 -0.14651359577E+02 -0.37893287158E+02  0.50528860629E+02  0.30000002369E+02 0.  0.
         12    1    1    2    0    0  0.16130918291E+01  0.14651359577E+02  0.37893287158E+02  0.40659139371E+02  0.00000000000E+00 0. -1.
         11    1    3    3    0    0 -0.47208611085E+01 -0.13535314935E+02 -0.17530773180E+02  0.22645513652E+02  0.51100000000E-03 0. -1.
        -11    1    3    3    0    0 -0.68806477778E+01 -0.46232048670E+01 -0.10824583259E+02  0.13634109435E+02  0.51100000000E-03 0.  1.
         12    1    3    3    0    0  0.99884170572E+01  0.35071602251E+01 -0.95379307188E+01  0.14249237543E+02  0.00000000000E+00 0. -1.
</event>
<event>
 7    1  0.5902966E-013  0.5052886E+02  0.7816164E-02  0.1300439E+00
        -11   -1    0    0    0    0  0.00000000000E+00  0.00000000000E+00  0.45593999997E+02  0.45594000000E+02  0.51100000000E-03 0. -1.
         11   -1    0    0    0    0 -0.00000000000E+00 -0.00000000000E+00 -0.45593999997E+02  0.45594000000E+02  0.51100000000E-03 0.  1.
    9900012    2    1    2    0    0 -0.12546326630E+01  0.15758423299E+02 -0.37460163248E+02  0.50528857872E+02  0.29999993989E+02 0.  0.
         12    1    1    2    0    0  0.12546326630E+01 -0.15758423299E+02  0.37460163248E+02  0.40659142128E+02  0.00000000000E+00 0. -1.
         11    1    3    3    0    0  0.20691017609E+01 -0.42785108213E+01 -0.13641966998E+01  0.49444787230E+01  0.51100000000E-03 0. -1.
        -11    1    3    3    0    0  0.38473252862E+01  0.99932890661E-01 -0.15737038877E+02  0.16200811440E+02  0.51100000000E-03 0.  1.
        -12    1    3    3    0    0 -0.71710597101E+01  0.19937001229E+02 -0.20358927671E+02  0.29383567709E+02  0.00000000000E+00 0.  1.
</event>
<event>
 7    1  0.5902966E-013  0.5052885E+02  0.7816164E-02  0.1300439E+00
        -11   -1    0    0    0    0  0.00000000000E+00  0.00000000000E+00  0.45593999997E+02  0.45594000000E+02  0.51100000000E-03 0. -1.
         11   -1    0    0    0    0 -0.00000000000E+00 -0.00000000000E+00 -0.45593999997E+02  0.45594000000E+02  0.51100000000E-03 0.  1.
    9900012    2    1    2    0    0  0.29897721589E+02 -0.26102018948E+02 -0.88304693293E+01  0.50528851732E+02  0.29999975324E+02 0.  0.
         12    1    1    2    0    0 -0.29897721589E+02  0.26102018948E+02  0.88304693293E+01  0.40659148268E+02  0.00000000000E+00 0. -1.
         11    1    3    3    0    0 -0.44927810512E-01 -0.29807716925E+01 -0.88775708141E+01  0.93647360994E+01  0.51100000000E-03 0. -1.
        -11    1    3    3    0    0  0.78792133947E+01  0.13710330815E+01  0.16278870194E+01  0.81616022838E+01  0.51100000000E-03 0.  1.
        -12    1    3    3    0    0  0.22063436004E+02 -0.24492280337E+02 -0.15807855345E+01  0.33002513348E+02  0.00000000000E+00 0.  1.
</event>
<event>
 7    1  0.5902966E-013  0.5052886E+02  0.7816164E-02  0.1300439E+00
        -11   -1    0    0    0    0  0.00000000000E+00  0.00000000000E+00  0.45593999997E+02  0.45594000000E+02  0.51100000000E-03 0.  1.
         11   -1    0    0    0    0 -0.00000000000E+00 -0.00000000000E+00 -0.45593999997E+02  0.45594000000E+02  0.51100000000E-03 0. -1.
    9900012    2    1    2    0    0 -0.21186187423E+02 -0.53081553843E+01  0.34294817457E+02  0.50528861353E+02  0.30000004570E+02 0.  0.
         12    1    1    2    0    0  0.21186187423E+02  0.53081553843E+01 -0.34294817457E+02  0.40659138647E+02  0.00000000000E+00 0. -1.
         11    1    3    3    0    0 -0.11575312471E+02  0.15291317296E+01  0.11222071047E+02  0.16194473795E+02  0.51100000000E-03 0. -1.
        -11    1    3    3    0    0 -0.14435916718E+02  0.12672872258E+01  0.79980701129E+01  0.16552064348E+02  0.51100000000E-03 0.  1.
        -12    1    3    3    0    0  0.48250417670E+01 -0.81045743397E+01  0.15074676297E+02  0.17782323210E+02  0.00000000000E+00 0.  1.
</event>
<event>
 7    1  0.6766497E-013  0.5052886E+02  0.7816164E-02  0.1300439E+00
        -11   -1    0    0    0    0  0.00000000000E+00  0.00000000000E+00  0.45593999997E+02  0.45594000000E+02  0.51100000000E-03 0.  1.
         11   -1    0    0    0    0 -0.00000000000E+00 -0.00000000000E+00 -0.45593999997E+02  0.45594000000E+02  0.51100000000E-03 0. -1.
    9900012    2    1    2    0    0 -0.19788020322E+02 -0.22647090762E+02  0.27362549932E+02  0.50528860719E+02  0.30000002642E+02 0.  0.
         12    1    1    2    0    0  0.19788020322E+02  0.22647090762E+02 -0.27362549932E+02  0.40659139281E+02  0.00000000000E+00 0. -1.
         11    1    3    3    0    0  0.28639429007E+00 -0.69956539758E+01 -0.29535198742E+01  0.75989786252E+01  0.51100000000E-03 0. -1.
        -11    1    3    3    0    0 -0.12273573054E+02 -0.58553602479E+01  0.46499617418E+01  0.14371777329E+02  0.51100000000E-03 0.  1.
        -12    1    3    3    0    0 -0.78008415583E+01 -0.97960765387E+01  0.25666108064E+02  0.28558104764E+02  0.00000000000E+00 0.  1.
</event>
<event>
 7    1  0.5902966E-013  0.5052889E+02  0.7816164E-02  0.1300439E+00
        -11   -1    0    0    0    0  0.00000000000E+00  0.00000000000E+00  0.45593999997E+02  0.45594000000E+02  0.51100000000E-03 0.  1.
         11   -1    0    0    0    0 -0.00000000000E+00 -0.00000000000E+00 -0.45593999997E+02  0.45594000000E+02  0.51100000000E-03 0. -1.
    9900012    2    1    2    0    0 -0.18747264285E+02  0.36076461153E+02  0.43872795553E+00  0.50528887248E+02  0.30000083280E+02 0.  0.
         12    1    1    2    0    0  0.18747264285E+02 -0.36076461153E+02 -0.43872795553E+00  0.40659112752E+02  0.00000000000E+00 0. -1.
         11    1    3    3    0    0  0.55602817522E+00  0.10289601066E+02 -0.23605991439E+01  0.10571541326E+02  0.51100000000E-03 0. -1.
        -11    1    3    3    0    0 -0.14415499703E+02  0.16009756291E+02 -0.94631665483E+01  0.23530202922E+02  0.51100000000E-03 0.  1.
        -12    1    3    3    0    0 -0.48877927576E+01  0.97771037962E+01  0.12262493648E+02  0.16427143000E+02  0.00000000000E+00 0.  1.
</event>
<event>
 7    1  0.5902966E-013  0.5052885E+02  0.7816164E-02  0.1300439E+00
        -11   -1    0    0    0    0  0.00000000000E+00  0.00000000000E+00  0.45593999997E+02  0.45594000000E+02  0.51100000000E-03 0.  1.
         11   -1    0    0    0    0 -0.00000000000E+00 -0.00000000000E+00 -0.45593999997E+02  0.45594000000E+02  0.51100000000E-03 0. -1.
    9900012    2    1    2    0    0 -0.26770814687E+02  0.29909742494E+02  0.64727837226E+01  0.50528854114E+02  0.29999982565E+02 0.  0.
         12    1    1    2    0    0  0.26770814687E+02 -0.29909742494E+02 -0.64727837226E+01  0.40659145886E+02  0.00000000000E+00 0. -1.
         11    1    3    3    0    0 -0.21661879075E+02  0.18095038831E+02  0.86890010324E+00  0.28238668932E+02  0.51100000000E-03 0.  1.
        -11    1    3    3    0    0 -0.18781301168E+01  0.82392766800E+01 -0.55702134226E+01  0.10121281084E+02  0.51100000000E-03 0. -1.
        -12    1    3    3    0    0 -0.32308054953E+01  0.35754269825E+01  0.11174097042E+02  0.12168904098E+02  0.00000000000E+00 0.  1.
</event>
<event>
 7    1  0.5902966E-013  0.5052885E+02  0.7816164E-02  0.1300439E+00
        -11   -1    0    0    0    0  0.00000000000E+00  0.00000000000E+00  0.45593999997E+02  0.45594000000E+02  0.51100000000E-03 0. -1.
         11   -1    0    0    0    0 -0.00000000000E+00 -0.00000000000E+00 -0.45593999997E+02  0.45594000000E+02  0.51100000000E-03 0.  1.
    9900012    2    1    2    0    0  0.34637055100E+02 -0.13756336369E+02 -0.16254361122E+02  0.50528848118E+02  0.29999964339E+02 0.  0.
         12    1    1    2    0    0 -0.34637055100E+02  0.13756336369E+02  0.16254361122E+02  0.40659151882E+02  0.00000000000E+00 0. -1.
         11    1    3    3    0    0  0.32631494615E+01  0.20382918289E+01 -0.11274448214E+02  0.11912848558E+02  0.51100000000E-03 0. -1.
        -11    1    3    3    0    0  0.15095094546E+02 -0.97161132866E+01 -0.99733282503E+01  0.20536114856E+02  0.51100000000E-03 0.  1.
         12    1    3    3    0    0  0.16278811092E+02 -0.60785149116E+01  0.49934153420E+01  0.18079884703E+02  0.00000000000E+00 0. -1.
</event>
<event>
 7    1  0.5902966E-013  0.5052886E+02  0.7816164E-02  0.1300439E+00
        -11   -1    0    0    0    0  0.00000000000E+00  0.00000000000E+00  0.45593999997E+02  0.45594000000E+02  0.51100000000E-03 0.  1.
         11   -1    0    0    0    0 -0.00000000000E+00 -0.00000000000E+00 -0.45593999997E+02  0.45594000000E+02  0.51100000000E-03 0. -1.
    9900012    2    1    2    0    0 -0.24569165673E+02 -0.19678881047E+00  0.32395729599E+02  0.50528856822E+02  0.29999990796E+02 0.  0.
         12    1    1    2    0    0  0.24569165673E+02  0.19678881047E+00 -0.32395729599E+02  0.40659143178E+02  0.00000000000E+00 0. -1.
         11    1    3    3    0    0  0.17363315451E+01 -0.33207373163E+01  0.78971721855E+01  0.87411367880E+01  0.51100000000E-03 0. -1.
        -11    1    3    3    0    0 -0.34220655310E+01  0.66763117645E+01  0.14973472610E+02  0.16747792498E+02  0.51100000000E-03 0.  1.
         12    1    3    3    0    0 -0.22883431687E+02 -0.35523632587E+01  0.95250848029E+01  0.25039927536E+02  0.00000000000E+00 0. -1.
</event>
<event>
 7    1  0.5902966E-013  0.5052886E+02  0.7816164E-02  0.1300439E+00
        -11   -1    0    0    0    0  0.00000000000E+00  0.00000000000E+00  0.45593999997E+02  0.45594000000E+02  0.51100000000E-03 0.  1.
         11   -1    0    0    0    0 -0.00000000000E+00 -0.00000000000E+00 -0.45593999997E+02  0.45594000000E+02  0.51100000000E-03 0. -1.
    9900012    2    1    2    0    0  0.64723244365E+01 -0.15112016209E+02  0.37187382241E+02  0.50528863075E+02  0.30000009803E+02 0.  0.
         12    1    1    2    0    0 -0.64723244365E+01  0.15112016209E+02 -0.37187382241E+02  0.40659136925E+02  0.00000000000E+00 0. -1.
         11    1    3    3    0    0  0.92284534268E+01 -0.93300805454E+01  0.13336309613E+02  0.18710208710E+02  0.51100000000E-03 0. -1.
        -11    1    3    3    0    0  0.76174815095E+01  0.14444567510E+01  0.13102327974E+02  0.15224436885E+02  0.51100000000E-03 0.  1.
        -12    1    3    3    0    0 -0.10373610500E+02 -0.72263924145E+01  0.10748744655E+02  0.16594217480E+02  0.00000000000E+00 0.  1.
</event>
<event>
 7    1  0.5902966E-013  0.5052890E+02  0.7816164E-02  0.1300439E+00
        -11   -1    0    0    0    0  0.00000000000E+00  0.00000000000E+00  0.45593999997E+02  0.45594000000E+02  0.51100000000E-03 0.  1.
         11   -1    0    0    0    0 -0.00000000000E+00 -0.00000000000E+00 -0.45593999997E+02  0.45594000000E+02  0.51100000000E-03 0. -1.
    9900012    2    1    2    0    0  0.30860370686E+02 -0.17539086211E+02  0.19828776541E+02  0.50528900120E+02  0.30000122403E+02 0.  0.
         12    1    1    2    0    0 -0.30860370686E+02  0.17539086211E+02 -0.19828776541E+02  0.40659099880E+02  0.00000000000E+00 0. -1.
         11    1    3    3    0    0  0.10710051475E+02 -0.12118275158E+02  0.28276378612E+01  0.16418079411E+02  0.51100000000E-03 0. -1.
        -11    1    3    3    0    0  0.21660884246E+02 -0.73259505635E+01  0.19910124156E+02  0.30319572922E+02  0.51100000000E-03 0.  1.
         12    1    3    3    0    0 -0.15105650355E+01  0.19051395106E+01 -0.29089854764E+01  0.37912477871E+01  0.00000000000E+00 0. -1.
</event>
<event>
 7    1  0.5902966E-013  0.5052886E+02  0.7816164E-02  0.1300439E+00
        -11   -1    0    0    0    0  0.00000000000E+00  0.00000000000E+00  0.45593999997E+02  0.45594000000E+02  0.51100000000E-03 0.  1.
         11   -1    0    0    0    0 -0.00000000000E+00 -0.00000000000E+00 -0.45593999997E+02  0.45594000000E+02  0.51100000000E-03 0. -1.
    9900012    2    1    2    0    0  0.37336932164E+02 -0.52793607534E+00 -0.16088509073E+02  0.50528863953E+02  0.30000012471E+02 0.  0.
         12    1    1    2    0    0 -0.37336932164E+02  0.52793607534E+00  0.16088509073E+02  0.40659136047E+02  0.00000000000E+00 0. -1.
         11    1    3    3    0    0  0.35620104234E+01 -0.25961102854E+01 -0.17468180624E+00  0.44111473411E+01  0.51100000000E-03 0. -1.
        -11    1    3    3    0    0  0.27895369848E+02  0.11428471869E+02 -0.49509748527E+01  0.30549529955E+02  0.51100000000E-03 0.  1.
        -12    1    3    3    0    0  0.58795518921E+01 -0.93602976590E+01 -0.10962852414E+02  0.15568186656E+02  0.00000000000E+00 0.  1.
</event>
<event>
 7    1  0.5902966E-013  0.5052886E+02  0.7816164E-02  0.1300439E+00
        -11   -1    0    0    0    0  0.00000000000E+00  0.00000000000E+00  0.45593999997E+02  0.45594000000E+02  0.51100000000E-03 0.  1.
         11   -1    0    0    0    0 -0.00000000000E+00 -0.00000000000E+00 -0.45593999997E+02  0.45594000000E+02  0.51100000000E-03 0. -1.
    9900012    2    1    2    0    0  0.12240074538E+01 -0.51958446295E+01  0.40307203700E+02  0.50528859997E+02  0.30000000448E+02 0.  0.
         12    1    1    2    0    0 -0.12240074538E+01  0.51958446295E+01 -0.40307203700E+02  0.40659140003E+02  0.00000000000E+00 0. -1.
         11    1    3    3    0    0 -0.21740604012E+01 -0.58769840474E+01  0.11897718488E+02  0.13446976820E+02  0.51100000000E-03 0.  1.
        -11    1    3    3    0    0 -0.64891848891E+01  0.71115100790E+01  0.21135480366E+02  0.23224806279E+02  0.51100000000E-03 0. -1.
         12    1    3    3    0    0  0.98872527442E+01 -0.64303706612E+01  0.72740048462E+01  0.13857076898E+02  0.00000000000E+00 0. -1.
</event>
<event>
 7    1  0.5902966E-013  0.5052886E+02  0.7816164E-02  0.1300439E+00
        -11   -1    0    0    0    0  0.00000000000E+00  0.00000000000E+00  0.45593999997E+02  0.45594000000E+02  0.51100000000E-03 0. -1.
         11   -1    0    0    0    0 -0.00000000000E+00 -0.00000000000E+00 -0.45593999997E+02  0.45594000000E+02  0.51100000000E-03 0.  1.
    9900012    2    1    2    0    0 -0.36353327196E+02  0.18206357853E+02  0.36012128509E+00  0.50528861398E+02  0.30000004705E+02 0.  0.
         12    1    1    2    0    0  0.36353327196E+02 -0.18206357853E+02 -0.36012128509E+00  0.40659138602E+02  0.00000000000E+00 0. -1.
         11    1    3    3    0    0 -0.31873937177E+02  0.14968078337E+02  0.46576413121E+01  0.35520203591E+02  0.51100000000E-03 0. -1.
        -11    1    3    3    0    0 -0.49524520620E+01  0.80657993364E+01 -0.21616024172E+01  0.97085748507E+01  0.51100000000E-03 0.  1.
         12    1    3    3    0    0  0.47306204313E+00 -0.48275198200E+01 -0.21359176098E+01  0.53000829564E+01  0.00000000000E+00 0. -1.
</event>
<event>
 7    1  0.5902966E-013  0.5052886E+02  0.7816164E-02  0.1300439E+00
        -11   -1    0    0    0    0  0.00000000000E+00  0.00000000000E+00  0.45593999997E+02  0.45594000000E+02  0.51100000000E-03 0.  1.
         11   -1    0    0    0    0 -0.00000000000E+00 -0.00000000000E+00 -0.45593999997E+02  0.45594000000E+02  0.51100000000E-03 0. -1.
    9900012    2    1    2    0    0 -0.70876097265E+01  0.38289176360E+02 -0.11699170579E+02  0.50528857976E+02  0.29999994303E+02 0.  0.
         12    1    1    2    0    0  0.70876097265E+01 -0.38289176360E+02  0.11699170579E+02  0.40659142024E+02  0.00000000000E+00 0. -1.
         11    1    3    3    0    0 -0.95534497134E+01  0.10932576866E+02 -0.34784163968E+01  0.14929468150E+02  0.51100000000E-03 0. -1.
        -11    1    3    3    0    0  0.17769633678E+01  0.30937089786E+02 -0.74977117226E+01  0.31882233368E+02  0.51100000000E-03 0.  1.
         12    1    3    3    0    0  0.68887661903E+00 -0.35804902922E+01 -0.72304245936E+00  0.37171564571E+01  0.00000000000E+00 0. -1.
</event>
<event>
 7    1  0.5902966E-013  0.5052886E+02  0.7816164E-02  0.1300439E+00
        -11   -1    0    0    0    0  0.00000000000E+00  0.00000000000E+00  0.45593999997E+02  0.45594000000E+02  0.51100000000E-03 0.  1.
         11   -1    0    0    0    0 -0.00000000000E+00 -0.00000000000E+00 -0.45593999997E+02  0.45594000000E+02  0.51100000000E-03 0. -1.
    9900012    2    1    2    0    0  0.24475231001E+02  0.32448312890E+02 -0.11114730307E+01  0.50528864320E+02  0.30000013587E+02 0.  0.
         12    1    1    2    0    0 -0.24475231001E+02 -0.32448312890E+02  0.11114730307E+01  0.40659135680E+02  0.00000000000E+00 0. -1.
         11    1    3    3    0    0  0.65170947989E+01  0.80435686933E+01  0.20512672160E+01  0.10553635364E+02  0.51100000000E-03 0. -1.
        -11    1    3    3    0    0  0.25393757341E-01  0.31755189980E+01  0.90718617559E+01  0.96116201407E+01  0.51100000000E-03 0.  1.
         12    1    3    3    0    0  0.17932742445E+02  0.21229225199E+02 -0.12234602003E+02  0.30363608815E+02  0.00000000000E+00 0. -1.
</event>
<event>
 7    1  0.5902966E-013  0.5052886E+02  0.7816164E-02  0.1300439E+00
        -11   -1    0    0    0    0  0.00000000000E+00  0.00000000000E+00  0.45593999997E+02  0.45594000000E+02  0.51100000000E-03 0.  1.
         11   -1    0    0    0    0 -0.00000000000E+00 -0.00000000000E+00 -0.45593999997E+02  0.45594000000E+02  0.51100000000E-03 0. -1.
    9900012    2    1    2    0    0  0.16115058783E+02  0.13661193299E+02  0.34739638890E+02  0.50528857951E+02  0.29999994228E+02 0.  0.
         12    1    1    2    0    0 -0.16115058783E+02 -0.13661193299E+02 -0.34739638890E+02  0.40659142049E+02  0.00000000000E+00 0. -1.
         11    1    3    3    0    0  0.12375941597E+02  0.13394460903E+02  0.22046209381E+02  0.28611376437E+02  0.51100000000E-03 0. -1.
        -11    1    3    3    0    0  0.72683483359E+00  0.12119407386E+01  0.16731870213E+02  0.16791443366E+02  0.51100000000E-03 0.  1.
         12    1    3    3    0    0  0.30122823525E+01 -0.94520834234E+00 -0.40384407036E+01  0.51260381483E+01  0.00000000000E+00 0. -1.
</event>
<event>
 7    1  0.5902966E-013  0.5052882E+02  0.7816164E-02  0.1300439E+00
        -11   -1    0    0    0    0  0.00000000000E+00  0.00000000000E+00  0.45593999997E+02  0.45594000000E+02  0.51100000000E-03 0. -1.
         11   -1    0    0    0    0 -0.00000000000E+00 -0.00000000000E+00 -0.45593999997E+02  0.45594000000E+02  0.51100000000E-03 0.  1.
    9900012    2    1    2    0    0  0.99297358123E+01  0.67427512746E+01 -0.38847190604E+02  0.50528824333E+02  0.29999892043E+02 0.  0.
         12    1    1    2    0    0 -0.99297358123E+01 -0.67427512746E+01  0.38847190604E+02  0.40659175667E+02  0.00000000000E+00 0. -1.
         11    1    3    3    0    0 -0.69371427407E+01  0.61109791508E+01 -0.94650532168E+01  0.13230844578E+02  0.51100000000E-03 0. -1.
        -11    1    3    3    0    0  0.45268710075E+01  0.61908016260E+01 -0.18171541258E+02  0.19723678609E+02  0.51100000000E-03 0.  1.
         12    1    3    3    0    0  0.12340007545E+02 -0.55590295023E+01 -0.11210596129E+02  0.17574301147E+02  0.00000000000E+00 0. -1.
</event>
<event>
 7    1  0.6715320E-013  0.5052886E+02  0.7816164E-02  0.1300439E+00
        -11   -1    0    0    0    0  0.00000000000E+00  0.00000000000E+00  0.45593999997E+02  0.45594000000E+02  0.51100000000E-03 0. -1.
         11   -1    0    0    0    0 -0.00000000000E+00 -0.00000000000E+00 -0.45593999997E+02  0.45594000000E+02  0.51100000000E-03 0.  1.
    9900012    2    1    2    0    0  0.36614380777E+02 -0.17504190721E+02 -0.24810938738E+01  0.50528863274E+02  0.30000010407E+02 0.  0.
         12    1    1    2    0    0 -0.36614380777E+02  0.17504190721E+02  0.24810938738E+01  0.40659136726E+02  0.00000000000E+00 0. -1.
         11    1    3    3    0    0  0.13274920807E+02 -0.33213483166E+01  0.62468290894E+01  0.15042531403E+02  0.51100000000E-03 0. -1.
        -11    1    3    3    0    0 -0.12249415468E+01 -0.61780029934E+01  0.31602325764E+01  0.70466497697E+01  0.51100000000E-03 0.  1.
        -12    1    3    3    0    0  0.24564401517E+02 -0.80048394110E+01 -0.11888155540E+02  0.28439682101E+02  0.00000000000E+00 0.  1.
</event>
<event>
 7    1  0.5902966E-013  0.5052886E+02  0.7816164E-02  0.1300439E+00
        -11   -1    0    0    0    0  0.00000000000E+00  0.00000000000E+00  0.45593999997E+02  0.45594000000E+02  0.51100000000E-03 0. -1.
         11   -1    0    0    0    0 -0.00000000000E+00 -0.00000000000E+00 -0.45593999997E+02  0.45594000000E+02  0.51100000000E-03 0.  1.
    9900012    2    1    2    0    0 -0.38018232690E+02 -0.56102618355E+01 -0.13277963394E+02  0.50528863676E+02  0.30000011629E+02 0.  0.
         12    1    1    2    0    0  0.38018232690E+02  0.56102618355E+01  0.13277963394E+02  0.40659136324E+02  0.00000000000E+00 0. -1.
         11    1    3    3    0    0 -0.10361865163E+02  0.39811719942E+01 -0.82395310130E+01  0.13824176347E+02  0.51100000000E-03 0. -1.
        -11    1    3    3    0    0 -0.23432036368E+02 -0.64996350126E+01 -0.12693789057E+02  0.27430600878E+02  0.51100000000E-03 0.  1.
         12    1    3    3    0    0 -0.42243311590E+01 -0.30917988171E+01  0.76553566754E+01  0.92740864507E+01  0.00000000000E+00 0. -1.
</event>
<event>
 7    1  0.5902966E-013  0.5052886E+02  0.7816164E-02  0.1300439E+00
        -11   -1    0    0    0    0  0.00000000000E+00  0.00000000000E+00  0.45593999997E+02  0.45594000000E+02  0.51100000000E-03 0.  1.
         11   -1    0    0    0    0 -0.00000000000E+00 -0.00000000000E+00 -0.45593999997E+02  0.45594000000E+02  0.51100000000E-03 0. -1.
    9900012    2    1    2    0    0  0.43051820865E+01 -0.27666616315E+02  0.29482017831E+02  0.50528860480E+02  0.30000001915E+02 0.  0.
         12    1    1    2    0    0 -0.43051820865E+01  0.27666616315E+02 -0.29482017831E+02  0.40659139520E+02  0.00000000000E+00 0. -1.
         11    1    3    3    0    0  0.31419002591E+01 -0.20357610390E+02  0.27541378951E+02  0.34392315898E+02  0.51100000000E-03 0. -1.
        -11    1    3    3    0    0  0.58459637478E+01 -0.92169909554E+01  0.74098819139E+00  0.10939711064E+02  0.51100000000E-03 0.  1.
         12    1    3    3    0    0 -0.46826819204E+01  0.19079850298E+01  0.11996506882E+01  0.51968335181E+01  0.00000000000E+00 0. -1.
</event>
<event>
 7    1  0.5902966E-013  0.5052885E+02  0.7816164E-02  0.1300439E+00
        -11   -1    0    0    0    0  0.00000000000E+00  0.00000000000E+00  0.45593999997E+02  0.45594000000E+02  0.51100000000E-03 0.  1.
         11   -1    0    0    0    0 -0.00000000000E+00 -0.00000000000E+00 -0.45593999997E+02  0.45594000000E+02  0.51100000000E-03 0. -1.
    9900012    2    1    2    0    0  0.10736752063E+02 -0.60749675939E+01  0.38742521958E+02  0.50528854857E+02  0.29999984822E+02 0.  0.
         12    1    1    2    0    0 -0.10736752063E+02  0.60749675939E+01 -0.38742521958E+02  0.40659145143E+02  0.00000000000E+00 0. -1.
         11    1    3    3    0    0 -0.37417808788E+01  0.13733829154E+01 -0.16474805249E+01  0.43129221090E+01  0.51100000000E-03 0. -1.
        -11    1    3    3    0    0 -0.16408015322E+01 -0.59494247561E+01  0.92609134797E+01  0.11128899467E+02  0.51100000000E-03 0.  1.
         12    1    3    3    0    0  0.16119334474E+02 -0.14989257532E+01  0.31129089003E+02  0.35087033281E+02  0.00000000000E+00 0. -1.
</event>
<event>
 7    1  0.5902966E-013  0.5052888E+02  0.7816164E-02  0.1300439E+00
        -11   -1    0    0    0    0  0.00000000000E+00  0.00000000000E+00  0.45593999997E+02  0.45594000000E+02  0.51100000000E-03 0.  1.
         11   -1    0    0    0    0 -0.00000000000E+00 -0.00000000000E+00 -0.45593999997E+02  0.45594000000E+02  0.51100000000E-03 0. -1.
    9900012    2    1    2    0    0 -0.38662991715E+02  0.11849171078E+02  0.42348876806E+01  0.50528879777E+02  0.30000060571E+02 0.  0.
         12    1    1    2    0    0  0.38662991715E+02 -0.11849171078E+02 -0.42348876806E+01  0.40659120223E+02  0.00000000000E+00 0. -1.
         11    1    3    3    0    0 -0.76181644201E+01  0.13852342023E+01 -0.43345585030E+01  0.88737647368E+01  0.51100000000E-03 0. -1.
        -11    1    3    3    0    0 -0.30377042958E+02  0.79380332585E+00  0.96957230529E+01  0.31896738209E+02  0.51100000000E-03 0.  1.
         12    1    3    3    0    0 -0.66778433743E+00  0.96701335502E+01 -0.11262768693E+01  0.97583768315E+01  0.00000000000E+00 0. -1.
</event>
<event>
 7    1  0.5902966E-013  0.5052887E+02  0.7816164E-02  0.1300439E+00
        -11   -1    0    0    0    0  0.00000000000E+00  0.00000000000E+00  0.45593999997E+02  0.45594000000E+02  0.51100000000E-03 0.  1.
         11   -1    0    0    0    0 -0.00000000000E+00 -0.00000000000E+00 -0.45593999997E+02  0.45594000000E+02  0.51100000000E-03 0. -1.
    9900012    2    1    2    0    0 -0.30591718597E+01  0.30731078652E+02  0.26446302504E+02  0.50528872566E+02  0.30000038652E+02 0.  0.
         12    1    1    2    0    0  0.30591718597E+01 -0.30731078652E+02 -0.26446302504E+02  0.40659127434E+02  0.00000000000E+00 0. -1.
         11    1    3    3    0    0  0.14394527084E+01  0.12325823943E+02 -0.16972844486E+01  0.12525124140E+02  0.51100000000E-03 0.  1.
        -11    1    3    3    0    0 -0.73995233497E+01  0.19255072233E+02  0.17860843246E+02  0.27285902482E+02  0.51100000000E-03 0. -1.
         12    1    3    3    0    0  0.29008987816E+01 -0.84981752428E+00  0.10282743706E+02  0.10717845945E+02  0.00000000000E+00 0. -1.
</event>
<event>
 7    1  0.5902966E-013  0.5052886E+02  0.7816164E-02  0.1300439E+00
        -11   -1    0    0    0    0  0.00000000000E+00  0.00000000000E+00  0.45593999997E+02  0.45594000000E+02  0.51100000000E-03 0.  1.
         11   -1    0    0    0    0 -0.00000000000E+00 -0.00000000000E+00 -0.45593999997E+02  0.45594000000E+02  0.51100000000E-03 0. -1.
    9900012    2    1    2    0    0  0.13305291158E+02 -0.35726891573E+02  0.14132370673E+02  0.50528862587E+02  0.30000008321E+02 0.  0.
         12    1    1    2    0    0 -0.13305291158E+02  0.35726891573E+02 -0.14132370673E+02  0.40659137413E+02  0.00000000000E+00 0. -1.
         11    1    3    3    0    0  0.26670622627E+01 -0.29812860762E+02  0.18822377279E+02  0.35358192469E+02  0.51100000000E-03 0.  1.
        -11    1    3    3    0    0  0.22164728268E+01 -0.24403431771E+00  0.20137025304E+01  0.30045470012E+01  0.51100000000E-03 0. -1.
        -12    1    3    3    0    0  0.84217560687E+01 -0.56699964933E+01 -0.67037091371E+01  0.12166123117E+02  0.00000000000E+00 0.  1.
</event>
<event>
 7    1  0.5902966E-013  0.5052887E+02  0.7816164E-02  0.1300439E+00
        -11   -1    0    0    0    0  0.00000000000E+00  0.00000000000E+00  0.45593999997E+02  0.45594000000E+02  0.51100000000E-03 0. -1.
         11   -1    0    0    0    0 -0.00000000000E+00 -0.00000000000E+00 -0.45593999997E+02  0.45594000000E+02  0.51100000000E-03 0.  1.
    9900012    2    1    2    0    0  0.36681846066E+02 -0.60577798081E+01  0.16459356809E+02  0.50528868755E+02  0.30000027067E+02 0.  0.
         12    1    1    2    0    0 -0.36681846066E+02  0.60577798081E+01 -0.16459356809E+02  0.40659131245E+02  0.00000000000E+00 0. -1.
         11    1    3    3    0    0  0.14901142856E+02 -0.48909708203E+01 -0.21422465855E+01  0.15828925253E+02  0.51100000000E-03 0. -1.
        -11    1    3    3    0    0  0.11120987998E+02  0.71016977181E+01  0.20604778018E+01  0.13355001070E+02  0.51100000000E-03 0.  1.
         12    1    3    3    0    0  0.10659715212E+02 -0.82685067059E+01  0.16541125593E+02  0.21344942432E+02  0.00000000000E+00 0. -1.
</event>
<event>
 7    1  0.5902966E-013  0.5052885E+02  0.7816164E-02  0.1300439E+00
        -11   -1    0    0    0    0  0.00000000000E+00  0.00000000000E+00  0.45593999997E+02  0.45594000000E+02  0.51100000000E-03 0. -1.
         11   -1    0    0    0    0 -0.00000000000E+00 -0.00000000000E+00 -0.45593999997E+02  0.45594000000E+02  0.51100000000E-03 0.  1.
    9900012    2    1    2    0    0 -0.22108973696E+02 -0.20559316875E+02 -0.27233691421E+02  0.50528853714E+02  0.29999981350E+02 0.  0.
         12    1    1    2    0    0  0.22108973696E+02  0.20559316875E+02  0.27233691421E+02  0.40659146286E+02  0.00000000000E+00 0. -1.
         11    1    3    3    0    0  0.54526928754E+01 -0.75090830195E+01 -0.11843927818E+02  0.15046488421E+02  0.51100000000E-03 0. -1.
        -11    1    3    3    0    0 -0.55018429792E+01 -0.30603971400E+01 -0.79662708736E+01  0.10153707634E+02  0.51100000000E-03 0.  1.
        -12    1    3    3    0    0 -0.22059823592E+02 -0.99898367155E+01 -0.74234927294E+01  0.25328657660E+02  0.00000000000E+00 0.  1.
</event>
<event>
 7    1  0.5902966E-013  0.5052886E+02  0.7816164E-02  0.1300439E+00
        -11   -1    0    0    0    0  0.00000000000E+00  0.00000000000E+00  0.45593999997E+02  0.45594000000E+02  0.51100000000E-03 0.  1.
         11   -1    0    0    0    0 -0.00000000000E+00 -0.00000000000E+00 -0.45593999997E+02  0.45594000000E+02  0.51100000000E-03 0. -1.
    9900012    2    1    2    0    0 -0.47245755280E+01  0.29654062577E+02  0.27413144567E+02  0.50528861589E+02  0.30000005287E+02 0.  0.
         12    1    1    2    0    0  0.47245755280E+01 -0.29654062577E+02 -0.27413144567E+02  0.40659138411E+02  0.00000000000E+00 0. -1.
         11    1    3    3    0    0 -0.76527252570E+01  0.10016396936E+02 -0.25532706124E+00  0.12607838974E+02  0.51100000000E-03 0. -1.
        -11    1    3    3    0    0  0.55358544628E+01  0.84807323782E+01  0.27495533649E+01  0.10494215086E+02  0.51100000000E-03 0.  1.
        -12    1    3    3    0    0 -0.26077047337E+01  0.11156933263E+02  0.24918918263E+02  0.27426807529E+02  0.00000000000E+00 0.  1.
</event>
<event>
 7    1  0.5902966E-013  0.5052886E+02  0.7816164E-02  0.1300439E+00
        -11   -1    0    0    0    0  0.00000000000E+00  0.00000000000E+00  0.45593999997E+02  0.45594000000E+02  0.51100000000E-03 0.  1.
         11   -1    0    0    0    0 -0.00000000000E+00 -0.00000000000E+00 -0.45593999997E+02  0.45594000000E+02  0.51100000000E-03 0. -1.
    9900012    2    1    2    0    0  0.20843307105E+01  0.29391573896E+01  0.40499167851E+02  0.50528859855E+02  0.30000000017E+02 0.  0.
         12    1    1    2    0    0 -0.20843307105E+01 -0.29391573896E+01 -0.40499167851E+02  0.40659140145E+02  0.00000000000E+00 0. -1.
         11    1    3    3    0    0 -0.27723137885E+01  0.80817755832E+00  0.28509379149E+00  0.29017500648E+01  0.51100000000E-03 0. -1.
        -11    1    3    3    0    0  0.10531033017E+02  0.10391373344E+02  0.18316374478E+02  0.23545124138E+02  0.51100000000E-03 0.  1.
        -12    1    3    3    0    0 -0.56743885179E+01 -0.82603935126E+01  0.21897699581E+02  0.24081985653E+02  0.00000000000E+00 0.  1.
</event>
<event>
 7    1  0.5902966E-013  0.5052886E+02  0.7816164E-02  0.1300439E+00
        -11   -1    0    0    0    0  0.00000000000E+00  0.00000000000E+00  0.45593999997E+02  0.45594000000E+02  0.51100000000E-03 0. -1.
         11   -1    0    0    0    0 -0.00000000000E+00 -0.00000000000E+00 -0.45593999997E+02  0.45594000000E+02  0.51100000000E-03 0.  1.
    9900012    2    1    2    0    0  0.26488801485E+02 -0.19553172233E+01 -0.30784507685E+02  0.50528858556E+02  0.29999996068E+02 0.  0.
         12    1    1    2    0    0 -0.26488801485E+02  0.19553172233E+01  0.30784507685E+02  0.40659141444E+02  0.00000000000E+00 0. -1.
         11    1    3    3    0    0 -0.46966216272E+01  0.15731874313E+01 -0.57625640863E+01  0.75987050550E+01  0.51100000000E-03 0. -1.
        -11    1    3    3    0    0  0.69964721579E+01 -0.64326901806E+01 -0.11993118562E+02  0.15302451395E+02  0.51100000000E-03 0.  1.
         12    1    3    3    0    0  0.24188950954E+02  0.29041855260E+01 -0.13028825037E+02  0.27627702106E+02  0.00000000000E+00 0. -1.
</event>
<event>
 7    1  0.5902966E-013  0.5052886E+02  0.7816164E-02  0.1300439E+00
        -11   -1    0    0    0    0  0.00000000000E+00  0.00000000000E+00  0.45593999997E+02  0.45594000000E+02  0.51100000000E-03 0. -1.
         11   -1    0    0    0    0 -0.00000000000E+00 -0.00000000000E+00 -0.45593999997E+02  0.45594000000E+02  0.51100000000E-03 0.  1.
    9900012    2    1    2    0    0 -0.84227026095E-01 -0.14248454185E+02 -0.38080705987E+02  0.50528859462E+02  0.29999998820E+02 0.  0.
         12    1    1    2    0    0  0.84227026095E-01  0.14248454185E+02  0.38080705987E+02  0.40659140538E+02  0.00000000000E+00 0. -1.
         11    1    3    3    0    0 -0.30831317395E+01  0.21446316133E+01 -0.43468322539E+00  0.37807533439E+01  0.51100000000E-03 0. -1.
        -11    1    3    3    0    0  0.11643977889E+02 -0.74726889589E+01 -0.12260925999E+02  0.18486579131E+02  0.51100000000E-03 0.  1.
        -12    1    3    3    0    0 -0.86450731754E+01 -0.89203968389E+01 -0.25385096763E+02  0.28261526987E+02  0.00000000000E+00 0.  1.
</event>
<event>
 7    1  0.5902966E-013  0.5052886E+02  0.7816164E-02  0.1300439E+00
        -11   -1    0    0    0    0  0.00000000000E+00  0.00000000000E+00  0.45593999997E+02  0.45594000000E+02  0.51100000000E-03 0. -1.
         11   -1    0    0    0    0 -0.00000000000E+00 -0.00000000000E+00 -0.45593999997E+02  0.45594000000E+02  0.51100000000E-03 0.  1.
    9900012    2    1    2    0    0 -0.22483256898E+02 -0.28417124607E+02 -0.18442776954E+02  0.50528857935E+02  0.29999994179E+02 0.  0.
         12    1    1    2    0    0  0.22483256898E+02  0.28417124607E+02  0.18442776954E+02  0.40659142065E+02  0.00000000000E+00 0. -1.
         11    1    3    3    0    0  0.23483331071E+01 -0.10421246189E+02 -0.57352665697E+01  0.12124781375E+02  0.51100000000E-03 0. -1.
        -11    1    3    3    0    0 -0.32901761084E+01 -0.26437552038E+01  0.50217836615E+01  0.65599551680E+01  0.51100000000E-03 0.  1.
        -12    1    3    3    0    0 -0.21541413896E+02 -0.15352123215E+02 -0.17729294046E+02  0.31844121392E+02  0.00000000000E+00 0.  1.
</event>
<event>
 7    1  0.5902966E-013  0.5052886E+02  0.7816164E-02  0.1300439E+00
        -11   -1    0    0    0    0  0.00000000000E+00  0.00000000000E+00  0.45593999997E+02  0.45594000000E+02  0.51100000000E-03 0. -1.
         11   -1    0    0    0    0 -0.00000000000E+00 -0.00000000000E+00 -0.45593999997E+02  0.45594000000E+02  0.51100000000E-03 0.  1.
    9900012    2    1    2    0    0  0.20073340830E+02 -0.31253221979E+02 -0.16536708599E+02  0.50528860468E+02  0.30000001879E+02 0.  0.
         12    1    1    2    0    0 -0.20073340830E+02  0.31253221979E+02  0.16536708599E+02  0.40659139532E+02  0.00000000000E+00 0. -1.
         11    1    3    3    0    0  0.78042592941E+01 -0.14341569782E+01 -0.26290124011E+01  0.83591253032E+01  0.51100000000E-03 0. -1.
        -11    1    3    3    0    0  0.35527794278E+01  0.36764581047E+01 -0.27464192495E+01  0.58035682828E+01  0.51100000000E-03 0.  1.
         12    1    3    3    0    0  0.87163021079E+01 -0.33495523106E+02 -0.11161276949E+02  0.36366166882E+02  0.00000000000E+00 0. -1.
</event>
<event>
 7    1  0.5902966E-013  0.5052885E+02  0.7816164E-02  0.1300439E+00
        -11   -1    0    0    0    0  0.00000000000E+00  0.00000000000E+00  0.45593999997E+02  0.45594000000E+02  0.51100000000E-03 0.  1.
         11   -1    0    0    0    0 -0.00000000000E+00 -0.00000000000E+00 -0.45593999997E+02  0.45594000000E+02  0.51100000000E-03 0. -1.
    9900012    2    1    2    0    0 -0.12710706591E+02 -0.23566162201E+02  0.30598041163E+02  0.50528853601E+02  0.29999981005E+02 0.  0.
         12    1    1    2    0    0  0.12710706591E+02  0.23566162201E+02 -0.30598041163E+02  0.40659146399E+02  0.00000000000E+00 0. -1.
         11    1    3    3    0    0 -0.14238435961E+01 -0.21775510657E+02  0.12986158203E+02  0.25393709853E+02  0.51100000000E-03 0. -1.
        -11    1    3    3    0    0 -0.55255432517E+01 -0.75115669502E+01  0.12289898403E+02  0.15427147153E+02  0.51100000000E-03 0.  1.
        -12    1    3    3    0    0 -0.57613197431E+01  0.57209154059E+01  0.53219845566E+01  0.97079965948E+01  0.00000000000E+00 0.  1.
</event>
<event>
 7    1  0.5902966E-013  0.5052886E+02  0.7816164E-02  0.1300439E+00
        -11   -1    0    0    0    0  0.00000000000E+00  0.00000000000E+00  0.45593999997E+02  0.45594000000E+02  0.51100000000E-03 0. -1.
         11   -1    0    0    0    0 -0.00000000000E+00 -0.00000000000E+00 -0.45593999997E+02  0.45594000000E+02  0.51100000000E-03 0.  1.
    9900012    2    1    2    0    0 -0.20266644523E+01 -0.40552393277E+02 -0.21358077649E+01  0.50528860264E+02  0.30000001258E+02 0.  0.
         12    1    1    2    0    0  0.20266644523E+01  0.40552393277E+02  0.21358077649E+01  0.40659139736E+02  0.00000000000E+00 0. -1.
         11    1    3    3    0    0  0.33863438647E+01 -0.11307846710E+02  0.43491931117E+01  0.12579753693E+02  0.51100000000E-03 0.  1.
        -11    1    3    3    0    0  0.48430119458E+01 -0.17738047093E+02 -0.11562424554E+02  0.21720560334E+02  0.51100000000E-03 0. -1.
         12    1    3    3    0    0 -0.10256020263E+02 -0.11506499474E+02  0.50774236777E+01  0.16228546237E+02  0.00000000000E+00 0. -1.
</event>
<event>
 7    1  0.5902966E-013  0.5052886E+02  0.7816164E-02  0.1300439E+00
        -11   -1    0    0    0    0  0.00000000000E+00  0.00000000000E+00  0.45593999997E+02  0.45594000000E+02  0.51100000000E-03 0.  1.
         11   -1    0    0    0    0 -0.00000000000E+00 -0.00000000000E+00 -0.45593999997E+02  0.45594000000E+02  0.51100000000E-03 0. -1.
    9900012    2    1    2    0    0  0.81531161237E+01 -0.39603648234E+02 -0.42712330247E+01  0.50528859729E+02  0.29999999634E+02 0.  0.
         12    1    1    2    0    0 -0.81531161237E+01  0.39603648234E+02  0.42712330247E+01  0.40659140271E+02  0.00000000000E+00 0. -1.
         11    1    3    3    0    0  0.50972814449E+01 -0.44210522471E+01 -0.19970594075E+01  0.70367767933E+01  0.51100000000E-03 0. -1.
        -11    1    3    3    0    0 -0.19291183700E+01 -0.26364791636E+02 -0.12373898969E+02  0.29187961759E+02  0.51100000000E-03 0.  1.
        -12    1    3    3    0    0  0.49849530487E+01 -0.88178043508E+01  0.10099725351E+02  0.14304121177E+02  0.00000000000E+00 0.  1.
</event>
<event>
 7    1  0.5902966E-013  0.5052885E+02  0.7816164E-02  0.1300439E+00
        -11   -1    0    0    0    0  0.00000000000E+00  0.00000000000E+00  0.45593999997E+02  0.45594000000E+02  0.51100000000E-03 0.  1.
         11   -1    0    0    0    0 -0.00000000000E+00 -0.00000000000E+00 -0.45593999997E+02  0.45594000000E+02  0.51100000000E-03 0. -1.
    9900012    2    1    2    0    0  0.11255465376E+02 -0.36002989889E+02  0.15174494803E+02  0.50528854973E+02  0.29999985177E+02 0.  0.
         12    1    1    2    0    0 -0.11255465376E+02  0.36002989889E+02 -0.15174494803E+02  0.40659145027E+02  0.00000000000E+00 0. -1.
         11    1    3    3    0    0  0.24678000148E+01 -0.14216468120E+02 -0.21180772154E+01  0.14583698230E+02  0.51100000000E-03 0. -1.
        -11    1    3    3    0    0  0.13052669008E+02 -0.74100797446E+01  0.31581914442E+01  0.15338044971E+02  0.51100000000E-03 0.  1.
        -12    1    3    3    0    0 -0.42650036474E+01 -0.14376442024E+02  0.14134380574E+02  0.20607111773E+02  0.00000000000E+00 0.  1.
</event>
<event>
 7    1  0.5902966E-013  0.5052886E+02  0.7816164E-02  0.1300439E+00
        -11   -1    0    0    0    0  0.00000000000E+00  0.00000000000E+00  0.45593999997E+02  0.45594000000E+02  0.51100000000E-03 0. -1.
         11   -1    0    0    0    0 -0.00000000000E+00 -0.00000000000E+00 -0.45593999997E+02  0.45594000000E+02  0.51100000000E-03 0.  1.
    9900012    2    1    2    0    0  0.20316844649E+02 -0.32436152424E+02 -0.13721794254E+02  0.50528858369E+02  0.29999995500E+02 0.  0.
         12    1    1    2    0    0 -0.20316844649E+02  0.32436152424E+02  0.13721794254E+02  0.40659141631E+02  0.00000000000E+00 0. -1.
         11    1    3    3    0    0  0.20309411330E+01  0.74607231862E+00  0.41372648647E+01  0.46688656665E+01  0.51100000000E-03 0. -1.
        -11    1    3    3    0    0 -0.34000629992E+00 -0.13231151647E+02  0.12315724829E-01  0.13235525306E+02  0.51100000000E-03 0.  1.
        -12    1    3    3    0    0  0.18625909816E+02 -0.19951073097E+02 -0.17871374843E+02  0.32624467397E+02  0.00000000000E+00 0.  1.
</event>
<event>
 7    1  0.5902966E-013  0.5052887E+02  0.7816164E-02  0.1300439E+00
        -11   -1    0    0    0    0  0.00000000000E+00  0.00000000000E+00  0.45593999997E+02  0.45594000000E+02  0.51100000000E-03 0.  1.
         11   -1    0    0    0    0 -0.00000000000E+00 -0.00000000000E+00 -0.45593999997E+02  0.45594000000E+02  0.51100000000E-03 0. -1.
    9900012    2    1    2    0    0 -0.17819027562E+02 -0.12909150747E+02  0.34190652610E+02  0.50528872585E+02  0.30000038709E+02 0.  0.
         12    1    1    2    0    0  0.17819027562E+02  0.12909150747E+02 -0.34190652610E+02  0.40659127415E+02  0.00000000000E+00 0. -1.
         11    1    3    3    0    0  0.31628682656E+01  0.18370139824E+01 -0.53534835088E+00  0.36966138769E+01  0.51100000000E-03 0. -1.
        -11    1    3    3    0    0 -0.80949872011E+01  0.28010102784E+01  0.47817304872E+01  0.98101693706E+01  0.51100000000E-03 0.  1.
        -12    1    3    3    0    0 -0.12886908626E+02 -0.17547175008E+02  0.29944270474E+02  0.37022089337E+02  0.00000000000E+00 0.  1.
</event>
<event>
 7    1  0.5902966E-013  0.5052886E+02  0.7816164E-02  0.1300439E+00
        -11   -1    0    0    0    0  0.00000000000E+00  0.00000000000E+00  0.45593999997E+02  0.45594000000E+02  0.51100000000E-03 0. -1.
         11   -1    0    0    0    0 -0.00000000000E+00 -0.00000000000E+00 -0.45593999997E+02  0.45594000000E+02  0.51100000000E-03 0.  1.
    9900012    2    1    2    0    0 -0.26968698006E+01  0.18390033266E+02 -0.36162128174E+02  0.50528856571E+02  0.29999990034E+02 0.  0.
         12    1    1    2    0    0  0.26968698006E+01 -0.18390033266E+02  0.36162128174E+02  0.40659143429E+02  0.00000000000E+00 0. -1.
         11    1    3    3    0    0  0.95508807368E+00 -0.30812229046E+01  0.15837961467E+01  0.35936803296E+01  0.51100000000E-03 0. -1.
        -11    1    3    3    0    0  0.40663445429E+01 -0.51430271966E+00 -0.29175190038E+01  0.50310617794E+01  0.51100000000E-03 0.  1.
        -12    1    3    3    0    0 -0.77183024172E+01  0.21985558891E+02 -0.34828405317E+02  0.41904114462E+02  0.00000000000E+00 0.  1.
</event>
<event>
 7    1  0.5902966E-013  0.5052886E+02  0.7816164E-02  0.1300439E+00
        -11   -1    0    0    0    0  0.00000000000E+00  0.00000000000E+00  0.45593999997E+02  0.45594000000E+02  0.51100000000E-03 0.  1.
         11   -1    0    0    0    0 -0.00000000000E+00 -0.00000000000E+00 -0.45593999997E+02  0.45594000000E+02  0.51100000000E-03 0. -1.
    9900012    2    1    2    0    0 -0.17714486909E+02  0.28356948265E+02  0.23135385060E+02  0.50528860767E+02  0.30000002786E+02 0.  0.
         12    1    1    2    0    0  0.17714486909E+02 -0.28356948265E+02 -0.23135385060E+02  0.40659139233E+02  0.00000000000E+00 0. -1.
         11    1    3    3    0    0 -0.44876704257E+00  0.21918385973E+01  0.26789318314E-02  0.22373099322E+01  0.51100000000E-03 0. -1.
        -11    1    3    3    0    0 -0.23003628302E+02  0.15607077475E+02  0.79183361412E+01  0.28904114411E+02  0.51100000000E-03 0.  1.
        -12    1    3    3    0    0  0.57379084353E+01  0.10558032192E+02  0.15214369987E+02  0.19387436424E+02  0.00000000000E+00 0.  1.
</event>
<event>
 7    1  0.5902966E-013  0.5052884E+02  0.7816164E-02  0.1300439E+00
        -11   -1    0    0    0    0  0.00000000000E+00  0.00000000000E+00  0.45593999997E+02  0.45594000000E+02  0.51100000000E-03 0.  1.
         11   -1    0    0    0    0 -0.00000000000E+00 -0.00000000000E+00 -0.45593999997E+02  0.45594000000E+02  0.51100000000E-03 0. -1.
    9900012    2    1    2    0    0 -0.61866008649E+01  0.12437065901E+02  0.38212733079E+02  0.50528836115E+02  0.29999927855E+02 0.  0.
         12    1    1    2    0    0  0.61866008649E+01 -0.12437065901E+02 -0.38212733079E+02  0.40659163885E+02  0.00000000000E+00 0. -1.
         11    1    3    3    0    0 -0.10164724763E+02  0.20473133021E+01  0.24272021996E+01  0.10649151706E+02  0.51100000000E-03 0. -1.
        -11    1    3    3    0    0 -0.43562515325E+01  0.68588764570E+01  0.12630074448E+02  0.15017985700E+02  0.51100000000E-03 0.  1.
        -12    1    3    3    0    0  0.83343754311E+01  0.35308761418E+01  0.23155456431E+02  0.24861698709E+02  0.00000000000E+00 0.  1.
</event>
<event>
 7    1  0.5902966E-013  0.5052890E+02  0.7816164E-02  0.1300439E+00
        -11   -1    0    0    0    0  0.00000000000E+00  0.00000000000E+00  0.45593999997E+02  0.45594000000E+02  0.51100000000E-03 0.  1.
         11   -1    0    0    0    0 -0.00000000000E+00 -0.00000000000E+00 -0.45593999997E+02  0.45594000000E+02  0.51100000000E-03 0. -1.
    9900012    2    1    2    0    0  0.33895883741E+01  0.16718647759E+02  0.36907451702E+02  0.50528899132E+02  0.30000119401E+02 0.  0.
         12    1    1    2    0    0 -0.33895883741E+01 -0.16718647759E+02 -0.36907451702E+02  0.40659100868E+02  0.00000000000E+00 0. -1.
         11    1    3    3    0    0 -0.98416225509E+01  0.19828831003E+01  0.41312089486E+01  0.10856161728E+02  0.51100000000E-03 0. -1.
        -11    1    3    3    0    0  0.75561917493E+01  0.27844748542E+01  0.68762051579E+01  0.10589217705E+02  0.51100000000E-03 0.  1.
        -12    1    3    3    0    0  0.56750191757E+01  0.11951289805E+02  0.25900037596E+02  0.29083519699E+02  0.00000000000E+00 0.  1.
</event>
<event>
 7    1  0.5902966E-013  0.5052887E+02  0.7816164E-02  0.1300439E+00
        -11   -1    0    0    0    0  0.00000000000E+00  0.00000000000E+00  0.45593999997E+02  0.45594000000E+02  0.51100000000E-03 0. -1.
         11   -1    0    0    0    0 -0.00000000000E+00 -0.00000000000E+00 -0.45593999997E+02  0.45594000000E+02  0.51100000000E-03 0.  1.
    9900012    2    1    2    0    0 -0.10774423546E+01 -0.14588005002E+02 -0.37936709296E+02  0.50528872068E+02  0.30000037138E+02 0.  0.
         12    1    1    2    0    0  0.10774423546E+01  0.14588005002E+02  0.37936709296E+02  0.40659127932E+02  0.00000000000E+00 0. -1.
         11    1    3    3    0    0  0.55004663074E+00 -0.97230985210E+01 -0.27561163333E+02  0.29231129309E+02  0.51100000000E-03 0. -1.
        -11    1    3    3    0    0 -0.59810339067E+01 -0.88068326220E+01 -0.11100322615E+02  0.15380189526E+02  0.51100000000E-03 0.  1.
         12    1    3    3    0    0  0.43535449215E+01  0.39419261406E+01  0.72477665147E+00  0.59175532338E+01  0.00000000000E+00 0. -1.
</event>
<event>
 7    1  0.5902966E-013  0.5052887E+02  0.7816164E-02  0.1300439E+00
        -11   -1    0    0    0    0  0.00000000000E+00  0.00000000000E+00  0.45593999997E+02  0.45594000000E+02  0.51100000000E-03 0.  1.
         11   -1    0    0    0    0 -0.00000000000E+00 -0.00000000000E+00 -0.45593999997E+02  0.45594000000E+02  0.51100000000E-03 0. -1.
    9900012    2    1    2    0    0  0.29999911443E+02 -0.58538414417E+00  0.27437709180E+02  0.50528865156E+02  0.30000016128E+02 0.  0.
         12    1    1    2    0    0 -0.29999911443E+02  0.58538414417E+00 -0.27437709180E+02  0.40659134844E+02  0.00000000000E+00 0. -1.
         11    1    3    3    0    0  0.18746279471E+01  0.39814007943E+01 -0.10211512774E+01  0.45175803720E+01  0.51100000000E-03 0. -1.
        -11    1    3    3    0    0  0.27814883018E+02 -0.85569926534E+01  0.16617077017E+02  0.33511447140E+02  0.51100000000E-03 0.  1.
         12    1    3    3    0    0  0.31040047794E+00  0.39902077149E+01  0.11841783440E+02  0.12499837644E+02  0.00000000000E+00 0. -1.
</event>
<event>
 7    1  0.5902966E-013  0.5052885E+02  0.7816164E-02  0.1300439E+00
        -11   -1    0    0    0    0  0.00000000000E+00  0.00000000000E+00  0.45593999997E+02  0.45594000000E+02  0.51100000000E-03 0.  1.
         11   -1    0    0    0    0 -0.00000000000E+00 -0.00000000000E+00 -0.45593999997E+02  0.45594000000E+02  0.51100000000E-03 0. -1.
    9900012    2    1    2    0    0  0.14684956280E+02  0.98478980031E+01  0.36613346214E+02  0.50528853956E+02  0.29999982086E+02 0.  0.
         12    1    1    2    0    0 -0.14684956280E+02 -0.98478980031E+01 -0.36613346214E+02  0.40659146044E+02  0.00000000000E+00 0. -1.
         11    1    3    3    0    0 -0.44046538189E+00  0.86730518345E+01  0.17378784116E+02  0.19427763007E+02  0.51100000000E-03 0. -1.
        -11    1    3    3    0    0  0.17414424777E+02  0.49007079850E+00  0.21592566534E+02  0.27744211820E+02  0.51100000000E-03 0.  1.
         12    1    3    3    0    0 -0.22890031153E+01  0.68477537006E+00 -0.23580044359E+01  0.33568791294E+01  0.00000000000E+00 0. -1.
</event>
<event>
 7    1  0.5902966E-013  0.5052886E+02  0.7816164E-02  0.1300439E+00
        -11   -1    0    0    0    0  0.00000000000E+00  0.00000000000E+00  0.45593999997E+02  0.45594000000E+02  0.51100000000E-03 0.  1.
         11   -1    0    0    0    0 -0.00000000000E+00 -0.00000000000E+00 -0.45593999997E+02  0.45594000000E+02  0.51100000000E-03 0. -1.
    9900012    2    1    2    0    0  0.25708596987E+02  0.21928620887E+02  0.22613474676E+02  0.50528860683E+02  0.30000002533E+02 0.  0.
         12    1    1    2    0    0 -0.25708596987E+02 -0.21928620887E+02 -0.22613474676E+02  0.40659139317E+02  0.00000000000E+00 0. -1.
         11    1    3    3    0    0  0.13701193259E+02  0.10994379226E+01  0.87829037317E+01  0.16311678598E+02  0.51100000000E-03 0. -1.
        -11    1    3    3    0    0  0.62608482433E+01  0.17868848462E+00  0.10915329737E+02  0.12584696017E+02  0.51100000000E-03 0.  1.
         12    1    3    3    0    0  0.57465554840E+01  0.20650494480E+02  0.29152412072E+01  0.21632486068E+02  0.00000000000E+00 0. -1.
</event>
<event>
 7    1  0.5902966E-013  0.5052892E+02  0.7816164E-02  0.1300439E+00
        -11   -1    0    0    0    0  0.00000000000E+00  0.00000000000E+00  0.45593999997E+02  0.45594000000E+02  0.51100000000E-03 0. -1.
         11   -1    0    0    0    0 -0.00000000000E+00 -0.00000000000E+00 -0.45593999997E+02  0.45594000000E+02  0.51100000000E-03 0.  1.
    9900012    2    1    2    0    0 -0.97543835948E+01 -0.22087124782E+02 -0.32713474932E+02  0.50528923245E+02  0.30000192696E+02 0.  0.
         12    1    1    2    0    0  0.97543835948E+01  0.22087124782E+02  0.32713474932E+02  0.40659076755E+02  0.00000000000E+00 0. -1.
         11    1    3    3    0    0 -0.80383692314E+01 -0.48536038929E+01 -0.67360596100E+00  0.94141699529E+01  0.51100000000E-03 0. -1.
        -11    1    3    3    0    0 -0.28528430018E+01 -0.20597377064E+02 -0.31152327399E+02  0.37454748134E+02  0.51100000000E-03 0.  1.
         12    1    3    3    0    0  0.11368286385E+01  0.33638561752E+01 -0.88754157172E+00  0.36600051588E+01  0.00000000000E+00 0. -1.
</event>
<event>
 7    1  0.5902966E-013  0.5052883E+02  0.7816164E-02  0.1300439E+00
        -11   -1    0    0    0    0  0.00000000000E+00  0.00000000000E+00  0.45593999997E+02  0.45594000000E+02  0.51100000000E-03 0.  1.
         11   -1    0    0    0    0 -0.00000000000E+00 -0.00000000000E+00 -0.45593999997E+02  0.45594000000E+02  0.51100000000E-03 0. -1.
    9900012    2    1    2    0    0 -0.50869876995E+01  0.13833470637E+02  0.37893610243E+02  0.50528830666E+02  0.29999911291E+02 0.  0.
         12    1    1    2    0    0  0.50869876995E+01 -0.13833470637E+02 -0.37893610243E+02  0.40659169334E+02  0.00000000000E+00 0. -1.
         11    1    3    3    0    0 -0.10038982310E+02 -0.21062956899E+01  0.17976039228E+02  0.20696754188E+02  0.51100000000E-03 0. -1.
        -11    1    3    3    0    0 -0.83924632486E+00  0.69288481531E+01  0.17515119236E+02  0.18854513339E+02  0.51100000000E-03 0.  1.
         12    1    3    3    0    0  0.57912409351E+01  0.90109181741E+01  0.24024517789E+01  0.10977563138E+02  0.00000000000E+00 0. -1.
</event>
<event>
 7    1  0.5902966E-013  0.5052886E+02  0.7816164E-02  0.1300439E+00
        -11   -1    0    0    0    0  0.00000000000E+00  0.00000000000E+00  0.45593999997E+02  0.45594000000E+02  0.51100000000E-03 0.  1.
         11   -1    0    0    0    0 -0.00000000000E+00 -0.00000000000E+00 -0.45593999997E+02  0.45594000000E+02  0.51100000000E-03 0. -1.
    9900012    2    1    2    0    0  0.34562913159E+02  0.20828683409E+02 -0.49736012568E+01  0.50528859232E+02  0.29999998120E+02 0.  0.
         12    1    1    2    0    0 -0.34562913159E+02 -0.20828683409E+02  0.49736012568E+01  0.40659140768E+02  0.00000000000E+00 0. -1.
         11    1    3    3    0    0  0.58605390956E+01  0.50144518999E+01 -0.10288916322E+02  0.12858944190E+02  0.51100000000E-03 0. -1.
        -11    1    3    3    0    0  0.19259510209E+02  0.95878858181E+01 -0.53007333118E+01  0.22157483203E+02  0.51100000000E-03 0.  1.
        -12    1    3    3    0    0  0.94428638539E+01  0.62263456905E+01  0.10616048377E+02  0.15512431839E+02  0.00000000000E+00 0.  1.
</event>
<event>
 7    1  0.5902966E-013  0.5052886E+02  0.7816164E-02  0.1300439E+00
        -11   -1    0    0    0    0  0.00000000000E+00  0.00000000000E+00  0.45593999997E+02  0.45594000000E+02  0.51100000000E-03 0. -1.
         11   -1    0    0    0    0 -0.00000000000E+00 -0.00000000000E+00 -0.45593999997E+02  0.45594000000E+02  0.51100000000E-03 0.  1.
    9900012    2    1    2    0    0  0.28588717450E+02  0.14038287314E+00  0.28910740934E+02  0.50528863091E+02  0.30000009852E+02 0.  0.
         12    1    1    2    0    0 -0.28588717450E+02 -0.14038287314E+00 -0.28910740934E+02  0.40659136909E+02  0.00000000000E+00 0. -1.
         11    1    3    3    0    0 -0.19062777365E+01  0.22313289989E+01  0.68409493358E+01  0.74438774833E+01  0.51100000000E-03 0. -1.
        -11    1    3    3    0    0  0.19637823316E+02  0.60747911430E+01  0.21111623307E+02  0.29466045390E+02  0.51100000000E-03 0.  1.
         12    1    3    3    0    0  0.10857171871E+02 -0.81657372688E+01  0.95816829087E+00  0.13618940218E+02  0.00000000000E+00 0. -1.
</event>
<event>
 7    1  0.5902966E-013  0.5052885E+02  0.7816164E-02  0.1300439E+00
        -11   -1    0    0    0    0  0.00000000000E+00  0.00000000000E+00  0.45593999997E+02  0.45594000000E+02  0.51100000000E-03 0. -1.
         11   -1    0    0    0    0 -0.00000000000E+00 -0.00000000000E+00 -0.45593999997E+02  0.45594000000E+02  0.51100000000E-03 0.  1.
    9900012    2    1    2    0    0  0.22273862196E+02  0.33375671106E+02 -0.65655152257E+01  0.50528851594E+02  0.29999974905E+02 0.  0.
         12    1    1    2    0    0 -0.22273862196E+02 -0.33375671106E+02  0.65655152257E+01  0.40659148406E+02  0.00000000000E+00 0. -1.
         11    1    3    3    0    0  0.19629368684E+01  0.32082353553E+01  0.32220829451E+01  0.49525462148E+01  0.51100000000E-03 0. -1.
        -11    1    3    3    0    0  0.38721068627E+01  0.16518052503E+02 -0.16004484097E+02  0.23323438458E+02  0.51100000000E-03 0.  1.
         12    1    3    3    0    0  0.16438818465E+02  0.13649383249E+02  0.62168859260E+01  0.22252866921E+02  0.00000000000E+00 0. -1.
</event>
<event>
 7    1  0.6721489E-013  0.5052885E+02  0.7816164E-02  0.1300439E+00
        -11   -1    0    0    0    0  0.00000000000E+00  0.00000000000E+00  0.45593999997E+02  0.45594000000E+02  0.51100000000E-03 0. -1.
         11   -1    0    0    0    0 -0.00000000000E+00 -0.00000000000E+00 -0.45593999997E+02  0.45594000000E+02  0.51100000000E-03 0.  1.
    9900012    2    1    2    0    0 -0.17433627204E+01  0.33839110485E+01 -0.40480563727E+02  0.50528853339E+02  0.29999980208E+02 0.  0.
         12    1    1    2    0    0  0.17433627204E+01 -0.33839110485E+01  0.40480563727E+02  0.40659146661E+02  0.00000000000E+00 0. -1.
         11    1    3    3    0    0  0.28168582120E+01  0.74315931271E+01 -0.55705336712E+01  0.97053651264E+01  0.51100000000E-03 0. -1.
        -11    1    3    3    0    0  0.48212724282E+01 -0.32535423555E+01 -0.13543241886E+01  0.59719678461E+01  0.51100000000E-03 0.  1.
        -12    1    3    3    0    0 -0.93814933605E+01 -0.79413972314E+00 -0.33555705867E+02  0.34851520366E+02  0.00000000000E+00 0.  1.
</event>
<event>
 7    1  0.5902966E-013  0.5052885E+02  0.7816164E-02  0.1300439E+00
        -11   -1    0    0    0    0  0.00000000000E+00  0.00000000000E+00  0.45593999997E+02  0.45594000000E+02  0.51100000000E-03 0.  1.
         11   -1    0    0    0    0 -0.00000000000E+00 -0.00000000000E+00 -0.45593999997E+02  0.45594000000E+02  0.51100000000E-03 0. -1.
    9900012    2    1    2    0    0  0.38108009920E+01 -0.39174049535E+02  0.10199896080E+02  0.50528852921E+02  0.29999978938E+02 0.  0.
         12    1    1    2    0    0 -0.38108009920E+01  0.39174049535E+02 -0.10199896080E+02  0.40659147079E+02  0.00000000000E+00 0. -1.
         11    1    3    3    0    0  0.91131232468E-01 -0.26794734974E+01 -0.39878181926E+01  0.48052655830E+01  0.51100000000E-03 0. -1.
        -11    1    3    3    0    0  0.11408469391E+02 -0.21286057033E+02  0.99306313659E+00  0.24170965486E+02  0.51100000000E-03 0.  1.
        -12    1    3    3    0    0 -0.76887996318E+01 -0.15208519005E+02  0.13194651136E+02  0.21552621852E+02  0.00000000000E+00 0.  1.
</event>
<event>
 7    1  0.5902966E-013  0.5052886E+02  0.7816164E-02  0.1300439E+00
        -11   -1    0    0    0    0  0.00000000000E+00  0.00000000000E+00  0.45593999997E+02  0.45594000000E+02  0.51100000000E-03 0. -1.
         11   -1    0    0    0    0 -0.00000000000E+00 -0.00000000000E+00 -0.45593999997E+02  0.45594000000E+02  0.51100000000E-03 0.  1.
    9900012    2    1    2    0    0  0.10751039051E+02 -0.34404152985E+02  0.18813155090E+02  0.50528863416E+02  0.30000010841E+02 0.  0.
         12    1    1    2    0    0 -0.10751039051E+02  0.34404152985E+02 -0.18813155090E+02  0.40659136584E+02  0.00000000000E+00 0. -1.
         11    1    3    3    0    0  0.46961374927E+01 -0.11724202396E+01  0.11314068020E+02  0.12305950267E+02  0.51100000000E-03 0. -1.
        -11    1    3    3    0    0  0.98102395757E+01 -0.10580550953E+02  0.41936758662E+01  0.15025836966E+02  0.51100000000E-03 0.  1.
        -12    1    3    3    0    0 -0.37553380179E+01 -0.22651181792E+02  0.33054112041E+01  0.23197076183E+02  0.00000000000E+00 0.  1.
</event>
<event>
 7    1  0.5902966E-013  0.5052887E+02  0.7816164E-02  0.1300439E+00
        -11   -1    0    0    0    0  0.00000000000E+00  0.00000000000E+00  0.45593999997E+02  0.45594000000E+02  0.51100000000E-03 0.  1.
         11   -1    0    0    0    0 -0.00000000000E+00 -0.00000000000E+00 -0.45593999997E+02  0.45594000000E+02  0.51100000000E-03 0. -1.
    9900012    2    1    2    0    0  0.96278728673E+01  0.19941974852E+02  0.34099659096E+02  0.50528867602E+02  0.30000023562E+02 0.  0.
         12    1    1    2    0    0 -0.96278728673E+01 -0.19941974852E+02 -0.34099659096E+02  0.40659132398E+02  0.00000000000E+00 0. -1.
         11    1    3    3    0    0  0.52713753813E+01  0.96752804201E+01  0.10095710498E+02  0.14943955980E+02  0.51100000000E-03 0. -1.
        -11    1    3    3    0    0 -0.41449378229E+01  0.14191329781E+02  0.21133028943E+02  0.25791069444E+02  0.51100000000E-03 0.  1.
         12    1    3    3    0    0  0.85014353090E+01 -0.39246353488E+01  0.28709196552E+01  0.97938421776E+01  0.00000000000E+00 0. -1.
</event>
<event>
 7    1  0.5902966E-013  0.5052886E+02  0.7816164E-02  0.1300439E+00
        -11   -1    0    0    0    0  0.00000000000E+00  0.00000000000E+00  0.45593999997E+02  0.45594000000E+02  0.51100000000E-03 0.  1.
         11   -1    0    0    0    0 -0.00000000000E+00 -0.00000000000E+00 -0.45593999997E+02  0.45594000000E+02  0.51100000000E-03 0. -1.
    9900012    2    1    2    0    0 -0.31534954672E+02  0.25352586329E+02 -0.39948618626E+01  0.50528856858E+02  0.29999990905E+02 0.  0.
         12    1    1    2    0    0  0.31534954672E+02 -0.25352586329E+02  0.39948618626E+01  0.40659143142E+02  0.00000000000E+00 0. -1.
         11    1    3    3    0    0 -0.53035043402E+01  0.86763622224E+01 -0.52973313972E+01  0.11465955690E+02  0.51100000000E-03 0. -1.
        -11    1    3    3    0    0 -0.25773694132E+02  0.10103045077E+02 -0.69113332451E+01  0.28532811928E+02  0.51100000000E-03 0.  1.
        -12    1    3    3    0    0 -0.45775620048E+00  0.65731790298E+01  0.82138027797E+01  0.10530089240E+02  0.00000000000E+00 0.  1.
</event>
<event>
 7    1  0.5902966E-013  0.5052885E+02  0.7816164E-02  0.1300439E+00
        -11   -1    0    0    0    0  0.00000000000E+00  0.00000000000E+00  0.45593999997E+02  0.45594000000E+02  0.51100000000E-03 0.  1.
         11   -1    0    0    0    0 -0.00000000000E+00 -0.00000000000E+00 -0.45593999997E+02  0.45594000000E+02  0.51100000000E-03 0. -1.
    9900012    2    1    2    0    0  0.38546314774E+01  0.33159907309E+01  0.40339959227E+02  0.50528852336E+02  0.29999977161E+02 0.  0.
         12    1    1    2    0    0 -0.38546314774E+01 -0.33159907309E+01 -0.40339959227E+02  0.40659147664E+02  0.00000000000E+00 0. -1.
         11    1    3    3    0    0 -0.27936201274E+01 -0.29710319102E+01  0.28153513629E+02  0.28447349155E+02  0.51100000000E-03 0. -1.
        -11    1    3    3    0    0  0.17052360050E+01  0.66740713930E+01  0.14910156683E+02  0.16424488771E+02  0.51100000000E-03 0.  1.
         12    1    3    3    0    0  0.49430155999E+01 -0.38704875193E+00 -0.27237110860E+01  0.56570144102E+01  0.00000000000E+00 0. -1.
</event>
<event>
 7    1  0.5902966E-013  0.5052886E+02  0.7816164E-02  0.1300439E+00
        -11   -1    0    0    0    0  0.00000000000E+00  0.00000000000E+00  0.45593999997E+02  0.45594000000E+02  0.51100000000E-03 0. -1.
         11   -1    0    0    0    0 -0.00000000000E+00 -0.00000000000E+00 -0.45593999997E+02  0.45594000000E+02  0.51100000000E-03 0.  1.
    9900012    2    1    2    0    0 -0.75575288149E+01  0.37611575242E+02 -0.13469182184E+02  0.50528859543E+02  0.29999999067E+02 0.  0.
         12    1    1    2    0    0  0.75575288149E+01 -0.37611575242E+02  0.13469182184E+02  0.40659140457E+02  0.00000000000E+00 0. -1.
         11    1    3    3    0    0  0.82021247401E+01  0.17255312916E+02 -0.32100159242E+01  0.19373303193E+02  0.51100000000E-03 0.  1.
        -11    1    3    3    0    0 -0.73424464016E+01  0.12392085608E+02  0.16991373217E+01  0.14503874406E+02  0.51100000000E-03 0. -1.
        -12    1    3    3    0    0 -0.84172071534E+01  0.79641767180E+01 -0.11958303581E+02  0.16651681945E+02  0.00000000000E+00 0.  1.
</event>
<event>
 7    1  0.5902966E-013  0.5052884E+02  0.7816164E-02  0.1300439E+00
        -11   -1    0    0    0    0  0.00000000000E+00  0.00000000000E+00  0.45593999997E+02  0.45594000000E+02  0.51100000000E-03 0. -1.
         11   -1    0    0    0    0 -0.00000000000E+00 -0.00000000000E+00 -0.45593999997E+02  0.45594000000E+02  0.51100000000E-03 0.  1.
    9900012    2    1    2    0    0 -0.83164680244E+01  0.35850433832E+02 -0.17284391333E+02  0.50528838301E+02  0.29999934500E+02 0.  0.
         12    1    1    2    0    0  0.83164680244E+01 -0.35850433832E+02  0.17284391333E+02  0.40659161699E+02  0.00000000000E+00 0. -1.
         11    1    3    3    0    0 -0.56842338276E+01  0.25457903478E+02 -0.14055817284E+00  0.26085151343E+02  0.51100000000E-03 0. -1.
        -11    1    3    3    0    0  0.17659022775E+01  0.12083313512E+02 -0.95318005541E+01  0.15491291048E+02  0.51100000000E-03 0.  1.
         12    1    3    3    0    0 -0.43981364743E+01 -0.16907831585E+01 -0.76120326058E+01  0.89523959099E+01  0.00000000000E+00 0. -1.
</event>
<event>
 7    1  0.5902966E-013  0.5052886E+02  0.7816164E-02  0.1300439E+00
        -11   -1    0    0    0    0  0.00000000000E+00  0.00000000000E+00  0.45593999997E+02  0.45594000000E+02  0.51100000000E-03 0.  1.
         11   -1    0    0    0    0 -0.00000000000E+00 -0.00000000000E+00 -0.45593999997E+02  0.45594000000E+02  0.51100000000E-03 0. -1.
    9900012    2    1    2    0    0  0.26516789135E+02 -0.48882824060E+01  0.30432382782E+02  0.50528864093E+02  0.30000012898E+02 0.  0.
         12    1    1    2    0    0 -0.26516789135E+02  0.48882824060E+01 -0.30432382782E+02  0.40659135907E+02  0.00000000000E+00 0. -1.
         11    1    3    3    0    0  0.72075569596E+01 -0.54228590631E+01  0.20967869828E+02  0.22825596227E+02  0.51100000000E-03 0. -1.
        -11    1    3    3    0    0  0.52558296145E+01  0.74034558652E+00  0.12272061373E+02  0.13370689852E+02  0.51100000000E-03 0.  1.
         12    1    3    3    0    0  0.14053402561E+02 -0.20576892933E+00 -0.28075484192E+01  0.14332578014E+02  0.00000000000E+00 0. -1.
</event>
<event>
 7    1  0.5902966E-013  0.5052886E+02  0.7816164E-02  0.1300439E+00
        -11   -1    0    0    0    0  0.00000000000E+00  0.00000000000E+00  0.45593999997E+02  0.45594000000E+02  0.51100000000E-03 0. -1.
         11   -1    0    0    0    0 -0.00000000000E+00 -0.00000000000E+00 -0.45593999997E+02  0.45594000000E+02  0.51100000000E-03 0.  1.
    9900012    2    1    2    0    0 -0.21836328475E+02 -0.20624274905E+01 -0.34235758376E+02  0.50528855887E+02  0.29999987955E+02 0.  0.
         12    1    1    2    0    0  0.21836328475E+02  0.20624274905E+01  0.34235758376E+02  0.40659144113E+02  0.00000000000E+00 0. -1.
         11    1    3    3    0    0 -0.14137952692E+02 -0.13153894986E+02 -0.13670840158E+02  0.23660061929E+02  0.51100000000E-03 0. -1.
        -11    1    3    3    0    0 -0.21968759136E+01  0.34627792879E+00 -0.11654380031E+02  0.11864684840E+02  0.51100000000E-03 0.  1.
        -12    1    3    3    0    0 -0.55014998696E+01  0.10745189567E+02 -0.89105381870E+01  0.15004109118E+02  0.00000000000E+00 0.  1.
</event>
<event>
 7    1  0.5902966E-013  0.5052886E+02  0.7816164E-02  0.1300439E+00
        -11   -1    0    0    0    0  0.00000000000E+00  0.00000000000E+00  0.45593999997E+02  0.45594000000E+02  0.51100000000E-03 0.  1.
         11   -1    0    0    0    0 -0.00000000000E+00 -0.00000000000E+00 -0.45593999997E+02  0.45594000000E+02  0.51100000000E-03 0. -1.
    9900012    2    1    2    0    0 -0.80413949306E+01 -0.37446345423E+02  0.13648182474E+02  0.50528859542E+02  0.29999999063E+02 0.  0.
         12    1    1    2    0    0  0.80413949306E+01  0.37446345423E+02 -0.13648182474E+02  0.40659140458E+02  0.00000000000E+00 0. -1.
         11    1    3    3    0    0 -0.13584622665E+02 -0.14282487543E+02  0.12904299022E+02  0.23559549165E+02  0.51100000000E-03 0.  1.
        -11    1    3    3    0    0  0.41513431184E+01 -0.30355429016E+01 -0.36671967594E+01  0.63163678429E+01  0.51100000000E-03 0. -1.
        -12    1    3    3    0    0  0.13918846157E+01 -0.20128314979E+02  0.44110802114E+01  0.20652942534E+02  0.00000000000E+00 0.  1.
</event>
<event>
 7    1  0.5902966E-013  0.5052887E+02  0.7816164E-02  0.1300439E+00
        -11   -1    0    0    0    0  0.00000000000E+00  0.00000000000E+00  0.45593999997E+02  0.45594000000E+02  0.51100000000E-03 0. -1.
         11   -1    0    0    0    0 -0.00000000000E+00 -0.00000000000E+00 -0.45593999997E+02  0.45594000000E+02  0.51100000000E-03 0.  1.
    9900012    2    1    2    0    0  0.40837256292E+01 -0.37393757294E+01 -0.40280331922E+02  0.50528869591E+02  0.30000029609E+02 0.  0.
         12    1    1    2    0    0 -0.40837256292E+01  0.37393757294E+01  0.40280331922E+02  0.40659130409E+02  0.00000000000E+00 0. -1.
         11    1    3    3    0    0 -0.12951903723E+01  0.61833369439E+01 -0.23475387944E+02  0.24310594670E+02  0.51100000000E-03 0.  1.
        -11    1    3    3    0    0 -0.52998511277E+01 -0.68748904753E+01 -0.97844561289E+01  0.13080065865E+02  0.51100000000E-03 0. -1.
         12    1    3    3    0    0  0.10678767129E+02 -0.30478221980E+01 -0.70204878497E+01  0.13138209056E+02  0.00000000000E+00 0. -1.
</event>
<event>
 7    1  0.5902966E-013  0.5052885E+02  0.7816164E-02  0.1300439E+00
        -11   -1    0    0    0    0  0.00000000000E+00  0.00000000000E+00  0.45593999997E+02  0.45594000000E+02  0.51100000000E-03 0. -1.
         11   -1    0    0    0    0 -0.00000000000E+00 -0.00000000000E+00 -0.45593999997E+02  0.45594000000E+02  0.51100000000E-03 0.  1.
    9900012    2    1    2    0    0  0.14362187209E+02  0.27942732112E+02 -0.25808871471E+02  0.50528849173E+02  0.29999967546E+02 0.  0.
         12    1    1    2    0    0 -0.14362187209E+02 -0.27942732112E+02  0.25808871471E+02  0.40659150827E+02  0.00000000000E+00 0. -1.
         11    1    3    3    0    0  0.57755818968E+01  0.13373586975E+01  0.72040610417E+00  0.59720063420E+01  0.51100000000E-03 0. -1.
        -11    1    3    3    0    0  0.98615986014E+01  0.30004095690E+02 -0.20947326693E+02  0.37898382300E+02  0.51100000000E-03 0.  1.
         12    1    3    3    0    0 -0.12749932891E+01 -0.33987222745E+01 -0.55819508825E+01  0.66584605309E+01  0.00000000000E+00 0. -1.
</event>
<event>
 7    1  0.5902966E-013  0.5052886E+02  0.7816164E-02  0.1300439E+00
        -11   -1    0    0    0    0  0.00000000000E+00  0.00000000000E+00  0.45593999997E+02  0.45594000000E+02  0.51100000000E-03 0.  1.
         11   -1    0    0    0    0 -0.00000000000E+00 -0.00000000000E+00 -0.45593999997E+02  0.45594000000E+02  0.51100000000E-03 0. -1.
    9900012    2    1    2    0    0 -0.58765325615E+01 -0.16721775477E+02  0.36592541249E+02  0.50528862219E+02  0.30000007200E+02 0.  0.
         12    1    1    2    0    0  0.58765325615E+01  0.16721775477E+02 -0.36592541249E+02  0.40659137781E+02  0.00000000000E+00 0. -1.
         11    1    3    3    0    0  0.24373566968E+00 -0.16586486133E+02  0.20871093898E+02  0.26660335521E+02  0.51100000000E-03 0. -1.
        -11    1    3    3    0    0  0.51059534708E+01  0.15562132887E+01  0.12625245735E+01  0.54851188871E+01  0.51100000000E-03 0.  1.
        -12    1    3    3    0    0 -0.11226221702E+02 -0.16915026332E+01  0.14458922777E+02  0.18383407811E+02  0.00000000000E+00 0.  1.
</event>
<event>
 7    1  0.5902966E-013  0.5052886E+02  0.7816164E-02  0.1300439E+00
        -11   -1    0    0    0    0  0.00000000000E+00  0.00000000000E+00  0.45593999997E+02  0.45594000000E+02  0.51100000000E-03 0. -1.
         11   -1    0    0    0    0 -0.00000000000E+00 -0.00000000000E+00 -0.45593999997E+02  0.45594000000E+02  0.51100000000E-03 0.  1.
    9900012    2    1    2    0    0  0.24388072233E+02  0.29550937906E+02 -0.13606229016E+02  0.50528862449E+02  0.30000007901E+02 0.  0.
         12    1    1    2    0    0 -0.24388072233E+02 -0.29550937906E+02  0.13606229016E+02  0.40659137551E+02  0.00000000000E+00 0. -1.
         11    1    3    3    0    0 -0.28992492476E+00 -0.28910485247E+01 -0.47351059411E+01  0.55554879686E+01  0.51100000000E-03 0. -1.
        -11    1    3    3    0    0  0.10952305691E+02  0.96329039173E+01 -0.10998847449E+02  0.18268018046E+02  0.51100000000E-03 0.  1.
         12    1    3    3    0    0  0.13725691466E+02  0.22809082513E+02  0.21277243743E+01  0.26705356435E+02  0.00000000000E+00 0. -1.
</event>
<event>
 7    1  0.5902966E-013  0.5052887E+02  0.7816164E-02  0.1300439E+00
        -11   -1    0    0    0    0  0.00000000000E+00  0.00000000000E+00  0.45593999997E+02  0.45594000000E+02  0.51100000000E-03 0.  1.
         11   -1    0    0    0    0 -0.00000000000E+00 -0.00000000000E+00 -0.45593999997E+02  0.45594000000E+02  0.51100000000E-03 0. -1.
    9900012    2    1    2    0    0  0.11244484874E+02  0.43926048673E+00  0.39070872831E+02  0.50528874412E+02  0.30000044262E+02 0.  0.
         12    1    1    2    0    0 -0.11244484874E+02 -0.43926048673E+00 -0.39070872831E+02  0.40659125588E+02  0.00000000000E+00 0. -1.
         11    1    3    3    0    0  0.21283636305E+01  0.18203345940E+01  0.42378706210E+01  0.50796749344E+01  0.51100000000E-03 0. -1.
        -11    1    3    3    0    0  0.16097854204E+01 -0.11392972345E+02  0.40131648338E+01  0.12185923035E+02  0.51100000000E-03 0.  1.
         12    1    3    3    0    0  0.75063358235E+01  0.10011898238E+02  0.30819837376E+02  0.33263276443E+02  0.00000000000E+00 0. -1.
</event>
<event>
 7    1  0.5902966E-013  0.5052890E+02  0.7816164E-02  0.1300439E+00
        -11   -1    0    0    0    0  0.00000000000E+00  0.00000000000E+00  0.45593999997E+02  0.45594000000E+02  0.51100000000E-03 0.  1.
         11   -1    0    0    0    0 -0.00000000000E+00 -0.00000000000E+00 -0.45593999997E+02  0.45594000000E+02  0.51100000000E-03 0. -1.
    9900012    2    1    2    0    0  0.20106077894E+02  0.27978382932E+02  0.21589768350E+02  0.50528900438E+02  0.30000123371E+02 0.  0.
         12    1    1    2    0    0 -0.20106077894E+02 -0.27978382932E+02 -0.21589768350E+02  0.40659099562E+02  0.00000000000E+00 0. -1.
         11    1    3    3    0    0 -0.30005422564E+01  0.96791515239E+01  0.44134452476E+00  0.10143175701E+02  0.51100000000E-03 0. -1.
        -11    1    3    3    0    0  0.72625073970E+01  0.10240947020E+02  0.18582175823E+02  0.22425839296E+02  0.51100000000E-03 0.  1.
         12    1    3    3    0    0  0.15844112753E+02  0.80582843885E+01  0.25662480026E+01  0.17959885440E+02  0.00000000000E+00 0. -1.
</event>
<event>
 7    1  0.5902966E-013  0.5052885E+02  0.7816164E-02  0.1300439E+00
        -11   -1    0    0    0    0  0.00000000000E+00  0.00000000000E+00  0.45593999997E+02  0.45594000000E+02  0.51100000000E-03 0. -1.
         11   -1    0    0    0    0 -0.00000000000E+00 -0.00000000000E+00 -0.45593999997E+02  0.45594000000E+02  0.51100000000E-03 0.  1.
    9900012    2    1    2    0    0 -0.24233056345E+02 -0.16935397165E+02 -0.27912676053E+02  0.50528853657E+02  0.29999981174E+02 0.  0.
         12    1    1    2    0    0  0.24233056345E+02  0.16935397165E+02  0.27912676053E+02  0.40659146343E+02  0.00000000000E+00 0. -1.
         11    1    3    3    0    0 -0.88204945962E+01  0.41967601751E+01 -0.16256609657E+02  0.18965528696E+02  0.51100000000E-03 0. -1.
        -11    1    3    3    0    0 -0.58349371852E+01 -0.11775026030E+02 -0.12513333405E+02  0.18146108209E+02  0.51100000000E-03 0.  1.
         12    1    3    3    0    0 -0.95776245633E+01 -0.93571313106E+01  0.85726701016E+00  0.13417216752E+02  0.00000000000E+00 0. -1.
</event>
<event>
 7    1  0.5902966E-013  0.5052892E+02  0.7816164E-02  0.1300439E+00
        -11   -1    0    0    0    0  0.00000000000E+00  0.00000000000E+00  0.45593999997E+02  0.45594000000E+02  0.51100000000E-03 0.  1.
         11   -1    0    0    0    0 -0.00000000000E+00 -0.00000000000E+00 -0.45593999997E+02  0.45594000000E+02  0.51100000000E-03 0. -1.
    9900012    2    1    2    0    0  0.12637882538E+00  0.21207733540E+02  0.34689721929E+02  0.50528920559E+02  0.30000184530E+02 0.  0.
         12    1    1    2    0    0 -0.12637882538E+00 -0.21207733540E+02 -0.34689721929E+02  0.40659079441E+02  0.00000000000E+00 0. -1.
         11    1    3    3    0    0 -0.27005306264E+00 -0.22934672041E+01 -0.19946726776E+01  0.30514979641E+01  0.51100000000E-03 0. -1.
        -11    1    3    3    0    0  0.18336131329E+01  0.11155316538E+02  0.31828402579E+01  0.11744517723E+02  0.51100000000E-03 0.  1.
        -12    1    3    3    0    0 -0.14371812449E+01  0.12345884206E+02  0.33501554349E+02  0.35732904871E+02  0.00000000000E+00 0.  1.
</event>
<event>
 7    1  0.5902966E-013  0.5052884E+02  0.7816164E-02  0.1300439E+00
        -11   -1    0    0    0    0  0.00000000000E+00  0.00000000000E+00  0.45593999997E+02  0.45594000000E+02  0.51100000000E-03 0. -1.
         11   -1    0    0    0    0 -0.00000000000E+00 -0.00000000000E+00 -0.45593999997E+02  0.45594000000E+02  0.51100000000E-03 0.  1.
    9900012    2    1    2    0    0  0.21872733493E+02 -0.15384870289E+02  0.30627715964E+02  0.50528835112E+02  0.29999924806E+02 0.  0.
         12    1    1    2    0    0 -0.21872733493E+02  0.15384870289E+02 -0.30627715964E+02  0.40659164888E+02  0.00000000000E+00 0. -1.
         11    1    3    3    0    0  0.46734188923E+01  0.42573973388E+01  0.94907769225E+01  0.11403557476E+02  0.51100000000E-03 0. -1.
        -11    1    3    3    0    0  0.16864424050E+02 -0.40896179377E+01  0.10556342442E+02  0.20311822651E+02  0.51100000000E-03 0.  1.
        -12    1    3    3    0    0  0.33489055078E+00 -0.15552649691E+02  0.10580596599E+02  0.18813454985E+02  0.00000000000E+00 0.  1.
</event>
<event>
 7    1  0.5902966E-013  0.5052887E+02  0.7816164E-02  0.1300439E+00
        -11   -1    0    0    0    0  0.00000000000E+00  0.00000000000E+00  0.45593999997E+02  0.45594000000E+02  0.51100000000E-03 0. -1.
         11   -1    0    0    0    0 -0.00000000000E+00 -0.00000000000E+00 -0.45593999997E+02  0.45594000000E+02  0.51100000000E-03 0.  1.
    9900012    2    1    2    0    0 -0.67210309809E+01 -0.33998382766E+02 -0.21262707658E+02  0.50528867875E+02  0.30000024394E+02 0.  0.
         12    1    1    2    0    0  0.67210309809E+01  0.33998382766E+02  0.21262707658E+02  0.40659132125E+02  0.00000000000E+00 0. -1.
         11    1    3    3    0    0  0.97573947210E+00  0.21246374645E+01  0.12193043313E+01  0.26368267266E+01  0.51100000000E-03 0. -1.
        -11    1    3    3    0    0  0.56434987210E+01 -0.22584459419E+02 -0.12170682009E+02  0.26268467521E+02  0.51100000000E-03 0.  1.
        -12    1    3    3    0    0 -0.13340269174E+02 -0.13538560812E+02 -0.10311329980E+02  0.21623573628E+02  0.00000000000E+00 0.  1.
</event>
<event>
 7    1  0.5902966E-013  0.5052887E+02  0.7816164E-02  0.1300439E+00
        -11   -1    0    0    0    0  0.00000000000E+00  0.00000000000E+00  0.45593999997E+02  0.45594000000E+02  0.51100000000E-03 0. -1.
         11   -1    0    0    0    0 -0.00000000000E+00 -0.00000000000E+00 -0.45593999997E+02  0.45594000000E+02  0.51100000000E-03 0.  1.
    9900012    2    1    2    0    0 -0.31785076759E+02  0.58483435975E+01 -0.24671253234E+02  0.50528868633E+02  0.30000026696E+02 0.  0.
         12    1    1    2    0    0  0.31785076759E+02 -0.58483435975E+01  0.24671253234E+02  0.40659131367E+02  0.00000000000E+00 0. -1.
         11    1    3    3    0    0 -0.16061112944E+01 -0.38702940332E+01 -0.47173127696E+01  0.63096600083E+01  0.51100000000E-03 0. -1.
        -11    1    3    3    0    0 -0.23579146441E+02 -0.23953231313E+01 -0.56864540233E+01  0.24373130275E+02  0.51100000000E-03 0.  1.
         12    1    3    3    0    0 -0.65998190234E+01  0.12113960762E+02 -0.14267486441E+02  0.19846078349E+02  0.00000000000E+00 0. -1.
</event>
<event>
 7    1  0.5902966E-013  0.5052886E+02  0.7816164E-02  0.1300439E+00
        -11   -1    0    0    0    0  0.00000000000E+00  0.00000000000E+00  0.45593999997E+02  0.45594000000E+02  0.51100000000E-03 0. -1.
         11   -1    0    0    0    0 -0.00000000000E+00 -0.00000000000E+00 -0.45593999997E+02  0.45594000000E+02  0.51100000000E-03 0.  1.
    9900012    2    1    2    0    0 -0.22224619785E+02  0.33606627609E+02 -0.54613997554E+01  0.50528855504E+02  0.29999986790E+02 0.  0.
         12    1    1    2    0    0  0.22224619785E+02 -0.33606627609E+02  0.54613997554E+01  0.40659144496E+02  0.00000000000E+00 0. -1.
         11    1    3    3    0    0 -0.11569815988E+02  0.31621792097E+02 -0.27867515036E+01  0.33787044287E+02  0.51100000000E-03 0. -1.
        -11    1    3    3    0    0 -0.69066181210E+01  0.59595317210E+01 -0.54372001571E+01  0.10619818172E+02  0.51100000000E-03 0.  1.
         12    1    3    3    0    0 -0.37481856759E+01 -0.39746962088E+01  0.27625519053E+01  0.61219930450E+01  0.00000000000E+00 0. -1.
</event>
<event>
 7    1  0.5902966E-013  0.5052886E+02  0.7816164E-02  0.1300439E+00
        -11   -1    0    0    0    0  0.00000000000E+00  0.00000000000E+00  0.45593999997E+02  0.45594000000E+02  0.51100000000E-03 0.  1.
         11   -1    0    0    0    0 -0.00000000000E+00 -0.00000000000E+00 -0.45593999997E+02  0.45594000000E+02  0.51100000000E-03 0. -1.
    9900012    2    1    2    0    0  0.19342077098E+02  0.26589372208E+02 -0.23917671970E+02  0.50528859658E+02  0.29999999416E+02 0.  0.
         12    1    1    2    0    0 -0.19342077098E+02 -0.26589372208E+02  0.23917671970E+02  0.40659140342E+02  0.00000000000E+00 0. -1.
         11    1    3    3    0    0  0.24447182685E+01 -0.48401480252E+01 -0.86967952458E+01  0.10248801302E+02  0.51100000000E-03 0. -1.
        -11    1    3    3    0    0  0.79006449449E+01  0.62969728524E+01 -0.72021835458E+01  0.12407397219E+02  0.51100000000E-03 0.  1.
        -12    1    3    3    0    0  0.89967138849E+01  0.25132547381E+02 -0.80186931783E+01  0.27872661137E+02  0.00000000000E+00 0.  1.
</event>
<event>
 7    1  0.5902966E-013  0.5052888E+02  0.7816164E-02  0.1300439E+00
        -11   -1    0    0    0    0  0.00000000000E+00  0.00000000000E+00  0.45593999997E+02  0.45594000000E+02  0.51100000000E-03 0.  1.
         11   -1    0    0    0    0 -0.00000000000E+00 -0.00000000000E+00 -0.45593999997E+02  0.45594000000E+02  0.51100000000E-03 0. -1.
    9900012    2    1    2    0    0 -0.37021539482E+02  0.11279296692E+02  0.12463846014E+02  0.50528875847E+02  0.30000048624E+02 0.  0.
         12    1    1    2    0    0  0.37021539482E+02 -0.11279296692E+02 -0.12463846014E+02  0.40659124153E+02  0.00000000000E+00 0. -1.
         11    1    3    3    0    0 -0.10048262536E+02 -0.35057068637E+01  0.33446386144E+01  0.11155454645E+02  0.51100000000E-03 0.  1.
        -11    1    3    3    0    0 -0.97482916712E+01 -0.51873824355E+01  0.66348236595E+01  0.12882507997E+02  0.51100000000E-03 0. -1.
         12    1    3    3    0    0 -0.17224985274E+02  0.19972385991E+02  0.24843837396E+01  0.26490913205E+02  0.00000000000E+00 0. -1.
</event>
<event>
 7    1  0.5902966E-013  0.5052886E+02  0.7816164E-02  0.1300439E+00
        -11   -1    0    0    0    0  0.00000000000E+00  0.00000000000E+00  0.45593999997E+02  0.45594000000E+02  0.51100000000E-03 0.  1.
         11   -1    0    0    0    0 -0.00000000000E+00 -0.00000000000E+00 -0.45593999997E+02  0.45594000000E+02  0.51100000000E-03 0. -1.
    9900012    2    1    2    0    0 -0.39881444416E+02  0.71816041174E+01 -0.33257956715E+01  0.50528856339E+02  0.29999989327E+02 0.  0.
         12    1    1    2    0    0  0.39881444416E+02 -0.71816041174E+01  0.33257956715E+01  0.40659143661E+02  0.00000000000E+00 0. -1.
         11    1    3    3    0    0 -0.11330748360E+02  0.15284799199E+02 -0.52193930266E+01  0.19729495907E+02  0.51100000000E-03 0. -1.
        -11    1    3    3    0    0 -0.87153232555E+01 -0.60799541462E+01 -0.90785340096E+00  0.10665219169E+02  0.51100000000E-03 0.  1.
        -12    1    3    3    0    0 -0.19835372801E+02 -0.20232409350E+01  0.28014507560E+01  0.20134141262E+02  0.00000000000E+00 0.  1.
</event>
<event>
 7    1  0.5902966E-013  0.5052886E+02  0.7816164E-02  0.1300439E+00
        -11   -1    0    0    0    0  0.00000000000E+00  0.00000000000E+00  0.45593999997E+02  0.45594000000E+02  0.51100000000E-03 0.  1.
         11   -1    0    0    0    0 -0.00000000000E+00 -0.00000000000E+00 -0.45593999997E+02  0.45594000000E+02  0.51100000000E-03 0. -1.
    9900012    2    1    2    0    0 -0.25751509782E+02 -0.14564213260E+02  0.27891025690E+02  0.50528857388E+02  0.29999992516E+02 0.  0.
         12    1    1    2    0    0  0.25751509782E+02  0.14564213260E+02 -0.27891025690E+02  0.40659142612E+02  0.00000000000E+00 0. -1.
         11    1    3    3    0    0 -0.89164682030E+01 -0.16551974292E+01  0.16508906416E+02  0.18835792392E+02  0.51100000000E-03 0. -1.
        -11    1    3    3    0    0  0.39898614323E+01  0.12844290498E+00  0.48279614062E+01  0.62645593165E+01  0.51100000000E-03 0.  1.
         12    1    3    3    0    0 -0.20824903011E+02 -0.13037458736E+02  0.65541578681E+01  0.25428505679E+02  0.00000000000E+00 0. -1.
</event>
<event>
 7    1  0.5902966E-013  0.5052886E+02  0.7816164E-02  0.1300439E+00
        -11   -1    0    0    0    0  0.00000000000E+00  0.00000000000E+00  0.45593999997E+02  0.45594000000E+02  0.51100000000E-03 0.  1.
         11   -1    0    0    0    0 -0.00000000000E+00 -0.00000000000E+00 -0.45593999997E+02  0.45594000000E+02  0.51100000000E-03 0. -1.
    9900012    2    1    2    0    0  0.24915222287E+02 -0.20095625610E+02  0.25071165471E+02  0.50528858244E+02  0.29999995118E+02 0.  0.
         12    1    1    2    0    0 -0.24915222287E+02  0.20095625610E+02 -0.25071165471E+02  0.40659141756E+02  0.00000000000E+00 0. -1.
         11    1    3    3    0    0  0.21221141331E+02 -0.12871250632E+02  0.71341965738E+01  0.25824459205E+02  0.51100000000E-03 0. -1.
        -11    1    3    3    0    0  0.21167911277E+01 -0.11296322020E+02  0.84636707053E+01  0.14273101202E+02  0.51100000000E-03 0.  1.
         12    1    3    3    0    0  0.15772898291E+01  0.40719470428E+01  0.94732981918E+01  0.10431297837E+02  0.00000000000E+00 0. -1.
</event>
<event>
 7    1  0.5902966E-013  0.5052886E+02  0.7816164E-02  0.1300439E+00
        -11   -1    0    0    0    0  0.00000000000E+00  0.00000000000E+00  0.45593999997E+02  0.45594000000E+02  0.51100000000E-03 0. -1.
         11   -1    0    0    0    0 -0.00000000000E+00 -0.00000000000E+00 -0.45593999997E+02  0.45594000000E+02  0.51100000000E-03 0.  1.
    9900012    2    1    2    0    0  0.35686123093E+02 -0.17936932848E+02  0.76113644687E+01  0.50528858217E+02  0.29999995038E+02 0.  0.
         12    1    1    2    0    0 -0.35686123093E+02  0.17936932848E+02 -0.76113644687E+01  0.40659141783E+02  0.00000000000E+00 0. -1.
         11    1    3    3    0    0 -0.15277307450E+01 -0.58315000535E+01  0.35744639518E-01  0.60284021136E+01  0.51100000000E-03 0. -1.
        -11    1    3    3    0    0  0.17482762217E+02 -0.14876664369E+02 -0.60024138948E+00  0.22963501638E+02  0.51100000000E-03 0.  1.
        -12    1    3    3    0    0  0.19731091621E+02  0.27712315744E+01  0.81758612186E+01  0.21536954466E+02  0.00000000000E+00 0.  1.
</event>
<event>
 7    1  0.5902966E-013  0.5052887E+02  0.7816164E-02  0.1300439E+00
        -11   -1    0    0    0    0  0.00000000000E+00  0.00000000000E+00  0.45593999997E+02  0.45594000000E+02  0.51100000000E-03 0.  1.
         11   -1    0    0    0    0 -0.00000000000E+00 -0.00000000000E+00 -0.45593999997E+02  0.45594000000E+02  0.51100000000E-03 0. -1.
    9900012    2    1    2    0    0 -0.54698228428E+01  0.25320228935E+00  0.40288726639E+02  0.50528873503E+02  0.30000041499E+02 0.  0.
         12    1    1    2    0    0  0.54698228428E+01 -0.25320228935E+00 -0.40288726639E+02  0.40659126497E+02  0.00000000000E+00 0. -1.
         11    1    3    3    0    0 -0.12734592891E+02  0.68975990772E+01  0.14356134186E+02  0.20392285752E+02  0.51100000000E-03 0. -1.
        -11    1    3    3    0    0  0.38834894417E+01 -0.53847574549E+01  0.36748312338E+01  0.75882466980E+01  0.51100000000E-03 0.  1.
        -12    1    3    3    0    0  0.33812806068E+01 -0.12596393330E+01  0.22257761219E+02  0.22548341053E+02  0.00000000000E+00 0.  1.
</event>
<event>
 7    1  0.5902966E-013  0.5052885E+02  0.7816164E-02  0.1300439E+00
        -11   -1    0    0    0    0  0.00000000000E+00  0.00000000000E+00  0.45593999997E+02  0.45594000000E+02  0.51100000000E-03 0.  1.
         11   -1    0    0    0    0 -0.00000000000E+00 -0.00000000000E+00 -0.45593999997E+02  0.45594000000E+02  0.51100000000E-03 0. -1.
    9900012    2    1    2    0    0 -0.24569100542E+00  0.39761162415E+02  0.84944784834E+01  0.50528848934E+02  0.29999966821E+02 0.  0.
         12    1    1    2    0    0  0.24569100542E+00 -0.39761162415E+02 -0.84944784834E+01  0.40659151066E+02  0.00000000000E+00 0. -1.
         11    1    3    3    0    0 -0.32517596563E+01  0.23392693200E+02 -0.56453460311E+01  0.24282956330E+02  0.51100000000E-03 0. -1.
        -11    1    3    3    0    0  0.86253765067E+01  0.83577297565E+01  0.55722136134E+01  0.13240027620E+02  0.51100000000E-03 0.  1.
        -12    1    3    3    0    0 -0.56193078558E+01  0.80107394583E+01  0.85676109012E+01  0.13005864985E+02  0.00000000000E+00 0.  1.
</event>
<event>
 7    1  0.5902966E-013  0.5052885E+02  0.7816164E-02  0.1300439E+00
        -11   -1    0    0    0    0  0.00000000000E+00  0.00000000000E+00  0.45593999997E+02  0.45594000000E+02  0.51100000000E-03 0. -1.
         11   -1    0    0    0    0 -0.00000000000E+00 -0.00000000000E+00 -0.45593999997E+02  0.45594000000E+02  0.51100000000E-03 0.  1.
    9900012    2    1    2    0    0  0.95369178508E+01  0.14905864771E+02 -0.36606405510E+02  0.50528849357E+02  0.29999968104E+02 0.  0.
         12    1    1    2    0    0 -0.95369178508E+01 -0.14905864771E+02  0.36606405510E+02  0.40659150643E+02  0.00000000000E+00 0. -1.
         11    1    3    3    0    0  0.49633992986E+01 -0.64069548754E+01 -0.83782448127E+01  0.11656731522E+02  0.51100000000E-03 0. -1.
        -11    1    3    3    0    0  0.26234517931E+01  0.36722784733E+01  0.10509604347E+01  0.46338587152E+01  0.51100000000E-03 0.  1.
         12    1    3    3    0    0  0.19500667590E+01  0.17640541173E+02 -0.29279121132E+02  0.34238259119E+02  0.00000000000E+00 0. -1.
</event>
<event>
 7    1  0.5902966E-013  0.5052886E+02  0.7816164E-02  0.1300439E+00
        -11   -1    0    0    0    0  0.00000000000E+00  0.00000000000E+00  0.45593999997E+02  0.45594000000E+02  0.51100000000E-03 0.  1.
         11   -1    0    0    0    0 -0.00000000000E+00 -0.00000000000E+00 -0.45593999997E+02  0.45594000000E+02  0.51100000000E-03 0. -1.
    9900012    2    1    2    0    0  0.20891085662E+02  0.31462690932E+02  0.15060791802E+02  0.50528857971E+02  0.29999994289E+02 0.  0.
         12    1    1    2    0    0 -0.20891085662E+02 -0.31462690932E+02 -0.15060791802E+02  0.40659142029E+02  0.00000000000E+00 0. -1.
         11    1    3    3    0    0  0.18550895706E+02  0.76174041821E+01  0.42352744749E+01  0.20496295473E+02  0.51100000000E-03 0. -1.
        -11    1    3    3    0    0  0.32654831749E+01  0.25524197412E+01  0.73500422457E+01  0.84380891306E+01  0.51100000000E-03 0.  1.
         12    1    3    3    0    0 -0.92529321918E+00  0.21292867009E+02  0.34754750816E+01  0.21594473368E+02  0.00000000000E+00 0. -1.
</event>
<event>
 7    1  0.5902966E-013  0.5052886E+02  0.7816164E-02  0.1300439E+00
        -11   -1    0    0    0    0  0.00000000000E+00  0.00000000000E+00  0.45593999997E+02  0.45594000000E+02  0.51100000000E-03 0.  1.
         11   -1    0    0    0    0 -0.00000000000E+00 -0.00000000000E+00 -0.45593999997E+02  0.45594000000E+02  0.51100000000E-03 0. -1.
    9900012    2    1    2    0    0  0.39773541780E+02  0.74983318181E-02  0.84398425069E+01  0.50528860517E+02  0.30000002029E+02 0.  0.
         12    1    1    2    0    0 -0.39773541780E+02 -0.74983318181E-02 -0.84398425069E+01  0.40659139483E+02  0.00000000000E+00 0. -1.
         11    1    3    3    0    0  0.97714162232E+01 -0.75829982939E+01 -0.12438649259E+01  0.12430995067E+02  0.51100000000E-03 0. -1.
        -11    1    3    3    0    0  0.22563288186E+02  0.74572844201E+01 -0.24239272260E+01  0.23886994121E+02  0.51100000000E-03 0.  1.
         12    1    3    3    0    0  0.74388373702E+01  0.13321220560E+00  0.12107634659E+02  0.14210871329E+02  0.00000000000E+00 0. -1.
</event>
<event>
 7    1  0.5902966E-013  0.5052888E+02  0.7816164E-02  0.1300439E+00
        -11   -1    0    0    0    0  0.00000000000E+00  0.00000000000E+00  0.45593999997E+02  0.45594000000E+02  0.51100000000E-03 0.  1.
         11   -1    0    0    0    0 -0.00000000000E+00 -0.00000000000E+00 -0.45593999997E+02  0.45594000000E+02  0.51100000000E-03 0. -1.
    9900012    2    1    2    0    0 -0.28159903391E+02  0.18533594264E+02  0.22730803510E+02  0.50528884128E+02  0.30000073795E+02 0.  0.
         12    1    1    2    0    0  0.28159903391E+02 -0.18533594264E+02 -0.22730803510E+02  0.40659115872E+02  0.00000000000E+00 0. -1.
         11    1    3    3    0    0 -0.19895737343E+02  0.21522443709E+02  0.15687764519E+02  0.33243975447E+02  0.51100000000E-03 0. -1.
        -11    1    3    3    0    0 -0.81588616963E+01  0.37803565624E+01  0.35570215663E+01  0.96700838984E+01  0.51100000000E-03 0.  1.
        -12    1    3    3    0    0 -0.10530435120E+00 -0.67692060079E+01  0.34860174247E+01  0.76148247825E+01  0.00000000000E+00 0.  1.
</event>
<event>
 7    1  0.5902966E-013  0.5052885E+02  0.7816164E-02  0.1300439E+00
        -11   -1    0    0    0    0  0.00000000000E+00  0.00000000000E+00  0.45593999997E+02  0.45594000000E+02  0.51100000000E-03 0.  1.
         11   -1    0    0    0    0 -0.00000000000E+00 -0.00000000000E+00 -0.45593999997E+02  0.45594000000E+02  0.51100000000E-03 0. -1.
    9900012    2    1    2    0    0 -0.26211622858E+02 -0.30294964083E+02 -0.69521345916E+01  0.50528853464E+02  0.29999980589E+02 0.  0.
         12    1    1    2    0    0  0.26211622858E+02  0.30294964083E+02  0.69521345916E+01  0.40659146536E+02  0.00000000000E+00 0. -1.
         11    1    3    3    0    0 -0.15821760484E+02 -0.96452073154E+01 -0.32215928642E+01  0.18807891690E+02  0.51100000000E-03 0.  1.
        -11    1    3    3    0    0 -0.73742291450E+01 -0.17316793082E+02  0.70047042836E+01  0.20082740363E+02  0.51100000000E-03 0. -1.
         12    1    3    3    0    0 -0.30156332293E+01 -0.33329636861E+01 -0.10735246011E+02  0.11638221412E+02  0.00000000000E+00 0. -1.
</event>
<event>
 7    1  0.5902966E-013  0.5052888E+02  0.7816164E-02  0.1300439E+00
        -11   -1    0    0    0    0  0.00000000000E+00  0.00000000000E+00  0.45593999997E+02  0.45594000000E+02  0.51100000000E-03 0. -1.
         11   -1    0    0    0    0 -0.00000000000E+00 -0.00000000000E+00 -0.45593999997E+02  0.45594000000E+02  0.51100000000E-03 0.  1.
    9900012    2    1    2    0    0 -0.40590326198E+02  0.23628379146E+01  0.78037431871E-01  0.50528884494E+02  0.30000074908E+02 0.  0.
         12    1    1    2    0    0  0.40590326198E+02 -0.23628379146E+01 -0.78037431871E-01  0.40659115506E+02  0.00000000000E+00 0. -1.
         11    1    3    3    0    0 -0.32711770558E+02 -0.23599608298E+01  0.28431919231E+01  0.32919797823E+02  0.51100000000E-03 0. -1.
        -11    1    3    3    0    0 -0.10927329057E+02  0.72497778688E+01 -0.67380056006E+00  0.13130872283E+02  0.51100000000E-03 0.  1.
         12    1    3    3    0    0  0.30487734162E+01 -0.25269791245E+01 -0.20913539312E+01  0.44782143880E+01  0.00000000000E+00 0. -1.
</event>
<event>
 7    1  0.5902966E-013  0.5052887E+02  0.7816164E-02  0.1300439E+00
        -11   -1    0    0    0    0  0.00000000000E+00  0.00000000000E+00  0.45593999997E+02  0.45594000000E+02  0.51100000000E-03 0.  1.
         11   -1    0    0    0    0 -0.00000000000E+00 -0.00000000000E+00 -0.45593999997E+02  0.45594000000E+02  0.51100000000E-03 0. -1.
    9900012    2    1    2    0    0 -0.39238685435E+02 -0.18334953190E+01 -0.10494229731E+02  0.50528868217E+02  0.30000025432E+02 0.  0.
         12    1    1    2    0    0  0.39238685435E+02  0.18334953190E+01  0.10494229731E+02  0.40659131783E+02  0.00000000000E+00 0. -1.
         11    1    3    3    0    0 -0.17202764533E+02 -0.73665917313E+01  0.98251241970E-02  0.18713681575E+02  0.51100000000E-03 0. -1.
        -11    1    3    3    0    0 -0.15274133900E+02 -0.52532911791E+01 -0.10155984967E+02  0.19079839243E+02  0.51100000000E-03 0.  1.
        -12    1    3    3    0    0 -0.67617870018E+01  0.10786387591E+02 -0.34806988750E+00  0.12735347399E+02  0.00000000000E+00 0.  1.
</event>
<event>
 7    1  0.5902966E-013  0.5052886E+02  0.7816164E-02  0.1300439E+00
        -11   -1    0    0    0    0  0.00000000000E+00  0.00000000000E+00  0.45593999997E+02  0.45594000000E+02  0.51100000000E-03 0.  1.
         11   -1    0    0    0    0 -0.00000000000E+00 -0.00000000000E+00 -0.45593999997E+02  0.45594000000E+02  0.51100000000E-03 0. -1.
    9900012    2    1    2    0    0  0.12036285257E+02  0.32576521933E+02 -0.21143872681E+02  0.50528864545E+02  0.30000014270E+02 0.  0.
         12    1    1    2    0    0 -0.12036285257E+02 -0.32576521933E+02  0.21143872681E+02  0.40659135455E+02  0.00000000000E+00 0. -1.
         11    1    3    3    0    0  0.63624696152E+01  0.34375220961E+00 -0.33725153188E+01  0.72092333173E+01  0.51100000000E-03 0. -1.
        -11    1    3    3    0    0  0.13118350570E+02  0.20189341634E+02 -0.16320095359E+02  0.29086872470E+02  0.51100000000E-03 0.  1.
        -12    1    3    3    0    0 -0.74445349279E+01  0.12043428090E+02 -0.14512620023E+01  0.14232758757E+02  0.00000000000E+00 0.  1.
</event>
<event>
 7    1  0.5902966E-013  0.5052885E+02  0.7816164E-02  0.1300439E+00
        -11   -1    0    0    0    0  0.00000000000E+00  0.00000000000E+00  0.45593999997E+02  0.45594000000E+02  0.51100000000E-03 0.  1.
         11   -1    0    0    0    0 -0.00000000000E+00 -0.00000000000E+00 -0.45593999997E+02  0.45594000000E+02  0.51100000000E-03 0. -1.
    9900012    2    1    2    0    0 -0.30713428434E+01  0.23538069732E+02  0.33010488975E+02  0.50528852740E+02  0.29999978388E+02 0.  0.
         12    1    1    2    0    0  0.30713428434E+01 -0.23538069732E+02 -0.33010488975E+02  0.40659147260E+02  0.00000000000E+00 0. -1.
         11    1    3    3    0    0 -0.54789661745E+01  0.27677463265E+01 -0.63145220387E+00  0.61707554008E+01  0.51100000000E-03 0. -1.
        -11    1    3    3    0    0 -0.31569049174E+01  0.20222714172E+02  0.16385752395E+02  0.26218640295E+02  0.51100000000E-03 0.  1.
         12    1    3    3    0    0  0.55645282485E+01  0.54760923420E+00  0.17256188784E+02  0.18139457044E+02  0.00000000000E+00 0. -1.
</event>
<event>
 7    1  0.5902966E-013  0.5052886E+02  0.7816164E-02  0.1300439E+00
        -11   -1    0    0    0    0  0.00000000000E+00  0.00000000000E+00  0.45593999997E+02  0.45594000000E+02  0.51100000000E-03 0.  1.
         11   -1    0    0    0    0 -0.00000000000E+00 -0.00000000000E+00 -0.45593999997E+02  0.45594000000E+02  0.51100000000E-03 0. -1.
    9900012    2    1    2    0    0  0.25594573924E+02  0.22135119547E+02  0.22541513657E+02  0.50528861179E+02  0.30000004041E+02 0.  0.
         12    1    1    2    0    0 -0.25594573924E+02 -0.22135119547E+02 -0.22541513657E+02  0.40659138821E+02  0.00000000000E+00 0. -1.
         11    1    3    3    0    0  0.25275227368E+02  0.14651571320E+02  0.18405197907E+02  0.34529074284E+02  0.51100000000E-03 0. -1.
        -11    1    3    3    0    0  0.26325123656E+01  0.96001323932E+01  0.66582411885E+01  0.11976010993E+02  0.51100000000E-03 0.  1.
        -12    1    3    3    0    0 -0.23131658096E+01 -0.21165841665E+01 -0.25219254386E+01  0.40237759026E+01  0.00000000000E+00 0.  1.
</event>
<event>
 7    1  0.5902966E-013  0.5052886E+02  0.7816164E-02  0.1300439E+00
        -11   -1    0    0    0    0  0.00000000000E+00  0.00000000000E+00  0.45593999997E+02  0.45594000000E+02  0.51100000000E-03 0. -1.
         11   -1    0    0    0    0 -0.00000000000E+00 -0.00000000000E+00 -0.45593999997E+02  0.45594000000E+02  0.51100000000E-03 0.  1.
    9900012    2    1    2    0    0  0.35485446493E+02 -0.15444686336E+02  0.12466370218E+02  0.50528860372E+02  0.30000001587E+02 0.  0.
         12    1    1    2    0    0 -0.35485446493E+02  0.15444686336E+02 -0.12466370218E+02  0.40659139628E+02  0.00000000000E+00 0. -1.
         11    1    3    3    0    0  0.12771009825E+02  0.30504522359E+01  0.99887649780E+01  0.16497859766E+02  0.51100000000E-03 0. -1.
        -11    1    3    3    0    0  0.40039091776E+01  0.43064619184E+00  0.59577721870E+01  0.71910913315E+01  0.51100000000E-03 0.  1.
        -12    1    3    3    0    0  0.18710527490E+02 -0.18925784764E+02 -0.34801669470E+01  0.26839909275E+02  0.00000000000E+00 0.  1.
</event>
<event>
 7    1  0.5902966E-013  0.5052887E+02  0.7816164E-02  0.1300439E+00
        -11   -1    0    0    0    0  0.00000000000E+00  0.00000000000E+00  0.45593999997E+02  0.45594000000E+02  0.51100000000E-03 0.  1.
         11   -1    0    0    0    0 -0.00000000000E+00 -0.00000000000E+00 -0.45593999997E+02  0.45594000000E+02  0.51100000000E-03 0. -1.
    9900012    2    1    2    0    0 -0.22711077494E+02  0.27706847632E+02  0.19227647910E+02  0.50528869527E+02  0.30000029416E+02 0.  0.
         12    1    1    2    0    0  0.22711077494E+02 -0.27706847632E+02 -0.19227647910E+02  0.40659130473E+02  0.00000000000E+00 0. -1.
         11    1    3    3    0    0 -0.19253967169E+00  0.12497141250E+02  0.67772394101E+01  0.14217826319E+02  0.51100000000E-03 0. -1.
        -11    1    3    3    0    0 -0.16084872508E+02  0.15015912871E+02  0.17512202721E+02  0.28122553358E+02  0.51100000000E-03 0.  1.
         12    1    3    3    0    0 -0.64336653144E+01  0.19379351039E+00 -0.50617942210E+01  0.81884898509E+01  0.00000000000E+00 0. -1.
</event>
<event>
 7    1  0.5902966E-013  0.5052886E+02  0.7816164E-02  0.1300439E+00
        -11   -1    0    0    0    0  0.00000000000E+00  0.00000000000E+00  0.45593999997E+02  0.45594000000E+02  0.51100000000E-03 0. -1.
         11   -1    0    0    0    0 -0.00000000000E+00 -0.00000000000E+00 -0.45593999997E+02  0.45594000000E+02  0.51100000000E-03 0.  1.
    9900012    2    1    2    0    0  0.76311456755E+01  0.21195928420E+02 -0.33847657822E+02  0.50528859503E+02  0.29999998944E+02 0.  0.
         12    1    1    2    0    0 -0.76311456755E+01 -0.21195928420E+02  0.33847657822E+02  0.40659140497E+02  0.00000000000E+00 0. -1.
         11    1    3    3    0    0 -0.89025345460E+01  0.10239069314E+02 -0.11182294406E+02  0.17582302756E+02  0.51100000000E-03 0. -1.
        -11    1    3    3    0    0  0.69812758412E+01  0.12158514712E+02 -0.15788856983E+02  0.21115295345E+02  0.51100000000E-03 0.  1.
        -12    1    3    3    0    0  0.95524043802E+01 -0.12016556060E+01 -0.68765064333E+01  0.11831261402E+02  0.00000000000E+00 0.  1.
</event>
<event>
 7    1  0.5902966E-013  0.5052886E+02  0.7816164E-02  0.1300439E+00
        -11   -1    0    0    0    0  0.00000000000E+00  0.00000000000E+00  0.45593999997E+02  0.45594000000E+02  0.51100000000E-03 0. -1.
         11   -1    0    0    0    0 -0.00000000000E+00 -0.00000000000E+00 -0.45593999997E+02  0.45594000000E+02  0.51100000000E-03 0.  1.
    9900012    2    1    2    0    0  0.37570758681E+02 -0.10266516834E+02 -0.11670576287E+02  0.50528860479E+02  0.30000001911E+02 0.  0.
         12    1    1    2    0    0 -0.37570758681E+02  0.10266516834E+02  0.11670576287E+02  0.40659139521E+02  0.00000000000E+00 0. -1.
         11    1    3    3    0    0  0.30025849339E+02 -0.13347643217E+02 -0.14948158779E+02  0.36099288900E+02  0.51100000000E-03 0. -1.
        -11    1    3    3    0    0 -0.69857635768E+00 -0.30672236222E+01 -0.98639416844E+00  0.32967928950E+01  0.51100000000E-03 0.  1.
         12    1    3    3    0    0  0.82434856997E+01  0.61483500046E+01  0.42639766604E+01  0.11132778684E+02  0.00000000000E+00 0. -1.
</event>
<event>
 7    1  0.5902966E-013  0.5052887E+02  0.7816164E-02  0.1300439E+00
        -11   -1    0    0    0    0  0.00000000000E+00  0.00000000000E+00  0.45593999997E+02  0.45594000000E+02  0.51100000000E-03 0.  1.
         11   -1    0    0    0    0 -0.00000000000E+00 -0.00000000000E+00 -0.45593999997E+02  0.45594000000E+02  0.51100000000E-03 0. -1.
    9900012    2    1    2    0    0  0.17099468989E+02  0.33180391232E+02  0.16119386442E+02  0.50528870382E+02  0.30000032013E+02 0.  0.
         12    1    1    2    0    0 -0.17099468989E+02 -0.33180391232E+02 -0.16119386442E+02  0.40659129618E+02  0.00000000000E+00 0. -1.
         11    1    3    3    0    0 -0.59683235304E+01  0.35517773826E+01 -0.14220002061E+01  0.70892942658E+01  0.51100000000E-03 0.  1.
        -11    1    3    3    0    0  0.78223307449E+01  0.36417568730E+01  0.10508354343E+00  0.86291537370E+01  0.51100000000E-03 0. -1.
        -12    1    3    3    0    0  0.15245461774E+02  0.25986856977E+02  0.17436303105E+02  0.34810422379E+02  0.00000000000E+00 0.  1.
</event>
<event>
 7    1  0.5902966E-013  0.5052880E+02  0.7816164E-02  0.1300439E+00
        -11   -1    0    0    0    0  0.00000000000E+00  0.00000000000E+00  0.45593999997E+02  0.45594000000E+02  0.51100000000E-03 0. -1.
         11   -1    0    0    0    0 -0.00000000000E+00 -0.00000000000E+00 -0.45593999997E+02  0.45594000000E+02  0.51100000000E-03 0.  1.
    9900012    2    1    2    0    0 -0.19787693235E+02 -0.17029091556E+02 -0.31170938920E+02  0.50528804288E+02  0.29999831114E+02 0.  0.
         12    1    1    2    0    0  0.19787693235E+02  0.17029091556E+02  0.31170938920E+02  0.40659195712E+02  0.00000000000E+00 0. -1.
         11    1    3    3    0    0 -0.94450169572E+01  0.39014146230E+01 -0.12796610764E+02  0.16376282506E+02  0.51100000000E-03 0. -1.
        -11    1    3    3    0    0 -0.65620681307E+01 -0.13844239374E+01  0.49232439499E+00  0.67245632840E+01  0.51100000000E-03 0.  1.
        -12    1    3    3    0    0 -0.37806081467E+01 -0.19546082242E+02 -0.18866652550E+02  0.27427958499E+02  0.00000000000E+00 0.  1.
</event>
<event>
 7    1  0.5902966E-013  0.5052886E+02  0.7816164E-02  0.1300439E+00
        -11   -1    0    0    0    0  0.00000000000E+00  0.00000000000E+00  0.45593999997E+02  0.45594000000E+02  0.51100000000E-03 0.  1.
         11   -1    0    0    0    0 -0.00000000000E+00 -0.00000000000E+00 -0.45593999997E+02  0.45594000000E+02  0.51100000000E-03 0. -1.
    9900012    2    1    2    0    0  0.18728546765E+02  0.11844514925E+01  0.36069436863E+02  0.50528860008E+02  0.30000000480E+02 0.  0.
         12    1    1    2    0    0 -0.18728546765E+02 -0.11844514925E+01 -0.36069436863E+02  0.40659139992E+02  0.00000000000E+00 0. -1.
         11    1    3    3    0    0  0.32004145619E+01  0.75913029499E+00  0.73408973769E+00  0.33701365220E+01  0.51100000000E-03 0. -1.
        -11    1    3    3    0    0  0.15947864724E+02 -0.24878325766E+01  0.39146429280E+02  0.42343436632E+02  0.51100000000E-03 0.  1.
        -12    1    3    3    0    0 -0.41973252099E+00  0.29131537741E+01 -0.38110821543E+01  0.48152868541E+01  0.00000000000E+00 0.  1.
</event>
<event>
 7    1  0.5902966E-013  0.5052886E+02  0.7816164E-02  0.1300439E+00
        -11   -1    0    0    0    0  0.00000000000E+00  0.00000000000E+00  0.45593999997E+02  0.45594000000E+02  0.51100000000E-03 0. -1.
         11   -1    0    0    0    0 -0.00000000000E+00 -0.00000000000E+00 -0.45593999997E+02  0.45594000000E+02  0.51100000000E-03 0.  1.
    9900012    2    1    2    0    0 -0.40349860459E+02 -0.38281845959E+01 -0.32248330240E+01  0.50528858538E+02  0.29999996013E+02 0.  0.
         12    1    1    2    0    0  0.40349860459E+02  0.38281845959E+01  0.32248330240E+01  0.40659141462E+02  0.00000000000E+00 0. -1.
         11    1    3    3    0    0 -0.14749624837E+02 -0.56806981212E+01  0.93059212287E+01  0.18341808367E+02  0.51100000000E-03 0. -1.
        -11    1    3    3    0    0 -0.22411163329E+01  0.54923238695E+01 -0.16164819436E+01  0.61482711424E+01  0.51100000000E-03 0.  1.
        -12    1    3    3    0    0 -0.23359119289E+02 -0.36398103442E+01 -0.10914272309E+02  0.26038779029E+02  0.00000000000E+00 0.  1.
</event>
<event>
 7    1  0.5902966E-013  0.5052887E+02  0.7816164E-02  0.1300439E+00
        -11   -1    0    0    0    0  0.00000000000E+00  0.00000000000E+00  0.45593999997E+02  0.45594000000E+02  0.51100000000E-03 0.  1.
         11   -1    0    0    0    0 -0.00000000000E+00 -0.00000000000E+00 -0.45593999997E+02  0.45594000000E+02  0.51100000000E-03 0. -1.
    9900012    2    1    2    0    0 -0.37276614816E+02  0.10893549561E+02  0.12039483307E+02  0.50528873196E+02  0.30000040566E+02 0.  0.
         12    1    1    2    0    0  0.37276614816E+02 -0.10893549561E+02 -0.12039483307E+02  0.40659126804E+02  0.00000000000E+00 0. -1.
         11    1    3    3    0    0 -0.51751679981E+01 -0.51607874792E+01  0.62049888846E+01  0.95873864287E+01  0.51100000000E-03 0. -1.
        -11    1    3    3    0    0 -0.24513421094E+02  0.12021806136E+02 -0.43165854467E+01  0.27641717506E+02  0.51100000000E-03 0.  1.
         12    1    3    3    0    0 -0.75880257236E+01  0.40325309043E+01  0.10151079869E+02  0.13299769261E+02  0.00000000000E+00 0. -1.
</event>
<event>
 7    1  0.5902966E-013  0.5052886E+02  0.7816164E-02  0.1300439E+00
        -11   -1    0    0    0    0  0.00000000000E+00  0.00000000000E+00  0.45593999997E+02  0.45594000000E+02  0.51100000000E-03 0.  1.
         11   -1    0    0    0    0 -0.00000000000E+00 -0.00000000000E+00 -0.45593999997E+02  0.45594000000E+02  0.51100000000E-03 0. -1.
    9900012    2    1    2    0    0  0.12914508372E+02 -0.37115772467E+02  0.10430761017E+02  0.50528857514E+02  0.29999992900E+02 0.  0.
         12    1    1    2    0    0 -0.12914508372E+02  0.37115772467E+02 -0.10430761017E+02  0.40659142486E+02  0.00000000000E+00 0. -1.
         11    1    3    3    0    0 -0.62531443911E+01 -0.78359063635E-01  0.34587673294E+01  0.71463995563E+01  0.51100000000E-03 0. -1.
        -11    1    3    3    0    0  0.95422712735E+01 -0.89770111786E+01  0.31243965078E+01  0.13468612570E+02  0.51100000000E-03 0.  1.
        -12    1    3    3    0    0  0.96253814899E+01 -0.28060402224E+02  0.38475971800E+01  0.29913845388E+02  0.00000000000E+00 0.  1.
</event>
<event>
 7    1  0.5902966E-013  0.5052887E+02  0.7816164E-02  0.1300439E+00
        -11   -1    0    0    0    0  0.00000000000E+00  0.00000000000E+00  0.45593999997E+02  0.45594000000E+02  0.51100000000E-03 0.  1.
         11   -1    0    0    0    0 -0.00000000000E+00 -0.00000000000E+00 -0.45593999997E+02  0.45594000000E+02  0.51100000000E-03 0. -1.
    9900012    2    1    2    0    0 -0.40564832800E+02  0.27311604918E+01 -0.44730007801E+00  0.50528868490E+02  0.30000026263E+02 0.  0.
         12    1    1    2    0    0  0.40564832800E+02 -0.27311604918E+01  0.44730007801E+00  0.40659131510E+02  0.00000000000E+00 0. -1.
         11    1    3    3    0    0 -0.98622223990E+01  0.88753861604E+00 -0.10559679600E+02  0.14476117883E+02  0.51100000000E-03 0. -1.
        -11    1    3    3    0    0 -0.13143165295E+02 -0.68269004067E+01  0.23917359984E+01  0.15002325302E+02  0.51100000000E-03 0.  1.
        -12    1    3    3    0    0 -0.17559445107E+02  0.86705222825E+01  0.77206435238E+01  0.21050425305E+02  0.00000000000E+00 0.  1.
</event>
<event>
 7    1  0.5902966E-013  0.5052887E+02  0.7816164E-02  0.1300439E+00
        -11   -1    0    0    0    0  0.00000000000E+00  0.00000000000E+00  0.45593999997E+02  0.45594000000E+02  0.51100000000E-03 0. -1.
         11   -1    0    0    0    0 -0.00000000000E+00 -0.00000000000E+00 -0.45593999997E+02  0.45594000000E+02  0.51100000000E-03 0.  1.
    9900012    2    1    2    0    0  0.93975862904E+01  0.36944084759E+02 -0.14141611927E+02  0.50528865545E+02  0.30000017310E+02 0.  0.
         12    1    1    2    0    0 -0.93975862904E+01 -0.36944084759E+02  0.14141611927E+02  0.40659134455E+02  0.00000000000E+00 0. -1.
         11    1    3    3    0    0  0.15739031021E+02  0.15898567351E+02 -0.16439418130E+02  0.27762132664E+02  0.51100000000E-03 0. -1.
        -11    1    3    3    0    0 -0.23734458025E+00  0.34598004496E+01  0.22826407984E+01  0.41517467259E+01  0.51100000000E-03 0.  1.
        -12    1    3    3    0    0 -0.61041001507E+01  0.17585716958E+02  0.15165404169E-01  0.18614986155E+02  0.00000000000E+00 0.  1.
</event>
<event>
 7    1  0.5902966E-013  0.5052886E+02  0.7816164E-02  0.1300439E+00
        -11   -1    0    0    0    0  0.00000000000E+00  0.00000000000E+00  0.45593999997E+02  0.45594000000E+02  0.51100000000E-03 0. -1.
         11   -1    0    0    0    0 -0.00000000000E+00 -0.00000000000E+00 -0.45593999997E+02  0.45594000000E+02  0.51100000000E-03 0.  1.
    9900012    2    1    2    0    0 -0.25607003742E+02 -0.25961222868E+02 -0.17985051448E+02  0.50528858235E+02  0.29999995090E+02 0.  0.
         12    1    1    2    0    0  0.25607003742E+02  0.25961222868E+02  0.17985051448E+02  0.40659141765E+02  0.00000000000E+00 0. -1.
         11    1    3    3    0    0 -0.76898091693E+01 -0.18311159284E+02 -0.34532662353E+01  0.20158292768E+02  0.51100000000E-03 0. -1.
        -11    1    3    3    0    0 -0.46853427579E+01 -0.10215734439E+02 -0.12381705284E+02  0.16721850762E+02  0.51100000000E-03 0.  1.
         12    1    3    3    0    0 -0.13231851815E+02  0.25656708547E+01 -0.21500799291E+01  0.13648714705E+02  0.00000000000E+00 0. -1.
</event>
<event>
 7    1  0.5902966E-013  0.5052886E+02  0.7816164E-02  0.1300439E+00
        -11   -1    0    0    0    0  0.00000000000E+00  0.00000000000E+00  0.45593999997E+02  0.45594000000E+02  0.51100000000E-03 0.  1.
         11   -1    0    0    0    0 -0.00000000000E+00 -0.00000000000E+00 -0.45593999997E+02  0.45594000000E+02  0.51100000000E-03 0. -1.
    9900012    2    1    2    0    0 -0.22957932233E+02  0.15360672342E+02  0.29835358131E+02  0.50528862010E+02  0.30000006566E+02 0.  0.
         12    1    1    2    0    0  0.22957932233E+02 -0.15360672342E+02 -0.29835358131E+02  0.40659137990E+02  0.00000000000E+00 0. -1.
         11    1    3    3    0    0  0.11409497794E+00 -0.40636724787E+01  0.17907601989E+01  0.44422149913E+01  0.51100000000E-03 0. -1.
        -11    1    3    3    0    0 -0.18385890459E+02  0.30470027318E+01  0.19698120129E+02  0.27117174087E+02  0.51100000000E-03 0.  1.
         12    1    3    3    0    0 -0.46861367520E+01  0.16377342089E+02  0.83464778040E+01  0.18969472932E+02  0.00000000000E+00 0. -1.
</event>
<event>
 7    1  0.5902966E-013  0.5052884E+02  0.7816164E-02  0.1300439E+00
        -11   -1    0    0    0    0  0.00000000000E+00  0.00000000000E+00  0.45593999997E+02  0.45594000000E+02  0.51100000000E-03 0. -1.
         11   -1    0    0    0    0 -0.00000000000E+00 -0.00000000000E+00 -0.45593999997E+02  0.45594000000E+02  0.51100000000E-03 0.  1.
    9900012    2    1    2    0    0 -0.34238455803E+02 -0.14509827126E+02 -0.16442628875E+02  0.50528843795E+02  0.29999951200E+02 0.  0.
         12    1    1    2    0    0  0.34238455803E+02  0.14509827126E+02  0.16442628875E+02  0.40659156205E+02  0.00000000000E+00 0. -1.
         11    1    3    3    0    0 -0.24732037548E+02  0.27535121881E+01 -0.59399802642E+01  0.25583957404E+02  0.51100000000E-03 0. -1.
        -11    1    3    3    0    0 -0.96552337316E+01 -0.76337779566E+01 -0.88825437393E+01  0.15178856605E+02  0.51100000000E-03 0.  1.
        -12    1    3    3    0    0  0.14881547727E+00 -0.96295613574E+01 -0.16201048716E+01  0.97660297858E+01  0.00000000000E+00 0.  1.
</event>
<event>
 7    1  0.5902966E-013  0.5052886E+02  0.7816164E-02  0.1300439E+00
        -11   -1    0    0    0    0  0.00000000000E+00  0.00000000000E+00  0.45593999997E+02  0.45594000000E+02  0.51100000000E-03 0.  1.
         11   -1    0    0    0    0 -0.00000000000E+00 -0.00000000000E+00 -0.45593999997E+02  0.45594000000E+02  0.51100000000E-03 0. -1.
    9900012    2    1    2    0    0  0.30434753112E+02  0.20145568007E+02  0.17917810334E+02  0.50528855463E+02  0.29999986666E+02 0.  0.
         12    1    1    2    0    0 -0.30434753112E+02 -0.20145568007E+02 -0.17917810334E+02  0.40659144537E+02  0.00000000000E+00 0. -1.
         11    1    3    3    0    0  0.27474020531E+02  0.94130134832E+01  0.78390259947E+01  0.30081172780E+02  0.51100000000E-03 0. -1.
        -11    1    3    3    0    0  0.99519048198E+00  0.97982487870E+00 -0.34111060899E+01  0.36859335189E+01  0.51100000000E-03 0.  1.
        -12    1    3    3    0    0  0.19655420983E+01  0.97527296453E+01  0.13489890429E+02  0.16761749165E+02  0.00000000000E+00 0.  1.
</event>
<event>
 7    1  0.5902966E-013  0.5052885E+02  0.7816164E-02  0.1300439E+00
        -11   -1    0    0    0    0  0.00000000000E+00  0.00000000000E+00  0.45593999997E+02  0.45594000000E+02  0.51100000000E-03 0.  1.
         11   -1    0    0    0    0 -0.00000000000E+00 -0.00000000000E+00 -0.45593999997E+02  0.45594000000E+02  0.51100000000E-03 0. -1.
    9900012    2    1    2    0    0 -0.59478184251E+01 -0.58638050507E+01  0.39792030498E+02  0.50528850416E+02  0.29999971325E+02 0.  0.
         12    1    1    2    0    0  0.59478184251E+01  0.58638050507E+01 -0.39792030498E+02  0.40659149584E+02  0.00000000000E+00 0. -1.
         11    1    3    3    0    0  0.17380553240E+01 -0.40165767793E+00 -0.10075325168E+01  0.20487281990E+01  0.51100000000E-03 0. -1.
        -11    1    3    3    0    0 -0.72536109424E+01 -0.12572016567E+02  0.12059926811E+02  0.18870938165E+02  0.51100000000E-03 0.  1.
         12    1    3    3    0    0 -0.43226280674E+00  0.71098691946E+01  0.28739636204E+02  0.29609184053E+02  0.00000000000E+00 0. -1.
</event>
<event>
 7    1  0.5902966E-013  0.5052885E+02  0.7816164E-02  0.1300439E+00
        -11   -1    0    0    0    0  0.00000000000E+00  0.00000000000E+00  0.45593999997E+02  0.45594000000E+02  0.51100000000E-03 0. -1.
         11   -1    0    0    0    0 -0.00000000000E+00 -0.00000000000E+00 -0.45593999997E+02  0.45594000000E+02  0.51100000000E-03 0.  1.
    9900012    2    1    2    0    0 -0.29284907955E+02 -0.28055351696E+02 -0.29081907335E+01  0.50528853845E+02  0.29999981747E+02 0.  0.
         12    1    1    2    0    0  0.29284907955E+02  0.28055351696E+02  0.29081907335E+01  0.40659146155E+02  0.00000000000E+00 0. -1.
         11    1    3    3    0    0 -0.27723141367E+01 -0.10118879337E+02 -0.42171432611E+01  0.11307596661E+02  0.51100000000E-03 0. -1.
        -11    1    3    3    0    0  0.31625247466E+01  0.17244327202E+01  0.13821495887E+00  0.36047655423E+01  0.51100000000E-03 0.  1.
        -12    1    3    3    0    0 -0.29675118565E+02 -0.19660905079E+02  0.11707375687E+01  0.35616491641E+02  0.00000000000E+00 0.  1.
</event>
<event>
 7    1  0.5902966E-013  0.5052886E+02  0.7816164E-02  0.1300439E+00
        -11   -1    0    0    0    0  0.00000000000E+00  0.00000000000E+00  0.45593999997E+02  0.45594000000E+02  0.51100000000E-03 0.  1.
         11   -1    0    0    0    0 -0.00000000000E+00 -0.00000000000E+00 -0.45593999997E+02  0.45594000000E+02  0.51100000000E-03 0. -1.
    9900012    2    1    2    0    0  0.36767591325E+02 -0.10552347632E+02  0.13782511617E+02  0.50528862788E+02  0.30000008930E+02 0.  0.
         12    1    1    2    0    0 -0.36767591325E+02  0.10552347632E+02 -0.13782511617E+02  0.40659137212E+02  0.00000000000E+00 0. -1.
         11    1    3    3    0    0  0.56811879640E+01 -0.20068846784E+01 -0.40241675157E+01  0.72455094542E+01  0.51100000000E-03 0. -1.
        -11    1    3    3    0    0  0.31997326376E+02 -0.65078999997E+01  0.21409325748E+02  0.39045369596E+02  0.51100000000E-03 0.  1.
         12    1    3    3    0    0 -0.91092301538E+00 -0.20375629533E+01 -0.36026466151E+01  0.42379837378E+01  0.00000000000E+00 0. -1.
</event>
<event>
 7    1  0.5902966E-013  0.5052885E+02  0.7816164E-02  0.1300439E+00
        -11   -1    0    0    0    0  0.00000000000E+00  0.00000000000E+00  0.45593999997E+02  0.45594000000E+02  0.51100000000E-03 0.  1.
         11   -1    0    0    0    0 -0.00000000000E+00 -0.00000000000E+00 -0.45593999997E+02  0.45594000000E+02  0.51100000000E-03 0. -1.
    9900012    2    1    2    0    0 -0.34779257047E+02  0.20973343872E+02  0.19206705293E+01  0.50528845444E+02  0.29999956213E+02 0.  0.
         12    1    1    2    0    0  0.34779257047E+02 -0.20973343872E+02 -0.19206705293E+01  0.40659154556E+02  0.00000000000E+00 0. -1.
         11    1    3    3    0    0 -0.70887228154E+01 -0.34334695584E+01 -0.58825616833E+01  0.98307291988E+01  0.51100000000E-03 0. -1.
        -11    1    3    3    0    0 -0.65507861919E+01  0.13762102431E+01  0.66193388628E+01  0.94139471853E+01  0.51100000000E-03 0.  1.
         12    1    3    3    0    0 -0.21139748039E+02  0.23030603187E+02  0.11838933498E+01  0.31284169060E+02  0.00000000000E+00 0. -1.
</event>
<event>
 7    1  0.5902966E-013  0.5052886E+02  0.7816164E-02  0.1300439E+00
        -11   -1    0    0    0    0  0.00000000000E+00  0.00000000000E+00  0.45593999997E+02  0.45594000000E+02  0.51100000000E-03 0.  1.
         11   -1    0    0    0    0 -0.00000000000E+00 -0.00000000000E+00 -0.45593999997E+02  0.45594000000E+02  0.51100000000E-03 0. -1.
    9900012    2    1    2    0    0  0.84445924592E+01 -0.18111038352E+00  0.39772125371E+02  0.50528857125E+02  0.29999991718E+02 0.  0.
         12    1    1    2    0    0 -0.84445924592E+01  0.18111038352E+00 -0.39772125371E+02  0.40659142875E+02  0.00000000000E+00 0. -1.
         11    1    3    3    0    0 -0.68068198157E+01 -0.45083134858E+01  0.56673501870E+01  0.99386389859E+01  0.51100000000E-03 0. -1.
        -11    1    3    3    0    0  0.10405144826E+02  0.25044755617E+00  0.65062357465E+01  0.12274398832E+02  0.51100000000E-03 0.  1.
        -12    1    3    3    0    0  0.48462674485E+01  0.40767555461E+01  0.27598539438E+02  0.28315819307E+02  0.00000000000E+00 0.  1.
</event>
<event>
 7    1  0.5902966E-013  0.5052884E+02  0.7816164E-02  0.1300439E+00
        -11   -1    0    0    0    0  0.00000000000E+00  0.00000000000E+00  0.45593999997E+02  0.45594000000E+02  0.51100000000E-03 0. -1.
         11   -1    0    0    0    0 -0.00000000000E+00 -0.00000000000E+00 -0.45593999997E+02  0.45594000000E+02  0.51100000000E-03 0.  1.
    9900012    2    1    2    0    0  0.37105966196E+02  0.16597318003E+02 -0.91853182636E+00  0.50528838758E+02  0.29999935888E+02 0.  0.
         12    1    1    2    0    0 -0.37105966196E+02 -0.16597318003E+02  0.91853182636E+00  0.40659161242E+02  0.00000000000E+00 0. -1.
         11    1    3    3    0    0  0.23753877657E+01 -0.58497720688E+01 -0.11433604011E+01  0.64163520447E+01  0.51100000000E-03 0. -1.
        -11    1    3    3    0    0  0.19486648900E+02  0.45578482693E+01 -0.34987300392E+01  0.20316116222E+02  0.51100000000E-03 0.  1.
         12    1    3    3    0    0  0.15243929530E+02  0.17889241803E+02  0.37235586140E+01  0.23796370491E+02  0.00000000000E+00 0. -1.
</event>
<event>
 7    1  0.5902966E-013  0.5052885E+02  0.7816164E-02  0.1300439E+00
        -11   -1    0    0    0    0  0.00000000000E+00  0.00000000000E+00  0.45593999997E+02  0.45594000000E+02  0.51100000000E-03 0.  1.
         11   -1    0    0    0    0 -0.00000000000E+00 -0.00000000000E+00 -0.45593999997E+02  0.45594000000E+02  0.51100000000E-03 0. -1.
    9900012    2    1    2    0    0 -0.52672363518E+01  0.33813387242E+02  0.21956270457E+02  0.50528846689E+02  0.29999959996E+02 0.  0.
         12    1    1    2    0    0  0.52672363518E+01 -0.33813387242E+02 -0.21956270457E+02  0.40659153311E+02  0.00000000000E+00 0. -1.
         11    1    3    3    0    0 -0.67478582362E+01  0.12596558230E+01  0.31227905570E+01  0.75413622571E+01  0.51100000000E-03 0. -1.
        -11    1    3    3    0    0 -0.71379155938E+00  0.13735397479E+02 -0.30027185041E+01  0.14077889080E+02  0.51100000000E-03 0.  1.
        -12    1    3    3    0    0  0.21944134438E+01  0.18818333941E+02  0.21836198404E+02  0.28909595352E+02  0.00000000000E+00 0.  1.
</event>
<event>
 7    1  0.5902966E-013  0.5052885E+02  0.7816164E-02  0.1300439E+00
        -11   -1    0    0    0    0  0.00000000000E+00  0.00000000000E+00  0.45593999997E+02  0.45594000000E+02  0.51100000000E-03 0. -1.
         11   -1    0    0    0    0 -0.00000000000E+00 -0.00000000000E+00 -0.45593999997E+02  0.45594000000E+02  0.51100000000E-03 0.  1.
    9900012    2    1    2    0    0  0.27075467873E+02  0.29493287985E+02  0.70874196802E+01  0.50528849561E+02  0.29999968726E+02 0.  0.
         12    1    1    2    0    0 -0.27075467873E+02 -0.29493287985E+02 -0.70874196802E+01  0.40659150439E+02  0.00000000000E+00 0. -1.
         11    1    3    3    0    0 -0.76575445013E+00  0.14101121924E+02 -0.38848287177E+01  0.14646498347E+02  0.51100000000E-03 0. -1.
        -11    1    3    3    0    0  0.81620893328E+01  0.10869417388E+02  0.18244719807E+01  0.13714686832E+02  0.51100000000E-03 0.  1.
         12    1    3    3    0    0  0.19679132990E+02  0.45227486736E+01  0.91477764173E+01  0.22167664383E+02  0.00000000000E+00 0. -1.
</event>
<event>
 7    1  0.5902966E-013  0.5052885E+02  0.7816164E-02  0.1300439E+00
        -11   -1    0    0    0    0  0.00000000000E+00  0.00000000000E+00  0.45593999997E+02  0.45594000000E+02  0.51100000000E-03 0.  1.
         11   -1    0    0    0    0 -0.00000000000E+00 -0.00000000000E+00 -0.45593999997E+02  0.45594000000E+02  0.51100000000E-03 0. -1.
    9900012    2    1    2    0    0  0.15085070472E+02 -0.28506654253E+02  0.24758384872E+02  0.50528852084E+02  0.29999976394E+02 0.  0.
         12    1    1    2    0    0 -0.15085070472E+02  0.28506654253E+02 -0.24758384872E+02  0.40659147916E+02  0.00000000000E+00 0. -1.
         11    1    3    3    0    0  0.11618607210E+02  0.93429256116E+00  0.75898342389E+01  0.13909368071E+02  0.51100000000E-03 0. -1.
        -11    1    3    3    0    0  0.57496239127E+01 -0.18830875390E+02  0.16597630571E+02  0.25751531681E+02  0.51100000000E-03 0.  1.
        -12    1    3    3    0    0 -0.22831606506E+01 -0.10610071424E+02  0.57092006166E+00  0.10867952332E+02  0.00000000000E+00 0.  1.
</event>
<event>
 7    1  0.5902966E-013  0.5052886E+02  0.7816164E-02  0.1300439E+00
        -11   -1    0    0    0    0  0.00000000000E+00  0.00000000000E+00  0.45593999997E+02  0.45594000000E+02  0.51100000000E-03 0.  1.
         11   -1    0    0    0    0 -0.00000000000E+00 -0.00000000000E+00 -0.45593999997E+02  0.45594000000E+02  0.51100000000E-03 0. -1.
    9900012    2    1    2    0    0  0.31846650509E+01 -0.51635324083E+01  0.40203998527E+02  0.50528860118E+02  0.30000000814E+02 0.  0.
         12    1    1    2    0    0 -0.31846650509E+01  0.51635324083E+01 -0.40203998527E+02  0.40659139882E+02  0.00000000000E+00 0. -1.
         11    1    3    3    0    0 -0.33434794077E+01 -0.11740738074E+02  0.23646584416E+02  0.26611740640E+02  0.51100000000E-03 0.  1.
        -11    1    3    3    0    0 -0.44746975060E+01  0.17645403776E+01  0.73514358152E+01  0.87852222124E+01  0.51100000000E-03 0. -1.
        -12    1    3    3    0    0  0.11002841965E+02  0.48126652884E+01  0.92059782961E+01  0.15131897266E+02  0.00000000000E+00 0.  1.
</event>
<event>
 7    1  0.5902966E-013  0.5052887E+02  0.7816164E-02  0.1300439E+00
        -11   -1    0    0    0    0  0.00000000000E+00  0.00000000000E+00  0.45593999997E+02  0.45594000000E+02  0.51100000000E-03 0.  1.
         11   -1    0    0    0    0 -0.00000000000E+00 -0.00000000000E+00 -0.45593999997E+02  0.45594000000E+02  0.51100000000E-03 0. -1.
    9900012    2    1    2    0    0  0.18088617345E+02 -0.55463288388E+01  0.35988960031E+02  0.50528867137E+02  0.30000022150E+02 0.  0.
         12    1    1    2    0    0 -0.18088617345E+02  0.55463288388E+01 -0.35988960031E+02  0.40659132863E+02  0.00000000000E+00 0. -1.
         11    1    3    3    0    0  0.15690601079E+02  0.15511543613E+01  0.98641093820E+01  0.18598432629E+02  0.51100000000E-03 0. -1.
        -11    1    3    3    0    0  0.77399339756E+01 -0.24598129693E+01  0.22623743722E+02  0.24037284332E+02  0.51100000000E-03 0.  1.
        -12    1    3    3    0    0 -0.53419177099E+01 -0.46376702309E+01  0.35011069267E+01  0.78931501760E+01  0.00000000000E+00 0.  1.
</event>
<event>
 7    1  0.5902966E-013  0.5052886E+02  0.7816164E-02  0.1300439E+00
        -11   -1    0    0    0    0  0.00000000000E+00  0.00000000000E+00  0.45593999997E+02  0.45594000000E+02  0.51100000000E-03 0. -1.
         11   -1    0    0    0    0 -0.00000000000E+00 -0.00000000000E+00 -0.45593999997E+02  0.45594000000E+02  0.51100000000E-03 0.  1.
    9900012    2    1    2    0    0  0.26163856179E+02 -0.21782018564E+02 -0.22229747309E+02  0.50528863655E+02  0.30000011566E+02 0.  0.
         12    1    1    2    0    0 -0.26163856179E+02  0.21782018564E+02  0.22229747309E+02  0.40659136345E+02  0.00000000000E+00 0. -1.
         11    1    3    3    0    0  0.22682949136E+02 -0.59627707042E+01 -0.18584632132E+02  0.29924227103E+02  0.51100000000E-03 0. -1.
        -11    1    3    3    0    0  0.80516429539E+01 -0.92816358702E+01 -0.26016781663E+01  0.12559715292E+02  0.51100000000E-03 0.  1.
         12    1    3    3    0    0 -0.45707359102E+01 -0.65376119896E+01 -0.10434370106E+01  0.80449212601E+01  0.00000000000E+00 0. -1.
</event>
<event>
 7    1  0.5902966E-013  0.5052886E+02  0.7816164E-02  0.1300439E+00
        -11   -1    0    0    0    0  0.00000000000E+00  0.00000000000E+00  0.45593999997E+02  0.45594000000E+02  0.51100000000E-03 0.  1.
         11   -1    0    0    0    0 -0.00000000000E+00 -0.00000000000E+00 -0.45593999997E+02  0.45594000000E+02  0.51100000000E-03 0. -1.
    9900012    2    1    2    0    0  0.27918208044E+02  0.13958254301E+02  0.26055829854E+02  0.50528862369E+02  0.30000007657E+02 0.  0.
         12    1    1    2    0    0 -0.27918208044E+02 -0.13958254301E+02 -0.26055829854E+02  0.40659137631E+02  0.00000000000E+00 0. -1.
         11    1    3    3    0    0 -0.13781759597E+01 -0.34325552680E+01  0.35911088439E+01  0.51553726960E+01  0.51100000000E-03 0. -1.
        -11    1    3    3    0    0  0.12893293293E+02  0.11496730741E+02  0.21954851918E+02  0.27936129880E+02  0.51100000000E-03 0.  1.
        -12    1    3    3    0    0  0.16403090710E+02  0.58940788276E+01  0.50986909283E+00  0.17437359793E+02  0.00000000000E+00 0.  1.
</event>
<event>
 7    1  0.5902966E-013  0.5052886E+02  0.7816164E-02  0.1300439E+00
        -11   -1    0    0    0    0  0.00000000000E+00  0.00000000000E+00  0.45593999997E+02  0.45594000000E+02  0.51100000000E-03 0.  1.
         11   -1    0    0    0    0 -0.00000000000E+00 -0.00000000000E+00 -0.45593999997E+02  0.45594000000E+02  0.51100000000E-03 0. -1.
    9900012    2    1    2    0    0  0.17443619978E+02 -0.95226671828E+01  0.35471177121E+02  0.50528862349E+02  0.30000007595E+02 0.  0.
         12    1    1    2    0    0 -0.17443619978E+02  0.95226671828E+01 -0.35471177121E+02  0.40659137651E+02  0.00000000000E+00 0. -1.
         11    1    3    3    0    0  0.74875537769E+00  0.11260270708E+01 -0.37300121684E+01  0.39675638139E+01  0.51100000000E-03 0. -1.
        -11    1    3    3    0    0 -0.28023178031E+01 -0.31336533686E+01  0.58177457222E+01  0.71776691240E+01  0.51100000000E-03 0.  1.
        -12    1    3    3    0    0  0.19497182404E+02 -0.75150408850E+01  0.33383443567E+02  0.39383629411E+02  0.00000000000E+00 0.  1.
</event>
<event>
 7    1  0.5902966E-013  0.5052886E+02  0.7816164E-02  0.1300439E+00
        -11   -1    0    0    0    0  0.00000000000E+00  0.00000000000E+00  0.45593999997E+02  0.45594000000E+02  0.51100000000E-03 0. -1.
         11   -1    0    0    0    0 -0.00000000000E+00 -0.00000000000E+00 -0.45593999997E+02  0.45594000000E+02  0.51100000000E-03 0.  1.
    9900012    2    1    2    0    0 -0.33475134014E+02  0.22538971665E+02  0.49573986636E+01  0.50528860284E+02  0.30000001319E+02 0.  0.
         12    1    1    2    0    0  0.33475134014E+02 -0.22538971665E+02 -0.49573986636E+01  0.40659139716E+02  0.00000000000E+00 0. -1.
         11    1    3    3    0    0 -0.91861826229E+01  0.48343965771E+01  0.40032389752E+01  0.11125792736E+02  0.51100000000E-03 0. -1.
        -11    1    3    3    0    0 -0.26081230534E+02  0.22308935367E+02  0.18962162925E+01  0.34373170058E+02  0.51100000000E-03 0.  1.
        -12    1    3    3    0    0  0.17922791429E+01 -0.46043602796E+01 -0.94205660410E+00  0.50298974896E+01  0.00000000000E+00 0.  1.
</event>
<event>
 7    1  0.5902966E-013  0.5052883E+02  0.7816164E-02  0.1300439E+00
        -11   -1    0    0    0    0  0.00000000000E+00  0.00000000000E+00  0.45593999997E+02  0.45594000000E+02  0.51100000000E-03 0.  1.
         11   -1    0    0    0    0 -0.00000000000E+00 -0.00000000000E+00 -0.45593999997E+02  0.45594000000E+02  0.51100000000E-03 0. -1.
    9900012    2    1    2    0    0 -0.13384547325E+02 -0.12252578048E+02  0.36385382367E+02  0.50528833433E+02  0.29999919703E+02 0.  0.
         12    1    1    2    0    0  0.13384547325E+02  0.12252578048E+02 -0.36385382367E+02  0.40659166567E+02  0.00000000000E+00 0. -1.
         11    1    3    3    0    0 -0.38381031345E+01  0.39579870977E+01  0.29733076444E+00  0.55213316674E+01  0.51100000000E-03 0. -1.
        -11    1    3    3    0    0 -0.12151193524E+02 -0.58664316783E+01  0.99155049836E+01  0.16744663748E+02  0.51100000000E-03 0.  1.
        -12    1    3    3    0    0  0.26047493336E+01 -0.10344133468E+02  0.26172546619E+02  0.28262838017E+02  0.00000000000E+00 0.  1.
</event>
<event>
 7    1  0.5902966E-013  0.5052886E+02  0.7816164E-02  0.1300439E+00
        -11   -1    0    0    0    0  0.00000000000E+00  0.00000000000E+00  0.45593999997E+02  0.45594000000E+02  0.51100000000E-03 0. -1.
         11   -1    0    0    0    0 -0.00000000000E+00 -0.00000000000E+00 -0.45593999997E+02  0.45594000000E+02  0.51100000000E-03 0.  1.
    9900012    2    1    2    0    0  0.29885400614E+02 -0.27400111454E+02 -0.30433547749E+01  0.50528864670E+02  0.30000014650E+02 0.  0.
         12    1    1    2    0    0 -0.29885400614E+02  0.27400111454E+02  0.30433547749E+01  0.40659135330E+02  0.00000000000E+00 0. -1.
         11    1    3    3    0    0  0.17077950502E+02 -0.30991734068E+02 -0.53511645839E+01  0.35787971954E+02  0.51100000000E-03 0.  1.
        -11    1    3    3    0    0  0.34700866970E+01 -0.26793683646E+00 -0.16975564832E+01  0.38723365179E+01  0.51100000000E-03 0. -1.
        -12    1    3    3    0    0  0.93373634145E+01  0.38595594508E+01  0.40053662922E+01  0.10868556198E+02  0.00000000000E+00 0.  1.
</event>
<event>
 7    1  0.5902966E-013  0.5052896E+02  0.7816164E-02  0.1300438E+00
        -11   -1    0    0    0    0  0.00000000000E+00  0.00000000000E+00  0.45593999997E+02  0.45594000000E+02  0.51100000000E-03 0.  1.
         11   -1    0    0    0    0 -0.00000000000E+00 -0.00000000000E+00 -0.45593999997E+02  0.45594000000E+02  0.51100000000E-03 0. -1.
    9900012    2    1    2    0    0 -0.15297155550E+01 -0.19132110957E+01  0.40585185352E+02  0.50528958245E+02  0.30000299081E+02 0.  0.
         12    1    1    2    0    0  0.15297155550E+01  0.19132110957E+01 -0.40585185352E+02  0.40659041755E+02  0.00000000000E+00 0. -1.
         11    1    3    3    0    0 -0.45503527884E+01  0.35795562778E+01 -0.18496701605E+01  0.60778461323E+01  0.51100000000E-03 0. -1.
        -11    1    3    3    0    0 -0.21539733190E+01 -0.59156181813E+01  0.11751568714E+02  0.13331673077E+02  0.51100000000E-03 0.  1.
        -12    1    3    3    0    0  0.51746105524E+01  0.42285080785E+00  0.30683286798E+02  0.31119439036E+02  0.00000000000E+00 0.  1.
</event>
<event>
 7    1  0.5902966E-013  0.5052887E+02  0.7816164E-02  0.1300439E+00
        -11   -1    0    0    0    0  0.00000000000E+00  0.00000000000E+00  0.45593999997E+02  0.45594000000E+02  0.51100000000E-03 0.  1.
         11   -1    0    0    0    0 -0.00000000000E+00 -0.00000000000E+00 -0.45593999997E+02  0.45594000000E+02  0.51100000000E-03 0. -1.
    9900012    2    1    2    0    0 -0.23214657344E+02 -0.17936170015E+02  0.28152064262E+02  0.50528865324E+02  0.30000016638E+02 0.  0.
         12    1    1    2    0    0  0.23214657344E+02  0.17936170015E+02 -0.28152064262E+02  0.40659134676E+02  0.00000000000E+00 0. -1.
         11    1    3    3    0    0 -0.69316247848E+00 -0.25206405277E+01 -0.44302543778E+01  0.51440506417E+01  0.51100000000E-03 0.  1.
        -11    1    3    3    0    0 -0.66970639605E+01 -0.10107827456E+02  0.49371034227E+01  0.13091746715E+02  0.51100000000E-03 0. -1.
        -12    1    3    3    0    0 -0.15824430905E+02 -0.53077020310E+01  0.27645215217E+02  0.32293067967E+02  0.00000000000E+00 0.  1.
</event>
<event>
 7    1  0.5902966E-013  0.5052881E+02  0.7816164E-02  0.1300439E+00
        -11   -1    0    0    0    0  0.00000000000E+00  0.00000000000E+00  0.45593999997E+02  0.45594000000E+02  0.51100000000E-03 0.  1.
         11   -1    0    0    0    0 -0.00000000000E+00 -0.00000000000E+00 -0.45593999997E+02  0.45594000000E+02  0.51100000000E-03 0. -1.
    9900012    2    1    2    0    0 -0.23348190271E+02 -0.32965596086E+02  0.46153257965E+01  0.50528809816E+02  0.29999847915E+02 0.  0.
         12    1    1    2    0    0  0.23348190271E+02  0.32965596086E+02 -0.46153257965E+01  0.40659190184E+02  0.00000000000E+00 0. -1.
         11    1    3    3    0    0 -0.12406095134E+02 -0.12455537039E+02 -0.53087266995E+01  0.18363936910E+02  0.51100000000E-03 0. -1.
        -11    1    3    3    0    0 -0.76006462538E+00 -0.20092876638E+02  0.44370800772E+01  0.20590994869E+02  0.51100000000E-03 0.  1.
        -12    1    3    3    0    0 -0.10182030511E+02 -0.41718241031E+00  0.54869724188E+01  0.11573878037E+02  0.00000000000E+00 0.  1.
</event>
<event>
 7    1  0.5902966E-013  0.5052885E+02  0.7816164E-02  0.1300439E+00
        -11   -1    0    0    0    0  0.00000000000E+00  0.00000000000E+00  0.45593999997E+02  0.45594000000E+02  0.51100000000E-03 0. -1.
         11   -1    0    0    0    0 -0.00000000000E+00 -0.00000000000E+00 -0.45593999997E+02  0.45594000000E+02  0.51100000000E-03 0.  1.
    9900012    2    1    2    0    0  0.26978761493E+02 -0.30393617763E+02  0.12413813620E+01  0.50528848507E+02  0.29999965523E+02 0.  0.
         12    1    1    2    0    0 -0.26978761493E+02  0.30393617763E+02 -0.12413813620E+01  0.40659151493E+02  0.00000000000E+00 0. -1.
         11    1    3    3    0    0  0.16004818323E+02 -0.59323083065E+01 -0.56184204847E+01  0.17969784095E+02  0.51100000000E-03 0. -1.
        -11    1    3    3    0    0 -0.40116540048E+01 -0.60830382706E+01 -0.14540573630E+01  0.74304108589E+01  0.51100000000E-03 0.  1.
        -12    1    3    3    0    0  0.14985597175E+02 -0.18378271186E+02  0.83138592097E+01  0.25128653554E+02  0.00000000000E+00 0.  1.
</event>
<event>
 7    1  0.5902966E-013  0.5052886E+02  0.7816164E-02  0.1300439E+00
        -11   -1    0    0    0    0  0.00000000000E+00  0.00000000000E+00  0.45593999997E+02  0.45594000000E+02  0.51100000000E-03 0.  1.
         11   -1    0    0    0    0 -0.00000000000E+00 -0.00000000000E+00 -0.45593999997E+02  0.45594000000E+02  0.51100000000E-03 0. -1.
    9900012    2    1    2    0    0 -0.30453568165E+02  0.15254518908E+02  0.22204627800E+02  0.50528860107E+02  0.30000000780E+02 0.  0.
         12    1    1    2    0    0  0.30453568165E+02 -0.15254518908E+02 -0.22204627800E+02  0.40659139893E+02  0.00000000000E+00 0. -1.
         11    1    3    3    0    0  0.26257108021E+01  0.26271145882E+01  0.21681959969E+01  0.43008327586E+01  0.51100000000E-03 0. -1.
        -11    1    3    3    0    0 -0.12691262733E+02 -0.57363178399E+01  0.93839812759E+01  0.16793826156E+02  0.51100000000E-03 0.  1.
        -12    1    3    3    0    0 -0.20388016235E+02  0.18363722160E+02  0.10652450528E+02  0.29434201192E+02  0.00000000000E+00 0.  1.
</event>
<event>
 7    1  0.5902966E-013  0.5052887E+02  0.7816164E-02  0.1300439E+00
        -11   -1    0    0    0    0  0.00000000000E+00  0.00000000000E+00  0.45593999997E+02  0.45594000000E+02  0.51100000000E-03 0.  1.
         11   -1    0    0    0    0 -0.00000000000E+00 -0.00000000000E+00 -0.45593999997E+02  0.45594000000E+02  0.51100000000E-03 0. -1.
    9900012    2    1    2    0    0  0.66077796189E+01  0.32046780398E+02  0.24135164258E+02  0.50528867703E+02  0.30000023870E+02 0.  0.
         12    1    1    2    0    0 -0.66077796189E+01 -0.32046780398E+02 -0.24135164258E+02  0.40659132297E+02  0.00000000000E+00 0. -1.
         11    1    3    3    0    0 -0.20182090379E+01  0.11702203499E+02 -0.15411582616E+01  0.11974552330E+02  0.51100000000E-03 0. -1.
        -11    1    3    3    0    0  0.45843312897E+01 -0.19558610872E+01  0.10634539281E+01  0.50963144020E+01  0.51100000000E-03 0.  1.
        -12    1    3    3    0    0  0.40416573672E+01  0.22300437987E+02  0.24612868592E+02  0.33458000971E+02  0.00000000000E+00 0.  1.
</event>
<event>
 7    1  0.5902966E-013  0.5052887E+02  0.7816164E-02  0.1300439E+00
        -11   -1    0    0    0    0  0.00000000000E+00  0.00000000000E+00  0.45593999997E+02  0.45594000000E+02  0.51100000000E-03 0.  1.
         11   -1    0    0    0    0 -0.00000000000E+00 -0.00000000000E+00 -0.45593999997E+02  0.45594000000E+02  0.51100000000E-03 0. -1.
    9900012    2    1    2    0    0 -0.27604523687E+02 -0.52055532409E+01  0.29394856662E+02  0.50528866823E+02  0.30000021194E+02 0.  0.
         12    1    1    2    0    0  0.27604523687E+02  0.52055532409E+01 -0.29394856662E+02  0.40659133177E+02  0.00000000000E+00 0. -1.
         11    1    3    3    0    0 -0.11567869474E+01 -0.58230726631E+01  0.11923323142E+02  0.13319608338E+02  0.51100000000E-03 0. -1.
        -11    1    3    3    0    0 -0.22495323275E+02 -0.73953381752E+01  0.10630916561E+02  0.25956636592E+02  0.51100000000E-03 0.  1.
         12    1    3    3    0    0 -0.39524134649E+01  0.80128575974E+01  0.68406169598E+01  0.11252621893E+02  0.00000000000E+00 0. -1.
</event>
<event>
 7    1  0.5902966E-013  0.5052886E+02  0.7816164E-02  0.1300439E+00
        -11   -1    0    0    0    0  0.00000000000E+00  0.00000000000E+00  0.45593999997E+02  0.45594000000E+02  0.51100000000E-03 0.  1.
         11   -1    0    0    0    0 -0.00000000000E+00 -0.00000000000E+00 -0.45593999997E+02  0.45594000000E+02  0.51100000000E-03 0. -1.
    9900012    2    1    2    0    0 -0.12003487072E+02 -0.32897030671E+02  0.20660771022E+02  0.50528858493E+02  0.29999995875E+02 0.  0.
         12    1    1    2    0    0  0.12003487072E+02  0.32897030671E+02 -0.20660771022E+02  0.40659141507E+02  0.00000000000E+00 0. -1.
         11    1    3    3    0    0  0.38446525233E+01 -0.70484853393E+01  0.88402711962E+01  0.11942064046E+02  0.51100000000E-03 0. -1.
        -11    1    3    3    0    0 -0.94518273844E+00 -0.62779969569E+01 -0.55826814440E+01  0.84541675265E+01  0.51100000000E-03 0.  1.
        -12    1    3    3    0    0 -0.14902956857E+02 -0.19570548375E+02  0.17403181270E+02  0.30132626920E+02  0.00000000000E+00 0.  1.
</event>
<event>
 7    1  0.5902966E-013  0.5052885E+02  0.7816164E-02  0.1300439E+00
        -11   -1    0    0    0    0  0.00000000000E+00  0.00000000000E+00  0.45593999997E+02  0.45594000000E+02  0.51100000000E-03 0. -1.
         11   -1    0    0    0    0 -0.00000000000E+00 -0.00000000000E+00 -0.45593999997E+02  0.45594000000E+02  0.51100000000E-03 0.  1.
    9900012    2    1    2    0    0  0.28098417996E+02  0.62612866494E+01 -0.28713097165E+02  0.50528846625E+02  0.29999959801E+02 0.  0.
         12    1    1    2    0    0 -0.28098417996E+02 -0.62612866494E+01  0.28713097165E+02  0.40659153375E+02  0.00000000000E+00 0. -1.
         11    1    3    3    0    0  0.99709977293E+01  0.83363454907E+01 -0.48668655867E+01  0.13878106238E+02  0.51100000000E-03 0. -1.
        -11    1    3    3    0    0  0.77406864091E+01  0.18944047475E+01 -0.24248134770E+02  0.25524087359E+02  0.51100000000E-03 0.  1.
         12    1    3    3    0    0  0.10386733858E+02 -0.39694635888E+01  0.40190319208E+00  0.11126653027E+02  0.00000000000E+00 0. -1.
</event>
<event>
 7    1  0.5902966E-013  0.5052886E+02  0.7816164E-02  0.1300439E+00
        -11   -1    0    0    0    0  0.00000000000E+00  0.00000000000E+00  0.45593999997E+02  0.45594000000E+02  0.51100000000E-03 0.  1.
         11   -1    0    0    0    0 -0.00000000000E+00 -0.00000000000E+00 -0.45593999997E+02  0.45594000000E+02  0.51100000000E-03 0. -1.
    9900012    2    1    2    0    0 -0.23764877214E+02 -0.62212824088E+01  0.32398952329E+02  0.50528857660E+02  0.29999993342E+02 0.  0.
         12    1    1    2    0    0  0.23764877214E+02  0.62212824088E+01 -0.32398952329E+02  0.40659142340E+02  0.00000000000E+00 0. -1.
         11    1    3    3    0    0  0.16125940915E+01 -0.72871047945E+01  0.33502130409E+01  0.81808485911E+01  0.51100000000E-03 0. -1.
        -11    1    3    3    0    0 -0.17489794642E+02 -0.24593059585E+01  0.76055944108E+01  0.19229824987E+02  0.51100000000E-03 0.  1.
        -12    1    3    3    0    0 -0.78876766636E+01  0.35251283442E+01  0.21443144877E+02  0.23118184082E+02  0.00000000000E+00 0.  1.
</event>
<event>
 7    1  0.5902966E-013  0.5052885E+02  0.7816164E-02  0.1300439E+00
        -11   -1    0    0    0    0  0.00000000000E+00  0.00000000000E+00  0.45593999997E+02  0.45594000000E+02  0.51100000000E-03 0.  1.
         11   -1    0    0    0    0 -0.00000000000E+00 -0.00000000000E+00 -0.45593999997E+02  0.45594000000E+02  0.51100000000E-03 0. -1.
    9900012    2    1    2    0    0 -0.26417211488E+02 -0.30089507861E+01  0.30761072505E+02  0.50528850608E+02  0.29999971909E+02 0.  0.
         12    1    1    2    0    0  0.26417211488E+02  0.30089507861E+01 -0.30761072505E+02  0.40659149392E+02  0.00000000000E+00 0. -1.
         11    1    3    3    0    0 -0.70859988794E+01 -0.50087482778E+01  0.12365861408E+02  0.15106735850E+02  0.51100000000E-03 0. -1.
        -11    1    3    3    0    0 -0.13341141532E+02  0.58867266394E+01  0.22776432579E+02  0.27044509410E+02  0.51100000000E-03 0.  1.
         12    1    3    3    0    0 -0.59900710763E+01 -0.38869291478E+01 -0.43812214821E+01  0.83776053485E+01  0.00000000000E+00 0. -1.
</event>
<event>
 7    1  0.5902966E-013  0.5052886E+02  0.7816164E-02  0.1300439E+00
        -11   -1    0    0    0    0  0.00000000000E+00  0.00000000000E+00  0.45593999997E+02  0.45594000000E+02  0.51100000000E-03 0.  1.
         11   -1    0    0    0    0 -0.00000000000E+00 -0.00000000000E+00 -0.45593999997E+02  0.45594000000E+02  0.51100000000E-03 0. -1.
    9900012    2    1    2    0    0  0.37993938837E+02 -0.13860054382E+01 -0.14411986233E+02  0.50528859003E+02  0.29999997425E+02 0.  0.
         12    1    1    2    0    0 -0.37993938837E+02  0.13860054382E+01  0.14411986233E+02  0.40659140997E+02  0.00000000000E+00 0. -1.
         11    1    3    3    0    0  0.17388586789E+02  0.26509493204E+01 -0.89340844400E+01  0.19728364044E+02  0.51100000000E-03 0. -1.
        -11    1    3    3    0    0  0.13747098295E+02  0.80361603915E+01 -0.57015251647E+01  0.16913603248E+02  0.51100000000E-03 0.  1.
        -12    1    3    3    0    0  0.68582537532E+01 -0.12073115150E+02  0.22362337180E+00  0.13886891711E+02  0.00000000000E+00 0.  1.
</event>
<event>
 7    1  0.5902966E-013  0.5052885E+02  0.7816164E-02  0.1300439E+00
        -11   -1    0    0    0    0  0.00000000000E+00  0.00000000000E+00  0.45593999997E+02  0.45594000000E+02  0.51100000000E-03 0.  1.
         11   -1    0    0    0    0 -0.00000000000E+00 -0.00000000000E+00 -0.45593999997E+02  0.45594000000E+02  0.51100000000E-03 0. -1.
    9900012    2    1    2    0    0  0.24896374867E+02 -0.20274842189E+02  0.24945289701E+02  0.50528853605E+02  0.29999981016E+02 0.  0.
         12    1    1    2    0    0 -0.24896374867E+02  0.20274842189E+02 -0.24945289701E+02  0.40659146395E+02  0.00000000000E+00 0. -1.
         11    1    3    3    0    0  0.46055590715E+01 -0.55746312181E+01  0.57218337051E+01  0.92210123517E+01  0.51100000000E-03 0. -1.
        -11    1    3    3    0    0  0.78731192799E+01  0.31777330874E+01  0.17526173594E+02  0.19474361502E+02  0.51100000000E-03 0.  1.
        -12    1    3    3    0    0  0.12417696516E+02 -0.17877944058E+02  0.16972824020E+01  0.21833479751E+02  0.00000000000E+00 0.  1.
</event>
<event>
 7    1  0.5902966E-013  0.5052886E+02  0.7816164E-02  0.1300439E+00
        -11   -1    0    0    0    0  0.00000000000E+00  0.00000000000E+00  0.45593999997E+02  0.45594000000E+02  0.51100000000E-03 0. -1.
         11   -1    0    0    0    0 -0.00000000000E+00 -0.00000000000E+00 -0.45593999997E+02  0.45594000000E+02  0.51100000000E-03 0.  1.
    9900012    2    1    2    0    0 -0.38170727603E+02 -0.13968820844E+02 -0.10166903192E+01  0.50528855141E+02  0.29999985686E+02 0.  0.
         12    1    1    2    0    0  0.38170727603E+02  0.13968820844E+02  0.10166903192E+01  0.40659144859E+02  0.00000000000E+00 0. -1.
         11    1    3    3    0    0 -0.53981608019E+01 -0.65829015673E+01  0.57905641533E+01  0.10295890761E+02  0.51100000000E-03 0. -1.
        -11    1    3    3    0    0 -0.13369942847E+02 -0.13548349280E+02 -0.55922163353E+01  0.19839002590E+02  0.51100000000E-03 0.  1.
         12    1    3    3    0    0 -0.19402623954E+02  0.61624300030E+01 -0.12150381371E+01  0.20393961790E+02  0.00000000000E+00 0. -1.
</event>
<event>
 7    1  0.5902966E-013  0.5052886E+02  0.7816164E-02  0.1300439E+00
        -11   -1    0    0    0    0  0.00000000000E+00  0.00000000000E+00  0.45593999997E+02  0.45594000000E+02  0.51100000000E-03 0.  1.
         11   -1    0    0    0    0 -0.00000000000E+00 -0.00000000000E+00 -0.45593999997E+02  0.45594000000E+02  0.51100000000E-03 0. -1.
    9900012    2    1    2    0    0  0.49937480336E+01 -0.37997043166E+02  0.13581338112E+02  0.50528861376E+02  0.30000004638E+02 0.  0.
         12    1    1    2    0    0 -0.49937480336E+01  0.37997043166E+02 -0.13581338112E+02  0.40659138624E+02  0.00000000000E+00 0. -1.
         11    1    3    3    0    0 -0.30159413501E+01 -0.10223154857E+02  0.13160553412E+01  0.10739683393E+02  0.51100000000E-03 0. -1.
        -11    1    3    3    0    0  0.84813605609E+00 -0.30098270521E+02  0.11458328754E+02  0.32216742872E+02  0.51100000000E-03 0.  1.
         12    1    3    3    0    0  0.71615533276E+01  0.23243822125E+01  0.80695401634E+00  0.75724351115E+01  0.00000000000E+00 0. -1.
</event>
<event>
 7    1  0.5902966E-013  0.5052886E+02  0.7816164E-02  0.1300439E+00
        -11   -1    0    0    0    0  0.00000000000E+00  0.00000000000E+00  0.45593999997E+02  0.45594000000E+02  0.51100000000E-03 0.  1.
         11   -1    0    0    0    0 -0.00000000000E+00 -0.00000000000E+00 -0.45593999997E+02  0.45594000000E+02  0.51100000000E-03 0. -1.
    9900012    2    1    2    0    0  0.49912257431E+01 -0.55190353416E+01  0.39972412071E+02  0.50528858195E+02  0.29999994970E+02 0.  0.
         12    1    1    2    0    0 -0.49912257431E+01  0.55190353416E+01 -0.39972412071E+02  0.40659141805E+02  0.00000000000E+00 0. -1.
         11    1    3    3    0    0 -0.54716708096E+01 -0.70796677786E+01  0.13638418049E+02  0.16311570263E+02  0.51100000000E-03 0.  1.
        -11    1    3    3    0    0  0.12385758788E+02 -0.34876021019E+01  0.25747185346E+02  0.28783466481E+02  0.51100000000E-03 0. -1.
         12    1    3    3    0    0 -0.19228622350E+01  0.50482345389E+01  0.58680867562E+00  0.54338214505E+01  0.00000000000E+00 0. -1.
</event>
<event>
 7    1  0.5902966E-013  0.5052891E+02  0.7816164E-02  0.1300439E+00
        -11   -1    0    0    0    0  0.00000000000E+00  0.00000000000E+00  0.45593999997E+02  0.45594000000E+02  0.51100000000E-03 0.  1.
         11   -1    0    0    0    0 -0.00000000000E+00 -0.00000000000E+00 -0.45593999997E+02  0.45594000000E+02  0.51100000000E-03 0. -1.
    9900012    2    1    2    0    0  0.28006328430E+02 -0.23891416764E+02 -0.17262895228E+02  0.50528907798E+02  0.30000145741E+02 0.  0.
         12    1    1    2    0    0 -0.28006328430E+02  0.23891416764E+02  0.17262895228E+02  0.40659092202E+02  0.00000000000E+00 0. -1.
         11    1    3    3    0    0 -0.66386360639E+00 -0.10522380756E+02 -0.76501652202E+01  0.13026367100E+02  0.51100000000E-03 0. -1.
        -11    1    3    3    0    0  0.14878221355E+02 -0.17720337190E+01 -0.12168942887E+02  0.19302454389E+02  0.51100000000E-03 0.  1.
        -12    1    3    3    0    0  0.13791970681E+02 -0.11597002288E+02  0.25562128799E+01  0.18200086308E+02  0.00000000000E+00 0.  1.
</event>
<event>
 7    1  0.5902966E-013  0.5052889E+02  0.7816164E-02  0.1300439E+00
        -11   -1    0    0    0    0  0.00000000000E+00  0.00000000000E+00  0.45593999997E+02  0.45594000000E+02  0.51100000000E-03 0.  1.
         11   -1    0    0    0    0 -0.00000000000E+00 -0.00000000000E+00 -0.45593999997E+02  0.45594000000E+02  0.51100000000E-03 0. -1.
    9900012    2    1    2    0    0  0.16941659874E+02  0.10088087629E+02  0.35558033402E+02  0.50528891663E+02  0.30000096699E+02 0.  0.
         12    1    1    2    0    0 -0.16941659874E+02 -0.10088087629E+02 -0.35558033402E+02  0.40659108337E+02  0.00000000000E+00 0. -1.
         11    1    3    3    0    0  0.54384763778E+01  0.11651250969E+02  0.10417657317E+02  0.16548602923E+02  0.51100000000E-03 0. -1.
        -11    1    3    3    0    0  0.98004731111E+01  0.51830093610E+01  0.24622461560E+02  0.27003304849E+02  0.51100000000E-03 0.  1.
         12    1    3    3    0    0  0.17027103852E+01 -0.67461727006E+01  0.51791452495E+00  0.69769838912E+01  0.00000000000E+00 0. -1.
</event>
<event>
 7    1  0.5902966E-013  0.5052886E+02  0.7816164E-02  0.1300439E+00
        -11   -1    0    0    0    0  0.00000000000E+00  0.00000000000E+00  0.45593999997E+02  0.45594000000E+02  0.51100000000E-03 0.  1.
         11   -1    0    0    0    0 -0.00000000000E+00 -0.00000000000E+00 -0.45593999997E+02  0.45594000000E+02  0.51100000000E-03 0. -1.
    9900012    2    1    2    0    0  0.12558845101E+02 -0.78457628740E+01  0.37866671676E+02  0.50528863153E+02  0.30000010039E+02 0.  0.
         12    1    1    2    0    0 -0.12558845101E+02  0.78457628740E+01 -0.37866671676E+02  0.40659136847E+02  0.00000000000E+00 0. -1.
         11    1    3    3    0    0  0.10524086219E+02 -0.82675884946E+01  0.24406290200E+01  0.13603899461E+02  0.51100000000E-03 0. -1.
        -11    1    3    3    0    0  0.20494905271E+01  0.38436685833E+01  0.66721342948E+01  0.79681601332E+01  0.51100000000E-03 0.  1.
        -12    1    3    3    0    0 -0.14731645331E-01 -0.34218429628E+01  0.28753908361E+02  0.28956803559E+02  0.00000000000E+00 0.  1.
</event>
<event>
 7    1  0.5902966E-013  0.5052886E+02  0.7816164E-02  0.1300439E+00
        -11   -1    0    0    0    0  0.00000000000E+00  0.00000000000E+00  0.45593999997E+02  0.45594000000E+02  0.51100000000E-03 0. -1.
         11   -1    0    0    0    0 -0.00000000000E+00 -0.00000000000E+00 -0.45593999997E+02  0.45594000000E+02  0.51100000000E-03 0.  1.
    9900012    2    1    2    0    0  0.34543869940E+02 -0.18370845343E+02 -0.11063406818E+02  0.50528857369E+02  0.29999992459E+02 0.  0.
         12    1    1    2    0    0 -0.34543869940E+02  0.18370845343E+02  0.11063406818E+02  0.40659142631E+02  0.00000000000E+00 0. -1.
         11    1    3    3    0    0  0.21522703296E+02 -0.15202821984E+02 -0.32921992024E+01  0.26555435024E+02  0.51100000000E-03 0. -1.
        -11    1    3    3    0    0  0.12862853159E+02 -0.67165596718E+01 -0.11726844277E+02  0.18657010536E+02  0.51100000000E-03 0.  1.
         12    1    3    3    0    0  0.15831348593E+00  0.35485363132E+01  0.39556366614E+01  0.53164118090E+01  0.00000000000E+00 0. -1.
</event>
<event>
 7    1  0.5902966E-013  0.5052888E+02  0.7816164E-02  0.1300439E+00
        -11   -1    0    0    0    0  0.00000000000E+00  0.00000000000E+00  0.45593999997E+02  0.45594000000E+02  0.51100000000E-03 0.  1.
         11   -1    0    0    0    0 -0.00000000000E+00 -0.00000000000E+00 -0.45593999997E+02  0.45594000000E+02  0.51100000000E-03 0. -1.
    9900012    2    1    2    0    0 -0.13305005599E+02  0.31037036666E+02  0.22646047593E+02  0.50528876908E+02  0.30000051850E+02 0.  0.
         12    1    1    2    0    0  0.13305005599E+02 -0.31037036666E+02 -0.22646047593E+02  0.40659123092E+02  0.00000000000E+00 0. -1.
         11    1    3    3    0    0 -0.80145016882E+01  0.12175130282E+02  0.24775056920E+02  0.28744903554E+02  0.51100000000E-03 0.  1.
        -11    1    3    3    0    0  0.16428241330E+01  0.11250266875E+02 -0.15092221626E+01  0.11469312433E+02  0.51100000000E-03 0. -1.
        -12    1    3    3    0    0 -0.69333280438E+01  0.76116395088E+01 -0.61978716427E+00  0.10314660920E+02  0.00000000000E+00 0.  1.
</event>
<event>
 7    1  0.5902966E-013  0.5052886E+02  0.7816164E-02  0.1300439E+00
        -11   -1    0    0    0    0  0.00000000000E+00  0.00000000000E+00  0.45593999997E+02  0.45594000000E+02  0.51100000000E-03 0. -1.
         11   -1    0    0    0    0 -0.00000000000E+00 -0.00000000000E+00 -0.45593999997E+02  0.45594000000E+02  0.51100000000E-03 0.  1.
    9900012    2    1    2    0    0  0.38714474025E+02  0.11368346868E+02 -0.50116103988E+01  0.50528855293E+02  0.29999986149E+02 0.  0.
         12    1    1    2    0    0 -0.38714474025E+02 -0.11368346868E+02  0.50116103988E+01  0.40659144707E+02  0.00000000000E+00 0. -1.
         11    1    3    3    0    0  0.14531936718E+02 -0.15893711779E+01  0.47373687623E+01  0.15367040983E+02  0.51100000000E-03 0. -1.
        -11    1    3    3    0    0  0.10455671627E+02 -0.28161155129E+01 -0.92568381280E+01  0.14245723153E+02  0.51100000000E-03 0.  1.
         12    1    3    3    0    0  0.13726865680E+02  0.15773833558E+02 -0.49214103313E+00  0.20916091157E+02  0.00000000000E+00 0. -1.
</event>
<event>
 7    1  0.5902966E-013  0.5052885E+02  0.7816164E-02  0.1300439E+00
        -11   -1    0    0    0    0  0.00000000000E+00  0.00000000000E+00  0.45593999997E+02  0.45594000000E+02  0.51100000000E-03 0. -1.
         11   -1    0    0    0    0 -0.00000000000E+00 -0.00000000000E+00 -0.45593999997E+02  0.45594000000E+02  0.51100000000E-03 0.  1.
    9900012    2    1    2    0    0 -0.25592962423E+02 -0.30561028931E+02  0.80118620311E+01  0.50528854066E+02  0.29999982418E+02 0.  0.
         12    1    1    2    0    0  0.25592962423E+02  0.30561028931E+02 -0.80118620311E+01  0.40659145934E+02  0.00000000000E+00 0. -1.
         11    1    3    3    0    0 -0.87646062353E+01 -0.81110721114E+00 -0.51603336999E+01  0.10203198593E+02  0.51100000000E-03 0. -1.
        -11    1    3    3    0    0 -0.81809850705E+01 -0.23630952835E+02  0.22467005837E+01  0.25107730133E+02  0.51100000000E-03 0.  1.
         12    1    3    3    0    0 -0.86473711168E+01 -0.61189688849E+01  0.10925495147E+02  0.15217925340E+02  0.00000000000E+00 0. -1.
</event>
<event>
 7    1  0.5902966E-013  0.5052886E+02  0.7816164E-02  0.1300439E+00
        -11   -1    0    0    0    0  0.00000000000E+00  0.00000000000E+00  0.45593999997E+02  0.45594000000E+02  0.51100000000E-03 0. -1.
         11   -1    0    0    0    0 -0.00000000000E+00 -0.00000000000E+00 -0.45593999997E+02  0.45594000000E+02  0.51100000000E-03 0.  1.
    9900012    2    1    2    0    0  0.27902069256E+02  0.24477026582E+02 -0.16598664487E+02  0.50528856356E+02  0.29999989381E+02 0.  0.
         12    1    1    2    0    0 -0.27902069256E+02 -0.24477026582E+02  0.16598664487E+02  0.40659143644E+02  0.00000000000E+00 0. -1.
         11    1    3    3    0    0  0.24793895380E+02  0.69827518886E+01 -0.29614283478E+01  0.25928095383E+02  0.51100000000E-03 0. -1.
        -11    1    3    3    0    0 -0.14182401628E+01  0.39228526684E-01  0.68231839284E+00  0.15743261057E+01  0.51100000000E-03 0.  1.
        -12    1    3    3    0    0  0.45264140389E+01  0.17455046166E+02 -0.14319554532E+02  0.23026434868E+02  0.00000000000E+00 0.  1.
</event>
<event>
 7    1  0.5902966E-013  0.5052886E+02  0.7816164E-02  0.1300439E+00
        -11   -1    0    0    0    0  0.00000000000E+00  0.00000000000E+00  0.45593999997E+02  0.45594000000E+02  0.51100000000E-03 0.  1.
         11   -1    0    0    0    0 -0.00000000000E+00 -0.00000000000E+00 -0.45593999997E+02  0.45594000000E+02  0.51100000000E-03 0. -1.
    9900012    2    1    2    0    0  0.19409470274E+02  0.43650177255E+01  0.35459620218E+02  0.50528861027E+02  0.30000003577E+02 0.  0.
         12    1    1    2    0    0 -0.19409470274E+02 -0.43650177255E+01 -0.35459620218E+02  0.40659138973E+02  0.00000000000E+00 0. -1.
         11    1    3    3    0    0 -0.19121181210E+01  0.48725879826E+01  0.14534316433E+01  0.54323819048E+01  0.51100000000E-03 0. -1.
        -11    1    3    3    0    0 -0.12059755480E+01 -0.55788056541E+01  0.11565447750E+02  0.12897171452E+02  0.51100000000E-03 0.  1.
        -12    1    3    3    0    0  0.22527563943E+02  0.50712353970E+01  0.22440740824E+02  0.32199307669E+02  0.00000000000E+00 0.  1.
</event>
<event>
 7    1  0.5902966E-013  0.5052886E+02  0.7816164E-02  0.1300439E+00
        -11   -1    0    0    0    0  0.00000000000E+00  0.00000000000E+00  0.45593999997E+02  0.45594000000E+02  0.51100000000E-03 0.  1.
         11   -1    0    0    0    0 -0.00000000000E+00 -0.00000000000E+00 -0.45593999997E+02  0.45594000000E+02  0.51100000000E-03 0. -1.
    9900012    2    1    2    0    0 -0.52243982516E+01  0.18396181418E+01  0.40280107623E+02  0.50528860779E+02  0.30000002825E+02 0.  0.
         12    1    1    2    0    0  0.52243982516E+01 -0.18396181418E+01 -0.40280107623E+02  0.40659139221E+02  0.00000000000E+00 0. -1.
         11    1    3    3    0    0 -0.68347066294E+01 -0.39966939040E+01  0.27283671418E+02  0.28409250310E+02  0.51100000000E-03 0.  1.
        -11    1    3    3    0    0  0.70517137990E+00  0.10565334163E+02  0.13633745321E+02  0.17262750777E+02  0.51100000000E-03 0. -1.
        -12    1    3    3    0    0  0.90513699789E+00 -0.47290221172E+01 -0.63730911490E+00  0.48568596930E+01  0.00000000000E+00 0.  1.
</event>
<event>
 7    1  0.5902966E-013  0.5052885E+02  0.7816164E-02  0.1300439E+00
        -11   -1    0    0    0    0  0.00000000000E+00  0.00000000000E+00  0.45593999997E+02  0.45594000000E+02  0.51100000000E-03 0.  1.
         11   -1    0    0    0    0 -0.00000000000E+00 -0.00000000000E+00 -0.45593999997E+02  0.45594000000E+02  0.51100000000E-03 0. -1.
    9900012    2    1    2    0    0  0.26338139314E+02 -0.29622869144E+02  0.90528527499E+01  0.50528854636E+02  0.29999984152E+02 0.  0.
         12    1    1    2    0    0 -0.26338139314E+02  0.29622869144E+02 -0.90528527499E+01  0.40659145364E+02  0.00000000000E+00 0. -1.
         11    1    3    3    0    0  0.18160142451E+01 -0.28961381940E+01  0.73161664568E+01  0.80753833384E+01  0.51100000000E-03 0. -1.
        -11    1    3    3    0    0  0.13811513821E+02 -0.25940293710E+00  0.15488079978E+01  0.13900503962E+02  0.51100000000E-03 0.  1.
         12    1    3    3    0    0  0.10710611247E+02 -0.26467328013E+02  0.18787829532E+00  0.28552967336E+02  0.00000000000E+00 0. -1.
</event>
<event>
 7    1  0.5902966E-013  0.5052886E+02  0.7816164E-02  0.1300439E+00
        -11   -1    0    0    0    0  0.00000000000E+00  0.00000000000E+00  0.45593999997E+02  0.45594000000E+02  0.51100000000E-03 0.  1.
         11   -1    0    0    0    0 -0.00000000000E+00 -0.00000000000E+00 -0.45593999997E+02  0.45594000000E+02  0.51100000000E-03 0. -1.
    9900012    2    1    2    0    0 -0.37888398860E+02 -0.15871553094E+01  0.14666819461E+02  0.50528862979E+02  0.30000009512E+02 0.  0.
         12    1    1    2    0    0  0.37888398860E+02  0.15871553094E+01 -0.14666819461E+02  0.40659137021E+02  0.00000000000E+00 0. -1.
         11    1    3    3    0    0 -0.82426493560E+00  0.38925664612E+01 -0.14818338840E+01  0.42458589543E+01  0.51100000000E-03 0. -1.
        -11    1    3    3    0    0 -0.16101031663E+02  0.76209470968E+01  0.11290236500E+02  0.21090080506E+02  0.51100000000E-03 0.  1.
         12    1    3    3    0    0 -0.20963102261E+02 -0.13100668867E+02  0.48584168460E+01  0.25192923519E+02  0.00000000000E+00 0. -1.
</event>
<event>
 7    1  0.5902966E-013  0.5052885E+02  0.7816164E-02  0.1300439E+00
        -11   -1    0    0    0    0  0.00000000000E+00  0.00000000000E+00  0.45593999997E+02  0.45594000000E+02  0.51100000000E-03 0.  1.
         11   -1    0    0    0    0 -0.00000000000E+00 -0.00000000000E+00 -0.45593999997E+02  0.45594000000E+02  0.51100000000E-03 0. -1.
    9900012    2    1    2    0    0  0.19814570694E+02  0.13857721090E+02  0.32688109983E+02  0.50528853675E+02  0.29999981230E+02 0.  0.
         12    1    1    2    0    0 -0.19814570694E+02 -0.13857721090E+02 -0.32688109983E+02  0.40659146325E+02  0.00000000000E+00 0. -1.
         11    1    3    3    0    0 -0.47806037741E+01  0.12974542192E+00  0.18066434673E+01  0.51122370053E+01  0.51100000000E-03 0. -1.
        -11    1    3    3    0    0  0.10673102127E+02  0.14068309881E+02  0.24233681219E+02  0.29985058906E+02  0.51100000000E-03 0.  1.
        -12    1    3    3    0    0  0.13922072341E+02 -0.34033421203E+00  0.66477852970E+01  0.15431557763E+02  0.00000000000E+00 0.  1.
</event>
<event>
 7    1  0.5902966E-013  0.5052871E+02  0.7816164E-02  0.1300439E+00
        -11   -1    0    0    0    0  0.00000000000E+00  0.00000000000E+00  0.45593999997E+02  0.45594000000E+02  0.51100000000E-03 0. -1.
         11   -1    0    0    0    0 -0.00000000000E+00 -0.00000000000E+00 -0.45593999997E+02  0.45594000000E+02  0.51100000000E-03 0.  1.
    9900012    2    1    2    0    0 -0.66932020946E+01 -0.38551902298E+02  0.11051219620E+02  0.50528713482E+02  0.29999555096E+02 0.  0.
         12    1    1    2    0    0  0.66932020946E+01  0.38551902298E+02 -0.11051219620E+02  0.40659286518E+02  0.00000000000E+00 0. -1.
         11    1    3    3    0    0 -0.18644067758E+01 -0.16626859355E+02 -0.80309887588E+01  0.18558697296E+02  0.51100000000E-03 0. -1.
        -11    1    3    3    0    0 -0.30869626952E+01 -0.15825947910E+02  0.55977840650E+01  0.17068249841E+02  0.51100000000E-03 0.  1.
         12    1    3    3    0    0 -0.17418326235E+01 -0.60990950331E+01  0.13484424314E+02  0.14901766344E+02  0.00000000000E+00 0. -1.
</event>
<event>
 7    1  0.5902966E-013  0.5052886E+02  0.7816164E-02  0.1300439E+00
        -11   -1    0    0    0    0  0.00000000000E+00  0.00000000000E+00  0.45593999997E+02  0.45594000000E+02  0.51100000000E-03 0. -1.
         11   -1    0    0    0    0 -0.00000000000E+00 -0.00000000000E+00 -0.45593999997E+02  0.45594000000E+02  0.51100000000E-03 0.  1.
    9900012    2    1    2    0    0  0.17065411263E+02 -0.33698814842E+02 -0.15044183478E+02  0.50528857856E+02  0.29999993940E+02 0.  0.
         12    1    1    2    0    0 -0.17065411263E+02  0.33698814842E+02  0.15044183478E+02  0.40659142144E+02  0.00000000000E+00 0. -1.
         11    1    3    3    0    0  0.20509960629E+01 -0.11258840687E+02 -0.76181854243E+01  0.13747902672E+02  0.51100000000E-03 0. -1.
        -11    1    3    3    0    0  0.12137809797E+01 -0.17544656752E+02  0.42030357311E+01  0.18081862582E+02  0.51100000000E-03 0.  1.
         12    1    3    3    0    0  0.13800634220E+02 -0.48953174022E+01 -0.11629033785E+02  0.18699092602E+02  0.00000000000E+00 0. -1.
</event>
<event>
 7    1  0.5902966E-013  0.5052886E+02  0.7816164E-02  0.1300439E+00
        -11   -1    0    0    0    0  0.00000000000E+00  0.00000000000E+00  0.45593999997E+02  0.45594000000E+02  0.51100000000E-03 0.  1.
         11   -1    0    0    0    0 -0.00000000000E+00 -0.00000000000E+00 -0.45593999997E+02  0.45594000000E+02  0.51100000000E-03 0. -1.
    9900012    2    1    2    0    0 -0.22143508754E+02 -0.32951687399E+02  0.87759156877E+01  0.50528863530E+02  0.30000011185E+02 0.  0.
         12    1    1    2    0    0  0.22143508754E+02  0.32951687399E+02 -0.87759156877E+01  0.40659136470E+02  0.00000000000E+00 0. -1.
         11    1    3    3    0    0 -0.33994192611E+00 -0.95331158404E+01 -0.48242230563E+01  0.10689667277E+02  0.51100000000E-03 0. -1.
        -11    1    3    3    0    0 -0.82783965100E+00 -0.12281520395E+02  0.99150564738E+01  0.15805992751E+02  0.51100000000E-03 0.  1.
         12    1    3    3    0    0 -0.20975727177E+02 -0.11137051164E+02  0.36850822702E+01  0.24033203502E+02  0.00000000000E+00 0. -1.
</event>
<event>
 7    1  0.5902966E-013  0.5052886E+02  0.7816164E-02  0.1300439E+00
        -11   -1    0    0    0    0  0.00000000000E+00  0.00000000000E+00  0.45593999997E+02  0.45594000000E+02  0.51100000000E-03 0.  1.
         11   -1    0    0    0    0 -0.00000000000E+00 -0.00000000000E+00 -0.45593999997E+02  0.45594000000E+02  0.51100000000E-03 0. -1.
    9900012    2    1    2    0    0 -0.15157895365E+02  0.11215670754E+01  0.37711349208E+02  0.50528861253E+02  0.30000004264E+02 0.  0.
         12    1    1    2    0    0  0.15157895365E+02 -0.11215670754E+01 -0.37711349208E+02  0.40659138747E+02  0.00000000000E+00 0. -1.
         11    1    3    3    0    0  0.11166136766E+01  0.51180984818E+01 -0.68706007059E+00  0.52833521531E+01  0.51100000000E-03 0. -1.
        -11    1    3    3    0    0 -0.88448145698E+01 -0.76942716523E+01  0.92334586787E+01  0.14922778577E+02  0.51100000000E-03 0.  1.
        -12    1    3    3    0    0 -0.74296944720E+01  0.36977402459E+01  0.29164950599E+02  0.30322730523E+02  0.00000000000E+00 0.  1.
</event>
<event>
 7    1  0.5902966E-013  0.5052886E+02  0.7816164E-02  0.1300439E+00
        -11   -1    0    0    0    0  0.00000000000E+00  0.00000000000E+00  0.45593999997E+02  0.45594000000E+02  0.51100000000E-03 0.  1.
         11   -1    0    0    0    0 -0.00000000000E+00 -0.00000000000E+00 -0.45593999997E+02  0.45594000000E+02  0.51100000000E-03 0. -1.
    9900012    2    1    2    0    0  0.85896035267E+01 -0.32980626761E+02  0.22173465619E+02  0.50528860710E+02  0.30000002613E+02 0.  0.
         12    1    1    2    0    0 -0.85896035267E+01  0.32980626761E+02 -0.22173465619E+02  0.40659139290E+02  0.00000000000E+00 0. -1.
         11    1    3    3    0    0  0.45569540908E+01 -0.39986784497E+01 -0.14279620640E+01  0.62285099219E+01  0.51100000000E-03 0. -1.
        -11    1    3    3    0    0 -0.46065067465E+01  0.20426047897E+01  0.50513331079E+01  0.71349916020E+01  0.51100000000E-03 0.  1.
        -12    1    3    3    0    0  0.86391561824E+01 -0.31024553101E+02  0.18550094575E+02  0.37165359186E+02  0.00000000000E+00 0.  1.
</event>
<event>
 7    1  0.5902966E-013  0.5052900E+02  0.7816164E-02  0.1300438E+00
        -11   -1    0    0    0    0  0.00000000000E+00  0.00000000000E+00  0.45593999997E+02  0.45594000000E+02  0.51100000000E-03 0.  1.
         11   -1    0    0    0    0 -0.00000000000E+00 -0.00000000000E+00 -0.45593999997E+02  0.45594000000E+02  0.51100000000E-03 0. -1.
    9900012    2    1    2    0    0 -0.10882936221E+01  0.40565579346E+02  0.25304745359E+01  0.50529004537E+02  0.30000439789E+02 0.  0.
         12    1    1    2    0    0  0.10882936221E+01 -0.40565579346E+02 -0.25304745359E+01  0.40658995463E+02  0.00000000000E+00 0. -1.
         11    1    3    3    0    0  0.10665909900E+01  0.13621889754E+01 -0.24684545376E+01  0.30143727722E+01  0.51100000000E-03 0. -1.
        -11    1    3    3    0    0 -0.11733272825E+02  0.34748862946E+02  0.43089767038E+01  0.36928585780E+02  0.51100000000E-03 0.  1.
         12    1    3    3    0    0  0.95783882127E+01  0.44545274241E+01  0.68995236967E+00  0.10586045985E+02  0.00000000000E+00 0. -1.
</event>
<event>
 7    1  0.5902966E-013  0.5052887E+02  0.7816164E-02  0.1300439E+00
        -11   -1    0    0    0    0  0.00000000000E+00  0.00000000000E+00  0.45593999997E+02  0.45594000000E+02  0.51100000000E-03 0. -1.
         11   -1    0    0    0    0 -0.00000000000E+00 -0.00000000000E+00 -0.45593999997E+02  0.45594000000E+02  0.51100000000E-03 0.  1.
    9900012    2    1    2    0    0 -0.29840842582E+02  0.25788880943E+02 -0.98804166016E+01  0.50528869432E+02  0.30000029127E+02 0.  0.
         12    1    1    2    0    0  0.29840842582E+02 -0.25788880943E+02  0.98804166016E+01  0.40659130568E+02  0.00000000000E+00 0. -1.
         11    1    3    3    0    0  0.19237509908E+01 -0.24001599775E+01 -0.20311279189E+01  0.36860638459E+01  0.51100000000E-03 0. -1.
        -11    1    3    3    0    0 -0.57354779600E+01  0.15195930062E+02 -0.71398467216E+01  0.17742305638E+02  0.51100000000E-03 0.  1.
        -12    1    3    3    0    0 -0.26029115613E+02  0.12993110859E+02 -0.70944196111E+00  0.29100499949E+02  0.00000000000E+00 0.  1.
</event>
<event>
 7    1  0.5902966E-013  0.5052886E+02  0.7816164E-02  0.1300439E+00
        -11   -1    0    0    0    0  0.00000000000E+00  0.00000000000E+00  0.45593999997E+02  0.45594000000E+02  0.51100000000E-03 0. -1.
         11   -1    0    0    0    0 -0.00000000000E+00 -0.00000000000E+00 -0.45593999997E+02  0.45594000000E+02  0.51100000000E-03 0.  1.
    9900012    2    1    2    0    0 -0.30603742750E+02 -0.20900293083E+02 -0.16725868745E+02  0.50528855806E+02  0.29999987708E+02 0.  0.
         12    1    1    2    0    0  0.30603742750E+02  0.20900293083E+02  0.16725868745E+02  0.40659144194E+02  0.00000000000E+00 0. -1.
         11    1    3    3    0    0 -0.63621073944E+00  0.41179580200E+01  0.20042210181E+01  0.46237695131E+01  0.51100000000E-03 0. -1.
        -11    1    3    3    0    0 -0.14885983478E+02 -0.18627128349E+02 -0.17307169230E+02  0.29463545640E+02  0.51100000000E-03 0.  1.
         12    1    3    3    0    0 -0.15081548532E+02 -0.63911227540E+01 -0.14229205329E+01  0.16441540653E+02  0.00000000000E+00 0. -1.
</event>
<event>
 7    1  0.5902966E-013  0.5052886E+02  0.7816164E-02  0.1300439E+00
        -11   -1    0    0    0    0  0.00000000000E+00  0.00000000000E+00  0.45593999997E+02  0.45594000000E+02  0.51100000000E-03 0.  1.
         11   -1    0    0    0    0 -0.00000000000E+00 -0.00000000000E+00 -0.45593999997E+02  0.45594000000E+02  0.51100000000E-03 0. -1.
    9900012    2    1    2    0    0  0.28877917234E+02 -0.22840749098E+02  0.17249111330E+02  0.50528858780E+02  0.29999996746E+02 0.  0.
         12    1    1    2    0    0 -0.28877917234E+02  0.22840749098E+02 -0.17249111330E+02  0.40659141220E+02  0.00000000000E+00 0. -1.
         11    1    3    3    0    0  0.23251657527E+02 -0.12659918780E+02  0.70141753600E+01  0.27388168568E+02  0.51100000000E-03 0. -1.
        -11    1    3    3    0    0  0.10022489345E+02 -0.10785033256E+02  0.11320777612E+02  0.18572216911E+02  0.51100000000E-03 0.  1.
        -12    1    3    3    0    0 -0.43962296385E+01  0.60420293826E+00 -0.10858416412E+01  0.45684733003E+01  0.00000000000E+00 0.  1.
</event>
<event>
 7    1  0.5902966E-013  0.5052885E+02  0.7816164E-02  0.1300439E+00
        -11   -1    0    0    0    0  0.00000000000E+00  0.00000000000E+00  0.45593999997E+02  0.45594000000E+02  0.51100000000E-03 0. -1.
         11   -1    0    0    0    0 -0.00000000000E+00 -0.00000000000E+00 -0.45593999997E+02  0.45594000000E+02  0.51100000000E-03 0.  1.
    9900012    2    1    2    0    0 -0.38942068310E+02 -0.32818479805E+01 -0.11221018270E+02  0.50528850213E+02  0.29999970706E+02 0.  0.
         12    1    1    2    0    0  0.38942068310E+02  0.32818479805E+01  0.11221018270E+02  0.40659149787E+02  0.00000000000E+00 0. -1.
         11    1    3    3    0    0 -0.12822126398E+02 -0.96730359049E+01  0.42739244770E+01  0.16620498780E+02  0.51100000000E-03 0. -1.
        -11    1    3    3    0    0 -0.54775844428E+01 -0.30782144557E+01 -0.76079127985E+01  0.98671005353E+01  0.51100000000E-03 0.  1.
         12    1    3    3    0    0 -0.20642357469E+02  0.94694023801E+01 -0.78870299489E+01  0.24041250897E+02  0.00000000000E+00 0. -1.
</event>
<event>
 7    1  0.5902966E-013  0.5052886E+02  0.7816164E-02  0.1300439E+00
        -11   -1    0    0    0    0  0.00000000000E+00  0.00000000000E+00  0.45593999997E+02  0.45594000000E+02  0.51100000000E-03 0. -1.
         11   -1    0    0    0    0 -0.00000000000E+00 -0.00000000000E+00 -0.45593999997E+02  0.45594000000E+02  0.51100000000E-03 0.  1.
    9900012    2    1    2    0    0 -0.25422588024E+02 -0.19607819947E+02  0.24947769730E+02  0.50528858354E+02  0.29999995453E+02 0.  0.
         12    1    1    2    0    0  0.25422588024E+02  0.19607819947E+02 -0.24947769730E+02  0.40659141646E+02  0.00000000000E+00 0. -1.
         11    1    3    3    0    0  0.20009660660E+01 -0.10460299908E+02  0.43030476996E+01  0.11486424994E+02  0.51100000000E-03 0. -1.
        -11    1    3    3    0    0 -0.81412181185E+01 -0.44234495671E+01 -0.14061969549E+01  0.93714315162E+01  0.51100000000E-03 0.  1.
         12    1    3    3    0    0 -0.19282335971E+02 -0.47240704710E+01  0.22050918985E+02  0.29671001844E+02  0.00000000000E+00 0. -1.
</event>
<event>
 7    1  0.5902966E-013  0.5052886E+02  0.7816164E-02  0.1300439E+00
        -11   -1    0    0    0    0  0.00000000000E+00  0.00000000000E+00  0.45593999997E+02  0.45594000000E+02  0.51100000000E-03 0.  1.
         11   -1    0    0    0    0 -0.00000000000E+00 -0.00000000000E+00 -0.45593999997E+02  0.45594000000E+02  0.51100000000E-03 0. -1.
    9900012    2    1    2    0    0 -0.69104576149E+01 -0.37285457629E+01  0.39893724738E+02  0.50528858944E+02  0.29999997245E+02 0.  0.
         12    1    1    2    0    0  0.69104576149E+01  0.37285457629E+01 -0.39893724738E+02  0.40659141056E+02  0.00000000000E+00 0. -1.
         11    1    3    3    0    0 -0.31508876998E+01 -0.35525504416E+01  0.29568218179E+01  0.55938808944E+01  0.51100000000E-03 0. -1.
        -11    1    3    3    0    0 -0.12821463754E+02 -0.64251843123E+01  0.17805734498E+02  0.22863007404E+02  0.51100000000E-03 0.  1.
         12    1    3    3    0    0  0.90618938392E+01  0.62491889910E+01  0.19131168422E+02  0.22071970646E+02  0.00000000000E+00 0. -1.
</event>
<event>
 7    1  0.5902966E-013  0.5052886E+02  0.7816164E-02  0.1300439E+00
        -11   -1    0    0    0    0  0.00000000000E+00  0.00000000000E+00  0.45593999997E+02  0.45594000000E+02  0.51100000000E-03 0.  1.
         11   -1    0    0    0    0 -0.00000000000E+00 -0.00000000000E+00 -0.45593999997E+02  0.45594000000E+02  0.51100000000E-03 0. -1.
    9900012    2    1    2    0    0  0.15340848134E+02  0.29963380158E+01  0.37534594623E+02  0.50528862571E+02  0.30000008270E+02 0.  0.
         12    1    1    2    0    0 -0.15340848134E+02 -0.29963380158E+01 -0.37534594623E+02  0.40659137429E+02  0.00000000000E+00 0. -1.
         11    1    3    3    0    0  0.12945768595E+02  0.30860719584E+01  0.73546912886E+01  0.15205533495E+02  0.51100000000E-03 0. -1.
        -11    1    3    3    0    0  0.54676017775E+01  0.26040813357E+01  0.30620325245E+02  0.31213462275E+02  0.51100000000E-03 0.  1.
         12    1    3    3    0    0 -0.30725222388E+01 -0.26938152783E+01 -0.44042191059E+00  0.41098668009E+01  0.00000000000E+00 0. -1.
</event>
<event>
 7    1  0.5902966E-013  0.5052888E+02  0.7816164E-02  0.1300439E+00
        -11   -1    0    0    0    0  0.00000000000E+00  0.00000000000E+00  0.45593999997E+02  0.45594000000E+02  0.51100000000E-03 0. -1.
         11   -1    0    0    0    0 -0.00000000000E+00 -0.00000000000E+00 -0.45593999997E+02  0.45594000000E+02  0.51100000000E-03 0.  1.
    9900012    2    1    2    0    0 -0.30464996777E+02  0.18972976089E+02 -0.19106914561E+02  0.50528880059E+02  0.30000061428E+02 0.  0.
         12    1    1    2    0    0  0.30464996777E+02 -0.18972976089E+02  0.19106914561E+02  0.40659119941E+02  0.00000000000E+00 0. -1.
         11    1    3    3    0    0 -0.19012610140E+02  0.23617159255E+02 -0.66019512669E+01  0.31029587758E+02  0.51100000000E-03 0. -1.
        -11    1    3    3    0    0 -0.10285212847E+02 -0.11685198602E+00 -0.85379170162E+01  0.13367695573E+02  0.51100000000E-03 0.  1.
        -12    1    3    3    0    0 -0.11671737901E+01 -0.45273311802E+01 -0.39670462778E+01  0.61315967286E+01  0.00000000000E+00 0.  1.
</event>
<event>
 7    1  0.5902966E-013  0.5052887E+02  0.7816164E-02  0.1300439E+00
        -11   -1    0    0    0    0  0.00000000000E+00  0.00000000000E+00  0.45593999997E+02  0.45594000000E+02  0.51100000000E-03 0. -1.
         11   -1    0    0    0    0 -0.00000000000E+00 -0.00000000000E+00 -0.45593999997E+02  0.45594000000E+02  0.51100000000E-03 0.  1.
    9900012    2    1    2    0    0  0.27057990011E+02 -0.27369928664E+02 -0.13111728079E+02  0.50528865335E+02  0.30000016672E+02 0.  0.
         12    1    1    2    0    0 -0.27057990011E+02  0.27369928664E+02  0.13111728079E+02  0.40659134665E+02  0.00000000000E+00 0. -1.
         11    1    3    3    0    0  0.15367927623E+02 -0.13865189008E+02  0.34503746166E+01  0.20983844998E+02  0.51100000000E-03 0. -1.
        -11    1    3    3    0    0  0.16004857066E+02 -0.10049164013E+02 -0.13508376864E+02  0.23229666223E+02  0.51100000000E-03 0.  1.
        -12    1    3    3    0    0 -0.43147946776E+01 -0.34555756428E+01 -0.30537258318E+01  0.63153541143E+01  0.00000000000E+00 0.  1.
</event>
<event>
 7    1  0.5902966E-013  0.5052886E+02  0.7816164E-02  0.1300439E+00
        -11   -1    0    0    0    0  0.00000000000E+00  0.00000000000E+00  0.45593999997E+02  0.45594000000E+02  0.51100000000E-03 0. -1.
         11   -1    0    0    0    0 -0.00000000000E+00 -0.00000000000E+00 -0.45593999997E+02  0.45594000000E+02  0.51100000000E-03 0.  1.
    9900012    2    1    2    0    0  0.22703746274E+02 -0.33018720361E+02  0.68898205678E+01  0.50528860601E+02  0.30000002284E+02 0.  0.
         12    1    1    2    0    0 -0.22703746274E+02  0.33018720361E+02 -0.68898205678E+01  0.40659139399E+02  0.00000000000E+00 0. -1.
         11    1    3    3    0    0  0.65613729385E+01 -0.66326008999E+01  0.10293673899E+02  0.13892542320E+02  0.51100000000E-03 0. -1.
        -11    1    3    3    0    0 -0.39587216828E+01 -0.20777517918E+01 -0.24072594224E+01  0.50777384787E+01  0.51100000000E-03 0.  1.
        -12    1    3    3    0    0  0.20101095018E+02 -0.24308367670E+02 -0.99659390842E+00  0.31558579802E+02  0.00000000000E+00 0.  1.
</event>
<event>
 7    1  0.5902966E-013  0.5052886E+02  0.7816164E-02  0.1300439E+00
        -11   -1    0    0    0    0  0.00000000000E+00  0.00000000000E+00  0.45593999997E+02  0.45594000000E+02  0.51100000000E-03 0.  1.
         11   -1    0    0    0    0 -0.00000000000E+00 -0.00000000000E+00 -0.45593999997E+02  0.45594000000E+02  0.51100000000E-03 0. -1.
    9900012    2    1    2    0    0 -0.13345031301E+02  0.19725238093E+02  0.32954380294E+02  0.50528855164E+02  0.29999985756E+02 0.  0.
         12    1    1    2    0    0  0.13345031301E+02 -0.19725238093E+02 -0.32954380294E+02  0.40659144836E+02  0.00000000000E+00 0. -1.
         11    1    3    3    0    0 -0.18235422635E+01  0.68617503275E+01 -0.43432250391E+01  0.83230119515E+01  0.51100000000E-03 0. -1.
        -11    1    3    3    0    0 -0.34779961579E+01  0.62656850768E+01  0.64151026359E+01  0.96181499701E+01  0.51100000000E-03 0.  1.
        -12    1    3    3    0    0 -0.80434928792E+01  0.65978026887E+01  0.30882502697E+02  0.32587693242E+02  0.00000000000E+00 0.  1.
</event>
<event>
 7    1  0.5902966E-013  0.5052887E+02  0.7816164E-02  0.1300439E+00
        -11   -1    0    0    0    0  0.00000000000E+00  0.00000000000E+00  0.45593999997E+02  0.45594000000E+02  0.51100000000E-03 0.  1.
         11   -1    0    0    0    0 -0.00000000000E+00 -0.00000000000E+00 -0.45593999997E+02  0.45594000000E+02  0.51100000000E-03 0. -1.
    9900012    2    1    2    0    0 -0.21942431439E+02 -0.32256872887E+02 -0.11453760302E+02  0.50528871001E+02  0.30000033895E+02 0.  0.
         12    1    1    2    0    0  0.21942431439E+02  0.32256872887E+02  0.11453760302E+02  0.40659128999E+02  0.00000000000E+00 0. -1.
         11    1    3    3    0    0 -0.17643875320E+02 -0.31401169101E+02 -0.19178540667E+02  0.40806325240E+02  0.51100000000E-03 0. -1.
        -11    1    3    3    0    0 -0.17964095343E+01 -0.18315390054E+01  0.15710850615E+01  0.30083103023E+01  0.51100000000E-03 0.  1.
         12    1    3    3    0    0 -0.25021465840E+01  0.97583521896E+00  0.61536953038E+01  0.67142354587E+01  0.00000000000E+00 0. -1.
</event>
<event>
 7    1  0.5902966E-013  0.5052887E+02  0.7816164E-02  0.1300439E+00
        -11   -1    0    0    0    0  0.00000000000E+00  0.00000000000E+00  0.45593999997E+02  0.45594000000E+02  0.51100000000E-03 0.  1.
         11   -1    0    0    0    0 -0.00000000000E+00 -0.00000000000E+00 -0.45593999997E+02  0.45594000000E+02  0.51100000000E-03 0. -1.
    9900012    2    1    2    0    0 -0.55937340442E+01 -0.26954610794E+02  0.29921970578E+02  0.50528865394E+02  0.30000016850E+02 0.  0.
         12    1    1    2    0    0  0.55937340442E+01  0.26954610794E+02 -0.29921970578E+02  0.40659134606E+02  0.00000000000E+00 0. -1.
         11    1    3    3    0    0  0.33288515315E+01 -0.12038215327E+02  0.21463359155E+02  0.24832955266E+02  0.51100000000E-03 0. -1.
        -11    1    3    3    0    0  0.43137993036E+01 -0.85427127749E+01  0.35236713699E+01  0.10198189357E+02  0.51100000000E-03 0.  1.
         12    1    3    3    0    0 -0.13236384879E+02 -0.63736826928E+01  0.49349400539E+01  0.15497720770E+02  0.00000000000E+00 0. -1.
</event>
<event>
 7    1  0.5902966E-013  0.5052887E+02  0.7816164E-02  0.1300439E+00
        -11   -1    0    0    0    0  0.00000000000E+00  0.00000000000E+00  0.45593999997E+02  0.45594000000E+02  0.51100000000E-03 0.  1.
         11   -1    0    0    0    0 -0.00000000000E+00 -0.00000000000E+00 -0.45593999997E+02  0.45594000000E+02  0.51100000000E-03 0. -1.
    9900012    2    1    2    0    0  0.33149872350E+00  0.17465448358E+02  0.36715292195E+02  0.50528874841E+02  0.30000045566E+02 0.  0.
         12    1    1    2    0    0 -0.33149872350E+00 -0.17465448358E+02 -0.36715292195E+02  0.40659125159E+02  0.00000000000E+00 0. -1.
         11    1    3    3    0    0  0.13489016601E+00 -0.51687768322E+01  0.72414905238E+01  0.88979567635E+01  0.51100000000E-03 0. -1.
        -11    1    3    3    0    0 -0.55913762811E+00  0.87257238141E+01  0.25777163016E+02  0.27219717566E+02  0.51100000000E-03 0.  1.
         12    1    3    3    0    0  0.75574618560E+00  0.13908501376E+02  0.36966386555E+01  0.14411200511E+02  0.00000000000E+00 0. -1.
</event>
<event>
 7    1  0.5902966E-013  0.5052886E+02  0.7816164E-02  0.1300439E+00
        -11   -1    0    0    0    0  0.00000000000E+00  0.00000000000E+00  0.45593999997E+02  0.45594000000E+02  0.51100000000E-03 0.  1.
         11   -1    0    0    0    0 -0.00000000000E+00 -0.00000000000E+00 -0.45593999997E+02  0.45594000000E+02  0.51100000000E-03 0. -1.
    9900012    2    1    2    0    0 -0.25171054032E+02 -0.11849916586E+02  0.29650683889E+02  0.50528861553E+02  0.30000005177E+02 0.  0.
         12    1    1    2    0    0  0.25171054032E+02  0.11849916586E+02 -0.29650683889E+02  0.40659138447E+02  0.00000000000E+00 0. -1.
         11    1    3    3    0    0 -0.21271408807E+01  0.18872391474E+01  0.11690145632E+02  0.12031039235E+02  0.51100000000E-03 0. -1.
        -11    1    3    3    0    0 -0.70962275971E+01  0.49120571888E+01  0.10434649740E+01  0.86933061230E+01  0.51100000000E-03 0.  1.
         12    1    3    3    0    0 -0.15947685554E+02 -0.18649212923E+02  0.16917073283E+02  0.29804516195E+02  0.00000000000E+00 0. -1.
</event>
<event>
 7    1  0.5902966E-013  0.5052886E+02  0.7816164E-02  0.1300439E+00
        -11   -1    0    0    0    0  0.00000000000E+00  0.00000000000E+00  0.45593999997E+02  0.45594000000E+02  0.51100000000E-03 0.  1.
         11   -1    0    0    0    0 -0.00000000000E+00 -0.00000000000E+00 -0.45593999997E+02  0.45594000000E+02  0.51100000000E-03 0. -1.
    9900012    2    1    2    0    0  0.13879071637E+02  0.28389238746E+02  0.25584921891E+02  0.50528859155E+02  0.29999997887E+02 0.  0.
         12    1    1    2    0    0 -0.13879071637E+02 -0.28389238746E+02 -0.25584921891E+02  0.40659140845E+02  0.00000000000E+00 0. -1.
         11    1    3    3    0    0  0.95967302522E+01  0.16228191940E+02  0.24554777469E+02  0.30957851056E+02  0.51100000000E-03 0. -1.
        -11    1    3    3    0    0 -0.40023075476E+01  0.73959453600E+01  0.43317486382E+01  0.94595200724E+01  0.51100000000E-03 0.  1.
         12    1    3    3    0    0  0.82846489322E+01  0.47651014459E+01 -0.33016042154E+01  0.10111488027E+02  0.00000000000E+00 0. -1.
</event>
<event>
 7    1  0.5902966E-013  0.5052885E+02  0.7816164E-02  0.1300439E+00
        -11   -1    0    0    0    0  0.00000000000E+00  0.00000000000E+00  0.45593999997E+02  0.45594000000E+02  0.51100000000E-03 0.  1.
         11   -1    0    0    0    0 -0.00000000000E+00 -0.00000000000E+00 -0.45593999997E+02  0.45594000000E+02  0.51100000000E-03 0. -1.
    9900012    2    1    2    0    0 -0.20334273910E+02 -0.33077753668E+02  0.12064244095E+02  0.50528850122E+02  0.29999970432E+02 0.  0.
         12    1    1    2    0    0  0.20334273910E+02  0.33077753668E+02 -0.12064244095E+02  0.40659149878E+02  0.00000000000E+00 0. -1.
         11    1    3    3    0    0 -0.78416528361E+01 -0.79561940968E+01  0.16214349289E+02  0.19690039788E+02  0.51100000000E-03 0. -1.
        -11    1    3    3    0    0 -0.85995119325E+01 -0.20095040216E+02  0.20558122838E+01  0.21954239025E+02  0.51100000000E-03 0.  1.
         12    1    3    3    0    0 -0.38931091416E+01 -0.50265193555E+01 -0.62059174777E+01  0.88845713098E+01  0.00000000000E+00 0. -1.
</event>
<event>
 7    1  0.5902966E-013  0.5052885E+02  0.7816164E-02  0.1300439E+00
        -11   -1    0    0    0    0  0.00000000000E+00  0.00000000000E+00  0.45593999997E+02  0.45594000000E+02  0.51100000000E-03 0.  1.
         11   -1    0    0    0    0 -0.00000000000E+00 -0.00000000000E+00 -0.45593999997E+02  0.45594000000E+02  0.51100000000E-03 0. -1.
    9900012    2    1    2    0    0  0.16058150293E+02 -0.13657730335E+02  0.34767345885E+02  0.50528854305E+02  0.29999983146E+02 0.  0.
         12    1    1    2    0    0 -0.16058150293E+02  0.13657730335E+02 -0.34767345885E+02  0.40659145695E+02  0.00000000000E+00 0. -1.
         11    1    3    3    0    0  0.13338054824E+02 -0.12707975272E+02  0.94654132854E+01  0.20712083210E+02  0.51100000000E-03 0. -1.
        -11    1    3    3    0    0  0.71125390420E+01 -0.55252422628E+01  0.18121279508E+02  0.20236039260E+02  0.51100000000E-03 0.  1.
        -12    1    3    3    0    0 -0.43924435724E+01  0.45754872000E+01  0.71806530919E+01  0.95807318343E+01  0.00000000000E+00 0.  1.
</event>
<event>
 7    1  0.5902966E-013  0.5052889E+02  0.7816164E-02  0.1300439E+00
        -11   -1    0    0    0    0  0.00000000000E+00  0.00000000000E+00  0.45593999997E+02  0.45594000000E+02  0.51100000000E-03 0. -1.
         11   -1    0    0    0    0 -0.00000000000E+00 -0.00000000000E+00 -0.45593999997E+02  0.45594000000E+02  0.51100000000E-03 0.  1.
    9900012    2    1    2    0    0 -0.49888191150E+01 -0.39220687337E+02  0.94875016348E+01  0.50528888861E+02  0.30000088182E+02 0.  0.
         12    1    1    2    0    0  0.49888191150E+01  0.39220687337E+02 -0.94875016348E+01  0.40659111139E+02  0.00000000000E+00 0. -1.
         11    1    3    3    0    0  0.82497492915E+01 -0.18392614229E+02  0.59202942210E+01  0.21009438486E+02  0.51100000000E-03 0. -1.
        -11    1    3    3    0    0 -0.86615741299E+01 -0.22622127760E+02  0.17811526678E+01  0.24289010599E+02  0.51100000000E-03 0.  1.
         12    1    3    3    0    0 -0.45769942767E+01  0.17940546517E+01  0.17860547461E+01  0.52304397767E+01  0.00000000000E+00 0. -1.
</event>
<event>
 7    1  0.5902966E-013  0.5052884E+02  0.7816164E-02  0.1300439E+00
        -11   -1    0    0    0    0  0.00000000000E+00  0.00000000000E+00  0.45593999997E+02  0.45594000000E+02  0.51100000000E-03 0. -1.
         11   -1    0    0    0    0 -0.00000000000E+00 -0.00000000000E+00 -0.45593999997E+02  0.45594000000E+02  0.51100000000E-03 0.  1.
    9900012    2    1    2    0    0 -0.32680905652E+02  0.19409071563E+02 -0.14436525892E+02  0.50528844414E+02  0.29999953081E+02 0.  0.
         12    1    1    2    0    0  0.32680905652E+02 -0.19409071563E+02  0.14436525892E+02  0.40659155586E+02  0.00000000000E+00 0. -1.
         11    1    3    3    0    0 -0.88128086849E+01  0.57906052757E+00 -0.21041433792E+01  0.90790047710E+01  0.51100000000E-03 0. -1.
        -11    1    3    3    0    0 -0.44252718648E+01  0.53930544471E+01  0.77559651746E+01  0.10431829341E+02  0.51100000000E-03 0.  1.
        -12    1    3    3    0    0 -0.19442825102E+02  0.13436956588E+02 -0.20088347687E+02  0.31018010302E+02  0.00000000000E+00 0.  1.
</event>
<event>
 7    1  0.5902966E-013  0.5052888E+02  0.7816164E-02  0.1300439E+00
        -11   -1    0    0    0    0  0.00000000000E+00  0.00000000000E+00  0.45593999997E+02  0.45594000000E+02  0.51100000000E-03 0.  1.
         11   -1    0    0    0    0 -0.00000000000E+00 -0.00000000000E+00 -0.45593999997E+02  0.45594000000E+02  0.51100000000E-03 0. -1.
    9900012    2    1    2    0    0 -0.26489424226E+02 -0.21404480448E+02 -0.22210876361E+02  0.50528875467E+02  0.30000047470E+02 0.  0.
         12    1    1    2    0    0  0.26489424226E+02  0.21404480448E+02  0.22210876361E+02  0.40659124533E+02  0.00000000000E+00 0. -1.
         11    1    3    3    0    0 -0.75127668545E+01 -0.12611269762E+02 -0.16027241339E+02  0.21733804453E+02  0.51100000000E-03 0. -1.
        -11    1    3    3    0    0 -0.20536756096E+02 -0.12455384279E+02 -0.62326944058E+01  0.24814137670E+02  0.51100000000E-03 0.  1.
         12    1    3    3    0    0  0.15600987249E+01  0.36621735939E+01  0.49059383747E-01  0.39809333436E+01  0.00000000000E+00 0. -1.
</event>
<event>
 7    1  0.5902966E-013  0.5052879E+02  0.7816164E-02  0.1300439E+00
        -11   -1    0    0    0    0  0.00000000000E+00  0.00000000000E+00  0.45593999997E+02  0.45594000000E+02  0.51100000000E-03 0.  1.
         11   -1    0    0    0    0 -0.00000000000E+00 -0.00000000000E+00 -0.45593999997E+02  0.45594000000E+02  0.51100000000E-03 0. -1.
    9900012    2    1    2    0    0  0.17379043206E+02  0.10139327379E+02  0.35331773025E+02  0.50528790864E+02  0.29999790309E+02 0.  0.
         12    1    1    2    0    0 -0.17379043206E+02 -0.10139327379E+02 -0.35331773025E+02  0.40659209136E+02  0.00000000000E+00 0. -1.
         11    1    3    3    0    0  0.44030971549E+01 -0.42281642871E+01  0.35789952834E+01  0.70762875361E+01  0.51100000000E-03 0. -1.
        -11    1    3    3    0    0  0.98993138536E+01  0.47908763776E+00  0.26493015226E+02  0.28286141408E+02  0.51100000000E-03 0.  1.
         12    1    3    3    0    0  0.30766321980E+01  0.13888404029E+02  0.52597625157E+01  0.15166361919E+02  0.00000000000E+00 0. -1.
</event>
<event>
 7    1  0.5902966E-013  0.5052886E+02  0.7816164E-02  0.1300439E+00
        -11   -1    0    0    0    0  0.00000000000E+00  0.00000000000E+00  0.45593999997E+02  0.45594000000E+02  0.51100000000E-03 0. -1.
         11   -1    0    0    0    0 -0.00000000000E+00 -0.00000000000E+00 -0.45593999997E+02  0.45594000000E+02  0.51100000000E-03 0.  1.
    9900012    2    1    2    0    0  0.20515050133E+02 -0.22772886730E+02 -0.26715055544E+02  0.50528857797E+02  0.29999993760E+02 0.  0.
         12    1    1    2    0    0 -0.20515050133E+02  0.22772886730E+02  0.26715055544E+02  0.40659142203E+02  0.00000000000E+00 0. -1.
         11    1    3    3    0    0 -0.15228971024E-01  0.31084386104E+01  0.93671485139E+00  0.32465454702E+01  0.51100000000E-03 0. -1.
        -11    1    3    3    0    0  0.13996893517E+02 -0.18415569802E+02 -0.66703445507E+01  0.24073631549E+02  0.51100000000E-03 0.  1.
         12    1    3    3    0    0  0.65333855872E+01 -0.74657555384E+01 -0.20981425845E+02  0.23208680778E+02  0.00000000000E+00 0. -1.
</event>
<event>
 7    1  0.5902966E-013  0.5052886E+02  0.7816164E-02  0.1300439E+00
        -11   -1    0    0    0    0  0.00000000000E+00  0.00000000000E+00  0.45593999997E+02  0.45594000000E+02  0.51100000000E-03 0.  1.
         11   -1    0    0    0    0 -0.00000000000E+00 -0.00000000000E+00 -0.45593999997E+02  0.45594000000E+02  0.51100000000E-03 0. -1.
    9900012    2    1    2    0    0 -0.28718318210E+02 -0.14245710631E+02  0.25009667170E+02  0.50528861739E+02  0.30000005741E+02 0.  0.
         12    1    1    2    0    0  0.28718318210E+02  0.14245710631E+02 -0.25009667170E+02  0.40659138261E+02  0.00000000000E+00 0. -1.
         11    1    3    3    0    0 -0.11669995578E+02  0.40548864939E+01  0.41235585143E+01  0.13024386218E+02  0.51100000000E-03 0. -1.
        -11    1    3    3    0    0  0.56008544769E+00 -0.88308241002E+00 -0.29502506131E+01  0.31300973136E+01  0.51100000000E-03 0.  1.
        -12    1    3    3    0    0 -0.17608408080E+02 -0.17417514715E+02  0.23836359268E+02  0.34374378207E+02  0.00000000000E+00 0.  1.
</event>
<event>
 7    1  0.5902966E-013  0.5052886E+02  0.7816164E-02  0.1300439E+00
        -11   -1    0    0    0    0  0.00000000000E+00  0.00000000000E+00  0.45593999997E+02  0.45594000000E+02  0.51100000000E-03 0. -1.
         11   -1    0    0    0    0 -0.00000000000E+00 -0.00000000000E+00 -0.45593999997E+02  0.45594000000E+02  0.51100000000E-03 0.  1.
    9900012    2    1    2    0    0  0.29955315008E+02  0.13734248889E+02 -0.23816282889E+02  0.50528858095E+02  0.29999994667E+02 0.  0.
         12    1    1    2    0    0 -0.29955315008E+02 -0.13734248889E+02  0.23816282889E+02  0.40659141905E+02  0.00000000000E+00 0. -1.
         11    1    3    3    0    0 -0.77724213499E+00  0.12070608462E+01  0.36362076826E+01  0.39093615585E+01  0.51100000000E-03 0. -1.
        -11    1    3    3    0    0  0.10851956771E+02 -0.40420350864E+01 -0.10869406807E+02  0.15882286296E+02  0.51100000000E-03 0.  1.
        -12    1    3    3    0    0  0.19880600372E+02  0.16569223129E+02 -0.16583083765E+02  0.30737210241E+02  0.00000000000E+00 0.  1.
</event>
<event>
 7    1  0.5902966E-013  0.5052886E+02  0.7816164E-02  0.1300439E+00
        -11   -1    0    0    0    0  0.00000000000E+00  0.00000000000E+00  0.45593999997E+02  0.45594000000E+02  0.51100000000E-03 0.  1.
         11   -1    0    0    0    0 -0.00000000000E+00 -0.00000000000E+00 -0.45593999997E+02  0.45594000000E+02  0.51100000000E-03 0. -1.
    9900012    2    1    2    0    0 -0.53665974589E+00 -0.19380801000E+02  0.35738810506E+02  0.50528855549E+02  0.29999986928E+02 0.  0.
         12    1    1    2    0    0  0.53665974589E+00  0.19380801000E+02 -0.35738810506E+02  0.40659144451E+02  0.00000000000E+00 0. -1.
         11    1    3    3    0    0  0.20822823949E+01 -0.19796872894E+01 -0.70594017355E+00  0.29586168264E+01  0.51100000000E-03 0. -1.
        -11    1    3    3    0    0  0.53288154351E+01 -0.21059190850E+02  0.24181546246E+02  0.32505891348E+02  0.51100000000E-03 0.  1.
        -12    1    3    3    0    0 -0.79477575759E+01  0.36580771401E+01  0.12263204434E+02  0.15064347375E+02  0.00000000000E+00 0.  1.
</event>
<event>
 7    1  0.5902966E-013  0.5052886E+02  0.7816164E-02  0.1300439E+00
        -11   -1    0    0    0    0  0.00000000000E+00  0.00000000000E+00  0.45593999997E+02  0.45594000000E+02  0.51100000000E-03 0. -1.
         11   -1    0    0    0    0 -0.00000000000E+00 -0.00000000000E+00 -0.45593999997E+02  0.45594000000E+02  0.51100000000E-03 0.  1.
    9900012    2    1    2    0    0 -0.18509506744E+02  0.10154475160E+02 -0.34748389249E+02  0.50528858825E+02  0.29999996885E+02 0.  0.
         12    1    1    2    0    0  0.18509506744E+02 -0.10154475160E+02  0.34748389249E+02  0.40659141175E+02  0.00000000000E+00 0. -1.
         11    1    3    3    0    0 -0.13361627938E+02 -0.24681172996E+01 -0.27078907910E+02  0.30296731804E+02  0.51100000000E-03 0. -1.
        -11    1    3    3    0    0  0.34983929011E+01  0.13204340321E+00 -0.18917646863E+01  0.39793168057E+01  0.51100000000E-03 0.  1.
        -12    1    3    3    0    0 -0.86462717072E+01  0.12490549057E+02 -0.57777166526E+01  0.16252810215E+02  0.00000000000E+00 0.  1.
</event>
<event>
 7    1  0.5902966E-013  0.5052886E+02  0.7816164E-02  0.1300439E+00
        -11   -1    0    0    0    0  0.00000000000E+00  0.00000000000E+00  0.45593999997E+02  0.45594000000E+02  0.51100000000E-03 0.  1.
         11   -1    0    0    0    0 -0.00000000000E+00 -0.00000000000E+00 -0.45593999997E+02  0.45594000000E+02  0.51100000000E-03 0. -1.
    9900012    2    1    2    0    0  0.28003316823E+02 -0.24527064819E+02  0.16352463482E+02  0.50528859285E+02  0.29999998282E+02 0.  0.
         12    1    1    2    0    0 -0.28003316823E+02  0.24527064819E+02 -0.16352463482E+02  0.40659140715E+02  0.00000000000E+00 0. -1.
         11    1    3    3    0    0 -0.23116041397E+01  0.18757963880E+00  0.11915350587E+01  0.26073848732E+01  0.51100000000E-03 0. -1.
        -11    1    3    3    0    0 -0.30383193836E+01 -0.27245600959E+01  0.54492107762E+01  0.68079740552E+01  0.51100000000E-03 0.  1.
        -12    1    3    3    0    0  0.33353240347E+02 -0.21990084362E+02  0.97117176472E+01  0.41113500356E+02  0.00000000000E+00 0.  1.
</event>
<event>
 7    1  0.5902966E-013  0.5052886E+02  0.7816164E-02  0.1300439E+00
        -11   -1    0    0    0    0  0.00000000000E+00  0.00000000000E+00  0.45593999997E+02  0.45594000000E+02  0.51100000000E-03 0.  1.
         11   -1    0    0    0    0 -0.00000000000E+00 -0.00000000000E+00 -0.45593999997E+02  0.45594000000E+02  0.51100000000E-03 0. -1.
    9900012    2    1    2    0    0 -0.22691885603E+02 -0.14850395222E+02  0.30293726852E+02  0.50528858383E+02  0.29999995540E+02 0.  0.
         12    1    1    2    0    0  0.22691885603E+02  0.14850395222E+02 -0.30293726852E+02  0.40659141617E+02  0.00000000000E+00 0. -1.
         11    1    3    3    0    0 -0.27806060447E+01 -0.64251728961E+01 -0.26451157307E+00  0.70060390631E+01  0.51100000000E-03 0. -1.
        -11    1    3    3    0    0 -0.23660774845E+02 -0.89992012191E+01  0.19869470327E+02  0.32180953066E+02  0.51100000000E-03 0.  1.
         12    1    3    3    0    0  0.37494952865E+01  0.57397889339E+00  0.10688768098E+02  0.11341866254E+02  0.00000000000E+00 0. -1.
</event>
<event>
 7    1  0.5902966E-013  0.5052886E+02  0.7816164E-02  0.1300439E+00
        -11   -1    0    0    0    0  0.00000000000E+00  0.00000000000E+00  0.45593999997E+02  0.45594000000E+02  0.51100000000E-03 0.  1.
         11   -1    0    0    0    0 -0.00000000000E+00 -0.00000000000E+00 -0.45593999997E+02  0.45594000000E+02  0.51100000000E-03 0. -1.
    9900012    2    1    2    0    0 -0.40460979161E+02  0.26047277785E+01 -0.30479937136E+01  0.50528859489E+02  0.29999998901E+02 0.  0.
         12    1    1    2    0    0  0.40460979161E+02 -0.26047277785E+01  0.30479937136E+01  0.40659140511E+02  0.00000000000E+00 0. -1.
         11    1    3    3    0    0 -0.10624751719E+02  0.49168283337E+00 -0.93318814482E+01  0.14149597617E+02  0.51100000000E-03 0. -1.
        -11    1    3    3    0    0 -0.26336786760E+02 -0.48052784672E+01  0.62175310322E+00  0.26778790398E+02  0.51100000000E-03 0.  1.
         12    1    3    3    0    0 -0.34994406810E+01  0.69183234123E+01  0.56621346314E+01  0.96004714729E+01  0.00000000000E+00 0. -1.
</event>
<event>
 7    1  0.5902966E-013  0.5052887E+02  0.7816164E-02  0.1300439E+00
        -11   -1    0    0    0    0  0.00000000000E+00  0.00000000000E+00  0.45593999997E+02  0.45594000000E+02  0.51100000000E-03 0.  1.
         11   -1    0    0    0    0 -0.00000000000E+00 -0.00000000000E+00 -0.45593999997E+02  0.45594000000E+02  0.51100000000E-03 0. -1.
    9900012    2    1    2    0    0  0.24083750687E+02  0.82624340967E+01  0.31699686161E+02  0.50528868590E+02  0.30000026566E+02 0.  0.
         12    1    1    2    0    0 -0.24083750687E+02 -0.82624340967E+01 -0.31699686161E+02  0.40659131410E+02  0.00000000000E+00 0. -1.
         11    1    3    3    0    0  0.88620530047E+01  0.93659748652E+01  0.17524021621E+00  0.12895277354E+02  0.51100000000E-03 0. -1.
        -11    1    3    3    0    0 -0.13704612366E+01 -0.32926636609E+01  0.80438941384E+01  0.87990926325E+01  0.51100000000E-03 0.  1.
         12    1    3    3    0    0  0.16592158919E+02  0.21891228924E+01  0.23480551806E+02  0.28834498604E+02  0.00000000000E+00 0. -1.
</event>
<event>
 7    1  0.5902966E-013  0.5052886E+02  0.7816164E-02  0.1300439E+00
        -11   -1    0    0    0    0  0.00000000000E+00  0.00000000000E+00  0.45593999997E+02  0.45594000000E+02  0.51100000000E-03 0. -1.
         11   -1    0    0    0    0 -0.00000000000E+00 -0.00000000000E+00 -0.45593999997E+02  0.45594000000E+02  0.51100000000E-03 0.  1.
    9900012    2    1    2    0    0 -0.31301938226E+02 -0.23022035817E+02 -0.11972471086E+02  0.50528861621E+02  0.30000005382E+02 0.  0.
         12    1    1    2    0    0  0.31301938226E+02  0.23022035817E+02  0.11972471086E+02  0.40659138379E+02  0.00000000000E+00 0. -1.
         11    1    3    3    0    0 -0.19182846013E+01 -0.10943040722E+02 -0.90417094346E+01  0.14324191629E+02  0.51100000000E-03 0. -1.
        -11    1    3    3    0    0 -0.89894069539E+01  0.24706286027E+00 -0.77746103565E+01  0.11887600426E+02  0.51100000000E-03 0.  1.
         12    1    3    3    0    0 -0.20394246671E+02 -0.12326057955E+02  0.48438487054E+01  0.24317069566E+02  0.00000000000E+00 0. -1.
</event>
<event>
 7    1  0.5902966E-013  0.5052886E+02  0.7816164E-02  0.1300439E+00
        -11   -1    0    0    0    0  0.00000000000E+00  0.00000000000E+00  0.45593999997E+02  0.45594000000E+02  0.51100000000E-03 0. -1.
         11   -1    0    0    0    0 -0.00000000000E+00 -0.00000000000E+00 -0.45593999997E+02  0.45594000000E+02  0.51100000000E-03 0.  1.
    9900012    2    1    2    0    0 -0.27389947676E+02 -0.23569424286E+02  0.18639711251E+02  0.50528857973E+02  0.29999994295E+02 0.  0.
         12    1    1    2    0    0  0.27389947676E+02  0.23569424286E+02 -0.18639711251E+02  0.40659142027E+02  0.00000000000E+00 0. -1.
         11    1    3    3    0    0 -0.10137272645E+02 -0.12362661544E+02  0.63564147416E+01  0.17204758231E+02  0.51100000000E-03 0. -1.
        -11    1    3    3    0    0 -0.13940871419E+02 -0.94982040942E+01 -0.33964931668E+01  0.17207554824E+02  0.51100000000E-03 0.  1.
         12    1    3    3    0    0 -0.33118036115E+01 -0.17085586475E+01  0.15679789676E+02  0.16116544918E+02  0.00000000000E+00 0. -1.
</event>
<event>
 7    1  0.5902966E-013  0.5052886E+02  0.7816164E-02  0.1300439E+00
        -11   -1    0    0    0    0  0.00000000000E+00  0.00000000000E+00  0.45593999997E+02  0.45594000000E+02  0.51100000000E-03 0.  1.
         11   -1    0    0    0    0 -0.00000000000E+00 -0.00000000000E+00 -0.45593999997E+02  0.45594000000E+02  0.51100000000E-03 0. -1.
    9900012    2    1    2    0    0 -0.14835017757E+02  0.35600654359E+02  0.12871731635E+02  0.50528858126E+02  0.29999994760E+02 0.  0.
         12    1    1    2    0    0  0.14835017757E+02 -0.35600654359E+02 -0.12871731635E+02  0.40659141874E+02  0.00000000000E+00 0. -1.
         11    1    3    3    0    0 -0.16575781056E+01  0.14262838532E+02 -0.43253230946E+01  0.14996151116E+02  0.51100000000E-03 0. -1.
        -11    1    3    3    0    0  0.34490048327E+01 -0.31228836307E+00  0.41241167614E+00  0.34875839788E+01  0.51100000000E-03 0.  1.
         12    1    3    3    0    0 -0.16626444484E+02  0.21650104190E+02  0.16784643054E+02  0.32045123031E+02  0.00000000000E+00 0. -1.
</event>
<event>
 7    1  0.5902966E-013  0.5052886E+02  0.7816164E-02  0.1300439E+00
        -11   -1    0    0    0    0  0.00000000000E+00  0.00000000000E+00  0.45593999997E+02  0.45594000000E+02  0.51100000000E-03 0. -1.
         11   -1    0    0    0    0 -0.00000000000E+00 -0.00000000000E+00 -0.45593999997E+02  0.45594000000E+02  0.51100000000E-03 0.  1.
    9900012    2    1    2    0    0 -0.20387822942E+02 -0.10066643251E+01 -0.35163742351E+02  0.50528862362E+02  0.30000007635E+02 0.  0.
         12    1    1    2    0    0  0.20387822942E+02  0.10066643251E+01  0.35163742351E+02  0.40659137638E+02  0.00000000000E+00 0. -1.
         11    1    3    3    0    0 -0.13843259845E+01 -0.58562903392E+01 -0.11482200452E+02  0.12963542049E+02  0.51100000000E-03 0. -1.
        -11    1    3    3    0    0 -0.66017683606E+00  0.15992264444E+01  0.39088310637E+01  0.42746133417E+01  0.51100000000E-03 0.  1.
        -12    1    3    3    0    0 -0.18343320122E+02  0.32503995697E+01 -0.27590372962E+02  0.33290706971E+02  0.00000000000E+00 0.  1.
</event>
<event>
 7    1  0.5902966E-013  0.5052886E+02  0.7816164E-02  0.1300439E+00
        -11   -1    0    0    0    0  0.00000000000E+00  0.00000000000E+00  0.45593999997E+02  0.45594000000E+02  0.51100000000E-03 0.  1.
         11   -1    0    0    0    0 -0.00000000000E+00 -0.00000000000E+00 -0.45593999997E+02  0.45594000000E+02  0.51100000000E-03 0. -1.
    9900012    2    1    2    0    0 -0.31662519427E+00  0.40637023066E+02  0.13030020395E+01  0.50528859460E+02  0.29999998814E+02 0.  0.
         12    1    1    2    0    0  0.31662519427E+00 -0.40637023066E+02 -0.13030020395E+01  0.40659140540E+02  0.00000000000E+00 0. -1.
         11    1    3    3    0    0  0.87071411096E+01  0.31876470751E+02 -0.44451262792E+00  0.33047258367E+02  0.51100000000E-03 0. -1.
        -11    1    3    3    0    0 -0.89722422035E+00  0.56207216716E+01  0.55736992347E+01  0.79664073980E+01  0.51100000000E-03 0.  1.
         12    1    3    3    0    0 -0.81265420835E+01  0.31398306431E+01 -0.38261845673E+01  0.95151936946E+01  0.00000000000E+00 0. -1.
</event>
<event>
 7    1  0.5902966E-013  0.5052886E+02  0.7816164E-02  0.1300439E+00
        -11   -1    0    0    0    0  0.00000000000E+00  0.00000000000E+00  0.45593999997E+02  0.45594000000E+02  0.51100000000E-03 0.  1.
         11   -1    0    0    0    0 -0.00000000000E+00 -0.00000000000E+00 -0.45593999997E+02  0.45594000000E+02  0.51100000000E-03 0. -1.
    9900012    2    1    2    0    0 -0.40224729712E+01  0.29926163306E+02  0.27228844585E+02  0.50528861833E+02  0.30000006029E+02 0.  0.
         12    1    1    2    0    0  0.40224729712E+01 -0.29926163306E+02 -0.27228844585E+02  0.40659138167E+02  0.00000000000E+00 0. -1.
         11    1    3    3    0    0 -0.10910685383E+02  0.28703785831E+01  0.15423826709E+02  0.19109593385E+02  0.51100000000E-03 0. -1.
        -11    1    3    3    0    0  0.32154945320E+01  0.10197249031E+02  0.32885005484E+00  0.10697262992E+02  0.51100000000E-03 0.  1.
        -12    1    3    3    0    0  0.36727178801E+01  0.16858535691E+02  0.11476167821E+02  0.20722005457E+02  0.00000000000E+00 0.  1.
</event>
<event>
 7    1  0.1127576E-012  0.5052885E+02  0.7816164E-02  0.1300439E+00
        -11   -1    0    0    0    0  0.00000000000E+00  0.00000000000E+00  0.45593999997E+02  0.45594000000E+02  0.51100000000E-03 0. -1.
         11   -1    0    0    0    0 -0.00000000000E+00 -0.00000000000E+00 -0.45593999997E+02  0.45594000000E+02  0.51100000000E-03 0.  1.
    9900012    2    1    2    0    0  0.15558332007E+02  0.60359527507E+00 -0.37559826052E+02  0.50528849060E+02  0.29999967202E+02 0.  0.
         12    1    1    2    0    0 -0.15558332007E+02 -0.60359527507E+00  0.37559826052E+02  0.40659150940E+02  0.00000000000E+00 0. -1.
         11    1    3    3    0    0  0.14590494228E+02 -0.67023646874E+01 -0.98637031897E+01  0.18844013774E+02  0.51100000000E-03 0. -1.
        -11    1    3    3    0    0 -0.41060847275E+00 -0.11656286552E+01 -0.20349559690E+02  0.20387051511E+02  0.51100000000E-03 0.  1.
        -12    1    3    3    0    0  0.13784462509E+01  0.84715886176E+01 -0.73465631728E+01  0.11297783775E+02  0.00000000000E+00 0.  1.
</event>
<event>
 7    1  0.5902966E-013  0.5052884E+02  0.7816164E-02  0.1300439E+00
        -11   -1    0    0    0    0  0.00000000000E+00  0.00000000000E+00  0.45593999997E+02  0.45594000000E+02  0.51100000000E-03 0.  1.
         11   -1    0    0    0    0 -0.00000000000E+00 -0.00000000000E+00 -0.45593999997E+02  0.45594000000E+02  0.51100000000E-03 0. -1.
    9900012    2    1    2    0    0  0.91821098079E+01  0.10832561901E+02  0.38098714474E+02  0.50528836428E+02  0.29999928805E+02 0.  0.
         12    1    1    2    0    0 -0.91821098079E+01 -0.10832561901E+02 -0.38098714474E+02  0.40659163572E+02  0.00000000000E+00 0. -1.
         11    1    3    3    0    0  0.12463571125E+01  0.12754548734E+02  0.12525051264E+02  0.17919509728E+02  0.51100000000E-03 0. -1.
        -11    1    3    3    0    0  0.95745373255E+01  0.50220006789E+01  0.22251449254E+02  0.24739022818E+02  0.51100000000E-03 0.  1.
        -12    1    3    3    0    0 -0.16387846301E+01 -0.69439875117E+01  0.33222139553E+01  0.78703038817E+01  0.00000000000E+00 0.  1.
</event>
<event>
 7    1  0.5902966E-013  0.5052885E+02  0.7816164E-02  0.1300439E+00
        -11   -1    0    0    0    0  0.00000000000E+00  0.00000000000E+00  0.45593999997E+02  0.45594000000E+02  0.51100000000E-03 0. -1.
         11   -1    0    0    0    0 -0.00000000000E+00 -0.00000000000E+00 -0.45593999997E+02  0.45594000000E+02  0.51100000000E-03 0.  1.
    9900012    2    1    2    0    0 -0.32325783489E+02  0.24275766376E+02  0.43471552593E+01  0.50528845186E+02  0.29999955427E+02 0.  0.
         12    1    1    2    0    0  0.32325783489E+02 -0.24275766376E+02 -0.43471552593E+01  0.40659154814E+02  0.00000000000E+00 0. -1.
         11    1    3    3    0    0  0.22438979040E+01  0.17984632519E+01 -0.40032577282E+01  0.49290587916E+01  0.51100000000E-03 0. -1.
        -11    1    3    3    0    0 -0.20564412753E+02  0.14550125605E+02 -0.37448804851E+01  0.25468124335E+02  0.51100000000E-03 0.  1.
         12    1    3    3    0    0 -0.14005268640E+02  0.79271775189E+01  0.12095293473E+02  0.20131662060E+02  0.00000000000E+00 0. -1.
</event>
<event>
 7    1  0.5902966E-013  0.5052886E+02  0.7816164E-02  0.1300439E+00
        -11   -1    0    0    0    0  0.00000000000E+00  0.00000000000E+00  0.45593999997E+02  0.45594000000E+02  0.51100000000E-03 0. -1.
         11   -1    0    0    0    0 -0.00000000000E+00 -0.00000000000E+00 -0.45593999997E+02  0.45594000000E+02  0.51100000000E-03 0.  1.
    9900012    2    1    2    0    0 -0.15076511758E+02 -0.49095486970E+01 -0.37440093879E+02  0.50528861976E+02  0.30000006462E+02 0.  0.
         12    1    1    2    0    0  0.15076511758E+02  0.49095486970E+01  0.37440093879E+02  0.40659138024E+02  0.00000000000E+00 0. -1.
         11    1    3    3    0    0 -0.71987589310E+01  0.41906754292E+01 -0.14077318788E+02  0.16357102287E+02  0.51100000000E-03 0. -1.
        -11    1    3    3    0    0  0.66944492127E+01  0.91346325026E+00 -0.97271232704E+01  0.11843436695E+02  0.51100000000E-03 0.  1.
         12    1    3    3    0    0 -0.14572202040E+02 -0.10013687376E+02 -0.13635651821E+02  0.22328322994E+02  0.00000000000E+00 0. -1.
</event>
<event>
 7    1  0.5902966E-013  0.5052887E+02  0.7816164E-02  0.1300439E+00
        -11   -1    0    0    0    0  0.00000000000E+00  0.00000000000E+00  0.45593999997E+02  0.45594000000E+02  0.51100000000E-03 0.  1.
         11   -1    0    0    0    0 -0.00000000000E+00 -0.00000000000E+00 -0.45593999997E+02  0.45594000000E+02  0.51100000000E-03 0. -1.
    9900012    2    1    2    0    0  0.26072702294E+02 -0.51601200700E+01  0.30769333220E+02  0.50528874199E+02  0.30000043616E+02 0.  0.
         12    1    1    2    0    0 -0.26072702294E+02  0.51601200700E+01 -0.30769333220E+02  0.40659125801E+02  0.00000000000E+00 0. -1.
         11    1    3    3    0    0  0.54194395358E+01  0.47592506232E+01 -0.14112299613E+01  0.73493102834E+01  0.51100000000E-03 0. -1.
        -11    1    3    3    0    0  0.13852907850E+02  0.16365460713E+01  0.23102358885E+02  0.26987039949E+02  0.51100000000E-03 0.  1.
        -12    1    3    3    0    0  0.68003549087E+01 -0.11555916765E+02  0.90782042968E+01  0.16192523967E+02  0.00000000000E+00 0.  1.
</event>
<event>
 7    1  0.5902966E-013  0.5052886E+02  0.7816164E-02  0.1300439E+00
        -11   -1    0    0    0    0  0.00000000000E+00  0.00000000000E+00  0.45593999997E+02  0.45594000000E+02  0.51100000000E-03 0.  1.
         11   -1    0    0    0    0 -0.00000000000E+00 -0.00000000000E+00 -0.45593999997E+02  0.45594000000E+02  0.51100000000E-03 0. -1.
    9900012    2    1    2    0    0 -0.50898772860E+01  0.12712087047E+02  0.38283963407E+02  0.50528857584E+02  0.29999993112E+02 0.  0.
         12    1    1    2    0    0  0.50898772860E+01 -0.12712087047E+02 -0.38283963407E+02  0.40659142416E+02  0.00000000000E+00 0. -1.
         11    1    3    3    0    0 -0.78407643886E+01  0.44220616115E+01  0.15910174751E+02  0.18280204483E+02  0.51100000000E-03 0. -1.
        -11    1    3    3    0    0 -0.20559944787E+01 -0.66807842053E+01  0.39552733269E+01  0.80314493241E+01  0.51100000000E-03 0.  1.
        -12    1    3    3    0    0  0.48068815813E+01  0.14970809640E+02  0.18418515329E+02  0.24217203777E+02  0.00000000000E+00 0.  1.
</event>
<event>
 7    1  0.5902966E-013  0.5052886E+02  0.7816164E-02  0.1300439E+00
        -11   -1    0    0    0    0  0.00000000000E+00  0.00000000000E+00  0.45593999997E+02  0.45594000000E+02  0.51100000000E-03 0.  1.
         11   -1    0    0    0    0 -0.00000000000E+00 -0.00000000000E+00 -0.45593999997E+02  0.45594000000E+02  0.51100000000E-03 0. -1.
    9900012    2    1    2    0    0  0.14103755974E+02  0.30621561470E+02  0.22728167507E+02  0.50528861326E+02  0.30000004488E+02 0.  0.
         12    1    1    2    0    0 -0.14103755974E+02 -0.30621561470E+02 -0.22728167507E+02  0.40659138674E+02  0.00000000000E+00 0. -1.
         11    1    3    3    0    0  0.12930835420E+01  0.72547236879E+01  0.18523763217E+02  0.19935718818E+02  0.51100000000E-03 0.  1.
        -11    1    3    3    0    0  0.12875729825E+02  0.99846755036E+01  0.53813439589E+01  0.17159167419E+02  0.51100000000E-03 0. -1.
         12    1    3    3    0    0 -0.65057393109E-01  0.13382162279E+02 -0.11769396686E+01  0.13433975089E+02  0.00000000000E+00 0. -1.
</event>
<event>
 7    1  0.5902966E-013  0.5052885E+02  0.7816164E-02  0.1300439E+00
        -11   -1    0    0    0    0  0.00000000000E+00  0.00000000000E+00  0.45593999997E+02  0.45594000000E+02  0.51100000000E-03 0.  1.
         11   -1    0    0    0    0 -0.00000000000E+00 -0.00000000000E+00 -0.45593999997E+02  0.45594000000E+02  0.51100000000E-03 0. -1.
    9900012    2    1    2    0    0  0.44803507160E+01  0.17591545507E+02  0.36381730985E+02  0.50528851395E+02  0.29999974299E+02 0.  0.
         12    1    1    2    0    0 -0.44803507160E+01 -0.17591545507E+02 -0.36381730985E+02  0.40659148605E+02  0.00000000000E+00 0. -1.
         11    1    3    3    0    0  0.14807874720E+01 -0.48437833182E+01  0.30399288144E+01  0.59072951364E+01  0.51100000000E-03 0. -1.
        -11    1    3    3    0    0  0.93433452246E+01  0.68499432175E+01  0.75578717882E+01  0.13832615382E+02  0.51100000000E-03 0.  1.
         12    1    3    3    0    0 -0.63437819806E+01  0.15585385607E+02  0.25783930382E+02  0.30788940877E+02  0.00000000000E+00 0. -1.
</event>
<event>
 7    1  0.5902966E-013  0.5052887E+02  0.7816164E-02  0.1300439E+00
        -11   -1    0    0    0    0  0.00000000000E+00  0.00000000000E+00  0.45593999997E+02  0.45594000000E+02  0.51100000000E-03 0.  1.
         11   -1    0    0    0    0 -0.00000000000E+00 -0.00000000000E+00 -0.45593999997E+02  0.45594000000E+02  0.51100000000E-03 0. -1.
    9900012    2    1    2    0    0  0.38013171922E+02 -0.16703575597E+01  0.14330867731E+02  0.50528866907E+02  0.30000021450E+02 0.  0.
         12    1    1    2    0    0 -0.38013171922E+02  0.16703575597E+01 -0.14330867731E+02  0.40659133093E+02  0.00000000000E+00 0. -1.
         11    1    3    3    0    0  0.11901058200E+02 -0.11069265211E+02  0.29526574318E+01  0.16519140558E+02  0.51100000000E-03 0.  1.
        -11    1    3    3    0    0  0.12989694923E+02  0.25016827028E+01 -0.27721751123E+01  0.13515751761E+02  0.51100000000E-03 0. -1.
         12    1    3    3    0    0  0.13122418800E+02  0.68972249489E+01  0.14150385412E+02  0.20493974589E+02  0.00000000000E+00 0. -1.
</event>
<event>
 7    1  0.5902966E-013  0.5052885E+02  0.7816164E-02  0.1300439E+00
        -11   -1    0    0    0    0  0.00000000000E+00  0.00000000000E+00  0.45593999997E+02  0.45594000000E+02  0.51100000000E-03 0. -1.
         11   -1    0    0    0    0 -0.00000000000E+00 -0.00000000000E+00 -0.45593999997E+02  0.45594000000E+02  0.51100000000E-03 0.  1.
    9900012    2    1    2    0    0  0.89307696396E+01 -0.14483965725E+02 -0.36927256325E+02  0.50528853807E+02  0.29999981631E+02 0.  0.
         12    1    1    2    0    0 -0.89307696396E+01  0.14483965725E+02  0.36927256325E+02  0.40659146193E+02  0.00000000000E+00 0. -1.
         11    1    3    3    0    0  0.35188490741E+01  0.23420877850E-02 -0.11146519531E+02  0.11688763930E+02  0.51100000000E-03 0. -1.
        -11    1    3    3    0    0 -0.32347595955E+01 -0.11667852957E+02 -0.27070243845E+02  0.29654688742E+02  0.51100000000E-03 0.  1.
         12    1    3    3    0    0  0.86466801610E+01 -0.28184548551E+01  0.12895070512E+01  0.91854011351E+01  0.00000000000E+00 0. -1.
</event>
<event>
 7    1  0.5902966E-013  0.5052886E+02  0.7816164E-02  0.1300439E+00
        -11   -1    0    0    0    0  0.00000000000E+00  0.00000000000E+00  0.45593999997E+02  0.45594000000E+02  0.51100000000E-03 0. -1.
         11   -1    0    0    0    0 -0.00000000000E+00 -0.00000000000E+00 -0.45593999997E+02  0.45594000000E+02  0.51100000000E-03 0.  1.
    9900012    2    1    2    0    0  0.26347235583E+02 -0.29197603095E+02 -0.10319329274E+02  0.50528863191E+02  0.30000010157E+02 0.  0.
         12    1    1    2    0    0 -0.26347235583E+02  0.29197603095E+02  0.10319329274E+02  0.40659136809E+02  0.00000000000E+00 0. -1.
         11    1    3    3    0    0 -0.71121707791E+00  0.14535016406E+01 -0.56849129197E+01  0.59107302355E+01  0.51100000000E-03 0. -1.
        -11    1    3    3    0    0  0.88198410090E+01 -0.22857205690E+02 -0.15857488043E+01  0.24551090544E+02  0.51100000000E-03 0.  1.
         12    1    3    3    0    0  0.18238611652E+02 -0.77938990454E+01 -0.30486675496E+01  0.20067042412E+02  0.00000000000E+00 0. -1.
</event>
<event>
 7    1  0.8696865E-013  0.5052885E+02  0.7816164E-02  0.1300439E+00
        -11   -1    0    0    0    0  0.00000000000E+00  0.00000000000E+00  0.45593999997E+02  0.45594000000E+02  0.51100000000E-03 0.  1.
         11   -1    0    0    0    0 -0.00000000000E+00 -0.00000000000E+00 -0.45593999997E+02  0.45594000000E+02  0.51100000000E-03 0. -1.
    9900012    2    1    2    0    0 -0.13099064172E+02 -0.24790216861E+02  0.29445302072E+02  0.50528854063E+02  0.29999982409E+02 0.  0.
         12    1    1    2    0    0  0.13099064172E+02  0.24790216861E+02 -0.29445302072E+02  0.40659145937E+02  0.00000000000E+00 0. -1.
         11    1    3    3    0    0  0.43645901835E+01 -0.10399186653E+01  0.10154455286E+01  0.46002400136E+01  0.51100000000E-03 0. -1.
        -11    1    3    3    0    0 -0.10637770460E+02 -0.78705969512E+01  0.69806600490E+00  0.13251254776E+02  0.51100000000E-03 0.  1.
        -12    1    3    3    0    0 -0.68258838961E+01 -0.15879701245E+02  0.27731790539E+02  0.32677359273E+02  0.00000000000E+00 0.  1.
</event>
<event>
 7    1  0.5902966E-013  0.5052885E+02  0.7816164E-02  0.1300439E+00
        -11   -1    0    0    0    0  0.00000000000E+00  0.00000000000E+00  0.45593999997E+02  0.45594000000E+02  0.51100000000E-03 0.  1.
         11   -1    0    0    0    0 -0.00000000000E+00 -0.00000000000E+00 -0.45593999997E+02  0.45594000000E+02  0.51100000000E-03 0. -1.
    9900012    2    1    2    0    0  0.22662633224E+02 -0.32588170283E+02  0.88080862871E+01  0.50528853783E+02  0.29999981560E+02 0.  0.
         12    1    1    2    0    0 -0.22662633224E+02  0.32588170283E+02 -0.88080862871E+01  0.40659146217E+02  0.00000000000E+00 0. -1.
         11    1    3    3    0    0  0.38797686750E+01 -0.15795827101E+02  0.10109660139E+02  0.19151135402E+02  0.51100000000E-03 0. -1.
        -11    1    3    3    0    0  0.99352533367E+01 -0.44532850252E+01  0.80546092623E+01  0.13543180461E+02  0.51100000000E-03 0.  1.
        -12    1    3    3    0    0  0.88476112119E+01 -0.12339058157E+02 -0.93561831146E+01  0.17834537920E+02  0.00000000000E+00 0.  1.
</event>
<event>
 7    1  0.5902966E-013  0.5052885E+02  0.7816164E-02  0.1300439E+00
        -11   -1    0    0    0    0  0.00000000000E+00  0.00000000000E+00  0.45593999997E+02  0.45594000000E+02  0.51100000000E-03 0.  1.
         11   -1    0    0    0    0 -0.00000000000E+00 -0.00000000000E+00 -0.45593999997E+02  0.45594000000E+02  0.51100000000E-03 0. -1.
    9900012    2    1    2    0    0  0.24126613492E+02  0.24037646838E+02  0.22209551683E+02  0.50528854287E+02  0.29999983092E+02 0.  0.
         12    1    1    2    0    0 -0.24126613492E+02 -0.24037646838E+02 -0.22209551683E+02  0.40659145713E+02  0.00000000000E+00 0. -1.
         11    1    3    3    0    0  0.56602793804E+01 -0.21437664712E+01  0.67176208194E+01  0.90421749088E+01  0.51100000000E-03 0. -1.
        -11    1    3    3    0    0  0.20361347445E+01  0.18107088706E+02  0.14260779691E+02  0.23138330618E+02  0.51100000000E-03 0.  1.
         12    1    3    3    0    0  0.16430199367E+02  0.80743246031E+01  0.12311511729E+01  0.18348348761E+02  0.00000000000E+00 0. -1.
</event>
<event>
 7    1  0.5902966E-013  0.5052886E+02  0.7816164E-02  0.1300439E+00
        -11   -1    0    0    0    0  0.00000000000E+00  0.00000000000E+00  0.45593999997E+02  0.45594000000E+02  0.51100000000E-03 0. -1.
         11   -1    0    0    0    0 -0.00000000000E+00 -0.00000000000E+00 -0.45593999997E+02  0.45594000000E+02  0.51100000000E-03 0.  1.
    9900012    2    1    2    0    0  0.11638689284E+02  0.22866067298E+02 -0.31541237142E+02  0.50528858809E+02  0.29999996837E+02 0.  0.
         12    1    1    2    0    0 -0.11638689284E+02 -0.22866067298E+02  0.31541237142E+02  0.40659141191E+02  0.00000000000E+00 0. -1.
         11    1    3    3    0    0 -0.23489411609E+01  0.31770253049E+01 -0.62727658201E+01  0.74134071560E+01  0.51100000000E-03 0. -1.
        -11    1    3    3    0    0  0.13056440690E+02  0.21201579257E+02 -0.29454184358E+02  0.38568466173E+02  0.51100000000E-03 0.  1.
        -12    1    3    3    0    0  0.93118975423E+00 -0.15125372636E+01  0.41857130366E+01  0.45469854802E+01  0.00000000000E+00 0.  1.
</event>
<event>
 7    1  0.5902966E-013  0.5052884E+02  0.7816164E-02  0.1300439E+00
        -11   -1    0    0    0    0  0.00000000000E+00  0.00000000000E+00  0.45593999997E+02  0.45594000000E+02  0.51100000000E-03 0.  1.
         11   -1    0    0    0    0 -0.00000000000E+00 -0.00000000000E+00 -0.45593999997E+02  0.45594000000E+02  0.51100000000E-03 0. -1.
    9900012    2    1    2    0    0 -0.29744768603E+02  0.23530822144E+02  0.14653192834E+02  0.50528844693E+02  0.29999953930E+02 0.  0.
         12    1    1    2    0    0  0.29744768603E+02 -0.23530822144E+02 -0.14653192834E+02  0.40659155307E+02  0.00000000000E+00 0. -1.
         11    1    3    3    0    0 -0.45038654655E+01 -0.33820591410E+01 -0.23261752157E+01  0.60937853228E+01  0.51100000000E-03 0. -1.
        -11    1    3    3    0    0 -0.11715804586E+02  0.71560165072E+01  0.15116180674E+02  0.20419783735E+02  0.51100000000E-03 0.  1.
         12    1    3    3    0    0 -0.13525098551E+02  0.19756864778E+02  0.18631873761E+01  0.24015275636E+02  0.00000000000E+00 0. -1.
</event>
<event>
 7    1  0.5902966E-013  0.5052886E+02  0.7816164E-02  0.1300439E+00
        -11   -1    0    0    0    0  0.00000000000E+00  0.00000000000E+00  0.45593999997E+02  0.45594000000E+02  0.51100000000E-03 0. -1.
         11   -1    0    0    0    0 -0.00000000000E+00 -0.00000000000E+00 -0.45593999997E+02  0.45594000000E+02  0.51100000000E-03 0.  1.
    9900012    2    1    2    0    0 -0.37805604128E+02  0.30866104128E+01 -0.14641530445E+02  0.50528864728E+02  0.30000014827E+02 0.  0.
         12    1    1    2    0    0  0.37805604128E+02 -0.30866104128E+01  0.14641530445E+02  0.40659135272E+02  0.00000000000E+00 0. -1.
         11    1    3    3    0    0 -0.67951600923E+01  0.62838650959E+01  0.18109575382E+01  0.94308392357E+01  0.51100000000E-03 0. -1.
        -11    1    3    3    0    0 -0.62020369793E+01 -0.48328009337E+01  0.40756394631E+01  0.88561879413E+01  0.51100000000E-03 0.  1.
        -12    1    3    3    0    0 -0.24808407056E+02  0.16355462506E+01 -0.20528127446E+02  0.32241837551E+02  0.00000000000E+00 0.  1.
</event>
<event>
 7    1  0.5902966E-013  0.5052886E+02  0.7816164E-02  0.1300439E+00
        -11   -1    0    0    0    0  0.00000000000E+00  0.00000000000E+00  0.45593999997E+02  0.45594000000E+02  0.51100000000E-03 0. -1.
         11   -1    0    0    0    0 -0.00000000000E+00 -0.00000000000E+00 -0.45593999997E+02  0.45594000000E+02  0.51100000000E-03 0.  1.
    9900012    2    1    2    0    0  0.24074302976E+02  0.20419032571E+02 -0.25625307490E+02  0.50528864017E+02  0.30000012667E+02 0.  0.
         12    1    1    2    0    0 -0.24074302976E+02 -0.20419032571E+02  0.25625307490E+02  0.40659135983E+02  0.00000000000E+00 0. -1.
         11    1    3    3    0    0  0.14110779619E+02 -0.20199695552E+01 -0.38439400853E+01  0.14763815703E+02  0.51100000000E-03 0. -1.
        -11    1    3    3    0    0  0.32405022870E+01  0.54064178060E+01  0.11628461159E+01  0.64095569204E+01  0.51100000000E-03 0.  1.
         12    1    3    3    0    0  0.67230210696E+01  0.17032584320E+02 -0.22944213520E+02  0.29355491394E+02  0.00000000000E+00 0. -1.
</event>
<event>
 7    1  0.5902966E-013  0.5052886E+02  0.7816164E-02  0.1300439E+00
        -11   -1    0    0    0    0  0.00000000000E+00  0.00000000000E+00  0.45593999997E+02  0.45594000000E+02  0.51100000000E-03 0.  1.
         11   -1    0    0    0    0 -0.00000000000E+00 -0.00000000000E+00 -0.45593999997E+02  0.45594000000E+02  0.51100000000E-03 0. -1.
    9900012    2    1    2    0    0  0.34135570449E+02 -0.90996792297E+00  0.22070350101E+02  0.50528861236E+02  0.30000004212E+02 0.  0.
         12    1    1    2    0    0 -0.34135570449E+02  0.90996792297E+00 -0.22070350101E+02  0.40659138764E+02  0.00000000000E+00 0. -1.
         11    1    3    3    0    0  0.11624197151E+02  0.36556294292E+01  0.11133189604E+02  0.16505559577E+02  0.51100000000E-03 0.  1.
        -11    1    3    3    0    0  0.86810923501E+01 -0.45081586105E+01 -0.65169128428E+01  0.11753936009E+02  0.51100000000E-03 0. -1.
         12    1    3    3    0    0  0.13830280948E+02 -0.57438741660E-01  0.17454073340E+02  0.22269365650E+02  0.00000000000E+00 0. -1.
</event>
<event>
 7    1  0.5902966E-013  0.5052886E+02  0.7816164E-02  0.1300439E+00
        -11   -1    0    0    0    0  0.00000000000E+00  0.00000000000E+00  0.45593999997E+02  0.45594000000E+02  0.51100000000E-03 0. -1.
         11   -1    0    0    0    0 -0.00000000000E+00 -0.00000000000E+00 -0.45593999997E+02  0.45594000000E+02  0.51100000000E-03 0.  1.
    9900012    2    1    2    0    0  0.17092432665E+02  0.14739061062E+02 -0.33819737523E+02  0.50528858082E+02  0.29999994626E+02 0.  0.
         12    1    1    2    0    0 -0.17092432665E+02 -0.14739061062E+02  0.33819737523E+02  0.40659141918E+02  0.00000000000E+00 0. -1.
         11    1    3    3    0    0  0.11778901564E+01 -0.57351519087E+00 -0.60550006462E+01  0.61951091985E+01  0.51100000000E-03 0. -1.
        -11    1    3    3    0    0  0.50603758081E+01  0.21348253444E+02 -0.19994129729E+02  0.29683674845E+02  0.51100000000E-03 0.  1.
         12    1    3    3    0    0  0.10854166700E+02 -0.60356771903E+01 -0.77706071474E+01  0.14650074039E+02  0.00000000000E+00 0. -1.
</event>
<event>
 7    1  0.5902966E-013  0.5052886E+02  0.7816164E-02  0.1300439E+00
        -11   -1    0    0    0    0  0.00000000000E+00  0.00000000000E+00  0.45593999997E+02  0.45594000000E+02  0.51100000000E-03 0. -1.
         11   -1    0    0    0    0 -0.00000000000E+00 -0.00000000000E+00 -0.45593999997E+02  0.45594000000E+02  0.51100000000E-03 0.  1.
    9900012    2    1    2    0    0 -0.36249579970E+02 -0.18142875970E+02 -0.31574981565E+01  0.50528858456E+02  0.29999995763E+02 0.  0.
         12    1    1    2    0    0  0.36249579970E+02  0.18142875970E+02  0.31574981565E+01  0.40659141544E+02  0.00000000000E+00 0. -1.
         11    1    3    3    0    0 -0.20069606469E+02 -0.15444087147E+02 -0.10576273958E+02  0.27443879148E+02  0.51100000000E-03 0.  1.
        -11    1    3    3    0    0 -0.48179362275E+01  0.17271615498E+01 -0.39100735573E+01  0.64408285178E+01  0.51100000000E-03 0. -1.
         12    1    3    3    0    0 -0.11362037274E+02 -0.44259503730E+01  0.11328849359E+02  0.16644150790E+02  0.00000000000E+00 0. -1.
</event>
<event>
 7    1  0.6669879E-013  0.5052886E+02  0.7816164E-02  0.1300439E+00
        -11   -1    0    0    0    0  0.00000000000E+00  0.00000000000E+00  0.45593999997E+02  0.45594000000E+02  0.51100000000E-03 0. -1.
         11   -1    0    0    0    0 -0.00000000000E+00 -0.00000000000E+00 -0.45593999997E+02  0.45594000000E+02  0.51100000000E-03 0.  1.
    9900012    2    1    2    0    0  0.25585893690E+01 -0.67335887092E+01 -0.40015970932E+02  0.50528861715E+02  0.30000005669E+02 0.  0.
         12    1    1    2    0    0 -0.25585893690E+01  0.67335887092E+01  0.40015970932E+02  0.40659138285E+02  0.00000000000E+00 0. -1.
         11    1    3    3    0    0  0.97110497991E+01 -0.55391860504E+00 -0.76033515812E+01  0.12345941420E+02  0.51100000000E-03 0. -1.
        -11    1    3    3    0    0 -0.81093825384E+00 -0.96782427815E+01 -0.75925312980E+01  0.12327714142E+02  0.51100000000E-03 0.  1.
        -12    1    3    3    0    0 -0.63415221762E+01  0.34985726774E+01 -0.24820088052E+02  0.25855206153E+02  0.00000000000E+00 0.  1.
</event>
<event>
 7    1  0.5902966E-013  0.5052881E+02  0.7816164E-02  0.1300439E+00
        -11   -1    0    0    0    0  0.00000000000E+00  0.00000000000E+00  0.45593999997E+02  0.45594000000E+02  0.51100000000E-03 0.  1.
         11   -1    0    0    0    0 -0.00000000000E+00 -0.00000000000E+00 -0.45593999997E+02  0.45594000000E+02  0.51100000000E-03 0. -1.
    9900012    2    1    2    0    0 -0.39961811037E+02  0.36055171317E+01 -0.65744459948E+01  0.50528813642E+02  0.29999859545E+02 0.  0.
         12    1    1    2    0    0  0.39961811037E+02 -0.36055171317E+01  0.65744459948E+01  0.40659186358E+02  0.00000000000E+00 0. -1.
         11    1    3    3    0    0  0.48165951615E+00  0.48026818417E-01 -0.67039814559E+01  0.67214336333E+01  0.51100000000E-03 0. -1.
        -11    1    3    3    0    0 -0.13401582895E+02 -0.21654405685E+01  0.70734246624E+01  0.15307674339E+02  0.51100000000E-03 0.  1.
        -12    1    3    3    0    0 -0.27041887658E+02  0.57229308818E+01 -0.69438892014E+01  0.28499705669E+02  0.00000000000E+00 0.  1.
</event>
<event>
 7    1  0.5902966E-013  0.5052886E+02  0.7816164E-02  0.1300439E+00
        -11   -1    0    0    0    0  0.00000000000E+00  0.00000000000E+00  0.45593999997E+02  0.45594000000E+02  0.51100000000E-03 0.  1.
         11   -1    0    0    0    0 -0.00000000000E+00 -0.00000000000E+00 -0.45593999997E+02  0.45594000000E+02  0.51100000000E-03 0. -1.
    9900012    2    1    2    0    0 -0.26922726692E+01  0.18727547393E+02  0.35988836219E+02  0.50528859627E+02  0.29999999323E+02 0.  0.
         12    1    1    2    0    0  0.26922726692E+01 -0.18727547393E+02 -0.35988836219E+02  0.40659140373E+02  0.00000000000E+00 0. -1.
         11    1    3    3    0    0 -0.11107542758E+02  0.17983388616E+01  0.21337168058E+02  0.24122318913E+02  0.51100000000E-03 0. -1.
        -11    1    3    3    0    0  0.29565902001E+01  0.10551698921E+02  0.14284987070E+02  0.18003906009E+02  0.51100000000E-03 0.  1.
        -12    1    3    3    0    0  0.54586798886E+01  0.63775096106E+01  0.36668109101E+00  0.84026347048E+01  0.00000000000E+00 0.  1.
</event>
<event>
 7    1  0.5902966E-013  0.5052886E+02  0.7816164E-02  0.1300439E+00
        -11   -1    0    0    0    0  0.00000000000E+00  0.00000000000E+00  0.45593999997E+02  0.45594000000E+02  0.51100000000E-03 0.  1.
         11   -1    0    0    0    0 -0.00000000000E+00 -0.00000000000E+00 -0.45593999997E+02  0.45594000000E+02  0.51100000000E-03 0. -1.
    9900012    2    1    2    0    0 -0.36632201992E+00 -0.39160679216E+02  0.10930358426E+02  0.50528859284E+02  0.29999998279E+02 0.  0.
         12    1    1    2    0    0  0.36632201992E+00  0.39160679216E+02 -0.10930358426E+02  0.40659140716E+02  0.00000000000E+00 0. -1.
         11    1    3    3    0    0  0.34310525522E+01 -0.69595479305E+01  0.27470212678E+01  0.82312547718E+01  0.51100000000E-03 0. -1.
        -11    1    3    3    0    0 -0.64972127223E+01 -0.18985458423E+02  0.16902262165E+02  0.26236384493E+02  0.51100000000E-03 0.  1.
         12    1    3    3    0    0  0.26998381502E+01 -0.13215672862E+02 -0.87189250066E+01  0.16061220019E+02  0.00000000000E+00 0. -1.
</event>
<event>
 7    1  0.5902966E-013  0.5052886E+02  0.7816164E-02  0.1300439E+00
        -11   -1    0    0    0    0  0.00000000000E+00  0.00000000000E+00  0.45593999997E+02  0.45594000000E+02  0.51100000000E-03 0.  1.
         11   -1    0    0    0    0 -0.00000000000E+00 -0.00000000000E+00 -0.45593999997E+02  0.45594000000E+02  0.51100000000E-03 0. -1.
    9900012    2    1    2    0    0  0.19257097638E+01 -0.33690642454E+02  0.22680342613E+02  0.50528859723E+02  0.29999999613E+02 0.  0.
         12    1    1    2    0    0 -0.19257097638E+01  0.33690642454E+02 -0.22680342613E+02  0.40659140277E+02  0.00000000000E+00 0. -1.
         11    1    3    3    0    0 -0.72478629841E+01 -0.17064815026E+02  0.77072286974E+01  0.20078366571E+02  0.51100000000E-03 0. -1.
        -11    1    3    3    0    0 -0.46958100394E+01 -0.67800447678E+01  0.75528334451E+00  0.82819135573E+01  0.51100000000E-03 0.  1.
        -12    1    3    3    0    0  0.13869382787E+02 -0.98457826600E+01  0.14217830571E+02  0.22168579595E+02  0.00000000000E+00 0.  1.
</event>
<event>
 7    1  0.5902966E-013  0.5052886E+02  0.7816164E-02  0.1300439E+00
        -11   -1    0    0    0    0  0.00000000000E+00  0.00000000000E+00  0.45593999997E+02  0.45594000000E+02  0.51100000000E-03 0.  1.
         11   -1    0    0    0    0 -0.00000000000E+00 -0.00000000000E+00 -0.45593999997E+02  0.45594000000E+02  0.51100000000E-03 0. -1.
    9900012    2    1    2    0    0  0.16850014581E+02  0.19208283181E+01  0.36953387466E+02  0.50528863044E+02  0.30000009708E+02 0.  0.
         12    1    1    2    0    0 -0.16850014581E+02 -0.19208283181E+01 -0.36953387466E+02  0.40659136956E+02  0.00000000000E+00 0. -1.
         11    1    3    3    0    0  0.44473828502E+01  0.28738764206E+01  0.74925473266E+01  0.91747831364E+01  0.51100000000E-03 0.  1.
        -11    1    3    3    0    0 -0.54945178652E+01  0.53900344849E+01  0.19731939271E+01  0.79457971818E+01  0.51100000000E-03 0. -1.
         12    1    3    3    0    0  0.17897149596E+02 -0.63430825873E+01  0.27487646212E+02  0.33408282726E+02  0.00000000000E+00 0. -1.
</event>
<event>
 7    1  0.5902966E-013  0.5052885E+02  0.7816164E-02  0.1300439E+00
        -11   -1    0    0    0    0  0.00000000000E+00  0.00000000000E+00  0.45593999997E+02  0.45594000000E+02  0.51100000000E-03 0.  1.
         11   -1    0    0    0    0 -0.00000000000E+00 -0.00000000000E+00 -0.45593999997E+02  0.45594000000E+02  0.51100000000E-03 0. -1.
    9900012    2    1    2    0    0  0.59717513388E+01 -0.27451760671E+02  0.29392267943E+02  0.50528851056E+02  0.29999973271E+02 0.  0.
         12    1    1    2    0    0 -0.59717513388E+01  0.27451760671E+02 -0.29392267943E+02  0.40659148944E+02  0.00000000000E+00 0. -1.
         11    1    3    3    0    0 -0.66762878374E+01 -0.14342704655E+00  0.60657102394E+01  0.90214317918E+01  0.51100000000E-03 0. -1.
        -11    1    3    3    0    0 -0.39326043684E+01 -0.47037304592E+01  0.26800513974E+01  0.66912729062E+01  0.51100000000E-03 0.  1.
         12    1    3    3    0    0  0.16580643545E+02 -0.22604603165E+02  0.20646506306E+02  0.34816146359E+02  0.00000000000E+00 0. -1.
</event>
<event>
 7    1  0.5902966E-013  0.5052885E+02  0.7816164E-02  0.1300439E+00
        -11   -1    0    0    0    0  0.00000000000E+00  0.00000000000E+00  0.45593999997E+02  0.45594000000E+02  0.51100000000E-03 0. -1.
         11   -1    0    0    0    0 -0.00000000000E+00 -0.00000000000E+00 -0.45593999997E+02  0.45594000000E+02  0.51100000000E-03 0.  1.
    9900012    2    1    2    0    0 -0.21120204767E+01 -0.33182320205E+02 -0.23401702597E+02  0.50528847413E+02  0.29999962195E+02 0.  0.
         12    1    1    2    0    0  0.21120204767E+01  0.33182320205E+02  0.23401702597E+02  0.40659152587E+02  0.00000000000E+00 0. -1.
         11    1    3    3    0    0  0.97465700525E+01 -0.30982954158E+01 -0.47138433969E+01  0.11261233596E+02  0.51100000000E-03 0. -1.
        -11    1    3    3    0    0  0.18377103636E+01 -0.10365157757E+02 -0.56768200864E+01  0.11959931491E+02  0.51100000000E-03 0.  1.
         12    1    3    3    0    0 -0.13696300893E+02 -0.19718867032E+02 -0.13011039114E+02  0.27307682326E+02  0.00000000000E+00 0. -1.
</event>
<event>
 7    1  0.5902966E-013  0.5052886E+02  0.7816164E-02  0.1300439E+00
        -11   -1    0    0    0    0  0.00000000000E+00  0.00000000000E+00  0.45593999997E+02  0.45594000000E+02  0.51100000000E-03 0.  1.
         11   -1    0    0    0    0 -0.00000000000E+00 -0.00000000000E+00 -0.45593999997E+02  0.45594000000E+02  0.51100000000E-03 0. -1.
    9900012    2    1    2    0    0 -0.12661948818E+02  0.15352619766E+02  0.35456143160E+02  0.50528856264E+02  0.29999989101E+02 0.  0.
         12    1    1    2    0    0  0.12661948818E+02 -0.15352619766E+02 -0.35456143160E+02  0.40659143736E+02  0.00000000000E+00 0. -1.
         11    1    3    3    0    0  0.16961692343E+01  0.91600057787E+01  0.88032464006E+01  0.12817169867E+02  0.51100000000E-03 0. -1.
        -11    1    3    3    0    0 -0.47679140133E+01  0.39292558116E+01  0.27151339857E+02  0.27845418143E+02  0.51100000000E-03 0.  1.
         12    1    3    3    0    0 -0.95902040391E+01  0.22633581761E+01 -0.49844309834E+00  0.98662682544E+01  0.00000000000E+00 0. -1.
</event>
<event>
 7    1  0.5902966E-013  0.5052886E+02  0.7816164E-02  0.1300439E+00
        -11   -1    0    0    0    0  0.00000000000E+00  0.00000000000E+00  0.45593999997E+02  0.45594000000E+02  0.51100000000E-03 0.  1.
         11   -1    0    0    0    0 -0.00000000000E+00 -0.00000000000E+00 -0.45593999997E+02  0.45594000000E+02  0.51100000000E-03 0. -1.
    9900012    2    1    2    0    0 -0.48168204935E+01 -0.29186600355E+02  0.27894551693E+02  0.50528863092E+02  0.30000009855E+02 0.  0.
         12    1    1    2    0    0  0.48168204935E+01  0.29186600355E+02 -0.27894551693E+02  0.40659136908E+02  0.00000000000E+00 0. -1.
         11    1    3    3    0    0 -0.16157663789E+01 -0.23054069544E+02  0.18253382032E+02  0.29449733096E+02  0.51100000000E-03 0. -1.
        -11    1    3    3    0    0 -0.78347125615E+01 -0.71395127976E+01  0.11806257799E+02  0.15866413816E+02  0.51100000000E-03 0.  1.
         12    1    3    3    0    0  0.46336584469E+01  0.10069819873E+01 -0.21650881386E+01  0.52127161800E+01  0.00000000000E+00 0. -1.
</event>
<event>
 7    1  0.5902966E-013  0.5052886E+02  0.7816164E-02  0.1300439E+00
        -11   -1    0    0    0    0  0.00000000000E+00  0.00000000000E+00  0.45593999997E+02  0.45594000000E+02  0.51100000000E-03 0.  1.
         11   -1    0    0    0    0 -0.00000000000E+00 -0.00000000000E+00 -0.45593999997E+02  0.45594000000E+02  0.51100000000E-03 0. -1.
    9900012    2    1    2    0    0  0.36886718053E+01 -0.40489591529E+02  0.39057455195E+00  0.50528857481E+02  0.29999992799E+02 0.  0.
         12    1    1    2    0    0 -0.36886718053E+01  0.40489591529E+02 -0.39057455195E+00  0.40659142519E+02  0.00000000000E+00 0. -1.
         11    1    3    3    0    0  0.66557379872E+00 -0.81433544885E+00 -0.54358898465E+01  0.55366984196E+01  0.51100000000E-03 0. -1.
        -11    1    3    3    0    0 -0.37318931078E+01 -0.36441380849E+02  0.22722148766E+01  0.36702373562E+02  0.51100000000E-03 0.  1.
         12    1    3    3    0    0  0.67549911144E+01 -0.32338752315E+01  0.35542495219E+01  0.82897854998E+01  0.00000000000E+00 0. -1.
</event>
<event>
 7    1  0.5902966E-013  0.5052887E+02  0.7816164E-02  0.1300439E+00
        -11   -1    0    0    0    0  0.00000000000E+00  0.00000000000E+00  0.45593999997E+02  0.45594000000E+02  0.51100000000E-03 0.  1.
         11   -1    0    0    0    0 -0.00000000000E+00 -0.00000000000E+00 -0.45593999997E+02  0.45594000000E+02  0.51100000000E-03 0. -1.
    9900012    2    1    2    0    0 -0.31987561771E+02 -0.10151835678E+02  0.22954324603E+02  0.50528869492E+02  0.30000029307E+02 0.  0.
         12    1    1    2    0    0  0.31987561771E+02  0.10151835678E+02 -0.22954324603E+02  0.40659130508E+02  0.00000000000E+00 0. -1.
         11    1    3    3    0    0 -0.14100422499E+02 -0.67365170170E+01  0.28152470347E+01  0.15878545031E+02  0.51100000000E-03 0. -1.
        -11    1    3    3    0    0 -0.16415481837E+02 -0.71910409237E+01  0.23382007462E+02  0.29460098213E+02  0.51100000000E-03 0.  1.
         12    1    3    3    0    0 -0.14716574357E+01  0.37757222625E+01 -0.32429298936E+01  0.51902262481E+01  0.00000000000E+00 0. -1.
</event>
<event>
 7    1  0.5902966E-013  0.5052886E+02  0.7816164E-02  0.1300439E+00
        -11   -1    0    0    0    0  0.00000000000E+00  0.00000000000E+00  0.45593999997E+02  0.45594000000E+02  0.51100000000E-03 0.  1.
         11   -1    0    0    0    0 -0.00000000000E+00 -0.00000000000E+00 -0.45593999997E+02  0.45594000000E+02  0.51100000000E-03 0. -1.
    9900012    2    1    2    0    0 -0.18076520726E+02 -0.14807344608E+02  0.33273823565E+02  0.50528863382E+02  0.30000010735E+02 0.  0.
         12    1    1    2    0    0  0.18076520726E+02  0.14807344608E+02 -0.33273823565E+02  0.40659136618E+02  0.00000000000E+00 0. -1.
         11    1    3    3    0    0 -0.49810702144E+01 -0.54308109072E+01  0.22994106722E+02  0.24146091025E+02  0.51100000000E-03 0.  1.
        -11    1    3    3    0    0 -0.77815599812E+01 -0.14578410141E+02  0.90642470846E+01  0.18847898914E+02  0.51100000000E-03 0. -1.
         12    1    3    3    0    0 -0.53138905302E+01  0.52018764401E+01  0.12154697588E+01  0.75348734429E+01  0.00000000000E+00 0. -1.
</event>
<event>
 7    1  0.5902966E-013  0.5052887E+02  0.7816164E-02  0.1300439E+00
        -11   -1    0    0    0    0  0.00000000000E+00  0.00000000000E+00  0.45593999997E+02  0.45594000000E+02  0.51100000000E-03 0.  1.
         11   -1    0    0    0    0 -0.00000000000E+00 -0.00000000000E+00 -0.45593999997E+02  0.45594000000E+02  0.51100000000E-03 0. -1.
    9900012    2    1    2    0    0  0.10649732973E+02 -0.56873830563E+01  0.38825271698E+02  0.50528869896E+02  0.30000030535E+02 0.  0.
         12    1    1    2    0    0 -0.10649732973E+02  0.56873830563E+01 -0.38825271698E+02  0.40659130104E+02  0.00000000000E+00 0. -1.
         11    1    3    3    0    0  0.79062511980E+01  0.44222960717E+01  0.20143956850E+02  0.22087202366E+02  0.51100000000E-03 0. -1.
        -11    1    3    3    0    0 -0.67227542639E+01 -0.99118993770E+01  0.10287149635E+02  0.15788179820E+02  0.51100000000E-03 0.  1.
         12    1    3    3    0    0  0.94662360394E+01 -0.19777975104E+00  0.83941652130E+01  0.12653487709E+02  0.00000000000E+00 0. -1.
</event>
<event>
 7    1  0.5902966E-013  0.5052887E+02  0.7816164E-02  0.1300439E+00
        -11   -1    0    0    0    0  0.00000000000E+00  0.00000000000E+00  0.45593999997E+02  0.45594000000E+02  0.51100000000E-03 0.  1.
         11   -1    0    0    0    0 -0.00000000000E+00 -0.00000000000E+00 -0.45593999997E+02  0.45594000000E+02  0.51100000000E-03 0. -1.
    9900012    2    1    2    0    0  0.30913072450E+02  0.10619953841E+02  0.24181878541E+02  0.50528871657E+02  0.30000035889E+02 0.  0.
         12    1    1    2    0    0 -0.30913072450E+02 -0.10619953841E+02 -0.24181878541E+02  0.40659128343E+02  0.00000000000E+00 0. -1.
         11    1    3    3    0    0  0.15428305859E+02  0.13934157538E+02  0.16669389752E+02  0.26646987127E+02  0.51100000000E-03 0. -1.
        -11    1    3    3    0    0  0.15169754622E+02  0.10394051515E+01  0.13856621056E-01  0.15205328363E+02  0.51100000000E-03 0.  1.
         12    1    3    3    0    0  0.31501196871E+00 -0.43536088483E+01  0.74986321670E+01  0.86765561671E+01  0.00000000000E+00 0. -1.
</event>
<event>
 7    1  0.5902966E-013  0.5052886E+02  0.7816164E-02  0.1300439E+00
        -11   -1    0    0    0    0  0.00000000000E+00  0.00000000000E+00  0.45593999997E+02  0.45594000000E+02  0.51100000000E-03 0. -1.
         11   -1    0    0    0    0 -0.00000000000E+00 -0.00000000000E+00 -0.45593999997E+02  0.45594000000E+02  0.51100000000E-03 0.  1.
    9900012    2    1    2    0    0  0.71666946642E+01  0.29609577901E+02 -0.26927257410E+02  0.50528858254E+02  0.29999995148E+02 0.  0.
         12    1    1    2    0    0 -0.71666946642E+01 -0.29609577901E+02  0.26927257410E+02  0.40659141746E+02  0.00000000000E+00 0. -1.
         11    1    3    3    0    0  0.35361625267E+01 -0.18497117376E+00 -0.59542705238E+01  0.69276256742E+01  0.51100000000E-03 0. -1.
        -11    1    3    3    0    0  0.22656688326E+01  0.33122828062E+02 -0.22038964139E+02  0.39849353002E+02  0.51100000000E-03 0.  1.
         12    1    3    3    0    0  0.13648633050E+01 -0.33282789873E+01  0.10659772527E+01  0.37518795772E+01  0.00000000000E+00 0. -1.
</event>
<event>
 7    1  0.5902966E-013  0.5052886E+02  0.7816164E-02  0.1300439E+00
        -11   -1    0    0    0    0  0.00000000000E+00  0.00000000000E+00  0.45593999997E+02  0.45594000000E+02  0.51100000000E-03 0.  1.
         11   -1    0    0    0    0 -0.00000000000E+00 -0.00000000000E+00 -0.45593999997E+02  0.45594000000E+02  0.51100000000E-03 0. -1.
    9900012    2    1    2    0    0 -0.34257989487E+02 -0.99254857898E+01  0.19520256306E+02  0.50528861813E+02  0.30000005967E+02 0.  0.
         12    1    1    2    0    0  0.34257989487E+02  0.99254857898E+01 -0.19520256306E+02  0.40659138187E+02  0.00000000000E+00 0. -1.
         11    1    3    3    0    0 -0.58713966502E+01 -0.31397773345E+01  0.39242412428E+01  0.77285943047E+01  0.51100000000E-03 0. -1.
        -11    1    3    3    0    0 -0.21281674901E+02  0.84348969687E+01  0.70453647953E+01  0.23951917226E+02  0.51100000000E-03 0.  1.
         12    1    3    3    0    0 -0.71049179365E+01 -0.15220605424E+02  0.85506502674E+01  0.18848350282E+02  0.00000000000E+00 0. -1.
</event>
<event>
 7    1  0.6381332E-013  0.5052887E+02  0.7816164E-02  0.1300439E+00
        -11   -1    0    0    0    0  0.00000000000E+00  0.00000000000E+00  0.45593999997E+02  0.45594000000E+02  0.51100000000E-03 0. -1.
         11   -1    0    0    0    0 -0.00000000000E+00 -0.00000000000E+00 -0.45593999997E+02  0.45594000000E+02  0.51100000000E-03 0.  1.
    9900012    2    1    2    0    0  0.30631588625E+01  0.30703713744E+02 -0.26477618215E+02  0.50528865157E+02  0.30000016131E+02 0.  0.
         12    1    1    2    0    0 -0.30631588625E+01 -0.30703713744E+02  0.26477618215E+02  0.40659134843E+02  0.00000000000E+00 0. -1.
         11    1    3    3    0    0 -0.50035728754E+01 -0.32880994786E+01 -0.23208538327E+01  0.64213474034E+01  0.51100000000E-03 0. -1.
        -11    1    3    3    0    0 -0.29363435749E+01  0.91303033581E+01 -0.79384148563E+01  0.12450019425E+02  0.51100000000E-03 0.  1.
        -12    1    3    3    0    0  0.11003075313E+02  0.24861509864E+02 -0.16218349526E+02  0.31657498328E+02  0.00000000000E+00 0.  1.
</event>
<event>
 7    1  0.5902966E-013  0.5052886E+02  0.7816164E-02  0.1300439E+00
        -11   -1    0    0    0    0  0.00000000000E+00  0.00000000000E+00  0.45593999997E+02  0.45594000000E+02  0.51100000000E-03 0.  1.
         11   -1    0    0    0    0 -0.00000000000E+00 -0.00000000000E+00 -0.45593999997E+02  0.45594000000E+02  0.51100000000E-03 0. -1.
    9900012    2    1    2    0    0  0.19637358143E+02 -0.17533602726E+02  0.30985684485E+02  0.50528859547E+02  0.29999999079E+02 0.  0.
         12    1    1    2    0    0 -0.19637358143E+02  0.17533602726E+02 -0.30985684485E+02  0.40659140453E+02  0.00000000000E+00 0. -1.
         11    1    3    3    0    0  0.41612323336E+00  0.20835048390E+01 -0.82374341873E-01  0.21262494568E+01  0.51100000000E-03 0. -1.
        -11    1    3    3    0    0  0.81745476460E+01 -0.18634872642E+02  0.63600119148E+01  0.21319743418E+02  0.51100000000E-03 0.  1.
         12    1    3    3    0    0  0.11046687263E+02 -0.98223492294E+00  0.24708046912E+02  0.27082866672E+02  0.00000000000E+00 0. -1.
</event>
<event>
 7    1  0.5902966E-013  0.5052877E+02  0.7816164E-02  0.1300439E+00
        -11   -1    0    0    0    0  0.00000000000E+00  0.00000000000E+00  0.45593999997E+02  0.45594000000E+02  0.51100000000E-03 0. -1.
         11   -1    0    0    0    0 -0.00000000000E+00 -0.00000000000E+00 -0.45593999997E+02  0.45594000000E+02  0.51100000000E-03 0.  1.
    9900012    2    1    2    0    0 -0.23149789648E+02  0.21515890940E+02 -0.25579808536E+02  0.50528770686E+02  0.29999728976E+02 0.  0.
         12    1    1    2    0    0  0.23149789648E+02 -0.21515890940E+02  0.25579808536E+02  0.40659229314E+02  0.00000000000E+00 0. -1.
         11    1    3    3    0    0  0.59964567563E+01  0.61728491948E+01 -0.29264729966E+01  0.90898737765E+01  0.51100000000E-03 0. -1.
        -11    1    3    3    0    0 -0.80240821735E+00  0.78865534833E+00  0.11940759689E+01  0.16406260653E+01  0.51100000000E-03 0.  1.
        -12    1    3    3    0    0 -0.28343838187E+02  0.14554386396E+02 -0.23847411508E+02  0.39798270844E+02  0.00000000000E+00 0.  1.
</event>
<event>
 7    1  0.5902966E-013  0.5052896E+02  0.7816164E-02  0.1300438E+00
        -11   -1    0    0    0    0  0.00000000000E+00  0.00000000000E+00  0.45593999997E+02  0.45594000000E+02  0.51100000000E-03 0. -1.
         11   -1    0    0    0    0 -0.00000000000E+00 -0.00000000000E+00 -0.45593999997E+02  0.45594000000E+02  0.51100000000E-03 0.  1.
    9900012    2    1    2    0    0 -0.97098983903E+01 -0.34920587874E+02 -0.18423576611E+02  0.50528957225E+02  0.30000295981E+02 0.  0.
         12    1    1    2    0    0  0.97098983903E+01  0.34920587874E+02  0.18423576611E+02  0.40659042775E+02  0.00000000000E+00 0. -1.
         11    1    3    3    0    0 -0.42502598706E+01 -0.19598754125E+02 -0.45191961932E+01  0.20557213010E+02  0.51100000000E-03 0. -1.
        -11    1    3    3    0    0  0.31053131637E+01 -0.15569245534E+02 -0.14338192993E+02  0.21392245205E+02  0.51100000000E-03 0.  1.
         12    1    3    3    0    0 -0.85649516834E+01  0.24741178520E+00  0.43381257498E+00  0.85794990111E+01  0.00000000000E+00 0. -1.
</event>
<event>
 7    1  0.5902966E-013  0.5052886E+02  0.7816164E-02  0.1300439E+00
        -11   -1    0    0    0    0  0.00000000000E+00  0.00000000000E+00  0.45593999997E+02  0.45594000000E+02  0.51100000000E-03 0.  1.
         11   -1    0    0    0    0 -0.00000000000E+00 -0.00000000000E+00 -0.45593999997E+02  0.45594000000E+02  0.51100000000E-03 0. -1.
    9900012    2    1    2    0    0 -0.25031975913E+02 -0.20149952552E+02  0.24910741719E+02  0.50528862541E+02  0.30000008179E+02 0.  0.
         12    1    1    2    0    0  0.25031975913E+02  0.20149952552E+02 -0.24910741719E+02  0.40659137459E+02  0.00000000000E+00 0. -1.
         11    1    3    3    0    0 -0.21442700237E+00 -0.69381776119E+01  0.14739726922E+00  0.69430550718E+01  0.51100000000E-03 0. -1.
        -11    1    3    3    0    0 -0.23438398109E+02 -0.18837093223E+02  0.20466138696E+02  0.36373856277E+02  0.51100000000E-03 0.  1.
         12    1    3    3    0    0 -0.13791508013E+01  0.56253182830E+01  0.42972057529E+01  0.72119511923E+01  0.00000000000E+00 0. -1.
</event>
<event>
 7    1  0.5902966E-013  0.5052880E+02  0.7816164E-02  0.1300439E+00
        -11   -1    0    0    0    0  0.00000000000E+00  0.00000000000E+00  0.45593999997E+02  0.45594000000E+02  0.51100000000E-03 0.  1.
         11   -1    0    0    0    0 -0.00000000000E+00 -0.00000000000E+00 -0.45593999997E+02  0.45594000000E+02  0.51100000000E-03 0. -1.
    9900012    2    1    2    0    0  0.18249904470E+02 -0.36237693652E+02 -0.26346350810E+01  0.50528797396E+02  0.29999810164E+02 0.  0.
         12    1    1    2    0    0 -0.18249904470E+02  0.36237693652E+02  0.26346350810E+01  0.40659202604E+02  0.00000000000E+00 0. -1.
         11    1    3    3    0    0  0.14151464561E+02 -0.28783066820E+02 -0.57416300404E+01  0.32583664628E+02  0.51100000000E-03 0. -1.
        -11    1    3    3    0    0  0.88154879700E+01 -0.73745284313E+01  0.54011521646E+01  0.12699170945E+02  0.51100000000E-03 0.  1.
         12    1    3    3    0    0 -0.47170480610E+01 -0.80098400520E-01 -0.22941572051E+01  0.52459618227E+01  0.00000000000E+00 0. -1.
</event>
<event>
 7    1  0.5902966E-013  0.5052886E+02  0.7816164E-02  0.1300439E+00
        -11   -1    0    0    0    0  0.00000000000E+00  0.00000000000E+00  0.45593999997E+02  0.45594000000E+02  0.51100000000E-03 0.  1.
         11   -1    0    0    0    0 -0.00000000000E+00 -0.00000000000E+00 -0.45593999997E+02  0.45594000000E+02  0.51100000000E-03 0. -1.
    9900012    2    1    2    0    0 -0.23880755470E+02  0.16241614505E+02  0.28619658162E+02  0.50528863796E+02  0.30000011993E+02 0.  0.
         12    1    1    2    0    0  0.23880755470E+02 -0.16241614505E+02 -0.28619658162E+02  0.40659136204E+02  0.00000000000E+00 0. -1.
         11    1    3    3    0    0  0.38467188216E+01  0.27132664916E+00  0.26319597959E+01  0.46688410202E+01  0.51100000000E-03 0. -1.
        -11    1    3    3    0    0 -0.84562522671E+01  0.94482288519E+01 -0.22074842387E+00  0.12681717588E+02  0.51100000000E-03 0.  1.
        -12    1    3    3    0    0 -0.19271222025E+02  0.65220590042E+01  0.26208446790E+02  0.33178305188E+02  0.00000000000E+00 0.  1.
</event>
<event>
 7    1  0.6073252E-013  0.5052885E+02  0.7816164E-02  0.1300439E+00
        -11   -1    0    0    0    0  0.00000000000E+00  0.00000000000E+00  0.45593999997E+02  0.45594000000E+02  0.51100000000E-03 0. -1.
         11   -1    0    0    0    0 -0.00000000000E+00 -0.00000000000E+00 -0.45593999997E+02  0.45594000000E+02  0.51100000000E-03 0.  1.
    9900012    2    1    2    0    0  0.34562867997E+02  0.40632819762E+01 -0.21025321204E+02  0.50528852981E+02  0.29999979121E+02 0.  0.
         12    1    1    2    0    0 -0.34562867997E+02 -0.40632819762E+01  0.21025321204E+02  0.40659147019E+02  0.00000000000E+00 0. -1.
         11    1    3    3    0    0 -0.21426673910E+01 -0.20994006278E-01  0.34240124411E+01  0.40392234098E+01  0.51100000000E-03 0. -1.
        -11    1    3    3    0    0  0.18891063179E+02  0.67345792504E+01 -0.65517623949E+01  0.21098635417E+02  0.51100000000E-03 0.  1.
        -12    1    3    3    0    0  0.17814472209E+02 -0.26503032680E+01 -0.17897571250E+02  0.25390994154E+02  0.00000000000E+00 0.  1.
</event>
<event>
 7    1  0.5902966E-013  0.5052886E+02  0.7816164E-02  0.1300439E+00
        -11   -1    0    0    0    0  0.00000000000E+00  0.00000000000E+00  0.45593999997E+02  0.45594000000E+02  0.51100000000E-03 0.  1.
         11   -1    0    0    0    0 -0.00000000000E+00 -0.00000000000E+00 -0.45593999997E+02  0.45594000000E+02  0.51100000000E-03 0. -1.
    9900012    2    1    2    0    0 -0.57889495154E+01 -0.28302673608E+01  0.40145280762E+02  0.50528856904E+02  0.29999991045E+02 0.  0.
         12    1    1    2    0    0  0.57889495154E+01  0.28302673608E+01 -0.40145280762E+02  0.40659143096E+02  0.00000000000E+00 0. -1.
         11    1    3    3    0    0  0.90570761562E+00  0.25773170456E+01  0.10949724147E+02  0.11285359037E+02  0.51100000000E-03 0.  1.
        -11    1    3    3    0    0  0.63239411120E+01  0.74830606667E+00 -0.34750716066E+00  0.63775351544E+01  0.51100000000E-03 0. -1.
         12    1    3    3    0    0 -0.13018598243E+02 -0.61558904730E+01  0.29543063777E+02  0.32865962713E+02  0.00000000000E+00 0. -1.
</event>
<event>
 7    1  0.5902966E-013  0.5052887E+02  0.7816164E-02  0.1300439E+00
        -11   -1    0    0    0    0  0.00000000000E+00  0.00000000000E+00  0.45593999997E+02  0.45594000000E+02  0.51100000000E-03 0.  1.
         11   -1    0    0    0    0 -0.00000000000E+00 -0.00000000000E+00 -0.45593999997E+02  0.45594000000E+02  0.51100000000E-03 0. -1.
    9900012    2    1    2    0    0  0.49649678866E+01  0.39730431148E+02 -0.70715489779E+01  0.50528869780E+02  0.30000030184E+02 0.  0.
         12    1    1    2    0    0 -0.49649678866E+01 -0.39730431148E+02  0.70715489779E+01  0.40659130220E+02  0.00000000000E+00 0. -1.
         11    1    3    3    0    0 -0.61074318078E+01  0.11752236435E+02 -0.42122723557E+01  0.13898166181E+02  0.51100000000E-03 0. -1.
        -11    1    3    3    0    0 -0.52308025587E+01  0.14286747691E+02 -0.67346371095E+00  0.15229117132E+02  0.51100000000E-03 0.  1.
         12    1    3    3    0    0  0.16303202253E+02  0.13691447021E+02 -0.21858129112E+01  0.21401586467E+02  0.00000000000E+00 0. -1.
</event>
<event>
 7    1  0.5902966E-013  0.5052885E+02  0.7816164E-02  0.1300439E+00
        -11   -1    0    0    0    0  0.00000000000E+00  0.00000000000E+00  0.45593999997E+02  0.45594000000E+02  0.51100000000E-03 0.  1.
         11   -1    0    0    0    0 -0.00000000000E+00 -0.00000000000E+00 -0.45593999997E+02  0.45594000000E+02  0.51100000000E-03 0. -1.
    9900012    2    1    2    0    0  0.24048708354E+01 -0.43579520872E+01  0.40353327599E+02  0.50528853447E+02  0.29999980536E+02 0.  0.
         12    1    1    2    0    0 -0.24048708354E+01  0.43579520872E+01 -0.40353327599E+02  0.40659146553E+02  0.00000000000E+00 0. -1.
         11    1    3    3    0    0  0.15500435857E+01  0.17993732670E+01  0.15147425496E+01  0.28168820572E+01  0.51100000000E-03 0. -1.
        -11    1    3    3    0    0  0.72886831196E+01 -0.14485543041E+02  0.29399749297E+02  0.33575305178E+02  0.51100000000E-03 0.  1.
        -12    1    3    3    0    0 -0.64338558700E+01  0.83282176873E+01  0.94388357529E+01  0.14136666211E+02  0.00000000000E+00 0.  1.
</event>
<event>
 7    1  0.5902966E-013  0.5052886E+02  0.7816164E-02  0.1300439E+00
        -11   -1    0    0    0    0  0.00000000000E+00  0.00000000000E+00  0.45593999997E+02  0.45594000000E+02  0.51100000000E-03 0.  1.
         11   -1    0    0    0    0 -0.00000000000E+00 -0.00000000000E+00 -0.45593999997E+02  0.45594000000E+02  0.51100000000E-03 0. -1.
    9900012    2    1    2    0    0  0.30764487445E+02  0.12026677231E+02  0.23708043316E+02  0.50528856246E+02  0.29999989045E+02 0.  0.
         12    1    1    2    0    0 -0.30764487445E+02 -0.12026677231E+02 -0.23708043316E+02  0.40659143754E+02  0.00000000000E+00 0. -1.
         11    1    3    3    0    0  0.21580906646E+01  0.12990961602E-01 -0.45153562974E+01  0.50045945725E+01  0.51100000000E-03 0. -1.
        -11    1    3    3    0    0  0.36289369844E+00  0.41805673230E+01  0.10415046737E+02  0.11228625641E+02  0.51100000000E-03 0.  1.
        -12    1    3    3    0    0  0.28243503081E+02  0.78331189462E+01  0.17808352876E+02  0.34295636033E+02  0.00000000000E+00 0.  1.
</event>
<event>
 7    1  0.5902966E-013  0.5052888E+02  0.7816164E-02  0.1300439E+00
        -11   -1    0    0    0    0  0.00000000000E+00  0.00000000000E+00  0.45593999997E+02  0.45594000000E+02  0.51100000000E-03 0.  1.
         11   -1    0    0    0    0 -0.00000000000E+00 -0.00000000000E+00 -0.45593999997E+02  0.45594000000E+02  0.51100000000E-03 0. -1.
    9900012    2    1    2    0    0 -0.11588733627E+02 -0.22627642266E+01  0.38906880821E+02  0.50528877724E+02  0.30000054331E+02 0.  0.
         12    1    1    2    0    0  0.11588733627E+02  0.22627642266E+01 -0.38906880821E+02  0.40659122276E+02  0.00000000000E+00 0. -1.
         11    1    3    3    0    0 -0.86415477680E+01  0.65876498428E+01  0.75929416443E+01  0.13256177479E+02  0.51100000000E-03 0. -1.
        -11    1    3    3    0    0 -0.49295665838E+01 -0.95971448422E+01  0.69875410176E+01  0.12854242318E+02  0.51100000000E-03 0.  1.
        -12    1    3    3    0    0  0.19823807244E+01  0.74673077291E+00  0.24326398159E+02  0.24418457928E+02  0.00000000000E+00 0.  1.
</event>
<event>
 7    1  0.5902966E-013  0.5052886E+02  0.7816164E-02  0.1300439E+00
        -11   -1    0    0    0    0  0.00000000000E+00  0.00000000000E+00  0.45593999997E+02  0.45594000000E+02  0.51100000000E-03 0. -1.
         11   -1    0    0    0    0 -0.00000000000E+00 -0.00000000000E+00 -0.45593999997E+02  0.45594000000E+02  0.51100000000E-03 0.  1.
    9900012    2    1    2    0    0 -0.23079230790E+02 -0.31415369406E+02 -0.11558100940E+02  0.50528855566E+02  0.29999986980E+02 0.  0.
         12    1    1    2    0    0  0.23079230790E+02  0.31415369406E+02  0.11558100940E+02  0.40659144434E+02  0.00000000000E+00 0. -1.
         11    1    3    3    0    0 -0.10306962484E+02 -0.18518454714E+02  0.20346718858E+01  0.21290996468E+02  0.51100000000E-03 0. -1.
        -11    1    3    3    0    0  0.26006868150E+01 -0.98322655478E+01 -0.45572653739E+01  0.11144760458E+02  0.51100000000E-03 0.  1.
        -12    1    3    3    0    0 -0.15372955120E+02 -0.30646491433E+01 -0.90355074522E+01  0.18093098641E+02  0.00000000000E+00 0.  1.
</event>
<event>
 7    1  0.5902966E-013  0.5052887E+02  0.7816164E-02  0.1300439E+00
        -11   -1    0    0    0    0  0.00000000000E+00  0.00000000000E+00  0.45593999997E+02  0.45594000000E+02  0.51100000000E-03 0.  1.
         11   -1    0    0    0    0 -0.00000000000E+00 -0.00000000000E+00 -0.45593999997E+02  0.45594000000E+02  0.51100000000E-03 0. -1.
    9900012    2    1    2    0    0 -0.23007645106E+02 -0.29012558029E+02  0.16795385340E+02  0.50528865413E+02  0.30000016908E+02 0.  0.
         12    1    1    2    0    0  0.23007645106E+02  0.29012558029E+02 -0.16795385340E+02  0.40659134587E+02  0.00000000000E+00 0. -1.
         11    1    3    3    0    0 -0.10035804425E+02 -0.14100147962E+02  0.70110371706E+01  0.18673140750E+02  0.51100000000E-03 0. -1.
        -11    1    3    3    0    0  0.15708983095E+01 -0.15643785271E+02  0.43446264380E+01  0.16311698816E+02  0.51100000000E-03 0.  1.
         12    1    3    3    0    0 -0.14542738990E+02  0.73137520372E+00  0.54397217313E+01  0.15544025847E+02  0.00000000000E+00 0. -1.
</event>
<event>
 7    1  0.5902966E-013  0.5052886E+02  0.7816164E-02  0.1300439E+00
        -11   -1    0    0    0    0  0.00000000000E+00  0.00000000000E+00  0.45593999997E+02  0.45594000000E+02  0.51100000000E-03 0. -1.
         11   -1    0    0    0    0 -0.00000000000E+00 -0.00000000000E+00 -0.45593999997E+02  0.45594000000E+02  0.51100000000E-03 0.  1.
    9900012    2    1    2    0    0  0.21543343499E+02  0.70692461879E+01 -0.33750199833E+02  0.50528857368E+02  0.29999992455E+02 0.  0.
         12    1    1    2    0    0 -0.21543343499E+02 -0.70692461879E+01  0.33750199833E+02  0.40659142632E+02  0.00000000000E+00 0. -1.
         11    1    3    3    0    0  0.42758443596E+01  0.37903221366E+01  0.11247097160E+01  0.58236036174E+01  0.51100000000E-03 0. -1.
        -11    1    3    3    0    0  0.31397573632E+01 -0.86268290834E+01 -0.14856822923E+02  0.17464405056E+02  0.51100000000E-03 0.  1.
         12    1    3    3    0    0  0.14127741777E+02  0.11905753135E+02 -0.20018086626E+02  0.27240848694E+02  0.00000000000E+00 0. -1.
</event>
<event>
 7    1  0.5902966E-013  0.5052886E+02  0.7816164E-02  0.1300439E+00
        -11   -1    0    0    0    0  0.00000000000E+00  0.00000000000E+00  0.45593999997E+02  0.45594000000E+02  0.51100000000E-03 0. -1.
         11   -1    0    0    0    0 -0.00000000000E+00 -0.00000000000E+00 -0.45593999997E+02  0.45594000000E+02  0.51100000000E-03 0.  1.
    9900012    2    1    2    0    0  0.40645754675E+02 -0.94188080126E+00 -0.44818240316E+00  0.50528863511E+02  0.30000011129E+02 0.  0.
         12    1    1    2    0    0 -0.40645754675E+02  0.94188080126E+00  0.44818240316E+00  0.40659136489E+02  0.00000000000E+00 0. -1.
         11    1    3    3    0    0  0.85139268474E+01  0.63936865701E+01 -0.85966626604E+01  0.13684618646E+02  0.51100000000E-03 0. -1.
        -11    1    3    3    0    0 -0.25876850298E+00 -0.17537422495E+01  0.31274235913E+01  0.35949063404E+01  0.51100000000E-03 0.  1.
        -12    1    3    3    0    0  0.32390596330E+02 -0.55818251218E+01  0.50210566659E+01  0.33249338525E+02  0.00000000000E+00 0.  1.
</event>
<event>
 7    1  0.5902966E-013  0.5052887E+02  0.7816164E-02  0.1300439E+00
        -11   -1    0    0    0    0  0.00000000000E+00  0.00000000000E+00  0.45593999997E+02  0.45594000000E+02  0.51100000000E-03 0.  1.
         11   -1    0    0    0    0 -0.00000000000E+00 -0.00000000000E+00 -0.45593999997E+02  0.45594000000E+02  0.51100000000E-03 0. -1.
    9900012    2    1    2    0    0 -0.12592514368E+02  0.41051463530E+00  0.38657791899E+02  0.50528870461E+02  0.30000032253E+02 0.  0.
         12    1    1    2    0    0  0.12592514368E+02 -0.41051463530E+00 -0.38657791899E+02  0.40659129539E+02  0.00000000000E+00 0. -1.
         11    1    3    3    0    0 -0.41440462284E+01 -0.70671310051E+00  0.14018319358E+01  0.44314439618E+01  0.51100000000E-03 0. -1.
        -11    1    3    3    0    0 -0.14449885281E+02  0.13827157229E+01  0.37368748265E+02  0.40089081238E+02  0.51100000000E-03 0.  1.
         12    1    3    3    0    0  0.60014171412E+01 -0.26548798707E+00 -0.11278830166E+00  0.60083452610E+01  0.00000000000E+00 0. -1.
</event>
<event>
 7    1  0.5902966E-013  0.5052886E+02  0.7816164E-02  0.1300439E+00
        -11   -1    0    0    0    0  0.00000000000E+00  0.00000000000E+00  0.45593999997E+02  0.45594000000E+02  0.51100000000E-03 0. -1.
         11   -1    0    0    0    0 -0.00000000000E+00 -0.00000000000E+00 -0.45593999997E+02  0.45594000000E+02  0.51100000000E-03 0.  1.
    9900012    2    1    2    0    0  0.40616289047E+02  0.17897753297E+01  0.52832331935E+00  0.50528863792E+02  0.30000011982E+02 0.  0.
         12    1    1    2    0    0 -0.40616289047E+02 -0.17897753297E+01 -0.52832331935E+00  0.40659136208E+02  0.00000000000E+00 0. -1.
         11    1    3    3    0    0  0.14799323702E+02  0.12069414338E+01 -0.80254261917E+01  0.16878511649E+02  0.51100000000E-03 0. -1.
        -11    1    3    3    0    0  0.22040093094E+02 -0.30694060195E+00 -0.22635624098E+01  0.22158150446E+02  0.51100000000E-03 0.  1.
         12    1    3    3    0    0  0.37768722500E+01  0.88977449782E+00  0.10817311921E+02  0.11492201697E+02  0.00000000000E+00 0. -1.
</event>
<event>
 7    1  0.5902966E-013  0.5052886E+02  0.7816164E-02  0.1300439E+00
        -11   -1    0    0    0    0  0.00000000000E+00  0.00000000000E+00  0.45593999997E+02  0.45594000000E+02  0.51100000000E-03 0. -1.
         11   -1    0    0    0    0 -0.00000000000E+00 -0.00000000000E+00 -0.45593999997E+02  0.45594000000E+02  0.51100000000E-03 0.  1.
    9900012    2    1    2    0    0 -0.22521371513E+02  0.31023170708E+02 -0.13546809335E+02  0.50528864018E+02  0.30000012669E+02 0.  0.
         12    1    1    2    0    0  0.22521371513E+02 -0.31023170708E+02  0.13546809335E+02  0.40659135982E+02  0.00000000000E+00 0. -1.
         11    1    3    3    0    0 -0.89231943341E+01  0.16150940743E+00 -0.86302745483E+01  0.12414955556E+02  0.51100000000E-03 0. -1.
        -11    1    3    3    0    0 -0.11756938620E+02  0.18959968560E+02 -0.10713093901E+02  0.24748260438E+02  0.51100000000E-03 0.  1.
         12    1    3    3    0    0 -0.18412385590E+01  0.11901692741E+02  0.57965591146E+01  0.13365648024E+02  0.00000000000E+00 0. -1.
</event>
<event>
 7    1  0.5902966E-013  0.5052887E+02  0.7816164E-02  0.1300439E+00
        -11   -1    0    0    0    0  0.00000000000E+00  0.00000000000E+00  0.45593999997E+02  0.45594000000E+02  0.51100000000E-03 0.  1.
         11   -1    0    0    0    0 -0.00000000000E+00 -0.00000000000E+00 -0.45593999997E+02  0.45594000000E+02  0.51100000000E-03 0. -1.
    9900012    2    1    2    0    0  0.11136479803E+02  0.33848412330E+02 -0.19581338867E+02  0.50528867797E+02  0.30000024155E+02 0.  0.
         12    1    1    2    0    0 -0.11136479803E+02 -0.33848412330E+02  0.19581338867E+02  0.40659132203E+02  0.00000000000E+00 0. -1.
         11    1    3    3    0    0  0.10610350705E+02  0.18586624376E+02 -0.66854202153E+01  0.22421797240E+02  0.51100000000E-03 0.  1.
        -11    1    3    3    0    0  0.55622471540E+01  0.26379565742E+01  0.32831540875E+01  0.69768552595E+01  0.51100000000E-03 0. -1.
        -12    1    3    3    0    0 -0.50361180554E+01  0.12623831380E+02 -0.16179072740E+02  0.21130215297E+02  0.00000000000E+00 0.  1.
</event>
<event>
 7    1  0.5902966E-013  0.5052888E+02  0.7816164E-02  0.1300439E+00
        -11   -1    0    0    0    0  0.00000000000E+00  0.00000000000E+00  0.45593999997E+02  0.45594000000E+02  0.51100000000E-03 0.  1.
         11   -1    0    0    0    0 -0.00000000000E+00 -0.00000000000E+00 -0.45593999997E+02  0.45594000000E+02  0.51100000000E-03 0. -1.
    9900012    2    1    2    0    0  0.84565915380E+01  0.36681578014E+02  0.15365943181E+02  0.50528876598E+02  0.30000050906E+02 0.  0.
         12    1    1    2    0    0 -0.84565915380E+01 -0.36681578014E+02 -0.15365943181E+02  0.40659123402E+02  0.00000000000E+00 0. -1.
         11    1    3    3    0    0 -0.28670340336E+01  0.24116354697E+01  0.11369302459E+02  0.11970668672E+02  0.51100000000E-03 0. -1.
        -11    1    3    3    0    0 -0.23330860691E+01  0.76731564500E+01 -0.14999543599E+01  0.81590737130E+01  0.51100000000E-03 0.  1.
        -12    1    3    3    0    0  0.13656711641E+02  0.26596786094E+02  0.54965950814E+01  0.30399134212E+02  0.00000000000E+00 0.  1.
</event>
<event>
 7    1  0.5902966E-013  0.5052887E+02  0.7816164E-02  0.1300439E+00
        -11   -1    0    0    0    0  0.00000000000E+00  0.00000000000E+00  0.45593999997E+02  0.45594000000E+02  0.51100000000E-03 0.  1.
         11   -1    0    0    0    0 -0.00000000000E+00 -0.00000000000E+00 -0.45593999997E+02  0.45594000000E+02  0.51100000000E-03 0. -1.
    9900012    2    1    2    0    0  0.16134059647E+02 -0.35704324353E+02  0.10865454147E+02  0.50528871234E+02  0.30000034603E+02 0.  0.
         12    1    1    2    0    0 -0.16134059647E+02  0.35704324353E+02 -0.10865454147E+02  0.40659128766E+02  0.00000000000E+00 0. -1.
         11    1    3    3    0    0  0.39769812460E+01 -0.67392401542E+01 -0.16213738325E+01  0.79914073262E+01  0.51100000000E-03 0. -1.
        -11    1    3    3    0    0  0.26303981442E+01 -0.29331374925E+02  0.14450776738E+02  0.32803559227E+02  0.51100000000E-03 0.  1.
         12    1    3    3    0    0  0.95266802566E+01  0.36629072667E+00 -0.19639487579E+01  0.97339046806E+01  0.00000000000E+00 0. -1.
</event>
<event>
 7    1  0.5902966E-013  0.5052891E+02  0.7816164E-02  0.1300439E+00
        -11   -1    0    0    0    0  0.00000000000E+00  0.00000000000E+00  0.45593999997E+02  0.45594000000E+02  0.51100000000E-03 0. -1.
         11   -1    0    0    0    0 -0.00000000000E+00 -0.00000000000E+00 -0.45593999997E+02  0.45594000000E+02  0.51100000000E-03 0.  1.
    9900012    2    1    2    0    0  0.37298539092E+02  0.12114852564E+02 -0.10733653883E+02  0.50528905117E+02  0.30000137592E+02 0.  0.
         12    1    1    2    0    0 -0.37298539092E+02 -0.12114852564E+02  0.10733653883E+02  0.40659094883E+02  0.00000000000E+00 0. -1.
         11    1    3    3    0    0  0.26434051396E+02  0.20188293460E+01  0.18912672111E+01  0.26578405465E+02  0.51100000000E-03 0. -1.
        -11    1    3    3    0    0  0.12996038843E+02  0.38237140259E+01 -0.99402679290E+01  0.16802581388E+02  0.51100000000E-03 0.  1.
         12    1    3    3    0    0 -0.21315511461E+01  0.62723091917E+01 -0.26846531650E+01  0.71479182635E+01  0.00000000000E+00 0. -1.
</event>
<event>
 7    1  0.5902966E-013  0.5052886E+02  0.7816164E-02  0.1300439E+00
        -11   -1    0    0    0    0  0.00000000000E+00  0.00000000000E+00  0.45593999997E+02  0.45594000000E+02  0.51100000000E-03 0.  1.
         11   -1    0    0    0    0 -0.00000000000E+00 -0.00000000000E+00 -0.45593999997E+02  0.45594000000E+02  0.51100000000E-03 0. -1.
    9900012    2    1    2    0    0 -0.68784160745E+00  0.40414682974E+02  0.43983605771E+01  0.50528864473E+02  0.30000014053E+02 0.  0.
         12    1    1    2    0    0  0.68784160745E+00 -0.40414682974E+02 -0.43983605771E+01  0.40659135527E+02  0.00000000000E+00 0. -1.
         11    1    3    3    0    0  0.56106932122E+01  0.19975491963E+02 -0.34756954502E+01  0.21037600068E+02  0.51100000000E-03 0. -1.
        -11    1    3    3    0    0 -0.12364815911E+02  0.14022806969E+02  0.18176792641E+01  0.18783816065E+02  0.51100000000E-03 0.  1.
         12    1    3    3    0    0  0.60662810918E+01  0.64163840431E+01  0.60563767631E+01  0.10707448341E+02  0.00000000000E+00 0. -1.
</event>
<event>
 7    1  0.5902966E-013  0.5052885E+02  0.7816164E-02  0.1300439E+00
        -11   -1    0    0    0    0  0.00000000000E+00  0.00000000000E+00  0.45593999997E+02  0.45594000000E+02  0.51100000000E-03 0.  1.
         11   -1    0    0    0    0 -0.00000000000E+00 -0.00000000000E+00 -0.45593999997E+02  0.45594000000E+02  0.51100000000E-03 0. -1.
    9900012    2    1    2    0    0 -0.16189965627E+02 -0.26482955783E+02  0.26262234265E+02  0.50528845034E+02  0.29999954965E+02 0.  0.
         12    1    1    2    0    0  0.16189965627E+02  0.26482955783E+02 -0.26262234265E+02  0.40659154966E+02  0.00000000000E+00 0. -1.
         11    1    3    3    0    0 -0.85532562157E+01 -0.16902746983E+02  0.92183189532E+01  0.21067473793E+02  0.51100000000E-03 0.  1.
        -11    1    3    3    0    0 -0.12115384112E+02 -0.47608264471E+01  0.21693336884E+01  0.13196742384E+02  0.51100000000E-03 0. -1.
        -12    1    3    3    0    0  0.44786747013E+01 -0.48193823527E+01  0.14874581624E+02  0.16264628856E+02  0.00000000000E+00 0.  1.
</event>
<event>
 7    1  0.6364100E-013  0.5052887E+02  0.7816164E-02  0.1300439E+00
        -11   -1    0    0    0    0  0.00000000000E+00  0.00000000000E+00  0.45593999997E+02  0.45594000000E+02  0.51100000000E-03 0. -1.
         11   -1    0    0    0    0 -0.00000000000E+00 -0.00000000000E+00 -0.45593999997E+02  0.45594000000E+02  0.51100000000E-03 0.  1.
    9900012    2    1    2    0    0 -0.97100517095E+01 -0.13890002897E+02 -0.36958727769E+02  0.50528870115E+02  0.30000031201E+02 0.  0.
         12    1    1    2    0    0  0.97100517095E+01  0.13890002897E+02  0.36958727769E+02  0.40659129885E+02  0.00000000000E+00 0. -1.
         11    1    3    3    0    0 -0.10173198272E+02 -0.70147426665E+00 -0.91272872184E+01  0.13685517946E+02  0.51100000000E-03 0. -1.
        -11    1    3    3    0    0 -0.47610609465E+00  0.15164941665E+01 -0.20175720350E+02  0.20238234199E+02  0.51100000000E-03 0.  1.
        -12    1    3    3    0    0  0.93925265665E+00 -0.14705022797E+02 -0.76557202007E+01  0.16605117970E+02  0.00000000000E+00 0.  1.
</event>
<event>
 7    1  0.5902966E-013  0.5052887E+02  0.7816164E-02  0.1300439E+00
        -11   -1    0    0    0    0  0.00000000000E+00  0.00000000000E+00  0.45593999997E+02  0.45594000000E+02  0.51100000000E-03 0. -1.
         11   -1    0    0    0    0 -0.00000000000E+00 -0.00000000000E+00 -0.45593999997E+02  0.45594000000E+02  0.51100000000E-03 0.  1.
    9900012    2    1    2    0    0 -0.30693955898E+02 -0.17661126751E+02  0.19978246824E+02  0.50528872206E+02  0.30000037558E+02 0.  0.
         12    1    1    2    0    0  0.30693955898E+02  0.17661126751E+02 -0.19978246824E+02  0.40659127794E+02  0.00000000000E+00 0. -1.
         11    1    3    3    0    0 -0.22822683639E+01 -0.77981219920E+01  0.24262255377E+01  0.84797421015E+01  0.51100000000E-03 0. -1.
        -11    1    3    3    0    0 -0.17745100625E+02 -0.10277869339E+02  0.22361774070E+02  0.30340931662E+02  0.51100000000E-03 0.  1.
        -12    1    3    3    0    0 -0.10666586910E+02  0.41486458049E+00 -0.48097527838E+01  0.11708198442E+02  0.00000000000E+00 0.  1.
</event>
<event>
 7    1  0.5902966E-013  0.5052884E+02  0.7816164E-02  0.1300439E+00
        -11   -1    0    0    0    0  0.00000000000E+00  0.00000000000E+00  0.45593999997E+02  0.45594000000E+02  0.51100000000E-03 0. -1.
         11   -1    0    0    0    0 -0.00000000000E+00 -0.00000000000E+00 -0.45593999997E+02  0.45594000000E+02  0.51100000000E-03 0.  1.
    9900012    2    1    2    0    0 -0.16662993824E+02 -0.36848028949E+02  0.42113041485E+01  0.50528835188E+02  0.29999925037E+02 0.  0.
         12    1    1    2    0    0  0.16662993824E+02  0.36848028949E+02 -0.42113041485E+01  0.40659164812E+02  0.00000000000E+00 0. -1.
         11    1    3    3    0    0  0.57175668329E+01 -0.68570834992E+01  0.32005724473E+01  0.94843992353E+01  0.51100000000E-03 0. -1.
        -11    1    3    3    0    0  0.15586460915E+01 -0.60526550392E+01  0.33829490382E+01  0.71069230415E+01  0.51100000000E-03 0.  1.
         12    1    3    3    0    0 -0.23939206748E+02 -0.23938290410E+02 -0.23722173371E+01  0.33937512911E+02  0.00000000000E+00 0. -1.
</event>
<event>
 7    1  0.5902966E-013  0.5052886E+02  0.7816164E-02  0.1300439E+00
        -11   -1    0    0    0    0  0.00000000000E+00  0.00000000000E+00  0.45593999997E+02  0.45594000000E+02  0.51100000000E-03 0.  1.
         11   -1    0    0    0    0 -0.00000000000E+00 -0.00000000000E+00 -0.45593999997E+02  0.45594000000E+02  0.51100000000E-03 0. -1.
    9900012    2    1    2    0    0  0.33064218883E+02  0.20109985243E+02  0.12470415157E+02  0.50528864114E+02  0.30000012962E+02 0.  0.
         12    1    1    2    0    0 -0.33064218883E+02 -0.20109985243E+02 -0.12470415157E+02  0.40659135886E+02  0.00000000000E+00 0. -1.
         11    1    3    3    0    0  0.14413821810E+02 -0.17791408873E+01  0.99240374561E+00  0.14557076181E+02  0.51100000000E-03 0. -1.
        -11    1    3    3    0    0 -0.19106141909E+01 -0.18585793071E+01  0.11790555584E+01  0.29146073317E+01  0.51100000000E-03 0.  1.
        -12    1    3    3    0    0  0.20561011263E+02  0.23747705437E+02  0.10298955853E+02  0.33057180602E+02  0.00000000000E+00 0.  1.
</event>
<event>
 7    1  0.5902966E-013  0.5052886E+02  0.7816164E-02  0.1300439E+00
        -11   -1    0    0    0    0  0.00000000000E+00  0.00000000000E+00  0.45593999997E+02  0.45594000000E+02  0.51100000000E-03 0. -1.
         11   -1    0    0    0    0 -0.00000000000E+00 -0.00000000000E+00 -0.45593999997E+02  0.45594000000E+02  0.51100000000E-03 0.  1.
    9900012    2    1    2    0    0  0.75966571994E+01  0.24907547329E+02 -0.31226122846E+02  0.50528857578E+02  0.29999993093E+02 0.  0.
         12    1    1    2    0    0 -0.75966571994E+01 -0.24907547329E+02  0.31226122846E+02  0.40659142422E+02  0.00000000000E+00 0. -1.
         11    1    3    3    0    0 -0.33836118643E+01  0.16157031619E+01 -0.12151592988E+01  0.39415654680E+01  0.51100000000E-03 0. -1.
        -11    1    3    3    0    0  0.63646320123E+01  0.26733761207E+01  0.28919028635E+01  0.74845562974E+01  0.51100000000E-03 0.  1.
        -12    1    3    3    0    0  0.46156370514E+01  0.20618468047E+02 -0.32902866410E+02  0.39102735812E+02  0.00000000000E+00 0.  1.
</event>
<event>
 7    1  0.5902966E-013  0.5052886E+02  0.7816164E-02  0.1300439E+00
        -11   -1    0    0    0    0  0.00000000000E+00  0.00000000000E+00  0.45593999997E+02  0.45594000000E+02  0.51100000000E-03 0.  1.
         11   -1    0    0    0    0 -0.00000000000E+00 -0.00000000000E+00 -0.45593999997E+02  0.45594000000E+02  0.51100000000E-03 0. -1.
    9900012    2    1    2    0    0  0.19720469006E+02  0.31793423146E+02  0.15920031549E+02  0.50528855178E+02  0.29999985798E+02 0.  0.
         12    1    1    2    0    0 -0.19720469006E+02 -0.31793423146E+02 -0.15920031549E+02  0.40659144822E+02  0.00000000000E+00 0. -1.
         11    1    3    3    0    0 -0.31269073432E+01  0.65660869920E+01  0.37726658549E+01  0.81929271834E+01  0.51100000000E-03 0. -1.
        -11    1    3    3    0    0  0.43784004343E+01  0.16603487045E+02  0.13595052838E+02  0.21901407131E+02  0.51100000000E-03 0.  1.
        -12    1    3    3    0    0  0.18468975915E+02  0.86238491094E+01 -0.14476871438E+01  0.20434520863E+02  0.00000000000E+00 0.  1.
</event>
<event>
 7    1  0.5902966E-013  0.5052886E+02  0.7816164E-02  0.1300439E+00
        -11   -1    0    0    0    0  0.00000000000E+00  0.00000000000E+00  0.45593999997E+02  0.45594000000E+02  0.51100000000E-03 0.  1.
         11   -1    0    0    0    0 -0.00000000000E+00 -0.00000000000E+00 -0.45593999997E+02  0.45594000000E+02  0.51100000000E-03 0. -1.
    9900012    2    1    2    0    0 -0.32803336570E+02  0.19196602424E+02 -0.14442889959E+02  0.50528861973E+02  0.30000006453E+02 0.  0.
         12    1    1    2    0    0  0.32803336570E+02 -0.19196602424E+02  0.14442889959E+02  0.40659138027E+02  0.00000000000E+00 0. -1.
         11    1    3    3    0    0  0.28742913784E+01  0.10023009428E+01  0.39736113099E+01  0.50055714171E+01  0.51100000000E-03 0. -1.
        -11    1    3    3    0    0 -0.10524232351E+02  0.82459408324E+01 -0.11200937778E+01  0.13416766269E+02  0.51100000000E-03 0.  1.
        -12    1    3    3    0    0 -0.25153395597E+02  0.99483606491E+01 -0.17296407491E+02  0.32106524287E+02  0.00000000000E+00 0.  1.
</event>
<event>
 7    1  0.5902966E-013  0.5052885E+02  0.7816164E-02  0.1300439E+00
        -11   -1    0    0    0    0  0.00000000000E+00  0.00000000000E+00  0.45593999997E+02  0.45594000000E+02  0.51100000000E-03 0.  1.
         11   -1    0    0    0    0 -0.00000000000E+00 -0.00000000000E+00 -0.45593999997E+02  0.45594000000E+02  0.51100000000E-03 0. -1.
    9900012    2    1    2    0    0 -0.12378282158E+02  0.28023006545E+02  0.26733041548E+02  0.50528852500E+02  0.29999977660E+02 0.  0.
         12    1    1    2    0    0  0.12378282158E+02 -0.28023006545E+02 -0.26733041548E+02  0.40659147500E+02  0.00000000000E+00 0. -1.
         11    1    3    3    0    0  0.18385741227E+01 -0.15171108949E+01 -0.17393894165E+01  0.29508398933E+01  0.51100000000E-03 0. -1.
        -11    1    3    3    0    0  0.29831890493E+01  0.83799252176E+01  0.14313538812E+02  0.16852298275E+02  0.51100000000E-03 0.  1.
        -12    1    3    3    0    0 -0.17200045330E+02  0.21160192222E+02  0.14158892153E+02  0.30725714332E+02  0.00000000000E+00 0.  1.
</event>
<event>
 7    1  0.5902966E-013  0.5052885E+02  0.7816164E-02  0.1300439E+00
        -11   -1    0    0    0    0  0.00000000000E+00  0.00000000000E+00  0.45593999997E+02  0.45594000000E+02  0.51100000000E-03 0.  1.
         11   -1    0    0    0    0 -0.00000000000E+00 -0.00000000000E+00 -0.45593999997E+02  0.45594000000E+02  0.51100000000E-03 0. -1.
    9900012    2    1    2    0    0  0.38567456535E+02 -0.29640903801E-01  0.12873101964E+02  0.50528851751E+02  0.29999975381E+02 0.  0.
         12    1    1    2    0    0 -0.38567456535E+02  0.29640903801E-01 -0.12873101964E+02  0.40659148249E+02  0.00000000000E+00 0. -1.
         11    1    3    3    0    0  0.69962285321E+01 -0.19189173498E+00 -0.77727732950E+01  0.10459447455E+02  0.51100000000E-03 0. -1.
        -11    1    3    3    0    0  0.38936550236E+01 -0.46070789296E+01  0.54859477339E+01  0.81536095386E+01  0.51100000000E-03 0.  1.
        -12    1    3    3    0    0  0.27677572980E+02  0.47693297608E+01  0.15159927525E+02  0.31915794757E+02  0.00000000000E+00 0.  1.
</event>
<event>
 7    1  0.5902966E-013  0.5052892E+02  0.7816164E-02  0.1300439E+00
        -11   -1    0    0    0    0  0.00000000000E+00  0.00000000000E+00  0.45593999997E+02  0.45594000000E+02  0.51100000000E-03 0. -1.
         11   -1    0    0    0    0 -0.00000000000E+00 -0.00000000000E+00 -0.45593999997E+02  0.45594000000E+02  0.51100000000E-03 0.  1.
    9900012    2    1    2    0    0  0.25609776583E+02  0.18405911429E+02 -0.25661688544E+02  0.50528923632E+02  0.30000193870E+02 0.  0.
         12    1    1    2    0    0 -0.25609776583E+02 -0.18405911429E+02  0.25661688544E+02  0.40659076368E+02  0.00000000000E+00 0. -1.
         11    1    3    3    0    0  0.16849039717E+01 -0.94486252662E+00 -0.68272481809E+01  0.70952790341E+01  0.51100000000E-03 0. -1.
        -11    1    3    3    0    0  0.96102244644E+01 -0.36621464597E+01  0.24887350626E+00  0.10287354822E+02  0.51100000000E-03 0.  1.
         12    1    3    3    0    0  0.14314648147E+02  0.23012920416E+02 -0.19083313870E+02  0.33146289775E+02  0.00000000000E+00 0. -1.
</event>
<event>
 7    1  0.5902966E-013  0.5052886E+02  0.7816164E-02  0.1300439E+00
        -11   -1    0    0    0    0  0.00000000000E+00  0.00000000000E+00  0.45593999997E+02  0.45594000000E+02  0.51100000000E-03 0.  1.
         11   -1    0    0    0    0 -0.00000000000E+00 -0.00000000000E+00 -0.45593999997E+02  0.45594000000E+02  0.51100000000E-03 0. -1.
    9900012    2    1    2    0    0 -0.24605656214E+02  0.32092196964E+02 -0.42211452975E+01  0.50528862142E+02  0.30000006968E+02 0.  0.
         12    1    1    2    0    0  0.24605656214E+02 -0.32092196964E+02  0.42211452975E+01  0.40659137858E+02  0.00000000000E+00 0. -1.
         11    1    3    3    0    0  0.22192713720E+01  0.52839154091E+01  0.83231185640E+01  0.10105405997E+02  0.51100000000E-03 0. -1.
        -11    1    3    3    0    0 -0.13244846659E+01  0.33768262217E+01 -0.11359767591E+00  0.36290659480E+01  0.51100000000E-03 0.  1.
         12    1    3    3    0    0 -0.25500442920E+02  0.23431455333E+02 -0.12430666186E+02  0.36794390197E+02  0.00000000000E+00 0. -1.
</event>
<event>
 7    1  0.5902966E-013  0.5052886E+02  0.7816164E-02  0.1300439E+00
        -11   -1    0    0    0    0  0.00000000000E+00  0.00000000000E+00  0.45593999997E+02  0.45594000000E+02  0.51100000000E-03 0.  1.
         11   -1    0    0    0    0 -0.00000000000E+00 -0.00000000000E+00 -0.45593999997E+02  0.45594000000E+02  0.51100000000E-03 0. -1.
    9900012    2    1    2    0    0 -0.15892370285E+00 -0.40254606874E+02  0.57190277811E+01  0.50528856993E+02  0.29999991315E+02 0.  0.
         12    1    1    2    0    0  0.15892370285E+00  0.40254606874E+02 -0.57190277811E+01  0.40659143007E+02  0.00000000000E+00 0. -1.
         11    1    3    3    0    0  0.40618078627E+01 -0.73205764866E+01 -0.32311312986E+01  0.89738137344E+01  0.51100000000E-03 0. -1.
        -11    1    3    3    0    0 -0.99062365967E+01 -0.27643504037E+02 -0.44155257890E+00  0.29368210840E+02  0.51100000000E-03 0.  1.
         12    1    3    3    0    0  0.56855050311E+01 -0.52905263500E+01  0.93917116586E+01  0.12186832419E+02  0.00000000000E+00 0. -1.
</event>
<event>
 7    1  0.5902966E-013  0.5052886E+02  0.7816164E-02  0.1300439E+00
        -11   -1    0    0    0    0  0.00000000000E+00  0.00000000000E+00  0.45593999997E+02  0.45594000000E+02  0.51100000000E-03 0. -1.
         11   -1    0    0    0    0 -0.00000000000E+00 -0.00000000000E+00 -0.45593999997E+02  0.45594000000E+02  0.51100000000E-03 0.  1.
    9900012    2    1    2    0    0  0.36499172357E+02 -0.23432668231E+01 -0.17761904384E+02  0.50528859213E+02  0.29999998065E+02 0.  0.
         12    1    1    2    0    0 -0.36499172357E+02  0.23432668231E+01  0.17761904384E+02  0.40659140787E+02  0.00000000000E+00 0. -1.
         11    1    3    3    0    0  0.60731213534E+01  0.21373027328E+01  0.37307162307E+01  0.74410422523E+01  0.51100000000E-03 0. -1.
        -11    1    3    3    0    0  0.19282177222E+02 -0.84646257509E+01 -0.31990654934E+01  0.21299912390E+02  0.51100000000E-03 0.  1.
        -12    1    3    3    0    0  0.11143873782E+02  0.39840561950E+01 -0.18293555121E+02  0.21787904571E+02  0.00000000000E+00 0.  1.
</event>
<event>
 7    1  0.5902966E-013  0.5052887E+02  0.7816164E-02  0.1300439E+00
        -11   -1    0    0    0    0  0.00000000000E+00  0.00000000000E+00  0.45593999997E+02  0.45594000000E+02  0.51100000000E-03 0. -1.
         11   -1    0    0    0    0 -0.00000000000E+00 -0.00000000000E+00 -0.45593999997E+02  0.45594000000E+02  0.51100000000E-03 0.  1.
    9900012    2    1    2    0    0 -0.28000616383E+02  0.14287391905E-01 -0.29481017790E+02  0.50528866562E+02  0.30000020403E+02 0.  0.
         12    1    1    2    0    0  0.28000616383E+02 -0.14287391905E-01  0.29481017790E+02  0.40659133438E+02  0.00000000000E+00 0. -1.
         11    1    3    3    0    0 -0.14606724262E+02  0.46079445875E+01 -0.43890778180E+01  0.15932782285E+02  0.51100000000E-03 0. -1.
        -11    1    3    3    0    0  0.41539652622E+00  0.30835361433E+01  0.16601900234E+01  0.35266103550E+01  0.51100000000E-03 0.  1.
        -12    1    3    3    0    0 -0.13809288647E+02 -0.76771933389E+01 -0.26752129995E+02  0.31069473922E+02  0.00000000000E+00 0.  1.
</event>
<event>
 7    1  0.5902966E-013  0.5052886E+02  0.7816164E-02  0.1300439E+00
        -11   -1    0    0    0    0  0.00000000000E+00  0.00000000000E+00  0.45593999997E+02  0.45594000000E+02  0.51100000000E-03 0.  1.
         11   -1    0    0    0    0 -0.00000000000E+00 -0.00000000000E+00 -0.45593999997E+02  0.45594000000E+02  0.51100000000E-03 0. -1.
    9900012    2    1    2    0    0  0.14135289354E+02  0.37488191429E+02 -0.69278227933E+01  0.50528860432E+02  0.30000001769E+02 0.  0.
         12    1    1    2    0    0 -0.14135289354E+02 -0.37488191429E+02  0.69278227933E+01  0.40659139568E+02  0.00000000000E+00 0. -1.
         11    1    3    3    0    0  0.41441659679E+01  0.84229858536E+01  0.42446361524E+01  0.10302317146E+02  0.51100000000E-03 0. -1.
        -11    1    3    3    0    0  0.17202936027E+02  0.16438346132E+02 -0.93758526743E+01  0.25574730598E+02  0.51100000000E-03 0.  1.
         12    1    3    3    0    0 -0.72118126403E+01  0.12626859443E+02 -0.17966062714E+01  0.14651812688E+02  0.00000000000E+00 0. -1.
</event>
<event>
 7    1  0.5987130E-013  0.5052886E+02  0.7816164E-02  0.1300439E+00
        -11   -1    0    0    0    0  0.00000000000E+00  0.00000000000E+00  0.45593999997E+02  0.45594000000E+02  0.51100000000E-03 0.  1.
         11   -1    0    0    0    0 -0.00000000000E+00 -0.00000000000E+00 -0.45593999997E+02  0.45594000000E+02  0.51100000000E-03 0. -1.
    9900012    2    1    2    0    0  0.26834938779E+02  0.29613412030E+02 -0.74898257927E+01  0.50528860784E+02  0.30000002840E+02 0.  0.
         12    1    1    2    0    0 -0.26834938779E+02 -0.29613412030E+02  0.74898257927E+01  0.40659139216E+02  0.00000000000E+00 0. -1.
         11    1    3    3    0    0  0.74401991189E+01 -0.10611220105E+01  0.47717026867E+01  0.89023418066E+01  0.51100000000E-03 0. -1.
        -11    1    3    3    0    0 -0.26821191704E+01  0.65278868034E+01 -0.24170436575E+01  0.74598371072E+01  0.51100000000E-03 0.  1.
        -12    1    3    3    0    0  0.22076858831E+02  0.24146647237E+02 -0.98444848219E+01  0.34166681871E+02  0.00000000000E+00 0.  1.
</event>
<event>
 7    1  0.5902966E-013  0.5052886E+02  0.7816164E-02  0.1300439E+00
        -11   -1    0    0    0    0  0.00000000000E+00  0.00000000000E+00  0.45593999997E+02  0.45594000000E+02  0.51100000000E-03 0.  1.
         11   -1    0    0    0    0 -0.00000000000E+00 -0.00000000000E+00 -0.45593999997E+02  0.45594000000E+02  0.51100000000E-03 0. -1.
    9900012    2    1    2    0    0 -0.25794043173E+01  0.40560689316E+02  0.11589343331E+01  0.50528856216E+02  0.29999988955E+02 0.  0.
         12    1    1    2    0    0  0.25794043173E+01 -0.40560689316E+02 -0.11589343331E+01  0.40659143784E+02  0.00000000000E+00 0. -1.
         11    1    3    3    0    0 -0.67180242557E+01  0.53794082174E+01  0.16506826147E+01  0.87632548762E+01  0.51100000000E-03 0. -1.
        -11    1    3    3    0    0 -0.31364387160E+01  0.10195579990E+02  0.91096426268E+01  0.14027568863E+02  0.51100000000E-03 0.  1.
        -12    1    3    3    0    0  0.72750586544E+01  0.24985701109E+02 -0.96013909085E+01  0.27738032477E+02  0.00000000000E+00 0.  1.
</event>
<event>
 7    1  0.5902966E-013  0.5052884E+02  0.7816164E-02  0.1300439E+00
        -11   -1    0    0    0    0  0.00000000000E+00  0.00000000000E+00  0.45593999997E+02  0.45594000000E+02  0.51100000000E-03 0. -1.
         11   -1    0    0    0    0 -0.00000000000E+00 -0.00000000000E+00 -0.45593999997E+02  0.45594000000E+02  0.51100000000E-03 0.  1.
    9900012    2    1    2    0    0 -0.35869584169E+02  0.16541586715E+02 -0.96393052848E+01  0.50528839090E+02  0.29999936899E+02 0.  0.
         12    1    1    2    0    0  0.35869584169E+02 -0.16541586715E+02  0.96393052848E+01  0.40659160910E+02  0.00000000000E+00 0. -1.
         11    1    3    3    0    0 -0.69722302917E+01 -0.24402925692E+00 -0.49761079991E+01  0.85693171605E+01  0.51100000000E-03 0. -1.
        -11    1    3    3    0    0 -0.20951144144E+02  0.19718991147E+02 -0.11589504070E+02  0.31017828061E+02  0.51100000000E-03 0.  1.
         12    1    3    3    0    0 -0.79462097337E+01 -0.29333751752E+01  0.69263067839E+01  0.10941693869E+02  0.00000000000E+00 0. -1.
</event>
<event>
 7    1  0.5902966E-013  0.5052888E+02  0.7816164E-02  0.1300439E+00
        -11   -1    0    0    0    0  0.00000000000E+00  0.00000000000E+00  0.45593999997E+02  0.45594000000E+02  0.51100000000E-03 0.  1.
         11   -1    0    0    0    0 -0.00000000000E+00 -0.00000000000E+00 -0.45593999997E+02  0.45594000000E+02  0.51100000000E-03 0. -1.
    9900012    2    1    2    0    0 -0.28169633094E+01 -0.69139207392E+01  0.39967815153E+02  0.50528882568E+02  0.30000069053E+02 0.  0.
         12    1    1    2    0    0  0.28169633094E+01  0.69139207392E+01 -0.39967815153E+02  0.40659117432E+02  0.00000000000E+00 0. -1.
         11    1    3    3    0    0  0.32125774799E+01 -0.34420381527E+01 -0.21451009785E+01  0.51739481228E+01  0.51100000000E-03 0. -1.
        -11    1    3    3    0    0  0.92939121248E-01 -0.85880274581E+01  0.17747107129E+02  0.19716050949E+02  0.51100000000E-03 0.  1.
         12    1    3    3    0    0 -0.61224799105E+01  0.51161448716E+01  0.24365809002E+02  0.25638883496E+02  0.00000000000E+00 0. -1.
</event>
<event>
 7    1  0.5902966E-013  0.5052884E+02  0.7816164E-02  0.1300439E+00
        -11   -1    0    0    0    0  0.00000000000E+00  0.00000000000E+00  0.45593999997E+02  0.45594000000E+02  0.51100000000E-03 0. -1.
         11   -1    0    0    0    0 -0.00000000000E+00 -0.00000000000E+00 -0.45593999997E+02  0.45594000000E+02  0.51100000000E-03 0.  1.
    9900012    2    1    2    0    0 -0.31354975528E+02  0.25623919354E+02 -0.36670898664E+01  0.50528840128E+02  0.29999940053E+02 0.  0.
         12    1    1    2    0    0  0.31354975528E+02 -0.25623919354E+02  0.36670898664E+01  0.40659159872E+02  0.00000000000E+00 0. -1.
         11    1    3    3    0    0 -0.20611741490E+02  0.80088226256E+01  0.10718426454E+02  0.24573762288E+02  0.51100000000E-03 0. -1.
        -11    1    3    3    0    0 -0.53661682292E+00  0.37922838362E+01 -0.52387041474E+01  0.64894834705E+01  0.51100000000E-03 0.  1.
        -12    1    3    3    0    0 -0.10206617215E+02  0.13822812892E+02 -0.91468121725E+01  0.19465594369E+02  0.00000000000E+00 0.  1.
</event>
<event>
 7    1  0.5902966E-013  0.5052887E+02  0.7816164E-02  0.1300439E+00
        -11   -1    0    0    0    0  0.00000000000E+00  0.00000000000E+00  0.45593999997E+02  0.45594000000E+02  0.51100000000E-03 0.  1.
         11   -1    0    0    0    0 -0.00000000000E+00 -0.00000000000E+00 -0.45593999997E+02  0.45594000000E+02  0.51100000000E-03 0. -1.
    9900012    2    1    2    0    0 -0.13662726633E+02 -0.38245495249E+01  0.38103381435E+02  0.50528868739E+02  0.30000027019E+02 0.  0.
         12    1    1    2    0    0  0.13662726633E+02  0.38245495249E+01 -0.38103381435E+02  0.40659131261E+02  0.00000000000E+00 0. -1.
         11    1    3    3    0    0  0.13034053524E+01  0.33475233024E+01  0.12178281888E+02  0.12697059808E+02  0.51100000000E-03 0. -1.
        -11    1    3    3    0    0 -0.54960037093E+01 -0.12226715879E+02  0.23138863427E+02  0.26741459177E+02  0.51100000000E-03 0.  1.
        -12    1    3    3    0    0 -0.94701282756E+01  0.50546430521E+01  0.27862361204E+01  0.11090349754E+02  0.00000000000E+00 0.  1.
</event>
<event>
 7    1  0.5902966E-013  0.5052884E+02  0.7816164E-02  0.1300439E+00
        -11   -1    0    0    0    0  0.00000000000E+00  0.00000000000E+00  0.45593999997E+02  0.45594000000E+02  0.51100000000E-03 0.  1.
         11   -1    0    0    0    0 -0.00000000000E+00 -0.00000000000E+00 -0.45593999997E+02  0.45594000000E+02  0.51100000000E-03 0. -1.
    9900012    2    1    2    0    0  0.18606935784E+02  0.34364460094E+02  0.11226455352E+02  0.50528837729E+02  0.29999932760E+02 0.  0.
         12    1    1    2    0    0 -0.18606935784E+02 -0.34364460094E+02 -0.11226455352E+02  0.40659162271E+02  0.00000000000E+00 0. -1.
         11    1    3    3    0    0 -0.11245997305E+01  0.40831193984E+01 -0.48900363845E+01  0.64690837588E+01  0.51100000000E-03 0. -1.
        -11    1    3    3    0    0  0.12030298203E+02  0.86252403269E+01 -0.18071046068E+01  0.14912695024E+02  0.51100000000E-03 0.  1.
        -12    1    3    3    0    0  0.77012373112E+01  0.21656100369E+02  0.17923596344E+02  0.29147058946E+02  0.00000000000E+00 0.  1.
</event>
<event>
 7    1  0.5902966E-013  0.5052885E+02  0.7816164E-02  0.1300439E+00
        -11   -1    0    0    0    0  0.00000000000E+00  0.00000000000E+00  0.45593999997E+02  0.45594000000E+02  0.51100000000E-03 0.  1.
         11   -1    0    0    0    0 -0.00000000000E+00 -0.00000000000E+00 -0.45593999997E+02  0.45594000000E+02  0.51100000000E-03 0. -1.
    9900012    2    1    2    0    0 -0.32242389333E+02  0.22222736622E+02 -0.10942799894E+02  0.50528848971E+02  0.29999966932E+02 0.  0.
         12    1    1    2    0    0  0.32242389333E+02 -0.22222736622E+02  0.10942799894E+02  0.40659151029E+02  0.00000000000E+00 0. -1.
         11    1    3    3    0    0  0.21897386252E+01  0.26917906533E+00  0.85953741337E+00  0.23677452232E+01  0.51100000000E-03 0. -1.
        -11    1    3    3    0    0 -0.17319452204E+02  0.15960915655E+02  0.42642358156E+01  0.23935286932E+02  0.51100000000E-03 0.  1.
         12    1    3    3    0    0 -0.17112675755E+02  0.59926419019E+01 -0.16066573123E+02  0.24225816815E+02  0.00000000000E+00 0. -1.
</event>
<event>
 7    1  0.5902966E-013  0.5052886E+02  0.7816164E-02  0.1300439E+00
        -11   -1    0    0    0    0  0.00000000000E+00  0.00000000000E+00  0.45593999997E+02  0.45594000000E+02  0.51100000000E-03 0.  1.
         11   -1    0    0    0    0 -0.00000000000E+00 -0.00000000000E+00 -0.45593999997E+02  0.45594000000E+02  0.51100000000E-03 0. -1.
    9900012    2    1    2    0    0  0.37640726967E+02  0.82951433346E+01  0.12943418143E+02  0.50528858313E+02  0.29999995328E+02 0.  0.
         12    1    1    2    0    0 -0.37640726967E+02 -0.82951433346E+01 -0.12943418143E+02  0.40659141687E+02  0.00000000000E+00 0. -1.
         11    1    3    3    0    0  0.29103526410E+01 -0.63174699181E+00  0.54016372148E+01  0.61682202958E+01  0.51100000000E-03 0. -1.
        -11    1    3    3    0    0  0.34170715777E+02  0.13020086079E+02  0.11803639871E+02  0.38425074791E+02  0.51100000000E-03 0.  1.
        -12    1    3    3    0    0  0.55965854903E+00 -0.40931957523E+01 -0.42618589437E+01  0.59355632263E+01  0.00000000000E+00 0.  1.
</event>
<event>
 7    1  0.5902966E-013  0.5052891E+02  0.7816164E-02  0.1300439E+00
        -11   -1    0    0    0    0  0.00000000000E+00  0.00000000000E+00  0.45593999997E+02  0.45594000000E+02  0.51100000000E-03 0. -1.
         11   -1    0    0    0    0 -0.00000000000E+00 -0.00000000000E+00 -0.45593999997E+02  0.45594000000E+02  0.51100000000E-03 0.  1.
    9900012    2    1    2    0    0 -0.34329883381E+02  0.15838155847E+02 -0.14959058471E+02  0.50528911177E+02  0.30000156013E+02 0.  0.
         12    1    1    2    0    0  0.34329883381E+02 -0.15838155847E+02  0.14959058471E+02  0.40659088823E+02  0.00000000000E+00 0. -1.
         11    1    3    3    0    0 -0.20125289211E+01  0.89120281640E+01  0.82723140737E-01  0.91368135601E+01  0.51100000000E-03 0. -1.
        -11    1    3    3    0    0 -0.21419287489E+01  0.23516707175E+01 -0.99550730350E+01  0.10450918300E+02  0.51100000000E-03 0.  1.
        -12    1    3    3    0    0 -0.30175425711E+02  0.45744569658E+01 -0.50867085771E+01  0.30941179316E+02  0.00000000000E+00 0.  1.
</event>
<event>
 7    1  0.5902966E-013  0.5052882E+02  0.7816164E-02  0.1300439E+00
        -11   -1    0    0    0    0  0.00000000000E+00  0.00000000000E+00  0.45593999997E+02  0.45594000000E+02  0.51100000000E-03 0.  1.
         11   -1    0    0    0    0 -0.00000000000E+00 -0.00000000000E+00 -0.45593999997E+02  0.45594000000E+02  0.51100000000E-03 0. -1.
    9900012    2    1    2    0    0  0.14078299101E+02 -0.19652641744E+02  0.32691650420E+02  0.50528820959E+02  0.29999881787E+02 0.  0.
         12    1    1    2    0    0 -0.14078299101E+02  0.19652641744E+02 -0.32691650420E+02  0.40659179041E+02  0.00000000000E+00 0. -1.
         11    1    3    3    0    0 -0.68255034128E+01 -0.30111081796E+01 -0.11327767493E+00  0.74610388955E+01  0.51100000000E-03 0. -1.
        -11    1    3    3    0    0  0.13436667901E+02 -0.83966757919E+01  0.13632025465E+02  0.20901682400E+02  0.51100000000E-03 0.  1.
        -12    1    3    3    0    0  0.74671346126E+01 -0.82448577729E+01  0.19172902630E+02  0.22166099663E+02  0.00000000000E+00 0.  1.
</event>
<event>
 7    1  0.5902966E-013  0.5052886E+02  0.7816164E-02  0.1300439E+00
        -11   -1    0    0    0    0  0.00000000000E+00  0.00000000000E+00  0.45593999997E+02  0.45594000000E+02  0.51100000000E-03 0.  1.
         11   -1    0    0    0    0 -0.00000000000E+00 -0.00000000000E+00 -0.45593999997E+02  0.45594000000E+02  0.51100000000E-03 0. -1.
    9900012    2    1    2    0    0 -0.12907895061E+02 -0.12726531202E+02 -0.36394877869E+02  0.50528862202E+02  0.30000007150E+02 0.  0.
         12    1    1    2    0    0  0.12907895061E+02  0.12726531202E+02  0.36394877869E+02  0.40659137798E+02  0.00000000000E+00 0. -1.
         11    1    3    3    0    0  0.38190057723E+01  0.16302541541E+01 -0.60823070030E+01  0.73645768674E+01  0.51100000000E-03 0. -1.
        -11    1    3    3    0    0 -0.47501860038E+01  0.35417706055E+01  0.67005687684E-01  0.59256135646E+01  0.51100000000E-03 0.  1.
         12    1    3    3    0    0 -0.11976714830E+02 -0.17898555962E+02 -0.30379576554E+02  0.37238671770E+02  0.00000000000E+00 0. -1.
</event>
<event>
 7    1  0.5902966E-013  0.5052887E+02  0.7816164E-02  0.1300439E+00
        -11   -1    0    0    0    0  0.00000000000E+00  0.00000000000E+00  0.45593999997E+02  0.45594000000E+02  0.51100000000E-03 0.  1.
         11   -1    0    0    0    0 -0.00000000000E+00 -0.00000000000E+00 -0.45593999997E+02  0.45594000000E+02  0.51100000000E-03 0. -1.
    9900012    2    1    2    0    0  0.10095828573E+01 -0.40141345660E+02  0.63889253643E+01  0.50528865033E+02  0.30000015755E+02 0.  0.
         12    1    1    2    0    0 -0.10095828573E+01  0.40141345660E+02 -0.63889253643E+01  0.40659134967E+02  0.00000000000E+00 0. -1.
         11    1    3    3    0    0 -0.22968039646E+01  0.38725343005E+01  0.15471836376E+01  0.47608410843E+01  0.51100000000E-03 0. -1.
        -11    1    3    3    0    0  0.89660811384E+00 -0.58594964195E+01 -0.31478670957E+01  0.67116817499E+01  0.51100000000E-03 0.  1.
         12    1    3    3    0    0  0.24097787081E+01 -0.38154383541E+02  0.79896088223E+01  0.39056342199E+02  0.00000000000E+00 0. -1.
</event>
<event>
 7    1  0.5902966E-013  0.5052886E+02  0.7816164E-02  0.1300439E+00
        -11   -1    0    0    0    0  0.00000000000E+00  0.00000000000E+00  0.45593999997E+02  0.45594000000E+02  0.51100000000E-03 0.  1.
         11   -1    0    0    0    0 -0.00000000000E+00 -0.00000000000E+00 -0.45593999997E+02  0.45594000000E+02  0.51100000000E-03 0. -1.
    9900012    2    1    2    0    0 -0.33869061350E+01  0.29072198723E+02  0.28222363563E+02  0.50528859861E+02  0.30000000035E+02 0.  0.
         12    1    1    2    0    0  0.33869061350E+01 -0.29072198723E+02 -0.28222363563E+02  0.40659140139E+02  0.00000000000E+00 0. -1.
         11    1    3    3    0    0  0.29471688877E+01  0.78521550223E+01 -0.12033234253E+01  0.84729056689E+01  0.51100000000E-03 0. -1.
        -11    1    3    3    0    0  0.51866372059E+01 -0.21474774578E+00  0.85079271912E+01  0.99665514322E+01  0.51100000000E-03 0.  1.
        -12    1    3    3    0    0 -0.11520712229E+02  0.21434791446E+02  0.20917759797E+02  0.32089402760E+02  0.00000000000E+00 0.  1.
</event>
<event>
 7    1  0.5902966E-013  0.5052887E+02  0.7816164E-02  0.1300439E+00
        -11   -1    0    0    0    0  0.00000000000E+00  0.00000000000E+00  0.45593999997E+02  0.45594000000E+02  0.51100000000E-03 0.  1.
         11   -1    0    0    0    0 -0.00000000000E+00 -0.00000000000E+00 -0.45593999997E+02  0.45594000000E+02  0.51100000000E-03 0. -1.
    9900012    2    1    2    0    0 -0.31059712675E+02  0.19225616742E+02  0.17855943332E+02  0.50528870609E+02  0.30000032703E+02 0.  0.
         12    1    1    2    0    0  0.31059712675E+02 -0.19225616742E+02 -0.17855943332E+02  0.40659129391E+02  0.00000000000E+00 0. -1.
         11    1    3    3    0    0 -0.17325305116E+01  0.85952771858E+01 -0.39786201949E+00  0.87771718864E+01  0.51100000000E-03 0. -1.
        -11    1    3    3    0    0 -0.10158176422E+01  0.38562410118E+01 -0.35831601464E+01  0.53611115563E+01  0.51100000000E-03 0.  1.
        -12    1    3    3    0    0 -0.28311364521E+02  0.67740985445E+01  0.21836965498E+02  0.36390587166E+02  0.00000000000E+00 0.  1.
</event>
<event>
 7    1  0.5902966E-013  0.5052886E+02  0.7816164E-02  0.1300439E+00
        -11   -1    0    0    0    0  0.00000000000E+00  0.00000000000E+00  0.45593999997E+02  0.45594000000E+02  0.51100000000E-03 0.  1.
         11   -1    0    0    0    0 -0.00000000000E+00 -0.00000000000E+00 -0.45593999997E+02  0.45594000000E+02  0.51100000000E-03 0. -1.
    9900012    2    1    2    0    0  0.24633927004E+02  0.12205748111E+02  0.29955886200E+02  0.50528858781E+02  0.29999996752E+02 0.  0.
         12    1    1    2    0    0 -0.24633927004E+02 -0.12205748111E+02 -0.29955886200E+02  0.40659141219E+02  0.00000000000E+00 0. -1.
         11    1    3    3    0    0  0.92627862208E+01  0.14820857184E+02  0.22671810753E+01  0.17623765957E+02  0.51100000000E-03 0. -1.
        -11    1    3    3    0    0  0.11137553803E+02 -0.10304903126E+00  0.11606074347E+02  0.16085915760E+02  0.51100000000E-03 0.  1.
        -12    1    3    3    0    0  0.42335869798E+01 -0.25120600413E+01  0.16082630778E+02  0.16819177064E+02  0.00000000000E+00 0.  1.
</event>
<event>
 7    1  0.5902966E-013  0.5052885E+02  0.7816164E-02  0.1300439E+00
        -11   -1    0    0    0    0  0.00000000000E+00  0.00000000000E+00  0.45593999997E+02  0.45594000000E+02  0.51100000000E-03 0.  1.
         11   -1    0    0    0    0 -0.00000000000E+00 -0.00000000000E+00 -0.45593999997E+02  0.45594000000E+02  0.51100000000E-03 0. -1.
    9900012    2    1    2    0    0 -0.31440918751E+02  0.69267473467E+01  0.24832540153E+02  0.50528852798E+02  0.29999978566E+02 0.  0.
         12    1    1    2    0    0  0.31440918751E+02 -0.69267473467E+01 -0.24832540153E+02  0.40659147202E+02  0.00000000000E+00 0. -1.
         11    1    3    3    0    0 -0.13350442933E+02 -0.12591341119E+01  0.37799238386E+01  0.13932249269E+02  0.51100000000E-03 0. -1.
        -11    1    3    3    0    0 -0.11312121084E+02  0.11887077414E+02  0.26275103054E+01  0.16618378487E+02  0.51100000000E-03 0.  1.
         12    1    3    3    0    0 -0.67783547342E+01 -0.37011959550E+01  0.18425106009E+02  0.19978225043E+02  0.00000000000E+00 0. -1.
</event>
<event>
 7    1  0.5902966E-013  0.5052886E+02  0.7816164E-02  0.1300439E+00
        -11   -1    0    0    0    0  0.00000000000E+00  0.00000000000E+00  0.45593999997E+02  0.45594000000E+02  0.51100000000E-03 0.  1.
         11   -1    0    0    0    0 -0.00000000000E+00 -0.00000000000E+00 -0.45593999997E+02  0.45594000000E+02  0.51100000000E-03 0. -1.
    9900012    2    1    2    0    0  0.30265141375E+02  0.69331903994E+01  0.26251059119E+02  0.50528855685E+02  0.29999987340E+02 0.  0.
         12    1    1    2    0    0 -0.30265141375E+02 -0.69331903994E+01 -0.26251059119E+02  0.40659144315E+02  0.00000000000E+00 0. -1.
         11    1    3    3    0    0  0.12815132377E+02 -0.30254518877E+01 -0.21924808766E+00  0.13169246255E+02  0.51100000000E-03 0. -1.
        -11    1    3    3    0    0  0.18249174196E+02  0.80109883263E+01  0.13157889326E+02  0.23881757568E+02  0.51100000000E-03 0.  1.
         12    1    3    3    0    0 -0.79916519669E+00  0.19476539608E+01  0.13312417881E+02  0.13477851861E+02  0.00000000000E+00 0. -1.
</event>
<event>
 7    1  0.5902966E-013  0.5052884E+02  0.7816164E-02  0.1300439E+00
        -11   -1    0    0    0    0  0.00000000000E+00  0.00000000000E+00  0.45593999997E+02  0.45594000000E+02  0.51100000000E-03 0.  1.
         11   -1    0    0    0    0 -0.00000000000E+00 -0.00000000000E+00 -0.45593999997E+02  0.45594000000E+02  0.51100000000E-03 0. -1.
    9900012    2    1    2    0    0  0.17138153672E+01 -0.22664046807E+02  0.33713073265E+02  0.50528837567E+02  0.29999932269E+02 0.  0.
         12    1    1    2    0    0 -0.17138153672E+01  0.22664046807E+02 -0.33713073265E+02  0.40659162433E+02  0.00000000000E+00 0. -1.
         11    1    3    3    0    0  0.70589386260E+01 -0.11482196825E+02  0.30305707885E+02  0.33167836667E+02  0.51100000000E-03 0.  1.
        -11    1    3    3    0    0  0.30179958785E+01 -0.36923542938E+01 -0.16523501702E+01  0.50469833267E+01  0.51100000000E-03 0. -1.
        -12    1    3    3    0    0 -0.83631191373E+01 -0.74894956882E+01  0.50597155496E+01  0.12314017574E+02  0.00000000000E+00 0.  1.
</event>
<event>
 7    1  0.5902966E-013  0.5052885E+02  0.7816164E-02  0.1300439E+00
        -11   -1    0    0    0    0  0.00000000000E+00  0.00000000000E+00  0.45593999997E+02  0.45594000000E+02  0.51100000000E-03 0.  1.
         11   -1    0    0    0    0 -0.00000000000E+00 -0.00000000000E+00 -0.45593999997E+02  0.45594000000E+02  0.51100000000E-03 0. -1.
    9900012    2    1    2    0    0 -0.92796065129E+01 -0.87540552911E+01  0.38605982982E+02  0.50528849700E+02  0.29999969148E+02 0.  0.
         12    1    1    2    0    0  0.92796065129E+01  0.87540552911E+01 -0.38605982982E+02  0.40659150300E+02  0.00000000000E+00 0. -1.
         11    1    3    3    0    0  0.37917828620E+01 -0.13323163739E+02  0.16682977891E+02  0.21684235307E+02  0.51100000000E-03 0. -1.
        -11    1    3    3    0    0 -0.57646944426E+01  0.13772808911E+01  0.45576015105E+00  0.59444362429E+01  0.51100000000E-03 0.  1.
        -12    1    3    3    0    0 -0.73066949324E+01  0.31918275564E+01  0.21467244940E+02  0.22900178150E+02  0.00000000000E+00 0.  1.
</event>
<event>
 7    1  0.5902966E-013  0.5052886E+02  0.7816164E-02  0.1300439E+00
        -11   -1    0    0    0    0  0.00000000000E+00  0.00000000000E+00  0.45593999997E+02  0.45594000000E+02  0.51100000000E-03 0. -1.
         11   -1    0    0    0    0 -0.00000000000E+00 -0.00000000000E+00 -0.45593999997E+02  0.45594000000E+02  0.51100000000E-03 0.  1.
    9900012    2    1    2    0    0 -0.13891143632E+02 -0.22207256875E+02 -0.31097259321E+02  0.50528859987E+02  0.30000000417E+02 0.  0.
         12    1    1    2    0    0  0.13891143632E+02  0.22207256875E+02  0.31097259321E+02  0.40659140013E+02  0.00000000000E+00 0. -1.
         11    1    3    3    0    0 -0.11043285978E+02 -0.61230489832E+01 -0.17955769800E+01  0.12754214637E+02  0.51100000000E-03 0. -1.
        -11    1    3    3    0    0 -0.83508409656E+01 -0.14292886135E+02 -0.26732482930E+02  0.31442785862E+02  0.51100000000E-03 0.  1.
         12    1    3    3    0    0  0.55029833120E+01 -0.17913217564E+01 -0.25691994113E+01  0.63318594885E+01  0.00000000000E+00 0. -1.
</event>
<event>
 7    1  0.5902966E-013  0.5052886E+02  0.7816164E-02  0.1300439E+00
        -11   -1    0    0    0    0  0.00000000000E+00  0.00000000000E+00  0.45593999997E+02  0.45594000000E+02  0.51100000000E-03 0.  1.
         11   -1    0    0    0    0 -0.00000000000E+00 -0.00000000000E+00 -0.45593999997E+02  0.45594000000E+02  0.51100000000E-03 0. -1.
    9900012    2    1    2    0    0 -0.40052109857E+02 -0.24157009947E+01  0.65695110531E+01  0.50528860919E+02  0.30000003250E+02 0.  0.
         12    1    1    2    0    0  0.40052109857E+02  0.24157009947E+01 -0.65695110531E+01  0.40659139081E+02  0.00000000000E+00 0. -1.
         11    1    3    3    0    0 -0.25684971627E+00  0.40316221349E+01 -0.38380804593E+01  0.55723254291E+01  0.51100000000E-03 0. -1.
        -11    1    3    3    0    0 -0.14669108886E+02  0.47219843231E+01  0.79766617680E+01  0.17352435699E+02  0.51100000000E-03 0.  1.
         12    1    3    3    0    0 -0.25126151255E+02 -0.11169307453E+02  0.24309297444E+01  0.27604099791E+02  0.00000000000E+00 0. -1.
</event>
<event>
 7    1  0.5902966E-013  0.5052885E+02  0.7816164E-02  0.1300439E+00
        -11   -1    0    0    0    0  0.00000000000E+00  0.00000000000E+00  0.45593999997E+02  0.45594000000E+02  0.51100000000E-03 0.  1.
         11   -1    0    0    0    0 -0.00000000000E+00 -0.00000000000E+00 -0.45593999997E+02  0.45594000000E+02  0.51100000000E-03 0. -1.
    9900012    2    1    2    0    0  0.27387991716E+01  0.64287844006E+01  0.40054161296E+02  0.50528854327E+02  0.29999983211E+02 0.  0.
         12    1    1    2    0    0 -0.27387991716E+01 -0.64287844006E+01 -0.40054161296E+02  0.40659145673E+02  0.00000000000E+00 0. -1.
         11    1    3    3    0    0  0.23521780372E+01 -0.70994926052E+01  0.10164541969E+02  0.12619566176E+02  0.51100000000E-03 0. -1.
        -11    1    3    3    0    0  0.91701681760E+01  0.35862600752E+01  0.15253857402E+02  0.18155809307E+02  0.51100000000E-03 0.  1.
         12    1    3    3    0    0 -0.87835470416E+01  0.99420169307E+01  0.14635761925E+02  0.19753478843E+02  0.00000000000E+00 0. -1.
</event>
<event>
 7    1  0.5902966E-013  0.5052887E+02  0.7816164E-02  0.1300439E+00
        -11   -1    0    0    0    0  0.00000000000E+00  0.00000000000E+00  0.45593999997E+02  0.45594000000E+02  0.51100000000E-03 0. -1.
         11   -1    0    0    0    0 -0.00000000000E+00 -0.00000000000E+00 -0.45593999997E+02  0.45594000000E+02  0.51100000000E-03 0.  1.
    9900012    2    1    2    0    0  0.21756741243E+02 -0.17289362502E+02 -0.29679739822E+02  0.50528870629E+02  0.30000032765E+02 0.  0.
         12    1    1    2    0    0 -0.21756741243E+02  0.17289362502E+02  0.29679739822E+02  0.40659129371E+02  0.00000000000E+00 0. -1.
         11    1    3    3    0    0  0.75605024372E+01 -0.12139031196E+02 -0.15034505721E+01  0.14379764927E+02  0.51100000000E-03 0. -1.
        -11    1    3    3    0    0 -0.10544520168E+01 -0.69165077469E+01 -0.11670921621E+02  0.13607364191E+02  0.51100000000E-03 0.  1.
         12    1    3    3    0    0  0.15250690823E+02  0.17661764407E+01 -0.16505367629E+02  0.22541741511E+02  0.00000000000E+00 0. -1.
</event>
<event>
 7    1  0.5902966E-013  0.5052886E+02  0.7816164E-02  0.1300439E+00
        -11   -1    0    0    0    0  0.00000000000E+00  0.00000000000E+00  0.45593999997E+02  0.45594000000E+02  0.51100000000E-03 0. -1.
         11   -1    0    0    0    0 -0.00000000000E+00 -0.00000000000E+00 -0.45593999997E+02  0.45594000000E+02  0.51100000000E-03 0.  1.
    9900012    2    1    2    0    0  0.28514053731E+02 -0.31598324276E+01 -0.28811977403E+02  0.50528857818E+02  0.29999993823E+02 0.  0.
         12    1    1    2    0    0 -0.28514053731E+02  0.31598324276E+01  0.28811977403E+02  0.40659142182E+02  0.00000000000E+00 0. -1.
         11    1    3    3    0    0  0.41045567180E+01 -0.44786016802E+01 -0.27656024983E+00  0.60812617682E+01  0.51100000000E-03 0. -1.
        -11    1    3    3    0    0  0.64448432331E+01 -0.10680509658E+02 -0.10531721675E+02  0.16325637891E+02  0.51100000000E-03 0.  1.
        -12    1    3    3    0    0  0.17964653780E+02  0.11999278911E+02 -0.18003695478E+02  0.28121958158E+02  0.00000000000E+00 0.  1.
</event>
<event>
 7    1  0.5902966E-013  0.5052886E+02  0.7816164E-02  0.1300439E+00
        -11   -1    0    0    0    0  0.00000000000E+00  0.00000000000E+00  0.45593999997E+02  0.45594000000E+02  0.51100000000E-03 0.  1.
         11   -1    0    0    0    0 -0.00000000000E+00 -0.00000000000E+00 -0.45593999997E+02  0.45594000000E+02  0.51100000000E-03 0. -1.
    9900012    2    1    2    0    0  0.35747939021E+02  0.10841788230E+02 -0.16053226965E+02  0.50528860655E+02  0.30000002446E+02 0.  0.
         12    1    1    2    0    0 -0.35747939021E+02 -0.10841788230E+02  0.16053226965E+02  0.40659139345E+02  0.00000000000E+00 0. -1.
         11    1    3    3    0    0  0.25340527928E+02  0.20626032550E+01 -0.22831100403E+01  0.25526638627E+02  0.51100000000E-03 0.  1.
        -11    1    3    3    0    0  0.72752213620E+01 -0.32765195207E+01 -0.79146758430E+01  0.11238617353E+02  0.51100000000E-03 0. -1.
         12    1    3    3    0    0  0.31321897313E+01  0.12055704495E+02 -0.58554410821E+01  0.13763604675E+02  0.00000000000E+00 0. -1.
</event>
<event>
 7    1  0.5902966E-013  0.5052886E+02  0.7816164E-02  0.1300439E+00
        -11   -1    0    0    0    0  0.00000000000E+00  0.00000000000E+00  0.45593999997E+02  0.45594000000E+02  0.51100000000E-03 0.  1.
         11   -1    0    0    0    0 -0.00000000000E+00 -0.00000000000E+00 -0.45593999997E+02  0.45594000000E+02  0.51100000000E-03 0. -1.
    9900012    2    1    2    0    0 -0.22670930449E+02  0.45415167752E+01  0.33445019486E+02  0.50528858464E+02  0.29999995787E+02 0.  0.
         12    1    1    2    0    0  0.22670930449E+02 -0.45415167752E+01 -0.33445019486E+02  0.40659141536E+02  0.00000000000E+00 0. -1.
         11    1    3    3    0    0 -0.12787006473E+02  0.88331852335E+01  0.88059544747E+01  0.17862741402E+02  0.51100000000E-03 0. -1.
        -11    1    3    3    0    0 -0.43978749921E+01 -0.62660829777E+01  0.32451747711E+00  0.76622719988E+01  0.51100000000E-03 0.  1.
        -12    1    3    3    0    0 -0.54860489833E+01  0.19744145195E+01  0.24314547534E+02  0.25003845063E+02  0.00000000000E+00 0.  1.
</event>
<event>
 7    1  0.5902966E-013  0.5052886E+02  0.7816164E-02  0.1300439E+00
        -11   -1    0    0    0    0  0.00000000000E+00  0.00000000000E+00  0.45593999997E+02  0.45594000000E+02  0.51100000000E-03 0.  1.
         11   -1    0    0    0    0 -0.00000000000E+00 -0.00000000000E+00 -0.45593999997E+02  0.45594000000E+02  0.51100000000E-03 0. -1.
    9900012    2    1    2    0    0  0.37049629579E+02 -0.14718269864E+02  0.79914253666E+01  0.50528863276E+02  0.30000010414E+02 0.  0.
         12    1    1    2    0    0 -0.37049629579E+02  0.14718269864E+02 -0.79914253666E+01  0.40659136724E+02  0.00000000000E+00 0. -1.
         11    1    3    3    0    0  0.21845017971E+02 -0.28937687239E+01  0.17079280130E+02  0.27879751031E+02  0.51100000000E-03 0.  1.
        -11    1    3    3    0    0  0.51372991758E-01 -0.12589753509E+01 -0.29090087752E+01  0.31701719881E+01  0.51100000000E-03 0. -1.
        -12    1    3    3    0    0  0.15153238617E+02 -0.10565525789E+02 -0.61788459878E+01  0.19478940257E+02  0.00000000000E+00 0.  1.
</event>
<event>
 7    1  0.7749802E-013  0.5052885E+02  0.7816164E-02  0.1300439E+00
        -11   -1    0    0    0    0  0.00000000000E+00  0.00000000000E+00  0.45593999997E+02  0.45594000000E+02  0.51100000000E-03 0.  1.
         11   -1    0    0    0    0 -0.00000000000E+00 -0.00000000000E+00 -0.45593999997E+02  0.45594000000E+02  0.51100000000E-03 0. -1.
    9900012    2    1    2    0    0  0.16337308108E+02 -0.28614382639E+02  0.23821758025E+02  0.50528847458E+02  0.29999962333E+02 0.  0.
         12    1    1    2    0    0 -0.16337308108E+02  0.28614382639E+02 -0.23821758025E+02  0.40659152542E+02  0.00000000000E+00 0. -1.
         11    1    3    3    0    0  0.14737060049E+02 -0.12005619841E+02  0.16233725631E+01  0.19077504695E+02  0.51100000000E-03 0.  1.
        -11    1    3    3    0    0 -0.35942716152E+01 -0.37287425392E+00  0.19711492619E+00  0.36189332970E+01  0.51100000000E-03 0. -1.
        -12    1    3    3    0    0  0.51945196734E+01 -0.16235888545E+02  0.22001270536E+02  0.27832409466E+02  0.00000000000E+00 0.  1.
</event>
<event>
 7    1  0.5902966E-013  0.5052875E+02  0.7816164E-02  0.1300439E+00
        -11   -1    0    0    0    0  0.00000000000E+00  0.00000000000E+00  0.45593999997E+02  0.45594000000E+02  0.51100000000E-03 0.  1.
         11   -1    0    0    0    0 -0.00000000000E+00 -0.00000000000E+00 -0.45593999997E+02  0.45594000000E+02  0.51100000000E-03 0. -1.
    9900012    2    1    2    0    0 -0.36789897112E+01 -0.30708933381E+02  0.26393194937E+02  0.50528753897E+02  0.29999677943E+02 0.  0.
         12    1    1    2    0    0  0.36789897112E+01  0.30708933381E+02 -0.26393194937E+02  0.40659246103E+02  0.00000000000E+00 0. -1.
         11    1    3    3    0    0 -0.10992891625E+02 -0.10008104121E+02  0.16696132734E+02  0.22355461591E+02  0.51100000000E-03 0. -1.
        -11    1    3    3    0    0  0.64189628711E+01 -0.15534850188E+02  0.13612652344E+02  0.21629585267E+02  0.51100000000E-03 0.  1.
         12    1    3    3    0    0  0.89493904274E+00 -0.51659790717E+01 -0.39155901418E+01  0.65437070394E+01  0.00000000000E+00 0. -1.
</event>
<event>
 7    1  0.5902966E-013  0.5052887E+02  0.7816164E-02  0.1300439E+00
        -11   -1    0    0    0    0  0.00000000000E+00  0.00000000000E+00  0.45593999997E+02  0.45594000000E+02  0.51100000000E-03 0.  1.
         11   -1    0    0    0    0 -0.00000000000E+00 -0.00000000000E+00 -0.45593999997E+02  0.45594000000E+02  0.51100000000E-03 0. -1.
    9900012    2    1    2    0    0  0.36369172461E+02 -0.16469097229E+02  0.76952603551E+01  0.50528869402E+02  0.30000029033E+02 0.  0.
         12    1    1    2    0    0 -0.36369172461E+02  0.16469097229E+02 -0.76952603551E+01  0.40659130598E+02  0.00000000000E+00 0. -1.
         11    1    3    3    0    0  0.46733118365E+01 -0.96454617306E+01  0.66347735905E+01  0.12605355861E+02  0.51100000000E-03 0. -1.
        -11    1    3    3    0    0  0.29019110698E+02 -0.11708400124E+02  0.41303063901E+01  0.31563505038E+02  0.51100000000E-03 0.  1.
         12    1    3    3    0    0  0.26767499272E+01  0.48847646256E+01 -0.30698196255E+01  0.63600085026E+01  0.00000000000E+00 0. -1.
</event>
<event>
 7    1  0.5902966E-013  0.5052886E+02  0.7816164E-02  0.1300439E+00
        -11   -1    0    0    0    0  0.00000000000E+00  0.00000000000E+00  0.45593999997E+02  0.45594000000E+02  0.51100000000E-03 0.  1.
         11   -1    0    0    0    0 -0.00000000000E+00 -0.00000000000E+00 -0.45593999997E+02  0.45594000000E+02  0.51100000000E-03 0. -1.
    9900012    2    1    2    0    0 -0.11661871814E+02  0.28627883348E+02  0.26412326410E+02  0.50528856556E+02  0.29999989988E+02 0.  0.
         12    1    1    2    0    0  0.11661871814E+02 -0.28627883348E+02 -0.26412326410E+02  0.40659143444E+02  0.00000000000E+00 0. -1.
         11    1    3    3    0    0  0.15480508134E+01  0.78310109542E+01 -0.20544651482E+01  0.82426950200E+01  0.51100000000E-03 0. -1.
        -11    1    3    3    0    0 -0.12152203016E+02  0.11080570998E+02  0.55242958916E+01  0.17348571617E+02  0.51100000000E-03 0.  1.
         12    1    3    3    0    0 -0.10577196117E+01  0.97163013954E+01  0.22942495667E+02  0.24937589920E+02  0.00000000000E+00 0. -1.
</event>
<event>
 7    1  0.5902966E-013  0.5052886E+02  0.7816164E-02  0.1300439E+00
        -11   -1    0    0    0    0  0.00000000000E+00  0.00000000000E+00  0.45593999997E+02  0.45594000000E+02  0.51100000000E-03 0. -1.
         11   -1    0    0    0    0 -0.00000000000E+00 -0.00000000000E+00 -0.45593999997E+02  0.45594000000E+02  0.51100000000E-03 0.  1.
    9900012    2    1    2    0    0 -0.38765535525E+02  0.84911020307E+01 -0.88487391294E+01  0.50528859055E+02  0.29999997584E+02 0.  0.
         12    1    1    2    0    0  0.38765535525E+02 -0.84911020307E+01  0.88487391294E+01  0.40659140945E+02  0.00000000000E+00 0. -1.
         11    1    3    3    0    0  0.15024371788E+01 -0.38326612075E+01 -0.22096217350E+01  0.46721555925E+01  0.51100000000E-03 0. -1.
        -11    1    3    3    0    0 -0.38000344529E+01  0.76025483529E+01 -0.54421778096E-01  0.84995273570E+01  0.51100000000E-03 0.  1.
        -12    1    3    3    0    0 -0.36467938250E+02  0.47212148853E+01 -0.65846956163E+01  0.37357176106E+02  0.00000000000E+00 0.  1.
</event>
<event>
 7    1  0.5902966E-013  0.5052886E+02  0.7816164E-02  0.1300439E+00
        -11   -1    0    0    0    0  0.00000000000E+00  0.00000000000E+00  0.45593999997E+02  0.45594000000E+02  0.51100000000E-03 0.  1.
         11   -1    0    0    0    0 -0.00000000000E+00 -0.00000000000E+00 -0.45593999997E+02  0.45594000000E+02  0.51100000000E-03 0. -1.
    9900012    2    1    2    0    0  0.36523431296E+02 -0.14519401499E+02  0.10411124186E+02  0.50528861294E+02  0.30000004389E+02 0.  0.
         12    1    1    2    0    0 -0.36523431296E+02  0.14519401499E+02 -0.10411124186E+02  0.40659138706E+02  0.00000000000E+00 0. -1.
         11    1    3    3    0    0  0.16019306966E+02 -0.98155674247E+01 -0.13191160923E+01  0.18833577118E+02  0.51100000000E-03 0. -1.
        -11    1    3    3    0    0  0.21758183044E+02 -0.98069180079E+01  0.11347357095E+02  0.26426439100E+02  0.51100000000E-03 0.  1.
        -12    1    3    3    0    0 -0.12540587150E+01  0.51030839339E+01  0.38288318312E+00  0.52688450755E+01  0.00000000000E+00 0.  1.
</event>
<event>
 7    1  0.5902966E-013  0.5052886E+02  0.7816164E-02  0.1300439E+00
        -11   -1    0    0    0    0  0.00000000000E+00  0.00000000000E+00  0.45593999997E+02  0.45594000000E+02  0.51100000000E-03 0.  1.
         11   -1    0    0    0    0 -0.00000000000E+00 -0.00000000000E+00 -0.45593999997E+02  0.45594000000E+02  0.51100000000E-03 0. -1.
    9900012    2    1    2    0    0  0.32983827832E+02  0.23768730737E+02  0.52934471420E+00  0.50528860005E+02  0.30000000471E+02 0.  0.
         12    1    1    2    0    0 -0.32983827832E+02 -0.23768730737E+02 -0.52934471420E+00  0.40659139995E+02  0.00000000000E+00 0. -1.
         11    1    3    3    0    0  0.25070098416E+02  0.13818336487E+02  0.62157802803E+01  0.29293210521E+02  0.51100000000E-03 0. -1.
        -11    1    3    3    0    0  0.10777214532E+02  0.10704156822E+01 -0.48542630980E+01  0.11868361862E+02  0.51100000000E-03 0.  1.
         12    1    3    3    0    0 -0.28634851164E+01  0.88799785678E+01 -0.83217246810E+00  0.93672876220E+01  0.00000000000E+00 0. -1.
</event>
<event>
 7    1  0.5902966E-013  0.5052886E+02  0.7816164E-02  0.1300439E+00
        -11   -1    0    0    0    0  0.00000000000E+00  0.00000000000E+00  0.45593999997E+02  0.45594000000E+02  0.51100000000E-03 0. -1.
         11   -1    0    0    0    0 -0.00000000000E+00 -0.00000000000E+00 -0.45593999997E+02  0.45594000000E+02  0.51100000000E-03 0.  1.
    9900012    2    1    2    0    0  0.35097464042E+02 -0.16566140169E+02 -0.12120094839E+02  0.50528859808E+02  0.29999999872E+02 0.  0.
         12    1    1    2    0    0 -0.35097464042E+02  0.16566140169E+02  0.12120094839E+02  0.40659140192E+02  0.00000000000E+00 0. -1.
         11    1    3    3    0    0  0.27488919131E+01  0.12444386683E+01 -0.11908887423E+02  0.12285220155E+02  0.51100000000E-03 0. -1.
        -11    1    3    3    0    0  0.14938387471E+01 -0.17650192509E+01  0.24445077199E+01  0.33648871321E+01  0.51100000000E-03 0.  1.
        -12    1    3    3    0    0  0.30854733382E+02 -0.16045559586E+02 -0.26557151359E+01  0.34878752520E+02  0.00000000000E+00 0.  1.
</event>
<event>
 7    1  0.5902966E-013  0.5052886E+02  0.7816164E-02  0.1300439E+00
        -11   -1    0    0    0    0  0.00000000000E+00  0.00000000000E+00  0.45593999997E+02  0.45594000000E+02  0.51100000000E-03 0.  1.
         11   -1    0    0    0    0 -0.00000000000E+00 -0.00000000000E+00 -0.45593999997E+02  0.45594000000E+02  0.51100000000E-03 0. -1.
    9900012    2    1    2    0    0 -0.12284769968E+02  0.84289785230E+01  0.37831234950E+02  0.50528860929E+02  0.30000003280E+02 0.  0.
         12    1    1    2    0    0  0.12284769968E+02 -0.84289785230E+01 -0.37831234950E+02  0.40659139071E+02  0.00000000000E+00 0. -1.
         11    1    3    3    0    0  0.23628703795E+01  0.33671925030E+01  0.19862592940E+02  0.20284076029E+02  0.51100000000E-03 0. -1.
        -11    1    3    3    0    0 -0.11921974221E+02  0.11383501604E+02  0.16254984583E+02  0.23150423369E+02  0.51100000000E-03 0.  1.
        -12    1    3    3    0    0 -0.27256661265E+01 -0.63217155840E+01  0.17136574265E+01  0.70943615310E+01  0.00000000000E+00 0.  1.
</event>
<event>
 7    1  0.5902966E-013  0.5052886E+02  0.7816164E-02  0.1300439E+00
        -11   -1    0    0    0    0  0.00000000000E+00  0.00000000000E+00  0.45593999997E+02  0.45594000000E+02  0.51100000000E-03 0.  1.
         11   -1    0    0    0    0 -0.00000000000E+00 -0.00000000000E+00 -0.45593999997E+02  0.45594000000E+02  0.51100000000E-03 0. -1.
    9900012    2    1    2    0    0  0.11952608757E+02  0.33743021201E+02  0.19279771007E+02  0.50528857044E+02  0.29999991471E+02 0.  0.
         12    1    1    2    0    0 -0.11952608757E+02 -0.33743021201E+02 -0.19279771007E+02  0.40659142956E+02  0.00000000000E+00 0. -1.
         11    1    3    3    0    0 -0.38045071126E+01  0.32806785253E+01  0.31246351019E+01  0.59161195675E+01  0.51100000000E-03 0. -1.
        -11    1    3    3    0    0  0.14027043972E+02  0.43479313567E+01  0.18920186601E+01  0.14806829659E+02  0.51100000000E-03 0.  1.
         12    1    3    3    0    0  0.17300718973E+01  0.26114411319E+02  0.14263117245E+02  0.29805907818E+02  0.00000000000E+00 0. -1.
</event>
<event>
 7    1  0.5902966E-013  0.5052885E+02  0.7816164E-02  0.1300439E+00
        -11   -1    0    0    0    0  0.00000000000E+00  0.00000000000E+00  0.45593999997E+02  0.45594000000E+02  0.51100000000E-03 0.  1.
         11   -1    0    0    0    0 -0.00000000000E+00 -0.00000000000E+00 -0.45593999997E+02  0.45594000000E+02  0.51100000000E-03 0. -1.
    9900012    2    1    2    0    0 -0.36667648012E+02 -0.17477510629E+02 -0.17850647846E+01  0.50528852877E+02  0.29999978805E+02 0.  0.
         12    1    1    2    0    0  0.36667648012E+02  0.17477510629E+02  0.17850647846E+01  0.40659147123E+02  0.00000000000E+00 0. -1.
         11    1    3    3    0    0  0.19768145877E+01 -0.17740866423E+01  0.16770933714E+00  0.26614481042E+01  0.51100000000E-03 0. -1.
        -11    1    3    3    0    0 -0.17170571002E+02 -0.17305103461E+02  0.56621372201E+01  0.25027083580E+02  0.51100000000E-03 0.  1.
         12    1    3    3    0    0 -0.21473891597E+02  0.16016794747E+01 -0.76149113418E+01  0.22840321193E+02  0.00000000000E+00 0. -1.
</event>
<event>
 7    1  0.5902966E-013  0.5052885E+02  0.7816164E-02  0.1300439E+00
        -11   -1    0    0    0    0  0.00000000000E+00  0.00000000000E+00  0.45593999997E+02  0.45594000000E+02  0.51100000000E-03 0.  1.
         11   -1    0    0    0    0 -0.00000000000E+00 -0.00000000000E+00 -0.45593999997E+02  0.45594000000E+02  0.51100000000E-03 0. -1.
    9900012    2    1    2    0    0  0.21251188269E+02  0.45402941141E+01  0.34364792513E+02  0.50528852961E+02  0.29999979061E+02 0.  0.
         12    1    1    2    0    0 -0.21251188269E+02 -0.45402941141E+01 -0.34364792513E+02  0.40659147039E+02  0.00000000000E+00 0. -1.
         11    1    3    3    0    0  0.84303486759E+01 -0.21173830913E+01  0.50151315112E+01  0.10035219693E+02  0.51100000000E-03 0. -1.
        -11    1    3    3    0    0 -0.56935032023E+01 -0.70106562570E+00  0.96852055320E+00  0.58176888924E+01  0.51100000000E-03 0.  1.
        -12    1    3    3    0    0  0.18514342795E+02  0.73587428311E+01  0.28381140449E+02  0.34675944376E+02  0.00000000000E+00 0.  1.
</event>
<event>
 7    1  0.5902966E-013  0.5052888E+02  0.7816164E-02  0.1300439E+00
        -11   -1    0    0    0    0  0.00000000000E+00  0.00000000000E+00  0.45593999997E+02  0.45594000000E+02  0.51100000000E-03 0.  1.
         11   -1    0    0    0    0 -0.00000000000E+00 -0.00000000000E+00 -0.45593999997E+02  0.45594000000E+02  0.51100000000E-03 0. -1.
    9900012    2    1    2    0    0  0.16856156021E+01  0.16124067467E+02  0.37287230932E+02  0.50528875044E+02  0.30000046183E+02 0.  0.
         12    1    1    2    0    0 -0.16856156021E+01 -0.16124067467E+02 -0.37287230932E+02  0.40659124956E+02  0.00000000000E+00 0. -1.
         11    1    3    3    0    0 -0.44244985402E+00 -0.47570737614E+01  0.16567718236E+01  0.50567188751E+01  0.51100000000E-03 0. -1.
        -11    1    3    3    0    0  0.29098524740E+00 -0.36404752404E+01  0.42147949808E+01  0.55769372760E+01  0.51100000000E-03 0.  1.
        -12    1    3    3    0    0  0.18370802087E+01  0.24521616469E+02  0.31415664127E+02  0.39895218893E+02  0.00000000000E+00 0.  1.
</event>
<event>
 7    1  0.5902966E-013  0.5052886E+02  0.7816164E-02  0.1300439E+00
        -11   -1    0    0    0    0  0.00000000000E+00  0.00000000000E+00  0.45593999997E+02  0.45594000000E+02  0.51100000000E-03 0.  1.
         11   -1    0    0    0    0 -0.00000000000E+00 -0.00000000000E+00 -0.45593999997E+02  0.45594000000E+02  0.51100000000E-03 0. -1.
    9900012    2    1    2    0    0  0.23504738507E+02  0.30576883570E+02  0.12874288486E+02  0.50528857792E+02  0.29999993744E+02 0.  0.
         12    1    1    2    0    0 -0.23504738507E+02 -0.30576883570E+02 -0.12874288486E+02  0.40659142208E+02  0.00000000000E+00 0. -1.
         11    1    3    3    0    0  0.57818161201E+01 -0.49039390708E+01  0.47937248294E+01  0.89698279837E+01  0.51100000000E-03 0. -1.
        -11    1    3    3    0    0  0.46049318167E+01  0.19383001962E+02  0.26763636067E+01  0.20101469710E+02  0.51100000000E-03 0.  1.
        -12    1    3    3    0    0  0.13117990570E+02  0.16097820678E+02  0.54042000495E+01  0.21457560098E+02  0.00000000000E+00 0.  1.
</event>
<event>
 7    1  0.5902966E-013  0.5052885E+02  0.7816164E-02  0.1300439E+00
        -11   -1    0    0    0    0  0.00000000000E+00  0.00000000000E+00  0.45593999997E+02  0.45594000000E+02  0.51100000000E-03 0.  1.
         11   -1    0    0    0    0 -0.00000000000E+00 -0.00000000000E+00 -0.45593999997E+02  0.45594000000E+02  0.51100000000E-03 0. -1.
    9900012    2    1    2    0    0 -0.24062574724E+02 -0.17828615086E+02  0.27500894081E+02  0.50528853508E+02  0.29999980724E+02 0.  0.
         12    1    1    2    0    0  0.24062574724E+02  0.17828615086E+02 -0.27500894081E+02  0.40659146492E+02  0.00000000000E+00 0. -1.
         11    1    3    3    0    0  0.40062126675E+01  0.32094681754E+01  0.58660794434E+01  0.77949544067E+01  0.51100000000E-03 0. -1.
        -11    1    3    3    0    0 -0.57603233476E+01 -0.31945631499E+01  0.98106825421E+01  0.11816769905E+02  0.51100000000E-03 0.  1.
        -12    1    3    3    0    0 -0.22308464043E+02 -0.17843520111E+02  0.11824132095E+02  0.30917129196E+02  0.00000000000E+00 0.  1.
</event>
<event>
 7    1  0.5902966E-013  0.5052882E+02  0.7816164E-02  0.1300439E+00
        -11   -1    0    0    0    0  0.00000000000E+00  0.00000000000E+00  0.45593999997E+02  0.45594000000E+02  0.51100000000E-03 0.  1.
         11   -1    0    0    0    0 -0.00000000000E+00 -0.00000000000E+00 -0.45593999997E+02  0.45594000000E+02  0.51100000000E-03 0. -1.
    9900012    2    1    2    0    0 -0.35170999700E+02  0.13184150156E+02  0.15567532381E+02  0.50528817769E+02  0.29999872092E+02 0.  0.
         12    1    1    2    0    0  0.35170999700E+02 -0.13184150156E+02 -0.15567532381E+02  0.40659182231E+02  0.00000000000E+00 0. -1.
         11    1    3    3    0    0 -0.15878697110E+02 -0.66799917632E+00  0.28636379811E+00  0.15895321617E+02  0.51100000000E-03 0. -1.
        -11    1    3    3    0    0 -0.91218125178E+01 -0.36648196007E+01  0.10668643253E+01  0.98882033791E+01  0.51100000000E-03 0.  1.
        -12    1    3    3    0    0 -0.10170490071E+02  0.17516968933E+02  0.14214304258E+02  0.24745292773E+02  0.00000000000E+00 0.  1.
</event>
<event>
 7    1  0.5902966E-013  0.5052887E+02  0.7816164E-02  0.1300439E+00
        -11   -1    0    0    0    0  0.00000000000E+00  0.00000000000E+00  0.45593999997E+02  0.45594000000E+02  0.51100000000E-03 0. -1.
         11   -1    0    0    0    0 -0.00000000000E+00 -0.00000000000E+00 -0.45593999997E+02  0.45594000000E+02  0.51100000000E-03 0.  1.
    9900012    2    1    2    0    0  0.86023562523E+01 -0.31530393201E+02 -0.24186741502E+02  0.50528871960E+02  0.30000036810E+02 0.  0.
         12    1    1    2    0    0 -0.86023562523E+01  0.31530393201E+02  0.24186741502E+02  0.40659128040E+02  0.00000000000E+00 0. -1.
         11    1    3    3    0    0  0.23605338466E+01 -0.99530766334E+01  0.42690441956E+01  0.11084249777E+02  0.51100000000E-03 0. -1.
        -11    1    3    3    0    0  0.77325539225E+01 -0.98603420243E+01 -0.56163492103E+01  0.13731792079E+02  0.51100000000E-03 0.  1.
         12    1    3    3    0    0 -0.14907315168E+01 -0.11716974543E+02 -0.22839436487E+02  0.25712830104E+02  0.00000000000E+00 0. -1.
</event>
<event>
 7    1  0.5902966E-013  0.5052887E+02  0.7816164E-02  0.1300439E+00
        -11   -1    0    0    0    0  0.00000000000E+00  0.00000000000E+00  0.45593999997E+02  0.45594000000E+02  0.51100000000E-03 0.  1.
         11   -1    0    0    0    0 -0.00000000000E+00 -0.00000000000E+00 -0.45593999997E+02  0.45594000000E+02  0.51100000000E-03 0. -1.
    9900012    2    1    2    0    0 -0.13358895322E+02  0.32766583126E+02  0.20026376713E+02  0.50528870420E+02  0.30000032128E+02 0.  0.
         12    1    1    2    0    0  0.13358895322E+02 -0.32766583126E+02 -0.20026376713E+02  0.40659129580E+02  0.00000000000E+00 0. -1.
         11    1    3    3    0    0 -0.38319211791E+01  0.74717636298E+01  0.19607977157E+02  0.21330345523E+02  0.51100000000E-03 0. -1.
        -11    1    3    3    0    0 -0.98760168803E+00  0.46519314316E+00  0.26309483068E+01  0.28484471224E+01  0.51100000000E-03 0.  1.
         12    1    3    3    0    0 -0.85393724552E+01  0.24829626353E+02 -0.22125487513E+01  0.26350077774E+02  0.00000000000E+00 0. -1.
</event>
<event>
 7    1  0.5902966E-013  0.5052886E+02  0.7816164E-02  0.1300439E+00
        -11   -1    0    0    0    0  0.00000000000E+00  0.00000000000E+00  0.45593999997E+02  0.45594000000E+02  0.51100000000E-03 0. -1.
         11   -1    0    0    0    0 -0.00000000000E+00 -0.00000000000E+00 -0.45593999997E+02  0.45594000000E+02  0.51100000000E-03 0.  1.
    9900012    2    1    2    0    0  0.20380496597E+02 -0.26999759136E+02 -0.22556907704E+02  0.50528859329E+02  0.29999998416E+02 0.  0.
         12    1    1    2    0    0 -0.20380496597E+02  0.26999759136E+02  0.22556907704E+02  0.40659140671E+02  0.00000000000E+00 0. -1.
         11    1    3    3    0    0  0.59845298579E+01  0.34023734157E+01 -0.77450943514E+01  0.10362298454E+02  0.51100000000E-03 0. -1.
        -11    1    3    3    0    0 -0.13267022121E+01  0.13454999306E+01 -0.47784094605E+00  0.19490615828E+01  0.51100000000E-03 0.  1.
        -12    1    3    3    0    0  0.15722668951E+02 -0.31747632482E+02 -0.14333972407E+02  0.38217499292E+02  0.00000000000E+00 0.  1.
</event>
<event>
 7    1  0.5902966E-013  0.5052887E+02  0.7816164E-02  0.1300439E+00
        -11   -1    0    0    0    0  0.00000000000E+00  0.00000000000E+00  0.45593999997E+02  0.45594000000E+02  0.51100000000E-03 0.  1.
         11   -1    0    0    0    0 -0.00000000000E+00 -0.00000000000E+00 -0.45593999997E+02  0.45594000000E+02  0.51100000000E-03 0. -1.
    9900012    2    1    2    0    0  0.39545984154E+02 -0.18476122348E+01  0.92664164017E+01  0.50528868103E+02  0.30000025087E+02 0.  0.
         12    1    1    2    0    0 -0.39545984154E+02  0.18476122348E+01 -0.92664164017E+01  0.40659131897E+02  0.00000000000E+00 0. -1.
         11    1    3    3    0    0  0.15465640701E+02 -0.75895940515E+01  0.82110402076E+01  0.19084264767E+02  0.51100000000E-03 0. -1.
        -11    1    3    3    0    0  0.22483713185E+02  0.65293972384E+01  0.76368181419E+01  0.24626639610E+02  0.51100000000E-03 0.  1.
         12    1    3    3    0    0  0.15966302678E+01 -0.78741542178E+00 -0.65814419478E+01  0.68179637262E+01  0.00000000000E+00 0. -1.
</event>
<event>
 7    1  0.5902966E-013  0.5052886E+02  0.7816164E-02  0.1300439E+00
        -11   -1    0    0    0    0  0.00000000000E+00  0.00000000000E+00  0.45593999997E+02  0.45594000000E+02  0.51100000000E-03 0.  1.
         11   -1    0    0    0    0 -0.00000000000E+00 -0.00000000000E+00 -0.45593999997E+02  0.45594000000E+02  0.51100000000E-03 0. -1.
    9900012    2    1    2    0    0 -0.18843066387E+02  0.23397891993E+02  0.27397866993E+02  0.50528860605E+02  0.30000002296E+02 0.  0.
         12    1    1    2    0    0  0.18843066387E+02 -0.23397891993E+02 -0.27397866993E+02  0.40659139395E+02  0.00000000000E+00 0. -1.
         11    1    3    3    0    0 -0.23799576781E+02  0.20265529540E+02  0.15258836529E+02  0.34784244062E+02  0.51100000000E-03 0. -1.
        -11    1    3    3    0    0 -0.11098569774E+01 -0.18423175001E+01  0.21260302641E+01  0.30242224168E+01  0.51100000000E-03 0.  1.
        -12    1    3    3    0    0  0.60663673721E+01  0.49746799533E+01  0.10013000200E+02  0.12720394126E+02  0.00000000000E+00 0.  1.
</event>
<event>
 7    1  0.5902966E-013  0.5052886E+02  0.7816164E-02  0.1300439E+00
        -11   -1    0    0    0    0  0.00000000000E+00  0.00000000000E+00  0.45593999997E+02  0.45594000000E+02  0.51100000000E-03 0. -1.
         11   -1    0    0    0    0 -0.00000000000E+00 -0.00000000000E+00 -0.45593999997E+02  0.45594000000E+02  0.51100000000E-03 0.  1.
    9900012    2    1    2    0    0  0.21156778859E+02 -0.14134330460E+02 -0.31713990665E+02  0.50528858431E+02  0.29999995688E+02 0.  0.
         12    1    1    2    0    0 -0.21156778859E+02  0.14134330460E+02  0.31713990665E+02  0.40659141569E+02  0.00000000000E+00 0. -1.
         11    1    3    3    0    0 -0.27580305739E+01 -0.66984252822E+00 -0.59642546466E+01  0.66051309911E+01  0.51100000000E-03 0. -1.
        -11    1    3    3    0    0  0.82367454725E+01  0.19426212067E+01  0.18275136264E+01  0.86578033847E+01  0.51100000000E-03 0.  1.
        -12    1    3    3    0    0  0.15678063960E+02 -0.15407109138E+02 -0.27577249644E+02  0.35265924056E+02  0.00000000000E+00 0.  1.
</event>
<event>
 7    1  0.5902966E-013  0.5052885E+02  0.7816164E-02  0.1300439E+00
        -11   -1    0    0    0    0  0.00000000000E+00  0.00000000000E+00  0.45593999997E+02  0.45594000000E+02  0.51100000000E-03 0.  1.
         11   -1    0    0    0    0 -0.00000000000E+00 -0.00000000000E+00 -0.45593999997E+02  0.45594000000E+02  0.51100000000E-03 0. -1.
    9900012    2    1    2    0    0 -0.30400962187E+02  0.18990169930E+02  0.19191691560E+02  0.50528854893E+02  0.29999984934E+02 0.  0.
         12    1    1    2    0    0  0.30400962187E+02 -0.18990169930E+02 -0.19191691560E+02  0.40659145107E+02  0.00000000000E+00 0. -1.
         11    1    3    3    0    0 -0.36340691496E+01 -0.65514105323E+00 -0.35021240459E+01  0.50892574584E+01  0.51100000000E-03 0. -1.
        -11    1    3    3    0    0 -0.19646682321E+02  0.14627542640E+01  0.94907391195E+01  0.21867919552E+02  0.51100000000E-03 0.  1.
         12    1    3    3    0    0 -0.71202107168E+01  0.18182556719E+02  0.13203076487E+02  0.23571677883E+02  0.00000000000E+00 0. -1.
</event>
<event>
 7    1  0.5902966E-013  0.5052889E+02  0.7816164E-02  0.1300439E+00
        -11   -1    0    0    0    0  0.00000000000E+00  0.00000000000E+00  0.45593999997E+02  0.45594000000E+02  0.51100000000E-03 0.  1.
         11   -1    0    0    0    0 -0.00000000000E+00 -0.00000000000E+00 -0.45593999997E+02  0.45594000000E+02  0.51100000000E-03 0. -1.
    9900012    2    1    2    0    0 -0.17740099196E+02  0.26680388832E+02  0.25032154112E+02  0.50528892691E+02  0.30000099822E+02 0.  0.
         12    1    1    2    0    0  0.17740099196E+02 -0.26680388832E+02 -0.25032154112E+02  0.40659107309E+02  0.00000000000E+00 0. -1.
         11    1    3    3    0    0  0.19083940722E+01  0.10813378851E+02  0.12504931344E+02  0.16641647704E+02  0.51100000000E-03 0. -1.
        -11    1    3    3    0    0 -0.21296034236E+01  0.98329197635E+01 -0.21033996805E+01  0.10278414873E+02  0.51100000000E-03 0.  1.
        -12    1    3    3    0    0 -0.17518889845E+02  0.60340902182E+01  0.14630622448E+02  0.23608830114E+02  0.00000000000E+00 0.  1.
</event>
<event>
 7    1  0.5902966E-013  0.5052885E+02  0.7816164E-02  0.1300439E+00
        -11   -1    0    0    0    0  0.00000000000E+00  0.00000000000E+00  0.45593999997E+02  0.45594000000E+02  0.51100000000E-03 0.  1.
         11   -1    0    0    0    0 -0.00000000000E+00 -0.00000000000E+00 -0.45593999997E+02  0.45594000000E+02  0.51100000000E-03 0. -1.
    9900012    2    1    2    0    0  0.16114246350E+00 -0.34431299262E+02  0.21624665747E+02  0.50528849684E+02  0.29999969099E+02 0.  0.
         12    1    1    2    0    0 -0.16114246350E+00  0.34431299262E+02 -0.21624665747E+02  0.40659150316E+02  0.00000000000E+00 0. -1.
         11    1    3    3    0    0  0.29018667132E+01 -0.17759246994E+01  0.80886375502E+01  0.87750097799E+01  0.51100000000E-03 0. -1.
        -11    1    3    3    0    0 -0.28328470648E+01  0.18809538429E+01 -0.19328333711E+01  0.39113750719E+01  0.51100000000E-03 0.  1.
        -12    1    3    3    0    0  0.92122815072E-01 -0.34536328406E+02  0.15468861568E+02  0.37842464832E+02  0.00000000000E+00 0.  1.
</event>
<event>
 7    1  0.5902966E-013  0.5052886E+02  0.7816164E-02  0.1300439E+00
        -11   -1    0    0    0    0  0.00000000000E+00  0.00000000000E+00  0.45593999997E+02  0.45594000000E+02  0.51100000000E-03 0. -1.
         11   -1    0    0    0    0 -0.00000000000E+00 -0.00000000000E+00 -0.45593999997E+02  0.45594000000E+02  0.51100000000E-03 0.  1.
    9900012    2    1    2    0    0 -0.24492595138E+01  0.14427715233E+02  0.37934260469E+02  0.50528856424E+02  0.29999989586E+02 0.  0.
         12    1    1    2    0    0  0.24492595138E+01 -0.14427715233E+02 -0.37934260469E+02  0.40659143576E+02  0.00000000000E+00 0. -1.
         11    1    3    3    0    0 -0.34180315272E+01  0.70036576869E+01  0.37557381685E+02  0.38357412319E+02  0.51100000000E-03 0. -1.
        -11    1    3    3    0    0  0.19987501340E+01  0.91337153038E+01  0.20442151762E+01  0.95707143566E+01  0.51100000000E-03 0.  1.
        -12    1    3    3    0    0 -0.10299781206E+01 -0.17096577574E+01 -0.16673363926E+01  0.26007297481E+01  0.00000000000E+00 0.  1.
</event>
<event>
 7    1  0.5902966E-013  0.5052888E+02  0.7816164E-02  0.1300439E+00
        -11   -1    0    0    0    0  0.00000000000E+00  0.00000000000E+00  0.45593999997E+02  0.45594000000E+02  0.51100000000E-03 0. -1.
         11   -1    0    0    0    0 -0.00000000000E+00 -0.00000000000E+00 -0.45593999997E+02  0.45594000000E+02  0.51100000000E-03 0.  1.
    9900012    2    1    2    0    0  0.28004770922E+02  0.28275928765E+02 -0.83288052547E+01  0.50528876315E+02  0.30000050046E+02 0.  0.
         12    1    1    2    0    0 -0.28004770922E+02 -0.28275928765E+02  0.83288052547E+01  0.40659123685E+02  0.00000000000E+00 0. -1.
         11    1    3    3    0    0  0.15116048598E+02  0.19506092780E+01 -0.62525927785E+01  0.16474061991E+02  0.51100000000E-03 0. -1.
        -11    1    3    3    0    0 -0.72509419067E+00 -0.21892073710E+01  0.47401276318E+00  0.23543744093E+01  0.51100000000E-03 0.  1.
        -12    1    3    3    0    0  0.13613816515E+02  0.28514526858E+02 -0.25502252394E+01  0.31700439915E+02  0.00000000000E+00 0.  1.
</event>
<event>
 7    1  0.5902966E-013  0.5052885E+02  0.7816164E-02  0.1300439E+00
        -11   -1    0    0    0    0  0.00000000000E+00  0.00000000000E+00  0.45593999997E+02  0.45594000000E+02  0.51100000000E-03 0.  1.
         11   -1    0    0    0    0 -0.00000000000E+00 -0.00000000000E+00 -0.45593999997E+02  0.45594000000E+02  0.51100000000E-03 0. -1.
    9900012    2    1    2    0    0  0.31868813425E+02  0.24641263685E+02  0.55093553384E+01  0.50528854149E+02  0.29999982670E+02 0.  0.
         12    1    1    2    0    0 -0.31868813425E+02 -0.24641263685E+02 -0.55093553384E+01  0.40659145851E+02  0.00000000000E+00 0. -1.
         11    1    3    3    0    0  0.31611362607E+02  0.19559466821E+02 -0.23747816828E+01  0.37249034572E+02  0.51100000000E-03 0. -1.
        -11    1    3    3    0    0  0.10047382539E+00  0.16867396654E+01 -0.21218029320E+01  0.27124220969E+01  0.51100000000E-03 0.  1.
        -12    1    3    3    0    0  0.15697699254E+00  0.33950571983E+01  0.10005939953E+02  0.10567397480E+02  0.00000000000E+00 0.  1.
</event>
<event>
 7    1  0.5902966E-013  0.5052886E+02  0.7816164E-02  0.1300439E+00
        -11   -1    0    0    0    0  0.00000000000E+00  0.00000000000E+00  0.45593999997E+02  0.45594000000E+02  0.51100000000E-03 0. -1.
         11   -1    0    0    0    0 -0.00000000000E+00 -0.00000000000E+00 -0.45593999997E+02  0.45594000000E+02  0.51100000000E-03 0.  1.
    9900012    2    1    2    0    0 -0.13482648986E+02  0.33121685718E+02 -0.19347812818E+02  0.50528858969E+02  0.29999997324E+02 0.  0.
         12    1    1    2    0    0  0.13482648986E+02 -0.33121685718E+02  0.19347812818E+02  0.40659141031E+02  0.00000000000E+00 0. -1.
         11    1    3    3    0    0 -0.59553413239E+01  0.24797811723E+02 -0.10968282646E+02  0.27761498176E+02  0.51100000000E-03 0.  1.
        -11    1    3    3    0    0 -0.11068602942E+02  0.94298071429E+01 -0.10821141189E+01  0.14581022085E+02  0.51100000000E-03 0. -1.
        -12    1    3    3    0    0  0.35412952796E+01 -0.11059331474E+01 -0.72974160534E+01  0.81863387079E+01  0.00000000000E+00 0.  1.
</event>
<event>
 7    1  0.5902966E-013  0.5052886E+02  0.7816164E-02  0.1300439E+00
        -11   -1    0    0    0    0  0.00000000000E+00  0.00000000000E+00  0.45593999997E+02  0.45594000000E+02  0.51100000000E-03 0.  1.
         11   -1    0    0    0    0 -0.00000000000E+00 -0.00000000000E+00 -0.45593999997E+02  0.45594000000E+02  0.51100000000E-03 0. -1.
    9900012    2    1    2    0    0 -0.14196703710E+02  0.15155604774E+02  0.34956070164E+02  0.50528860884E+02  0.30000003144E+02 0.  0.
         12    1    1    2    0    0  0.14196703710E+02 -0.15155604774E+02 -0.34956070164E+02  0.40659139116E+02  0.00000000000E+00 0. -1.
         11    1    3    3    0    0 -0.78502299735E+00 -0.19038829208E+01 -0.35174704077E+01  0.40759820427E+01  0.51100000000E-03 0. -1.
        -11    1    3    3    0    0  0.68298961535E-01  0.87089189139E+01  0.21640611151E+02  0.23327365574E+02  0.51100000000E-03 0.  1.
         12    1    3    3    0    0 -0.13479979674E+02  0.83505687811E+01  0.16832929421E+02  0.23125513267E+02  0.00000000000E+00 0. -1.
</event>
<event>
 7    1  0.5902966E-013  0.5052885E+02  0.7816164E-02  0.1300439E+00
        -11   -1    0    0    0    0  0.00000000000E+00  0.00000000000E+00  0.45593999997E+02  0.45594000000E+02  0.51100000000E-03 0. -1.
         11   -1    0    0    0    0 -0.00000000000E+00 -0.00000000000E+00 -0.45593999997E+02  0.45594000000E+02  0.51100000000E-03 0.  1.
    9900012    2    1    2    0    0  0.11364492676E+02 -0.36366409077E+02 -0.14195023569E+02  0.50528854693E+02  0.29999984326E+02 0.  0.
         12    1    1    2    0    0 -0.11364492676E+02  0.36366409077E+02  0.14195023569E+02  0.40659145307E+02  0.00000000000E+00 0. -1.
         11    1    3    3    0    0  0.74019797913E+01 -0.30343103477E+00 -0.26660058145E+01  0.78733069600E+01  0.51100000000E-03 0. -1.
        -11    1    3    3    0    0  0.89633313003E+01 -0.75262523987E+01 -0.60321429716E+01  0.13167100374E+02  0.51100000000E-03 0.  1.
        -12    1    3    3    0    0 -0.50008184160E+01 -0.28536725644E+02 -0.54968747827E+01  0.29488447359E+02  0.00000000000E+00 0.  1.
</event>
<event>
 7    1  0.5902966E-013  0.5052886E+02  0.7816164E-02  0.1300439E+00
        -11   -1    0    0    0    0  0.00000000000E+00  0.00000000000E+00  0.45593999997E+02  0.45594000000E+02  0.51100000000E-03 0. -1.
         11   -1    0    0    0    0 -0.00000000000E+00 -0.00000000000E+00 -0.45593999997E+02  0.45594000000E+02  0.51100000000E-03 0.  1.
    9900012    2    1    2    0    0  0.26279161134E+02  0.29852976488E+02 -0.84481412705E+01  0.50528860731E+02  0.30000002679E+02 0.  0.
         12    1    1    2    0    0 -0.26279161134E+02 -0.29852976488E+02  0.84481412705E+01  0.40659139269E+02  0.00000000000E+00 0. -1.
         11    1    3    3    0    0  0.91062410843E+01  0.15324208237E+02  0.24741659889E+01  0.17996568628E+02  0.51100000000E-03 0. -1.
        -11    1    3    3    0    0  0.22047861335E+02  0.11108702152E+02 -0.87125951139E+01  0.26180541760E+02  0.51100000000E-03 0.  1.
         12    1    3    3    0    0 -0.48749412855E+01  0.34200660991E+01 -0.22097121454E+01  0.63517503434E+01  0.00000000000E+00 0. -1.
</event>
<event>
 7    1  0.5902966E-013  0.5052886E+02  0.7816164E-02  0.1300439E+00
        -11   -1    0    0    0    0  0.00000000000E+00  0.00000000000E+00  0.45593999997E+02  0.45594000000E+02  0.51100000000E-03 0.  1.
         11   -1    0    0    0    0 -0.00000000000E+00 -0.00000000000E+00 -0.45593999997E+02  0.45594000000E+02  0.51100000000E-03 0. -1.
    9900012    2    1    2    0    0  0.32882929651E+02  0.66536482637E+01  0.22969706822E+02  0.50528861678E+02  0.30000005555E+02 0.  0.
         12    1    1    2    0    0 -0.32882929651E+02 -0.66536482637E+01 -0.22969706822E+02  0.40659138322E+02  0.00000000000E+00 0. -1.
         11    1    3    3    0    0  0.10575066096E+02 -0.54931068709E+01 -0.19174497908E+01  0.12069915493E+02  0.51100000000E-03 0. -1.
        -11    1    3    3    0    0  0.22591826903E+02  0.12006672405E+02  0.17343623374E+02  0.30908770553E+02  0.51100000000E-03 0.  1.
        -12    1    3    3    0    0 -0.28396334899E+00  0.14008272940E+00  0.75435332384E+01  0.75501756320E+01  0.00000000000E+00 0.  1.
</event>
<event>
 7    1  0.5902966E-013  0.5052886E+02  0.7816164E-02  0.1300439E+00
        -11   -1    0    0    0    0  0.00000000000E+00  0.00000000000E+00  0.45593999997E+02  0.45594000000E+02  0.51100000000E-03 0.  1.
         11   -1    0    0    0    0 -0.00000000000E+00 -0.00000000000E+00 -0.45593999997E+02  0.45594000000E+02  0.51100000000E-03 0. -1.
    9900012    2    1    2    0    0  0.35418363259E+01 -0.26155731214E+02  0.30927319549E+02  0.50528856202E+02  0.29999988911E+02 0.  0.
         12    1    1    2    0    0 -0.35418363259E+01  0.26155731214E+02 -0.30927319549E+02  0.40659143798E+02  0.00000000000E+00 0. -1.
         11    1    3    3    0    0 -0.77105906976E+01 -0.14523443027E+02  0.44258938366E+01  0.17028568430E+02  0.51100000000E-03 0. -1.
        -11    1    3    3    0    0 -0.16858971675E+01 -0.27568721854E+01  0.10919505890E+02  0.11387633760E+02  0.51100000000E-03 0.  1.
         12    1    3    3    0    0  0.12938324191E+02 -0.88754160019E+01  0.15581919822E+02  0.22112654012E+02  0.00000000000E+00 0. -1.
</event>
<event>
 7    1  0.5902966E-013  0.5052887E+02  0.7816164E-02  0.1300439E+00
        -11   -1    0    0    0    0  0.00000000000E+00  0.00000000000E+00  0.45593999997E+02  0.45594000000E+02  0.51100000000E-03 0.  1.
         11   -1    0    0    0    0 -0.00000000000E+00 -0.00000000000E+00 -0.45593999997E+02  0.45594000000E+02  0.51100000000E-03 0. -1.
    9900012    2    1    2    0    0 -0.18958373159E+02  0.13812168832E+02  0.33210975603E+02  0.50528870383E+02  0.30000032017E+02 0.  0.
         12    1    1    2    0    0  0.18958373159E+02 -0.13812168832E+02 -0.33210975603E+02  0.40659129617E+02  0.00000000000E+00 0. -1.
         11    1    3    3    0    0 -0.98873356954E+01  0.15927151624E+02  0.18555367684E+02  0.26376793516E+02  0.51100000000E-03 0. -1.
        -11    1    3    3    0    0 -0.73918236384E+01  0.27967671965E+01  0.16776334953E+02  0.18544712944E+02  0.51100000000E-03 0.  1.
         12    1    3    3    0    0 -0.16792138253E+01 -0.49117499886E+01 -0.21207270339E+01  0.56073639238E+01  0.00000000000E+00 0. -1.
</event>
<event>
 7    1  0.5902966E-013  0.5052888E+02  0.7816164E-02  0.1300439E+00
        -11   -1    0    0    0    0  0.00000000000E+00  0.00000000000E+00  0.45593999997E+02  0.45594000000E+02  0.51100000000E-03 0.  1.
         11   -1    0    0    0    0 -0.00000000000E+00 -0.00000000000E+00 -0.45593999997E+02  0.45594000000E+02  0.51100000000E-03 0. -1.
    9900012    2    1    2    0    0 -0.16090345083E+01  0.27442567323E+02  0.29957982782E+02  0.50528877706E+02  0.30000054276E+02 0.  0.
         12    1    1    2    0    0  0.16090345083E+01 -0.27442567323E+02 -0.29957982782E+02  0.40659122294E+02  0.00000000000E+00 0. -1.
         11    1    3    3    0    0  0.17787211494E+01 -0.42891044869E+00 -0.14890913504E+01  0.23590689713E+01  0.51100000000E-03 0. -1.
        -11    1    3    3    0    0  0.99158672536E+01  0.14954983630E+02  0.15740985020E+02  0.23869532220E+02  0.51100000000E-03 0.  1.
        -12    1    3    3    0    0 -0.13303622911E+02  0.12916494141E+02  0.15706089113E+02  0.24300276515E+02  0.00000000000E+00 0.  1.
</event>
<event>
 7    1  0.1308355E-012  0.5052886E+02  0.7816164E-02  0.1300439E+00
        -11   -1    0    0    0    0  0.00000000000E+00  0.00000000000E+00  0.45593999997E+02  0.45594000000E+02  0.51100000000E-03 0. -1.
         11   -1    0    0    0    0 -0.00000000000E+00 -0.00000000000E+00 -0.45593999997E+02  0.45594000000E+02  0.51100000000E-03 0.  1.
    9900012    2    1    2    0    0 -0.87061732726E+01  0.18199319385E+02 -0.35300891579E+02  0.50528860494E+02  0.30000001956E+02 0.  0.
         12    1    1    2    0    0  0.87061732726E+01 -0.18199319385E+02  0.35300891579E+02  0.40659139506E+02  0.00000000000E+00 0. -1.
         11    1    3    3    0    0 -0.35682164369E+01  0.65742967650E+01  0.69010766386E+00  0.75119767934E+01  0.51100000000E-03 0. -1.
        -11    1    3    3    0    0 -0.81526725041E+01  0.14150413537E+02 -0.16809136790E+02  0.23436026799E+02  0.51100000000E-03 0.  1.
        -12    1    3    3    0    0  0.30147156684E+01 -0.25253909166E+01 -0.19181862453E+02  0.19580856902E+02  0.00000000000E+00 0.  1.
</event>
<event>
 7    1  0.9201709E-013  0.5052887E+02  0.7816164E-02  0.1300439E+00
        -11   -1    0    0    0    0  0.00000000000E+00  0.00000000000E+00  0.45593999997E+02  0.45594000000E+02  0.51100000000E-03 0. -1.
         11   -1    0    0    0    0 -0.00000000000E+00 -0.00000000000E+00 -0.45593999997E+02  0.45594000000E+02  0.51100000000E-03 0.  1.
    9900012    2    1    2    0    0  0.18187022189E+02  0.81504848908E+01 -0.35439624352E+02  0.50528866287E+02  0.30000019566E+02 0.  0.
         12    1    1    2    0    0 -0.18187022189E+02 -0.81504848908E+01  0.35439624352E+02  0.40659133713E+02  0.00000000000E+00 0. -1.
         11    1    3    3    0    0  0.16268508985E+02 -0.38082789041E+01 -0.13550318944E+02  0.21512287571E+02  0.51100000000E-03 0. -1.
        -11    1    3    3    0    0  0.68696339569E+01  0.88594171841E+01 -0.19909775032E+02  0.22849076253E+02  0.51100000000E-03 0.  1.
        -12    1    3    3    0    0 -0.49511207523E+01  0.30993466108E+01 -0.19795303768E+01  0.61675024630E+01  0.00000000000E+00 0.  1.
</event>
<event>
 7    1  0.5902966E-013  0.5052873E+02  0.7816164E-02  0.1300439E+00
        -11   -1    0    0    0    0  0.00000000000E+00  0.00000000000E+00  0.45593999997E+02  0.45594000000E+02  0.51100000000E-03 0.  1.
         11   -1    0    0    0    0 -0.00000000000E+00 -0.00000000000E+00 -0.45593999997E+02  0.45594000000E+02  0.51100000000E-03 0. -1.
    9900012    2    1    2    0    0  0.13804423998E+02 -0.38084753067E+02  0.34879565394E+01  0.50528728254E+02  0.29999599997E+02 0.  0.
         12    1    1    2    0    0 -0.13804423998E+02  0.38084753067E+02 -0.34879565394E+01  0.40659271746E+02  0.00000000000E+00 0. -1.
         11    1    3    3    0    0  0.16340883717E+01 -0.70219609525E+01 -0.43257315546E+01  0.84077425132E+01  0.51100000000E-03 0. -1.
        -11    1    3    3    0    0  0.17176566827E+02 -0.31941009449E+02  0.62336701880E+01  0.36798385520E+02  0.51100000000E-03 0.  1.
        -12    1    3    3    0    0 -0.50062312008E+01  0.87821733450E+00  0.15800179060E+01  0.53226002203E+01  0.00000000000E+00 0.  1.
</event>
<event>
 7    1  0.5902966E-013  0.5052886E+02  0.7816164E-02  0.1300439E+00
        -11   -1    0    0    0    0  0.00000000000E+00  0.00000000000E+00  0.45593999997E+02  0.45594000000E+02  0.51100000000E-03 0.  1.
         11   -1    0    0    0    0 -0.00000000000E+00 -0.00000000000E+00 -0.45593999997E+02  0.45594000000E+02  0.51100000000E-03 0. -1.
    9900012    2    1    2    0    0 -0.72504016030E+00 -0.38962598466E+02  0.11599813655E+02  0.50528862782E+02  0.30000008913E+02 0.  0.
         12    1    1    2    0    0  0.72504016030E+00  0.38962598466E+02 -0.11599813655E+02  0.40659137218E+02  0.00000000000E+00 0. -1.
         11    1    3    3    0    0 -0.67703378504E+00 -0.70080609595E+01 -0.56728883653E+01  0.90417341160E+01  0.51100000000E-03 0. -1.
        -11    1    3    3    0    0 -0.67909943842E+01 -0.28044311310E+02  0.17392943788E+02  0.33691475116E+02  0.51100000000E-03 0.  1.
         12    1    3    3    0    0  0.67429880090E+01 -0.39102261962E+01 -0.12024176764E+00  0.77956535504E+01  0.00000000000E+00 0. -1.
</event>
<event>
 7    1  0.5902966E-013  0.5052886E+02  0.7816164E-02  0.1300439E+00
        -11   -1    0    0    0    0  0.00000000000E+00  0.00000000000E+00  0.45593999997E+02  0.45594000000E+02  0.51100000000E-03 0. -1.
         11   -1    0    0    0    0 -0.00000000000E+00 -0.00000000000E+00 -0.45593999997E+02  0.45594000000E+02  0.51100000000E-03 0.  1.
    9900012    2    1    2    0    0 -0.31673763767E+02  0.16002131976E+02 -0.19846151470E+02  0.50528864900E+02  0.30000015349E+02 0.  0.
         12    1    1    2    0    0  0.31673763767E+02 -0.16002131976E+02  0.19846151470E+02  0.40659135100E+02  0.00000000000E+00 0. -1.
         11    1    3    3    0    0 -0.66006064111E+01  0.58289688481E+01  0.70327096100E+01  0.11269600150E+02  0.51100000000E-03 0.  1.
        -11    1    3    3    0    0 -0.20799151305E+02  0.45299153416E+01 -0.17810471921E+02  0.27754958806E+02  0.51100000000E-03 0. -1.
        -12    1    3    3    0    0 -0.42740060503E+01  0.56432477866E+01 -0.90683891586E+01  0.11504305943E+02  0.00000000000E+00 0.  1.
</event>
<event>
 7    1  0.5902966E-013  0.5052887E+02  0.7816164E-02  0.1300439E+00
        -11   -1    0    0    0    0  0.00000000000E+00  0.00000000000E+00  0.45593999997E+02  0.45594000000E+02  0.51100000000E-03 0.  1.
         11   -1    0    0    0    0 -0.00000000000E+00 -0.00000000000E+00 -0.45593999997E+02  0.45594000000E+02  0.51100000000E-03 0. -1.
    9900012    2    1    2    0    0 -0.27862985229E+02  0.17880480702E+02  0.23603125055E+02  0.50528867590E+02  0.30000023527E+02 0.  0.
         12    1    1    2    0    0  0.27862985229E+02 -0.17880480702E+02 -0.23603125055E+02  0.40659132410E+02  0.00000000000E+00 0. -1.
         11    1    3    3    0    0 -0.14635199306E+02 -0.92124817997E+00  0.10593699734E+02  0.18090445855E+02  0.51100000000E-03 0. -1.
        -11    1    3    3    0    0 -0.94015214903E+01  0.79122494081E+01  0.16321965695E+02  0.20430341686E+02  0.51100000000E-03 0.  1.
         12    1    3    3    0    0 -0.38262644324E+01  0.10889479474E+02 -0.33125403738E+01  0.12008080048E+02  0.00000000000E+00 0. -1.
</event>
<event>
 7    1  0.5902966E-013  0.5052885E+02  0.7816164E-02  0.1300439E+00
        -11   -1    0    0    0    0  0.00000000000E+00  0.00000000000E+00  0.45593999997E+02  0.45594000000E+02  0.51100000000E-03 0. -1.
         11   -1    0    0    0    0 -0.00000000000E+00 -0.00000000000E+00 -0.45593999997E+02  0.45594000000E+02  0.51100000000E-03 0.  1.
    9900012    2    1    2    0    0 -0.64701162995E+01  0.32272485326E+02 -0.23870285042E+02  0.50528853157E+02  0.29999979656E+02 0.  0.
         12    1    1    2    0    0  0.64701162995E+01 -0.32272485326E+02  0.23870285042E+02  0.40659146843E+02  0.00000000000E+00 0. -1.
         11    1    3    3    0    0  0.55988352532E+01  0.50447658757E+01  0.10451044122E+01  0.76084730680E+01  0.51100000000E-03 0. -1.
        -11    1    3    3    0    0 -0.14300309841E+02  0.14681927563E+02 -0.86199971080E+01  0.22234257553E+02  0.51100000000E-03 0.  1.
        -12    1    3    3    0    0  0.22313582880E+01  0.12545791887E+02 -0.16295392346E+02  0.20686122536E+02  0.00000000000E+00 0.  1.
</event>
<event>
 7    1  0.5902966E-013  0.5052886E+02  0.7816164E-02  0.1300439E+00
        -11   -1    0    0    0    0  0.00000000000E+00  0.00000000000E+00  0.45593999997E+02  0.45594000000E+02  0.51100000000E-03 0.  1.
         11   -1    0    0    0    0 -0.00000000000E+00 -0.00000000000E+00 -0.45593999997E+02  0.45594000000E+02  0.51100000000E-03 0. -1.
    9900012    2    1    2    0    0  0.38169298709E+02  0.13021416880E+02 -0.51684745447E+01  0.50528858462E+02  0.29999995782E+02 0.  0.
         12    1    1    2    0    0 -0.38169298709E+02 -0.13021416880E+02  0.51684745447E+01  0.40659141538E+02  0.00000000000E+00 0. -1.
         11    1    3    3    0    0  0.93770211342E+01  0.12750525431E+02  0.54103193527E+01  0.16726505310E+02  0.51100000000E-03 0. -1.
        -11    1    3    3    0    0  0.14216188652E+02  0.71638271161E+01 -0.42109095500E+01  0.16466699676E+02  0.51100000000E-03 0.  1.
        -12    1    3    3    0    0  0.14576088923E+02 -0.68929356669E+01 -0.63678843473E+01  0.17335653476E+02  0.00000000000E+00 0.  1.
</event>
<event>
 7    1  0.5902966E-013  0.5052886E+02  0.7816164E-02  0.1300439E+00
        -11   -1    0    0    0    0  0.00000000000E+00  0.00000000000E+00  0.45593999997E+02  0.45594000000E+02  0.51100000000E-03 0.  1.
         11   -1    0    0    0    0 -0.00000000000E+00 -0.00000000000E+00 -0.45593999997E+02  0.45594000000E+02  0.51100000000E-03 0. -1.
    9900012    2    1    2    0    0  0.19419005847E+02  0.31938416065E+02  0.16000170689E+02  0.50528859935E+02  0.30000000257E+02 0.  0.
         12    1    1    2    0    0 -0.19419005847E+02 -0.31938416065E+02 -0.16000170689E+02  0.40659140065E+02  0.00000000000E+00 0. -1.
         11    1    3    3    0    0  0.68954664644E+01  0.27862210177E+02  0.11943676784E+02  0.31088609314E+02  0.51100000000E-03 0. -1.
        -11    1    3    3    0    0  0.11094213769E+02  0.87464398037E+01  0.30975545282E+01  0.14462939974E+02  0.51100000000E-03 0.  1.
        -12    1    3    3    0    0  0.14293256140E+01 -0.46702339160E+01  0.95893937640E+00  0.49773106462E+01  0.00000000000E+00 0.  1.
</event>
<event>
 7    1  0.5902966E-013  0.5052886E+02  0.7816164E-02  0.1300439E+00
        -11   -1    0    0    0    0  0.00000000000E+00  0.00000000000E+00  0.45593999997E+02  0.45594000000E+02  0.51100000000E-03 0. -1.
         11   -1    0    0    0    0 -0.00000000000E+00 -0.00000000000E+00 -0.45593999997E+02  0.45594000000E+02  0.51100000000E-03 0.  1.
    9900012    2    1    2    0    0  0.11928927945E+02  0.16052237381E+02 -0.35400454063E+02  0.50528858412E+02  0.29999995628E+02 0.  0.
         12    1    1    2    0    0 -0.11928927945E+02 -0.16052237381E+02  0.35400454063E+02  0.40659141588E+02  0.00000000000E+00 0. -1.
         11    1    3    3    0    0 -0.11536813128E+01 -0.64032608345E+01 -0.11804639520E+01  0.66125808343E+01  0.51100000000E-03 0. -1.
        -11    1    3    3    0    0  0.91677321864E-01  0.44151409188E+01 -0.21952572824E+01  0.49316355158E+01  0.51100000000E-03 0.  1.
        -12    1    3    3    0    0  0.12990931935E+02  0.18040357297E+02 -0.32024732828E+02  0.38984642062E+02  0.00000000000E+00 0.  1.
</event>
<event>
 7    1  0.5902966E-013  0.5052886E+02  0.7816164E-02  0.1300439E+00
        -11   -1    0    0    0    0  0.00000000000E+00  0.00000000000E+00  0.45593999997E+02  0.45594000000E+02  0.51100000000E-03 0.  1.
         11   -1    0    0    0    0 -0.00000000000E+00 -0.00000000000E+00 -0.45593999997E+02  0.45594000000E+02  0.51100000000E-03 0. -1.
    9900012    2    1    2    0    0  0.36860825401E+02 -0.14064278362E+02  0.98306250739E+01  0.50528861243E+02  0.30000004234E+02 0.  0.
         12    1    1    2    0    0 -0.36860825401E+02  0.14064278362E+02 -0.98306250739E+01  0.40659138757E+02  0.00000000000E+00 0. -1.
         11    1    3    3    0    0 -0.22316421879E+01 -0.26082146510E+01  0.33295851084E+01  0.47821697770E+01  0.51100000000E-03 0. -1.
        -11    1    3    3    0    0  0.17610617717E+02 -0.11327065007E+02  0.11215252009E+02  0.23753276320E+02  0.51100000000E-03 0.  1.
         12    1    3    3    0    0  0.21481849873E+02 -0.12899870349E+00 -0.47142120432E+01  0.21993415146E+02  0.00000000000E+00 0. -1.
</event>
<event>
 7    1  0.5902966E-013  0.5052886E+02  0.7816164E-02  0.1300439E+00
        -11   -1    0    0    0    0  0.00000000000E+00  0.00000000000E+00  0.45593999997E+02  0.45594000000E+02  0.51100000000E-03 0. -1.
         11   -1    0    0    0    0 -0.00000000000E+00 -0.00000000000E+00 -0.45593999997E+02  0.45594000000E+02  0.51100000000E-03 0.  1.
    9900012    2    1    2    0    0 -0.12432992081E+02  0.34100429431E+02 -0.18323412432E+02  0.50528855609E+02  0.29999987108E+02 0.  0.
         12    1    1    2    0    0  0.12432992081E+02 -0.34100429431E+02  0.18323412432E+02  0.40659144391E+02  0.00000000000E+00 0. -1.
         11    1    3    3    0    0 -0.53993601363E+01  0.11516911578E+02  0.12736120222E+01  0.12783365363E+02  0.51100000000E-03 0. -1.
        -11    1    3    3    0    0 -0.32528623626E+01  0.13414328375E+02  0.20310829985E+01  0.13951724543E+02  0.51100000000E-03 0.  1.
         12    1    3    3    0    0 -0.37807695817E+01  0.91691894784E+01 -0.21628107453E+02  0.23793765703E+02  0.00000000000E+00 0. -1.
</event>
<event>
 7    1  0.5902966E-013  0.5052886E+02  0.7816164E-02  0.1300439E+00
        -11   -1    0    0    0    0  0.00000000000E+00  0.00000000000E+00  0.45593999997E+02  0.45594000000E+02  0.51100000000E-03 0. -1.
         11   -1    0    0    0    0 -0.00000000000E+00 -0.00000000000E+00 -0.45593999997E+02  0.45594000000E+02  0.51100000000E-03 0.  1.
    9900012    2    1    2    0    0 -0.31233381816E+02  0.26000688174E+02  0.12672671597E+01  0.50528857225E+02  0.29999992020E+02 0.  0.
         12    1    1    2    0    0  0.31233381816E+02 -0.26000688174E+02 -0.12672671597E+01  0.40659142775E+02  0.00000000000E+00 0. -1.
         11    1    3    3    0    0 -0.16042281269E+02  0.20417933860E+02  0.96748987695E+01  0.27710115083E+02  0.51100000000E-03 0. -1.
        -11    1    3    3    0    0 -0.37146488966E+01 -0.86033167149E+00  0.34212363046E+01  0.51228551729E+01  0.51100000000E-03 0.  1.
        -12    1    3    3    0    0 -0.11476451650E+02  0.64430859851E+01 -0.11828867914E+02  0.17695886969E+02  0.00000000000E+00 0.  1.
</event>
<event>
 7    1  0.5902966E-013  0.5052886E+02  0.7816164E-02  0.1300439E+00
        -11   -1    0    0    0    0  0.00000000000E+00  0.00000000000E+00  0.45593999997E+02  0.45594000000E+02  0.51100000000E-03 0.  1.
         11   -1    0    0    0    0 -0.00000000000E+00 -0.00000000000E+00 -0.45593999997E+02  0.45594000000E+02  0.51100000000E-03 0. -1.
    9900012    2    1    2    0    0  0.20746063458E+02 -0.17248050123E+02  0.30418276020E+02  0.50528857141E+02  0.29999991765E+02 0.  0.
         12    1    1    2    0    0 -0.20746063458E+02  0.17248050123E+02 -0.30418276020E+02  0.40659142859E+02  0.00000000000E+00 0. -1.
         11    1    3    3    0    0  0.54978039482E+01  0.40966212029E+01  0.71106695719E+01  0.98777414197E+01  0.51100000000E-03 0.  1.
        -11    1    3    3    0    0  0.13899827544E+00 -0.36609938872E+01 -0.35640063606E+01  0.51111973512E+01  0.51100000000E-03 0. -1.
         12    1    3    3    0    0  0.15109261234E+02 -0.17683677439E+02  0.26871612808E+02  0.35539918370E+02  0.00000000000E+00 0. -1.
</event>
<event>
 7    1  0.5902966E-013  0.5052887E+02  0.7816164E-02  0.1300439E+00
        -11   -1    0    0    0    0  0.00000000000E+00  0.00000000000E+00  0.45593999997E+02  0.45594000000E+02  0.51100000000E-03 0.  1.
         11   -1    0    0    0    0 -0.00000000000E+00 -0.00000000000E+00 -0.45593999997E+02  0.45594000000E+02  0.51100000000E-03 0. -1.
    9900012    2    1    2    0    0  0.31447794635E+02  0.21156865810E+02  0.14716937143E+02  0.50528868219E+02  0.30000025439E+02 0.  0.
         12    1    1    2    0    0 -0.31447794635E+02 -0.21156865810E+02 -0.14716937143E+02  0.40659131781E+02  0.00000000000E+00 0. -1.
         11    1    3    3    0    0  0.59567969767E+01  0.11506941806E+01 -0.32298227356E+01  0.68730839136E+01  0.51100000000E-03 0. -1.
        -11    1    3    3    0    0 -0.31469298801E+00  0.39297223531E+01 -0.44113808053E+01  0.59162513739E+01  0.51100000000E-03 0.  1.
        -12    1    3    3    0    0  0.25805690646E+02  0.16076449276E+02  0.22358140684E+02  0.37739532932E+02  0.00000000000E+00 0.  1.
</event>
<event>
 7    1  0.5902966E-013  0.5052886E+02  0.7816164E-02  0.1300439E+00
        -11   -1    0    0    0    0  0.00000000000E+00  0.00000000000E+00  0.45593999997E+02  0.45594000000E+02  0.51100000000E-03 0.  1.
         11   -1    0    0    0    0 -0.00000000000E+00 -0.00000000000E+00 -0.45593999997E+02  0.45594000000E+02  0.51100000000E-03 0. -1.
    9900012    2    1    2    0    0  0.31214150322E+02 -0.11223831229E+00  0.26054363700E+02  0.50528860246E+02  0.30000001203E+02 0.  0.
         12    1    1    2    0    0 -0.31214150322E+02  0.11223831229E+00 -0.26054363700E+02  0.40659139754E+02  0.00000000000E+00 0. -1.
         11    1    3    3    0    0  0.13503611478E+02  0.14062606286E+01  0.24068362091E+02  0.27633514904E+02  0.51100000000E-03 0. -1.
        -11    1    3    3    0    0  0.92173992437E+01 -0.50931572759E+01  0.67634302344E+01  0.12515777589E+02  0.51100000000E-03 0.  1.
         12    1    3    3    0    0  0.84931395999E+01  0.35746583350E+01 -0.47774286255E+01  0.10379567753E+02  0.00000000000E+00 0. -1.
</event>
<event>
 7    1  0.5902966E-013  0.5052886E+02  0.7816164E-02  0.1300439E+00
        -11   -1    0    0    0    0  0.00000000000E+00  0.00000000000E+00  0.45593999997E+02  0.45594000000E+02  0.51100000000E-03 0.  1.
         11   -1    0    0    0    0 -0.00000000000E+00 -0.00000000000E+00 -0.45593999997E+02  0.45594000000E+02  0.51100000000E-03 0. -1.
    9900012    2    1    2    0    0  0.35756045095E+02 -0.18477651699E+02  0.57660527817E+01  0.50528859111E+02  0.29999997754E+02 0.  0.
         12    1    1    2    0    0 -0.35756045095E+02  0.18477651699E+02 -0.57660527817E+01  0.40659140889E+02  0.00000000000E+00 0. -1.
         11    1    3    3    0    0  0.36137353305E+00 -0.48915690811E+01 -0.53100047684E+01  0.72287059566E+01  0.51100000000E-03 0. -1.
        -11    1    3    3    0    0  0.40901649109E+01  0.72138801538E+00 -0.39613662555E+01  0.57395359167E+01  0.51100000000E-03 0.  1.
        -12    1    3    3    0    0  0.31304506651E+02 -0.14307470634E+02  0.15037423806E+02  0.37560617238E+02  0.00000000000E+00 0.  1.
</event>
<event>
 7    1  0.5902966E-013  0.5052884E+02  0.7816164E-02  0.1300439E+00
        -11   -1    0    0    0    0  0.00000000000E+00  0.00000000000E+00  0.45593999997E+02  0.45594000000E+02  0.51100000000E-03 0. -1.
         11   -1    0    0    0    0 -0.00000000000E+00 -0.00000000000E+00 -0.45593999997E+02  0.45594000000E+02  0.51100000000E-03 0.  1.
    9900012    2    1    2    0    0 -0.10009101481E+02  0.38825238884E+02  0.67517135690E+01  0.50528844537E+02  0.29999953455E+02 0.  0.
         12    1    1    2    0    0  0.10009101481E+02 -0.38825238884E+02 -0.67517135690E+01  0.40659155463E+02  0.00000000000E+00 0. -1.
         11    1    3    3    0    0  0.28873918347E+00  0.23284423680E+01  0.17331330432E+01  0.29169786739E+01  0.51100000000E-03 0. -1.
        -11    1    3    3    0    0 -0.14854583141E+02  0.34924308494E+02 -0.31969383040E+01  0.38086564282E+02  0.51100000000E-03 0.  1.
         12    1    3    3    0    0  0.45567424758E+01  0.15724880220E+01  0.82155188298E+01  0.95253015812E+01  0.00000000000E+00 0. -1.
</event>
<event>
 7    1  0.5902966E-013  0.5052886E+02  0.7816164E-02  0.1300439E+00
        -11   -1    0    0    0    0  0.00000000000E+00  0.00000000000E+00  0.45593999997E+02  0.45594000000E+02  0.51100000000E-03 0. -1.
         11   -1    0    0    0    0 -0.00000000000E+00 -0.00000000000E+00 -0.45593999997E+02  0.45594000000E+02  0.51100000000E-03 0.  1.
    9900012    2    1    2    0    0 -0.14352135371E+02  0.10943504758E+02 -0.36433796335E+02  0.50528860788E+02  0.30000002851E+02 0.  0.
         12    1    1    2    0    0  0.14352135371E+02 -0.10943504758E+02  0.36433796335E+02  0.40659139212E+02  0.00000000000E+00 0. -1.
         11    1    3    3    0    0 -0.30094465077E+01  0.40051667904E+01 -0.24973360504E+02  0.25470902309E+02  0.51100000000E-03 0. -1.
        -11    1    3    3    0    0 -0.34390529810E+01  0.10068138322E+02 -0.12588955870E+02  0.16482606130E+02  0.51100000000E-03 0.  1.
         12    1    3    3    0    0 -0.79036358826E+01 -0.31298003547E+01  0.11285200396E+01  0.85753523487E+01  0.00000000000E+00 0. -1.
</event>
<event>
 7    1  0.5902966E-013  0.5052886E+02  0.7816164E-02  0.1300439E+00
        -11   -1    0    0    0    0  0.00000000000E+00  0.00000000000E+00  0.45593999997E+02  0.45594000000E+02  0.51100000000E-03 0.  1.
         11   -1    0    0    0    0 -0.00000000000E+00 -0.00000000000E+00 -0.45593999997E+02  0.45594000000E+02  0.51100000000E-03 0. -1.
    9900012    2    1    2    0    0 -0.30978486345E+02  0.15713249564E+02  0.21132744251E+02  0.50528859482E+02  0.29999998882E+02 0.  0.
         12    1    1    2    0    0  0.30978486345E+02 -0.15713249564E+02 -0.21132744251E+02  0.40659140518E+02  0.00000000000E+00 0. -1.
         11    1    3    3    0    0 -0.20682577113E+02  0.11931187322E+02  0.18182643167E+01  0.23946363238E+02  0.51100000000E-03 0.  1.
        -11    1    3    3    0    0 -0.52518699391E+01  0.93579443341E+01  0.11873670761E+02  0.16004290600E+02  0.51100000000E-03 0. -1.
        -12    1    3    3    0    0 -0.50440392925E+01 -0.55758820918E+01  0.74408091731E+01  0.10578205644E+02  0.00000000000E+00 0.  1.
</event>
<event>
 7    1  0.5902966E-013  0.5052884E+02  0.7816164E-02  0.1300439E+00
        -11   -1    0    0    0    0  0.00000000000E+00  0.00000000000E+00  0.45593999997E+02  0.45594000000E+02  0.51100000000E-03 0. -1.
         11   -1    0    0    0    0 -0.00000000000E+00 -0.00000000000E+00 -0.45593999997E+02  0.45594000000E+02  0.51100000000E-03 0.  1.
    9900012    2    1    2    0    0 -0.11157994451E+02  0.22745432080E+02 -0.31801127024E+02  0.50528841122E+02  0.29999943074E+02 0.  0.
         12    1    1    2    0    0  0.11157994451E+02 -0.22745432080E+02  0.31801127024E+02  0.40659158878E+02  0.00000000000E+00 0. -1.
         11    1    3    3    0    0 -0.70663399416E+01  0.83145071503E+01 -0.52170988315E+01  0.12094722394E+02  0.51100000000E-03 0. -1.
        -11    1    3    3    0    0 -0.34454566729E+01  0.19119310672E+02 -0.27443628485E+02  0.33623978898E+02  0.51100000000E-03 0.  1.
         12    1    3    3    0    0 -0.64619783666E+00 -0.46883857423E+01  0.85960029259E+00  0.48101398291E+01  0.00000000000E+00 0. -1.
</event>
<event>
 7    1  0.5902966E-013  0.5052887E+02  0.7816164E-02  0.1300439E+00
        -11   -1    0    0    0    0  0.00000000000E+00  0.00000000000E+00  0.45593999997E+02  0.45594000000E+02  0.51100000000E-03 0.  1.
         11   -1    0    0    0    0 -0.00000000000E+00 -0.00000000000E+00 -0.45593999997E+02  0.45594000000E+02  0.51100000000E-03 0. -1.
    9900012    2    1    2    0    0  0.25980633883E+02  0.29317674047E+02  0.10892438052E+02  0.50528873654E+02  0.30000041960E+02 0.  0.
         12    1    1    2    0    0 -0.25980633883E+02 -0.29317674047E+02 -0.10892438052E+02  0.40659126346E+02  0.00000000000E+00 0. -1.
         11    1    3    3    0    0  0.42779603091E+01  0.11784569457E+02  0.34965431391E+01  0.13015484465E+02  0.51100000000E-03 0. -1.
        -11    1    3    3    0    0  0.38154286130E+01  0.78775712659E+01 -0.81216065545E+01  0.11940440437E+02  0.51100000000E-03 0.  1.
        -12    1    3    3    0    0  0.17887244961E+02  0.96555333242E+01  0.15517501467E+02  0.25572948752E+02  0.00000000000E+00 0.  1.
</event>
<event>
 7    1  0.5902966E-013  0.5052885E+02  0.7816164E-02  0.1300439E+00
        -11   -1    0    0    0    0  0.00000000000E+00  0.00000000000E+00  0.45593999997E+02  0.45594000000E+02  0.51100000000E-03 0.  1.
         11   -1    0    0    0    0 -0.00000000000E+00 -0.00000000000E+00 -0.45593999997E+02  0.45594000000E+02  0.51100000000E-03 0. -1.
    9900012    2    1    2    0    0 -0.35495935183E+02 -0.13995776789E+02  0.14047189271E+02  0.50528847170E+02  0.29999961459E+02 0.  0.
         12    1    1    2    0    0  0.35495935183E+02  0.13995776789E+02 -0.14047189271E+02  0.40659152830E+02  0.00000000000E+00 0. -1.
         11    1    3    3    0    0 -0.21163419531E+02 -0.57453888953E+01 -0.34698162752E+01  0.22202239640E+02  0.51100000000E-03 0. -1.
        -11    1    3    3    0    0 -0.15040148804E+02 -0.97583618795E+01  0.98005138542E+01  0.20432370756E+02  0.51100000000E-03 0.  1.
         12    1    3    3    0    0  0.70763315252E+00  0.15079739862E+01  0.77164916921E+01  0.78942367747E+01  0.00000000000E+00 0. -1.
</event>
<event>
 7    1  0.5902966E-013  0.5052884E+02  0.7816164E-02  0.1300439E+00
        -11   -1    0    0    0    0  0.00000000000E+00  0.00000000000E+00  0.45593999997E+02  0.45594000000E+02  0.51100000000E-03 0. -1.
         11   -1    0    0    0    0 -0.00000000000E+00 -0.00000000000E+00 -0.45593999997E+02  0.45594000000E+02  0.51100000000E-03 0.  1.
    9900012    2    1    2    0    0  0.22548603992E+02  0.41894171299E+01 -0.33573449312E+02  0.50528840434E+02  0.29999940983E+02 0.  0.
         12    1    1    2    0    0 -0.22548603992E+02 -0.41894171299E+01  0.33573449312E+02  0.40659159566E+02  0.00000000000E+00 0. -1.
         11    1    3    3    0    0  0.71195805867E+01 -0.70488744378E+01 -0.14856621632E+02  0.17919103358E+02  0.51100000000E-03 0. -1.
        -11    1    3    3    0    0  0.19284613437E+02  0.61270674615E+01 -0.15178004874E+02  0.25294448073E+02  0.51100000000E-03 0.  1.
        -12    1    3    3    0    0 -0.38555900312E+01  0.51112241061E+01 -0.35388228067E+01  0.73152890038E+01  0.00000000000E+00 0.  1.
</event>
<event>
 7    1  0.5902966E-013  0.5052886E+02  0.7816164E-02  0.1300439E+00
        -11   -1    0    0    0    0  0.00000000000E+00  0.00000000000E+00  0.45593999997E+02  0.45594000000E+02  0.51100000000E-03 0.  1.
         11   -1    0    0    0    0 -0.00000000000E+00 -0.00000000000E+00 -0.45593999997E+02  0.45594000000E+02  0.51100000000E-03 0. -1.
    9900012    2    1    2    0    0  0.21671400156E+02 -0.30358929006E+02  0.16181820424E+02  0.50528862437E+02  0.30000007864E+02 0.  0.
         12    1    1    2    0    0 -0.21671400156E+02  0.30358929006E+02 -0.16181820424E+02  0.40659137563E+02  0.00000000000E+00 0. -1.
         11    1    3    3    0    0 -0.23786349475E+01 -0.68504253853E+01 -0.46077273475E+01  0.85917043561E+01  0.51100000000E-03 0.  1.
        -11    1    3    3    0    0  0.37792448380E-01 -0.42412707163E+01  0.70417292182E+01  0.82204474453E+01  0.51100000000E-03 0. -1.
        -12    1    3    3    0    0  0.24012242655E+02 -0.19267232905E+02  0.13747818553E+02  0.33716710636E+02  0.00000000000E+00 0.  1.
</event>
<event>
 7    1  0.5902966E-013  0.5052888E+02  0.7816164E-02  0.1300439E+00
        -11   -1    0    0    0    0  0.00000000000E+00  0.00000000000E+00  0.45593999997E+02  0.45594000000E+02  0.51100000000E-03 0.  1.
         11   -1    0    0    0    0 -0.00000000000E+00 -0.00000000000E+00 -0.45593999997E+02  0.45594000000E+02  0.51100000000E-03 0. -1.
    9900012    2    1    2    0    0 -0.28777555821E+01  0.26812940201E+02  0.30429407424E+02  0.50528879552E+02  0.30000059887E+02 0.  0.
         12    1    1    2    0    0  0.28777555821E+01 -0.26812940201E+02 -0.30429407424E+02  0.40659120448E+02  0.00000000000E+00 0. -1.
         11    1    3    3    0    0 -0.62878053002E+01  0.45699648049E+01  0.15678478479E+02  0.17499593181E+02  0.51100000000E-03 0.  1.
        -11    1    3    3    0    0  0.13660211728E+01  0.40175914773E+01 -0.46751747967E+01  0.63138193484E+01  0.51100000000E-03 0. -1.
         12    1    3    3    0    0  0.20440285453E+01  0.18225383919E+02  0.19426103741E+02  0.26715467023E+02  0.00000000000E+00 0. -1.
</event>
<event>
 7    1  0.5902966E-013  0.5052886E+02  0.7816164E-02  0.1300439E+00
        -11   -1    0    0    0    0  0.00000000000E+00  0.00000000000E+00  0.45593999997E+02  0.45594000000E+02  0.51100000000E-03 0. -1.
         11   -1    0    0    0    0 -0.00000000000E+00 -0.00000000000E+00 -0.45593999997E+02  0.45594000000E+02  0.51100000000E-03 0.  1.
    9900012    2    1    2    0    0  0.33310403380E+00 -0.23874161411E+02 -0.32910168249E+02  0.50528859385E+02  0.29999998587E+02 0.  0.
         12    1    1    2    0    0 -0.33310403380E+00  0.23874161411E+02  0.32910168249E+02  0.40659140615E+02  0.00000000000E+00 0. -1.
         11    1    3    3    0    0 -0.41113009986E+00 -0.95358975428E+01 -0.15657551795E+01  0.96723295772E+01  0.51100000000E-03 0.  1.
        -11    1    3    3    0    0 -0.98489717607E+01 -0.98764123172E+01 -0.12221286836E+02  0.18544692426E+02  0.51100000000E-03 0. -1.
         12    1    3    3    0    0  0.10593205894E+02 -0.44618515505E+01 -0.19123126234E+02  0.22311837382E+02  0.00000000000E+00 0. -1.
</event>
<event>
 7    1  0.5902966E-013  0.5052886E+02  0.7816164E-02  0.1300439E+00
        -11   -1    0    0    0    0  0.00000000000E+00  0.00000000000E+00  0.45593999997E+02  0.45594000000E+02  0.51100000000E-03 0.  1.
         11   -1    0    0    0    0 -0.00000000000E+00 -0.00000000000E+00 -0.45593999997E+02  0.45594000000E+02  0.51100000000E-03 0. -1.
    9900012    2    1    2    0    0 -0.69150247077E+01  0.91597120221E+01  0.39005736785E+02  0.50528863350E+02  0.30000010638E+02 0.  0.
         12    1    1    2    0    0  0.69150247077E+01 -0.91597120221E+01 -0.39005736785E+02  0.40659136650E+02  0.00000000000E+00 0. -1.
         11    1    3    3    0    0 -0.55671311181E+01 -0.68580739945E+00  0.31440746106E+02  0.31937185171E+02  0.51100000000E-03 0. -1.
        -11    1    3    3    0    0 -0.66960707909E+01  0.57873411647E+01  0.79088649930E+01  0.11869322960E+02  0.51100000000E-03 0.  1.
         12    1    3    3    0    0  0.53481772013E+01  0.40581782568E+01 -0.34387431439E+00  0.67223552186E+01  0.00000000000E+00 0. -1.
</event>
<event>
 7    1  0.5902966E-013  0.5052879E+02  0.7816164E-02  0.1300439E+00
        -11   -1    0    0    0    0  0.00000000000E+00  0.00000000000E+00  0.45593999997E+02  0.45594000000E+02  0.51100000000E-03 0.  1.
         11   -1    0    0    0    0 -0.00000000000E+00 -0.00000000000E+00 -0.45593999997E+02  0.45594000000E+02  0.51100000000E-03 0. -1.
    9900012    2    1    2    0    0  0.60669882988E+01  0.27432302762E+01  0.40110318946E+02  0.50528790153E+02  0.29999788150E+02 0.  0.
         12    1    1    2    0    0 -0.60669882988E+01 -0.27432302762E+01 -0.40110318946E+02  0.40659209847E+02  0.00000000000E+00 0. -1.
         11    1    3    3    0    0 -0.59896674266E+01 -0.35470095656E+01  0.24515523947E+02  0.25484668084E+02  0.51100000000E-03 0. -1.
        -11    1    3    3    0    0  0.31038052780E+01 -0.31840266356E+01 -0.33695036545E+00  0.44592789361E+01  0.51100000000E-03 0.  1.
        -12    1    3    3    0    0  0.89528504474E+01  0.94742664774E+01  0.15931745365E+02  0.20584843133E+02  0.00000000000E+00 0.  1.
</event>
<event>
 7    1  0.5902966E-013  0.5052891E+02  0.7816164E-02  0.1300439E+00
        -11   -1    0    0    0    0  0.00000000000E+00  0.00000000000E+00  0.45593999997E+02  0.45594000000E+02  0.51100000000E-03 0.  1.
         11   -1    0    0    0    0 -0.00000000000E+00 -0.00000000000E+00 -0.45593999997E+02  0.45594000000E+02  0.51100000000E-03 0. -1.
    9900012    2    1    2    0    0 -0.70036408971E+01 -0.58988840575E+01  0.39614564118E+02  0.50528911112E+02  0.30000155816E+02 0.  0.
         12    1    1    2    0    0  0.70036408971E+01  0.58988840575E+01 -0.39614564118E+02  0.40659088888E+02  0.00000000000E+00 0. -1.
         11    1    3    3    0    0 -0.58045289289E+01  0.21539726977E+01  0.46314399403E+00  0.62085954200E+01  0.51100000000E-03 0. -1.
        -11    1    3    3    0    0  0.32981293793E+01  0.44914234421E+01  0.21459041998E+02  0.22170724518E+02  0.51100000000E-03 0.  1.
        -12    1    3    3    0    0 -0.44972413475E+01 -0.12544280197E+02  0.17692378126E+02  0.22149591174E+02  0.00000000000E+00 0.  1.
</event>
<event>
 7    1  0.5902966E-013  0.5052889E+02  0.7816164E-02  0.1300439E+00
        -11   -1    0    0    0    0  0.00000000000E+00  0.00000000000E+00  0.45593999997E+02  0.45594000000E+02  0.51100000000E-03 0. -1.
         11   -1    0    0    0    0 -0.00000000000E+00 -0.00000000000E+00 -0.45593999997E+02  0.45594000000E+02  0.51100000000E-03 0.  1.
    9900012    2    1    2    0    0 -0.23489293938E+02 -0.25816447062E+02 -0.20854916061E+02  0.50528887952E+02  0.30000085418E+02 0.  0.
         12    1    1    2    0    0  0.23489293938E+02  0.25816447062E+02  0.20854916061E+02  0.40659112048E+02  0.00000000000E+00 0. -1.
         11    1    3    3    0    0 -0.62007062789E+01  0.26262350232E+01 -0.75010370556E+01  0.10080249299E+02  0.51100000000E-03 0. -1.
        -11    1    3    3    0    0 -0.73302239129E+01 -0.11425480632E+02 -0.15513192857E+02  0.20613901697E+02  0.51100000000E-03 0.  1.
         12    1    3    3    0    0 -0.99583637464E+01 -0.17017201453E+02  0.21593138518E+01  0.19834736956E+02  0.00000000000E+00 0. -1.
</event>
<event>
 7    1  0.5902966E-013  0.5052886E+02  0.7816164E-02  0.1300439E+00
        -11   -1    0    0    0    0  0.00000000000E+00  0.00000000000E+00  0.45593999997E+02  0.45594000000E+02  0.51100000000E-03 0.  1.
         11   -1    0    0    0    0 -0.00000000000E+00 -0.00000000000E+00 -0.45593999997E+02  0.45594000000E+02  0.51100000000E-03 0. -1.
    9900012    2    1    2    0    0 -0.13770016642E+02  0.26406620967E+02  0.27681089883E+02  0.50528859252E+02  0.29999998183E+02 0.  0.
         12    1    1    2    0    0  0.13770016642E+02 -0.26406620967E+02 -0.27681089883E+02  0.40659140748E+02  0.00000000000E+00 0. -1.
         11    1    3    3    0    0 -0.57852978254E+01  0.20749723860E+02  0.37954691707E+01  0.21872958138E+02  0.51100000000E-03 0. -1.
        -11    1    3    3    0    0 -0.10637074489E+01 -0.29935404211E+01  0.11749081642E+01  0.33872064072E+01  0.51100000000E-03 0.  1.
        -12    1    3    3    0    0 -0.69210113676E+01  0.86504375283E+01  0.22710712548E+02  0.25268694707E+02  0.00000000000E+00 0.  1.
</event>
<event>
 7    1  0.5902966E-013  0.5052884E+02  0.7816164E-02  0.1300439E+00
        -11   -1    0    0    0    0  0.00000000000E+00  0.00000000000E+00  0.45593999997E+02  0.45594000000E+02  0.51100000000E-03 0. -1.
         11   -1    0    0    0    0 -0.00000000000E+00 -0.00000000000E+00 -0.45593999997E+02  0.45594000000E+02  0.51100000000E-03 0.  1.
    9900012    2    1    2    0    0 -0.46063036412E+00 -0.37118356864E+02  0.16588630060E+02  0.50528840591E+02  0.29999941459E+02 0.  0.
         12    1    1    2    0    0  0.46063036412E+00  0.37118356864E+02 -0.16588630060E+02  0.40659159409E+02  0.00000000000E+00 0. -1.
         11    1    3    3    0    0  0.13153896363E+02 -0.16911925851E+02  0.10750850736E+02  0.23971212262E+02  0.51100000000E-03 0. -1.
        -11    1    3    3    0    0 -0.62733913066E+01 -0.70451560708E+01  0.65275376220E+01  0.11471635028E+02  0.51100000000E-03 0.  1.
        -12    1    3    3    0    0 -0.73411354202E+01 -0.13161274942E+02 -0.68975829780E+00  0.15085993300E+02  0.00000000000E+00 0.  1.
</event>
<event>
 7    1  0.5902966E-013  0.5052886E+02  0.7816164E-02  0.1300439E+00
        -11   -1    0    0    0    0  0.00000000000E+00  0.00000000000E+00  0.45593999997E+02  0.45594000000E+02  0.51100000000E-03 0.  1.
         11   -1    0    0    0    0 -0.00000000000E+00 -0.00000000000E+00 -0.45593999997E+02  0.45594000000E+02  0.51100000000E-03 0. -1.
    9900012    2    1    2    0    0  0.33079101705E+02 -0.22723881466E+02 -0.65240953377E+01  0.50528861071E+02  0.30000003710E+02 0.  0.
         12    1    1    2    0    0 -0.33079101705E+02  0.22723881466E+02  0.65240953377E+01  0.40659138929E+02  0.00000000000E+00 0. -1.
         11    1    3    3    0    0  0.59976109767E+01  0.20271346301E+01 -0.22291236550E+01  0.67119002352E+01  0.51100000000E-03 0. -1.
        -11    1    3    3    0    0  0.79349800034E+01 -0.52067802050E+01  0.92805848361E+01  0.13274175037E+02  0.51100000000E-03 0.  1.
        -12    1    3    3    0    0  0.19146510725E+02 -0.19544235891E+02 -0.13575556519E+02  0.30542785798E+02  0.00000000000E+00 0.  1.
</event>
<event>
 7    1  0.5902966E-013  0.5052886E+02  0.7816164E-02  0.1300439E+00
        -11   -1    0    0    0    0  0.00000000000E+00  0.00000000000E+00  0.45593999997E+02  0.45594000000E+02  0.51100000000E-03 0.  1.
         11   -1    0    0    0    0 -0.00000000000E+00 -0.00000000000E+00 -0.45593999997E+02  0.45594000000E+02  0.51100000000E-03 0. -1.
    9900012    2    1    2    0    0  0.13999853714E+02  0.56619048018E+00  0.38168693701E+02  0.50528860136E+02  0.30000000869E+02 0.  0.
         12    1    1    2    0    0 -0.13999853714E+02 -0.56619048018E+00 -0.38168693701E+02  0.40659139864E+02  0.00000000000E+00 0. -1.
         11    1    3    3    0    0  0.13940577239E+02 -0.24822745831E+01  0.14249074086E+02  0.20088242667E+02  0.51100000000E-03 0. -1.
        -11    1    3    3    0    0 -0.16938094197E+00 -0.64204849082E+00 -0.30994152243E+01  0.31697462299E+01  0.51100000000E-03 0.  1.
        -12    1    3    3    0    0  0.22865741657E+00  0.36905135541E+01  0.27019034839E+02  0.27270871239E+02  0.00000000000E+00 0.  1.
</event>
<event>
 7    1  0.5902966E-013  0.5052886E+02  0.7816164E-02  0.1300439E+00
        -11   -1    0    0    0    0  0.00000000000E+00  0.00000000000E+00  0.45593999997E+02  0.45594000000E+02  0.51100000000E-03 0.  1.
         11   -1    0    0    0    0 -0.00000000000E+00 -0.00000000000E+00 -0.45593999997E+02  0.45594000000E+02  0.51100000000E-03 0. -1.
    9900012    2    1    2    0    0  0.31982817774E+02 -0.22642345233E+02  0.10843863144E+02  0.50528858367E+02  0.29999995493E+02 0.  0.
         12    1    1    2    0    0 -0.31982817774E+02  0.22642345233E+02 -0.10843863144E+02  0.40659141633E+02  0.00000000000E+00 0. -1.
         11    1    3    3    0    0  0.18223417716E+00  0.36038393397E+01 -0.58609693237E+00  0.36557320958E+01  0.51100000000E-03 0. -1.
        -11    1    3    3    0    0  0.31724492911E+02 -0.18748715349E+02  0.53847906945E+01  0.37241827947E+02  0.51100000000E-03 0.  1.
         12    1    3    3    0    0  0.76090685371E-01 -0.74974692242E+01  0.60451693822E+01  0.96312983247E+01  0.00000000000E+00 0. -1.
</event>
<event>
 7    1  0.5902966E-013  0.5052887E+02  0.7816164E-02  0.1300439E+00
        -11   -1    0    0    0    0  0.00000000000E+00  0.00000000000E+00  0.45593999997E+02  0.45594000000E+02  0.51100000000E-03 0.  1.
         11   -1    0    0    0    0 -0.00000000000E+00 -0.00000000000E+00 -0.45593999997E+02  0.45594000000E+02  0.51100000000E-03 0. -1.
    9900012    2    1    2    0    0  0.38783987729E+02  0.88377862913E+01 -0.84178783391E+01  0.50528870073E+02  0.30000031073E+02 0.  0.
         12    1    1    2    0    0 -0.38783987729E+02 -0.88377862913E+01  0.84178783391E+01  0.40659129927E+02  0.00000000000E+00 0. -1.
         11    1    3    3    0    0  0.26257508757E+02  0.49508726481E+01 -0.10816917853E+02  0.28826613020E+02  0.51100000000E-03 0. -1.
        -11    1    3    3    0    0 -0.55284381406E+00  0.15675692171E+01 -0.58395027510E+01  0.60714662292E+01  0.51100000000E-03 0.  1.
        -12    1    3    3    0    0  0.13079322786E+02  0.23193444260E+01  0.82385422651E+01  0.15630790824E+02  0.00000000000E+00 0.  1.
</event>
<event>
 7    1  0.5902966E-013  0.5052885E+02  0.7816164E-02  0.1300439E+00
        -11   -1    0    0    0    0  0.00000000000E+00  0.00000000000E+00  0.45593999997E+02  0.45594000000E+02  0.51100000000E-03 0.  1.
         11   -1    0    0    0    0 -0.00000000000E+00 -0.00000000000E+00 -0.45593999997E+02  0.45594000000E+02  0.51100000000E-03 0. -1.
    9900012    2    1    2    0    0 -0.30889873234E+02  0.56645460161E+01  0.25824313948E+02  0.50528849236E+02  0.29999967738E+02 0.  0.
         12    1    1    2    0    0  0.30889873234E+02 -0.56645460161E+01 -0.25824313948E+02  0.40659150764E+02  0.00000000000E+00 0. -1.
         11    1    3    3    0    0 -0.16552235161E+02  0.47221402600E+01  0.21406266229E+01  0.17345240847E+02  0.51100000000E-03 0. -1.
        -11    1    3    3    0    0  0.42861480343E+01  0.16691481171E+01  0.49737487565E+01  0.67746068050E+01  0.51100000000E-03 0.  1.
         12    1    3    3    0    0 -0.18623786107E+02 -0.72674236106E+00  0.18709938568E+02  0.26409001584E+02  0.00000000000E+00 0. -1.
</event>
<event>
 7    1  0.5902966E-013  0.5052890E+02  0.7816164E-02  0.1300439E+00
        -11   -1    0    0    0    0  0.00000000000E+00  0.00000000000E+00  0.45593999997E+02  0.45594000000E+02  0.51100000000E-03 0. -1.
         11   -1    0    0    0    0 -0.00000000000E+00 -0.00000000000E+00 -0.45593999997E+02  0.45594000000E+02  0.51100000000E-03 0.  1.
    9900012    2    1    2    0    0 -0.12595741166E+02 -0.33836744842E+01 -0.38510529089E+02  0.50528895248E+02  0.30000107595E+02 0.  0.
         12    1    1    2    0    0  0.12595741166E+02  0.33836744842E+01  0.38510529089E+02  0.40659104752E+02  0.00000000000E+00 0. -1.
         11    1    3    3    0    0 -0.15617540125E+01 -0.72846134796E+01 -0.12153717303E+01  0.75486288720E+01  0.51100000000E-03 0. -1.
        -11    1    3    3    0    0 -0.13716615868E+02 -0.26734887770E+01 -0.21240124093E+02  0.25425105011E+02  0.51100000000E-03 0.  1.
         12    1    3    3    0    0  0.26826287145E+01  0.65744277725E+01 -0.16055033266E+02  0.17555161364E+02  0.00000000000E+00 0. -1.
</event>
<event>
 7    1  0.5902966E-013  0.5052886E+02  0.7816164E-02  0.1300439E+00
        -11   -1    0    0    0    0  0.00000000000E+00  0.00000000000E+00  0.45593999997E+02  0.45594000000E+02  0.51100000000E-03 0.  1.
         11   -1    0    0    0    0 -0.00000000000E+00 -0.00000000000E+00 -0.45593999997E+02  0.45594000000E+02  0.51100000000E-03 0. -1.
    9900012    2    1    2    0    0  0.39027771883E+02  0.76482679581E+01  0.84559221682E+01  0.50528860798E+02  0.30000002883E+02 0.  0.
         12    1    1    2    0    0 -0.39027771883E+02 -0.76482679581E+01 -0.84559221682E+01  0.40659139202E+02  0.00000000000E+00 0. -1.
         11    1    3    3    0    0  0.16610360369E+02 -0.46046901388E+01  0.12635870657E+02  0.21372235970E+02  0.51100000000E-03 0. -1.
        -11    1    3    3    0    0  0.17713465665E+02  0.65376901667E+01  0.26725099716E+01  0.19069624233E+02  0.51100000000E-03 0.  1.
         12    1    3    3    0    0  0.47039458498E+01  0.57152679302E+01 -0.68524584600E+01  0.10087000596E+02  0.00000000000E+00 0. -1.
</event>
<event>
 7    1  0.5902966E-013  0.5052886E+02  0.7816164E-02  0.1300439E+00
        -11   -1    0    0    0    0  0.00000000000E+00  0.00000000000E+00  0.45593999997E+02  0.45594000000E+02  0.51100000000E-03 0.  1.
         11   -1    0    0    0    0 -0.00000000000E+00 -0.00000000000E+00 -0.45593999997E+02  0.45594000000E+02  0.51100000000E-03 0. -1.
    9900012    2    1    2    0    0 -0.17805194594E+02 -0.19276000931E+02  0.31057630469E+02  0.50528861092E+02  0.30000003774E+02 0.  0.
         12    1    1    2    0    0  0.17805194594E+02  0.19276000931E+02 -0.31057630469E+02  0.40659138908E+02  0.00000000000E+00 0. -1.
         11    1    3    3    0    0 -0.44151840859E+01  0.36726279983E+01 -0.47234668535E+00  0.57623917412E+01  0.51100000000E-03 0. -1.
        -11    1    3    3    0    0  0.16171941712E+01 -0.26488009278E+01  0.13223293026E+02  0.13582597029E+02  0.51100000000E-03 0.  1.
        -12    1    3    3    0    0 -0.15007204679E+02 -0.20299828002E+02  0.18306684129E+02  0.31183872322E+02  0.00000000000E+00 0.  1.
</event>
<event>
 7    1  0.5902966E-013  0.5052886E+02  0.7816164E-02  0.1300439E+00
        -11   -1    0    0    0    0  0.00000000000E+00  0.00000000000E+00  0.45593999997E+02  0.45594000000E+02  0.51100000000E-03 0.  1.
         11   -1    0    0    0    0 -0.00000000000E+00 -0.00000000000E+00 -0.45593999997E+02  0.45594000000E+02  0.51100000000E-03 0. -1.
    9900012    2    1    2    0    0  0.93200545442E+01 -0.34437083272E+02  0.19503567671E+02  0.50528864828E+02  0.30000015132E+02 0.  0.
         12    1    1    2    0    0 -0.93200545442E+01  0.34437083272E+02 -0.19503567671E+02  0.40659135172E+02  0.00000000000E+00 0. -1.
         11    1    3    3    0    0  0.42819901174E+01 -0.33303583317E+01 -0.46682433002E+01  0.71567605629E+01  0.51100000000E-03 0. -1.
        -11    1    3    3    0    0  0.92986988383E+01 -0.78302220699E+01  0.61237163136E+01  0.13611689076E+02  0.51100000000E-03 0.  1.
        -12    1    3    3    0    0 -0.42606344114E+01 -0.23276502871E+02  0.18048094658E+02  0.29760415189E+02  0.00000000000E+00 0.  1.
</event>
<event>
 7    1  0.5902966E-013  0.5052886E+02  0.7816164E-02  0.1300439E+00
        -11   -1    0    0    0    0  0.00000000000E+00  0.00000000000E+00  0.45593999997E+02  0.45594000000E+02  0.51100000000E-03 0.  1.
         11   -1    0    0    0    0 -0.00000000000E+00 -0.00000000000E+00 -0.45593999997E+02  0.45594000000E+02  0.51100000000E-03 0. -1.
    9900012    2    1    2    0    0 -0.14173525469E+02  0.17669216495E+02  0.33765003857E+02  0.50528861774E+02  0.30000005849E+02 0.  0.
         12    1    1    2    0    0  0.14173525469E+02 -0.17669216495E+02 -0.33765003857E+02  0.40659138226E+02  0.00000000000E+00 0. -1.
         11    1    3    3    0    0  0.31233478704E+01  0.52064153406E+01 -0.97567716783E-01  0.60721974884E+01  0.51100000000E-03 0. -1.
        -11    1    3    3    0    0 -0.69189093773E+00  0.66205310864E+00 -0.25550786479E+01  0.27286360231E+01  0.51100000000E-03 0.  1.
        -12    1    3    3    0    0 -0.16604982402E+02  0.11800748046E+02  0.36417650222E+02  0.41728028263E+02  0.00000000000E+00 0.  1.
</event>
<event>
 7    1  0.5902966E-013  0.5052885E+02  0.7816164E-02  0.1300439E+00
        -11   -1    0    0    0    0  0.00000000000E+00  0.00000000000E+00  0.45593999997E+02  0.45594000000E+02  0.51100000000E-03 0.  1.
         11   -1    0    0    0    0 -0.00000000000E+00 -0.00000000000E+00 -0.45593999997E+02  0.45594000000E+02  0.51100000000E-03 0. -1.
    9900012    2    1    2    0    0  0.27619337972E+02  0.21365631284E+02  0.20829026056E+02  0.50528851502E+02  0.29999974626E+02 0.  0.
         12    1    1    2    0    0 -0.27619337972E+02 -0.21365631284E+02 -0.20829026056E+02  0.40659148498E+02  0.00000000000E+00 0. -1.
         11    1    3    3    0    0  0.13132401441E+01 -0.94038508443E+00  0.36708198498E+01  0.40104666080E+01  0.51100000000E-03 0. -1.
        -11    1    3    3    0    0  0.27341033570E+02  0.81044412509E+01  0.81106648327E+01  0.29647883043E+02  0.51100000000E-03 0.  1.
         12    1    3    3    0    0 -0.10349357420E+01  0.14201575117E+02  0.90475413734E+01  0.16870501851E+02  0.00000000000E+00 0. -1.
</event>
<event>
 7    1  0.5902966E-013  0.5052887E+02  0.7816164E-02  0.1300439E+00
        -11   -1    0    0    0    0  0.00000000000E+00  0.00000000000E+00  0.45593999997E+02  0.45594000000E+02  0.51100000000E-03 0.  1.
         11   -1    0    0    0    0 -0.00000000000E+00 -0.00000000000E+00 -0.45593999997E+02  0.45594000000E+02  0.51100000000E-03 0. -1.
    9900012    2    1    2    0    0  0.14041911598E+02 -0.33211316530E+02  0.18788246504E+02  0.50528867770E+02  0.30000024074E+02 0.  0.
         12    1    1    2    0    0 -0.14041911598E+02  0.33211316530E+02 -0.18788246504E+02  0.40659132230E+02  0.00000000000E+00 0. -1.
         11    1    3    3    0    0  0.16505159377E+02 -0.18303071997E+02  0.15108708892E+02  0.28908403886E+02  0.51100000000E-03 0. -1.
        -11    1    3    3    0    0 -0.38968189789E+01 -0.11746960433E+02  0.89754268026E+01  0.15288380036E+02  0.51100000000E-03 0.  1.
         12    1    3    3    0    0  0.14335711997E+01 -0.31612841004E+01 -0.52958891903E+01  0.63320838484E+01  0.00000000000E+00 0. -1.
</event>
<event>
 7    1  0.5902966E-013  0.5052886E+02  0.7816164E-02  0.1300439E+00
        -11   -1    0    0    0    0  0.00000000000E+00  0.00000000000E+00  0.45593999997E+02  0.45594000000E+02  0.51100000000E-03 0.  1.
         11   -1    0    0    0    0 -0.00000000000E+00 -0.00000000000E+00 -0.45593999997E+02  0.45594000000E+02  0.51100000000E-03 0. -1.
    9900012    2    1    2    0    0  0.38570046625E+01  0.21081652152E+02  0.34552181452E+02  0.50528858525E+02  0.29999995972E+02 0.  0.
         12    1    1    2    0    0 -0.38570046625E+01 -0.21081652152E+02 -0.34552181452E+02  0.40659141475E+02  0.00000000000E+00 0. -1.
         11    1    3    3    0    0 -0.64167166934E+01  0.58128858361E+01  0.98980653310E+01  0.13150497801E+02  0.51100000000E-03 0. -1.
        -11    1    3    3    0    0  0.64071555300E+01  0.16114597736E+02  0.27494532435E+02  0.32506633420E+02  0.51100000000E-03 0.  1.
        -12    1    3    3    0    0  0.38665658259E+01 -0.84583142065E+00 -0.28404163147E+01  0.48717273034E+01  0.00000000000E+00 0.  1.
</event>
<event>
 7    1  0.5902966E-013  0.5052886E+02  0.7816164E-02  0.1300439E+00
        -11   -1    0    0    0    0  0.00000000000E+00  0.00000000000E+00  0.45593999997E+02  0.45594000000E+02  0.51100000000E-03 0.  1.
         11   -1    0    0    0    0 -0.00000000000E+00 -0.00000000000E+00 -0.45593999997E+02  0.45594000000E+02  0.51100000000E-03 0. -1.
    9900012    2    1    2    0    0  0.21253944780E+02 -0.33677400723E+02  0.82016989115E+01  0.50528863840E+02  0.30000012129E+02 0.  0.
         12    1    1    2    0    0 -0.21253944780E+02  0.33677400723E+02 -0.82016989115E+01  0.40659136160E+02  0.00000000000E+00 0. -1.
         11    1    3    3    0    0  0.12568924260E+02 -0.10541725900E+02  0.70738853011E+01  0.17864649325E+02  0.51100000000E-03 0. -1.
        -11    1    3    3    0    0 -0.17719152546E+01 -0.68636917168E+01  0.92770054277E+01  0.11675306318E+02  0.51100000000E-03 0.  1.
         12    1    3    3    0    0  0.10456935775E+02 -0.16271983107E+02 -0.81491918172E+01  0.20988908197E+02  0.00000000000E+00 0. -1.
</event>
<event>
 7    1  0.5902966E-013  0.5052886E+02  0.7816164E-02  0.1300439E+00
        -11   -1    0    0    0    0  0.00000000000E+00  0.00000000000E+00  0.45593999997E+02  0.45594000000E+02  0.51100000000E-03 0.  1.
         11   -1    0    0    0    0 -0.00000000000E+00 -0.00000000000E+00 -0.45593999997E+02  0.45594000000E+02  0.51100000000E-03 0. -1.
    9900012    2    1    2    0    0 -0.29997468304E+02 -0.15949801722E+02  0.22336553206E+02  0.50528857255E+02  0.29999992113E+02 0.  0.
         12    1    1    2    0    0  0.29997468304E+02  0.15949801722E+02 -0.22336553206E+02  0.40659142745E+02  0.00000000000E+00 0. -1.
         11    1    3    3    0    0 -0.15155822672E+02 -0.13289794779E+01  0.25061071482E+01  0.15419005176E+02  0.51100000000E-03 0. -1.
        -11    1    3    3    0    0 -0.48133112060E+01 -0.55953158702E+01 -0.34927677291E+01  0.81654731108E+01  0.51100000000E-03 0.  1.
        -12    1    3    3    0    0 -0.10028334426E+02 -0.90255063740E+01  0.23323213786E+02  0.26944378969E+02  0.00000000000E+00 0.  1.
</event>
<event>
 7    1  0.5902966E-013  0.5052889E+02  0.7816164E-02  0.1300439E+00
        -11   -1    0    0    0    0  0.00000000000E+00  0.00000000000E+00  0.45593999997E+02  0.45594000000E+02  0.51100000000E-03 0.  1.
         11   -1    0    0    0    0 -0.00000000000E+00 -0.00000000000E+00 -0.45593999997E+02  0.45594000000E+02  0.51100000000E-03 0. -1.
    9900012    2    1    2    0    0  0.22756340686E+02 -0.33607697610E+02 -0.24155566273E+01  0.50528889165E+02  0.30000089105E+02 0.  0.
         12    1    1    2    0    0 -0.22756340686E+02  0.33607697610E+02  0.24155566273E+01  0.40659110835E+02  0.00000000000E+00 0. -1.
         11    1    3    3    0    0  0.22706304817E+02 -0.12590523843E+02 -0.54381444272E+01  0.26526797473E+02  0.51100000000E-03 0. -1.
        -11    1    3    3    0    0  0.44336033174E+01 -0.17687216570E+02  0.31030157586E+01  0.18496571991E+02  0.51100000000E-03 0.  1.
        -12    1    3    3    0    0 -0.43835674490E+01 -0.33299571973E+01 -0.80427958671E-01  0.55055197005E+01  0.00000000000E+00 0.  1.
</event>
<event>
 7    1  0.5902966E-013  0.5052886E+02  0.7816164E-02  0.1300439E+00
        -11   -1    0    0    0    0  0.00000000000E+00  0.00000000000E+00  0.45593999997E+02  0.45594000000E+02  0.51100000000E-03 0.  1.
         11   -1    0    0    0    0 -0.00000000000E+00 -0.00000000000E+00 -0.45593999997E+02  0.45594000000E+02  0.51100000000E-03 0. -1.
    9900012    2    1    2    0    0 -0.19975944905E+02  0.15719023583E+02  0.31733892461E+02  0.50528855789E+02  0.29999987657E+02 0.  0.
         12    1    1    2    0    0  0.19975944905E+02 -0.15719023583E+02 -0.31733892461E+02  0.40659144211E+02  0.00000000000E+00 0. -1.
         11    1    3    3    0    0 -0.57195309529E+01  0.94657993947E+01  0.47300007610E+01  0.12028603409E+02  0.51100000000E-03 0. -1.
        -11    1    3    3    0    0 -0.91884188865E+01 -0.78471238820E+01  0.89397728184E+01  0.15030766220E+02  0.51100000000E-03 0.  1.
         12    1    3    3    0    0 -0.50679950660E+01  0.14100348070E+02  0.18064118881E+02  0.23469486161E+02  0.00000000000E+00 0. -1.
</event>
<event>
 7    1  0.5902966E-013  0.5052886E+02  0.7816164E-02  0.1300439E+00
        -11   -1    0    0    0    0  0.00000000000E+00  0.00000000000E+00  0.45593999997E+02  0.45594000000E+02  0.51100000000E-03 0. -1.
         11   -1    0    0    0    0 -0.00000000000E+00 -0.00000000000E+00 -0.45593999997E+02  0.45594000000E+02  0.51100000000E-03 0.  1.
    9900012    2    1    2    0    0  0.19554339025E+02  0.19337054561E+02 -0.29947824065E+02  0.50528855641E+02  0.29999987205E+02 0.  0.
         12    1    1    2    0    0 -0.19554339025E+02 -0.19337054561E+02  0.29947824065E+02  0.40659144359E+02  0.00000000000E+00 0. -1.
         11    1    3    3    0    0  0.64098994658E+01  0.85427301855E+01 -0.26637593707E+01  0.11007300506E+02  0.51100000000E-03 0. -1.
        -11    1    3    3    0    0  0.12369429050E+02  0.13245605714E+02 -0.30454939032E+02  0.35439415309E+02  0.51100000000E-03 0.  1.
         12    1    3    3    0    0  0.77501050944E+00 -0.24512813390E+01  0.31708743371E+01  0.40821398254E+01  0.00000000000E+00 0. -1.
</event>
<event>
 7    1  0.5902966E-013  0.5052886E+02  0.7816164E-02  0.1300439E+00
        -11   -1    0    0    0    0  0.00000000000E+00  0.00000000000E+00  0.45593999997E+02  0.45594000000E+02  0.51100000000E-03 0.  1.
         11   -1    0    0    0    0 -0.00000000000E+00 -0.00000000000E+00 -0.45593999997E+02  0.45594000000E+02  0.51100000000E-03 0. -1.
    9900012    2    1    2    0    0  0.32105759176E+02  0.24114363064E+02  0.63939989627E+01  0.50528862024E+02  0.30000006607E+02 0.  0.
         12    1    1    2    0    0 -0.32105759176E+02 -0.24114363064E+02 -0.63939989627E+01  0.40659137976E+02  0.00000000000E+00 0. -1.
         11    1    3    3    0    0  0.22555110485E+02  0.10781456414E+02  0.79673066593E+00  0.25012148877E+02  0.51100000000E-03 0.  1.
        -11    1    3    3    0    0  0.43824079811E+01 -0.24299899071E+01  0.72855460254E+01  0.88424844818E+01  0.51100000000E-03 0. -1.
         12    1    3    3    0    0  0.51682407094E+01  0.15762896557E+02 -0.16882777286E+01  0.16674228665E+02  0.00000000000E+00 0. -1.
</event>
<event>
 7    1  0.5902966E-013  0.5052888E+02  0.7816164E-02  0.1300439E+00
        -11   -1    0    0    0    0  0.00000000000E+00  0.00000000000E+00  0.45593999997E+02  0.45594000000E+02  0.51100000000E-03 0.  1.
         11   -1    0    0    0    0 -0.00000000000E+00 -0.00000000000E+00 -0.45593999997E+02  0.45594000000E+02  0.51100000000E-03 0. -1.
    9900012    2    1    2    0    0  0.28858066317E+02  0.18295436623E+02  0.22037535649E+02  0.50528880847E+02  0.30000063824E+02 0.  0.
         12    1    1    2    0    0 -0.28858066317E+02 -0.18295436623E+02 -0.22037535649E+02  0.40659119153E+02  0.00000000000E+00 0. -1.
         11    1    3    3    0    0  0.83891800138E+01 -0.10783521762E+01  0.12116213705E+01  0.85445427804E+01  0.51100000000E-03 0. -1.
        -11    1    3    3    0    0  0.16984594115E+02  0.14441112481E+02  0.25844911887E+02  0.34131827341E+02  0.51100000000E-03 0.  1.
         12    1    3    3    0    0  0.34842921882E+01  0.49326763180E+01 -0.50189976081E+01  0.78525107260E+01  0.00000000000E+00 0. -1.
</event>
<event>
 7    1  0.5902966E-013  0.5052886E+02  0.7816164E-02  0.1300439E+00
        -11   -1    0    0    0    0  0.00000000000E+00  0.00000000000E+00  0.45593999997E+02  0.45594000000E+02  0.51100000000E-03 0.  1.
         11   -1    0    0    0    0 -0.00000000000E+00 -0.00000000000E+00 -0.45593999997E+02  0.45594000000E+02  0.51100000000E-03 0. -1.
    9900012    2    1    2    0    0  0.97572645200E+01  0.11765336255E+02  0.37676765038E+02  0.50528856234E+02  0.29999989008E+02 0.  0.
         12    1    1    2    0    0 -0.97572645200E+01 -0.11765336255E+02 -0.37676765038E+02  0.40659143766E+02  0.00000000000E+00 0. -1.
         11    1    3    3    0    0  0.32303888191E+01 -0.51845351535E+01  0.86235225984E+00  0.61691545905E+01  0.51100000000E-03 0. -1.
        -11    1    3    3    0    0  0.28409147189E+01 -0.23602406435E+01  0.15907030030E+01  0.40214261948E+01  0.51100000000E-03 0.  1.
        -12    1    3    3    0    0  0.36859609820E+01  0.19310112052E+02  0.35223709775E+02  0.40338275448E+02  0.00000000000E+00 0.  1.
</event>
<event>
 7    1  0.5902966E-013  0.5052887E+02  0.7816164E-02  0.1300439E+00
        -11   -1    0    0    0    0  0.00000000000E+00  0.00000000000E+00  0.45593999997E+02  0.45594000000E+02  0.51100000000E-03 0.  1.
         11   -1    0    0    0    0 -0.00000000000E+00 -0.00000000000E+00 -0.45593999997E+02  0.45594000000E+02  0.51100000000E-03 0. -1.
    9900012    2    1    2    0    0 -0.15783964010E+02  0.12631628951E+02  0.35277092469E+02  0.50528870362E+02  0.30000031953E+02 0.  0.
         12    1    1    2    0    0  0.15783964010E+02 -0.12631628951E+02 -0.35277092469E+02  0.40659129638E+02  0.00000000000E+00 0. -1.
         11    1    3    3    0    0  0.30278622607E+01 -0.18661652592E+01 -0.56556693931E+00  0.36014426094E+01  0.51100000000E-03 0. -1.
        -11    1    3    3    0    0 -0.17220508730E+02  0.56643762922E+01  0.12781166784E+02  0.22180831912E+02  0.51100000000E-03 0.  1.
         12    1    3    3    0    0 -0.15913175410E+01  0.88334179176E+01  0.23061492624E+02  0.24746595840E+02  0.00000000000E+00 0. -1.
</event>
<event>
 7    1  0.5902966E-013  0.5052886E+02  0.7816164E-02  0.1300439E+00
        -11   -1    0    0    0    0  0.00000000000E+00  0.00000000000E+00  0.45593999997E+02  0.45594000000E+02  0.51100000000E-03 0.  1.
         11   -1    0    0    0    0 -0.00000000000E+00 -0.00000000000E+00 -0.45593999997E+02  0.45594000000E+02  0.51100000000E-03 0. -1.
    9900012    2    1    2    0    0 -0.33822242700E+01 -0.34678306995E+02  0.20955706004E+02  0.50528855503E+02  0.29999986787E+02 0.  0.
         12    1    1    2    0    0  0.33822242700E+01  0.34678306995E+02 -0.20955706004E+02  0.40659144497E+02  0.00000000000E+00 0. -1.
         11    1    3    3    0    0 -0.45948350454E+01 -0.14918033807E+01  0.71982522309E+01  0.86690727221E+01  0.51100000000E-03 0. -1.
        -11    1    3    3    0    0 -0.76856058273E+00  0.26851686133E+01  0.35392578825E+01  0.45085654560E+01  0.51100000000E-03 0.  1.
        -12    1    3    3    0    0  0.19811713581E+01 -0.35871672228E+02  0.10218195891E+02  0.37351217325E+02  0.00000000000E+00 0.  1.
</event>
<event>
 7    1  0.5902966E-013  0.5052887E+02  0.7816164E-02  0.1300439E+00
        -11   -1    0    0    0    0  0.00000000000E+00  0.00000000000E+00  0.45593999997E+02  0.45594000000E+02  0.51100000000E-03 0.  1.
         11   -1    0    0    0    0 -0.00000000000E+00 -0.00000000000E+00 -0.45593999997E+02  0.45594000000E+02  0.51100000000E-03 0. -1.
    9900012    2    1    2    0    0 -0.34115701783E+02 -0.20845682612E+02  0.73987464618E+01  0.50528867681E+02  0.30000023804E+02 0.  0.
         12    1    1    2    0    0  0.34115701783E+02  0.20845682612E+02 -0.73987464618E+01  0.40659132319E+02  0.00000000000E+00 0. -1.
         11    1    3    3    0    0 -0.79486285759E+01  0.23765759633E+01  0.64293841290E+01  0.10495989238E+02  0.51100000000E-03 0.  1.
        -11    1    3    3    0    0 -0.80799588932E+01 -0.13753239151E+02 -0.78684658871E+01  0.17786232837E+02  0.51100000000E-03 0. -1.
         12    1    3    3    0    0 -0.18087114314E+02 -0.94690194246E+01  0.88378282198E+01  0.22246645606E+02  0.00000000000E+00 0. -1.
</event>
<event>
 7    1  0.5902966E-013  0.5052885E+02  0.7816164E-02  0.1300439E+00
        -11   -1    0    0    0    0  0.00000000000E+00  0.00000000000E+00  0.45593999997E+02  0.45594000000E+02  0.51100000000E-03 0.  1.
         11   -1    0    0    0    0 -0.00000000000E+00 -0.00000000000E+00 -0.45593999997E+02  0.45594000000E+02  0.51100000000E-03 0. -1.
    9900012    2    1    2    0    0  0.95599001611E+01  0.14736393893E+02  0.36668970084E+02  0.50528851422E+02  0.29999974382E+02 0.  0.
         12    1    1    2    0    0 -0.95599001611E+01 -0.14736393893E+02 -0.36668970084E+02  0.40659148578E+02  0.00000000000E+00 0. -1.
         11    1    3    3    0    0  0.12359068266E+02  0.31917201375E+01  0.57505801922E+01  0.14000100666E+02  0.51100000000E-03 0. -1.
        -11    1    3    3    0    0  0.81999672371E+00 -0.36369975941E+01  0.76610626092E+01  0.85200954624E+01  0.51100000000E-03 0.  1.
         12    1    3    3    0    0 -0.36191648285E+01  0.15181671350E+02  0.23257327283E+02  0.28008655294E+02  0.00000000000E+00 0. -1.
</event>
<event>
 7    1  0.5902966E-013  0.5052885E+02  0.7816164E-02  0.1300439E+00
        -11   -1    0    0    0    0  0.00000000000E+00  0.00000000000E+00  0.45593999997E+02  0.45594000000E+02  0.51100000000E-03 0.  1.
         11   -1    0    0    0    0 -0.00000000000E+00 -0.00000000000E+00 -0.45593999997E+02  0.45594000000E+02  0.51100000000E-03 0. -1.
    9900012    2    1    2    0    0  0.12996414009E+02  0.10191153732E+02  0.37153732709E+02  0.50528852865E+02  0.29999978769E+02 0.  0.
         12    1    1    2    0    0 -0.12996414009E+02 -0.10191153732E+02 -0.37153732709E+02  0.40659147135E+02  0.00000000000E+00 0. -1.
         11    1    3    3    0    0  0.93554645067E+01  0.81343731853E+01  0.37748723737E+01  0.12959259429E+02  0.51100000000E-03 0. -1.
        -11    1    3    3    0    0  0.10290201450E+02  0.24582407141E+01  0.20200837045E+02  0.22803618372E+02  0.51100000000E-03 0.  1.
        -12    1    3    3    0    0 -0.66492519474E+01 -0.40146016721E+00  0.13178023291E+02  0.14765975064E+02  0.00000000000E+00 0.  1.
</event>
<event>
 7    1  0.5902966E-013  0.5052886E+02  0.7816164E-02  0.1300439E+00
        -11   -1    0    0    0    0  0.00000000000E+00  0.00000000000E+00  0.45593999997E+02  0.45594000000E+02  0.51100000000E-03 0.  1.
         11   -1    0    0    0    0 -0.00000000000E+00 -0.00000000000E+00 -0.45593999997E+02  0.45594000000E+02  0.51100000000E-03 0. -1.
    9900012    2    1    2    0    0  0.21387549766E+02  0.32527185804E+02 -0.11735436412E+02  0.50528861186E+02  0.30000004061E+02 0.  0.
         12    1    1    2    0    0 -0.21387549766E+02 -0.32527185804E+02  0.11735436412E+02  0.40659138814E+02  0.00000000000E+00 0. -1.
         11    1    3    3    0    0 -0.17608842541E+01 -0.75200687847E+00  0.11041811172E+01  0.22103040294E+01  0.51100000000E-03 0. -1.
        -11    1    3    3    0    0  0.16575553860E+02  0.33175141491E+02 -0.39972773848E+01  0.37300364951E+02  0.51100000000E-03 0.  1.
         12    1    3    3    0    0  0.65728801598E+01  0.10405119103E+00 -0.88423401444E+01  0.11018192205E+02  0.00000000000E+00 0. -1.
</event>
<event>
 7    1  0.5902966E-013  0.5052886E+02  0.7816164E-02  0.1300439E+00
        -11   -1    0    0    0    0  0.00000000000E+00  0.00000000000E+00  0.45593999997E+02  0.45594000000E+02  0.51100000000E-03 0. -1.
         11   -1    0    0    0    0 -0.00000000000E+00 -0.00000000000E+00 -0.45593999997E+02  0.45594000000E+02  0.51100000000E-03 0.  1.
    9900012    2    1    2    0    0 -0.21897560728E+02 -0.32302000479E+02 -0.11412412246E+02  0.50528861371E+02  0.30000004623E+02 0.  0.
         12    1    1    2    0    0  0.21897560728E+02  0.32302000479E+02  0.11412412246E+02  0.40659138629E+02  0.00000000000E+00 0. -1.
         11    1    3    3    0    0 -0.16197064421E+02 -0.26378177177E+02  0.60657930074E+00  0.30959991372E+02  0.51100000000E-03 0. -1.
        -11    1    3    3    0    0  0.16164245737E+01 -0.53555035320E+01 -0.12814919980E+00  0.55955937096E+01  0.51100000000E-03 0.  1.
        -12    1    3    3    0    0 -0.73169208805E+01 -0.56831977014E+00 -0.11890842347E+02  0.13973276289E+02  0.00000000000E+00 0.  1.
</event>
<event>
 7    1  0.5902966E-013  0.5052886E+02  0.7816164E-02  0.1300439E+00
        -11   -1    0    0    0    0  0.00000000000E+00  0.00000000000E+00  0.45593999997E+02  0.45594000000E+02  0.51100000000E-03 0. -1.
         11   -1    0    0    0    0 -0.00000000000E+00 -0.00000000000E+00 -0.45593999997E+02  0.45594000000E+02  0.51100000000E-03 0.  1.
    9900012    2    1    2    0    0 -0.30029667005E+02  0.24500137453E+02 -0.12293398027E+02  0.50528864856E+02  0.30000015215E+02 0.  0.
         12    1    1    2    0    0  0.30029667005E+02 -0.24500137453E+02  0.12293398027E+02  0.40659135144E+02  0.00000000000E+00 0. -1.
         11    1    3    3    0    0 -0.52027677635E+01  0.10170492516E+02 -0.11145350109E+02  0.15960154752E+02  0.51100000000E-03 0. -1.
        -11    1    3    3    0    0 -0.18909219604E+02  0.17772689942E+02  0.36534962070E+01  0.26206394804E+02  0.51100000000E-03 0.  1.
         12    1    3    3    0    0 -0.59176796369E+01 -0.34430450041E+01 -0.48015441250E+01  0.83623152996E+01  0.00000000000E+00 0. -1.
</event>
<event>
 7    1  0.5902966E-013  0.5052887E+02  0.7816164E-02  0.1300439E+00
        -11   -1    0    0    0    0  0.00000000000E+00  0.00000000000E+00  0.45593999997E+02  0.45594000000E+02  0.51100000000E-03 0. -1.
         11   -1    0    0    0    0 -0.00000000000E+00 -0.00000000000E+00 -0.45593999997E+02  0.45594000000E+02  0.51100000000E-03 0.  1.
    9900012    2    1    2    0    0  0.10939884425E+02 -0.38235132931E+02 -0.84592402793E+01  0.50528865632E+02  0.30000017574E+02 0.  0.
         12    1    1    2    0    0 -0.10939884425E+02  0.38235132931E+02  0.84592402793E+01  0.40659134368E+02  0.00000000000E+00 0. -1.
         11    1    3    3    0    0  0.36596950854E+01  0.34461383323E+01  0.26499311068E+01  0.56825498375E+01  0.51100000000E-03 0. -1.
        -11    1    3    3    0    0 -0.15819351536E+01 -0.74816931731E+01 -0.45955477219E+01  0.89217324939E+01  0.51100000000E-03 0.  1.
        -12    1    3    3    0    0  0.88621244936E+01 -0.34199578090E+02 -0.65136236642E+01  0.35924583300E+02  0.00000000000E+00 0.  1.
</event>
<event>
 7    1  0.5902966E-013  0.5052886E+02  0.7816164E-02  0.1300439E+00
        -11   -1    0    0    0    0  0.00000000000E+00  0.00000000000E+00  0.45593999997E+02  0.45594000000E+02  0.51100000000E-03 0.  1.
         11   -1    0    0    0    0 -0.00000000000E+00 -0.00000000000E+00 -0.45593999997E+02  0.45594000000E+02  0.51100000000E-03 0. -1.
    9900012    2    1    2    0    0  0.94238069492E+01 -0.99664859766E+01  0.38275669377E+02  0.50528857776E+02  0.29999993695E+02 0.  0.
         12    1    1    2    0    0 -0.94238069492E+01  0.99664859766E+01 -0.38275669377E+02  0.40659142224E+02  0.00000000000E+00 0. -1.
         11    1    3    3    0    0  0.33014296400E+01 -0.64469076750E+01  0.11324751947E+02  0.13442918699E+02  0.51100000000E-03 0. -1.
        -11    1    3    3    0    0 -0.66520298355E+01  0.26794698285E+00 -0.39246273813E+00  0.66689822147E+01  0.51100000000E-03 0.  1.
        -12    1    3    3    0    0  0.12774407145E+02 -0.37875252844E+01  0.27343380169E+02  0.30416956862E+02  0.00000000000E+00 0.  1.
</event>
<event>
 7    1  0.6399642E-013  0.5052887E+02  0.7816164E-02  0.1300439E+00
        -11   -1    0    0    0    0  0.00000000000E+00  0.00000000000E+00  0.45593999997E+02  0.45594000000E+02  0.51100000000E-03 0.  1.
         11   -1    0    0    0    0 -0.00000000000E+00 -0.00000000000E+00 -0.45593999997E+02  0.45594000000E+02  0.51100000000E-03 0. -1.
    9900012    2    1    2    0    0 -0.18274239768E+02 -0.36032744214E+02  0.45671137250E+01  0.50528867908E+02  0.30000024493E+02 0.  0.
         12    1    1    2    0    0  0.18274239768E+02  0.36032744214E+02 -0.45671137250E+01  0.40659132092E+02  0.00000000000E+00 0. -1.
         11    1    3    3    0    0 -0.13954997679E+01  0.28201295836E+01  0.27329501609E+00  0.31583604762E+01  0.51100000000E-03 0. -1.
        -11    1    3    3    0    0 -0.20675180779E+01 -0.12745542589E+02 -0.77148649466E+01  0.15041363910E+02  0.51100000000E-03 0.  1.
        -12    1    3    3    0    0 -0.14811221922E+02 -0.26107331209E+02  0.12008683655E+02  0.32329143521E+02  0.00000000000E+00 0.  1.
</event>
<event>
 7    1  0.5902966E-013  0.5052886E+02  0.7816164E-02  0.1300439E+00
        -11   -1    0    0    0    0  0.00000000000E+00  0.00000000000E+00  0.45593999997E+02  0.45594000000E+02  0.51100000000E-03 0.  1.
         11   -1    0    0    0    0 -0.00000000000E+00 -0.00000000000E+00 -0.45593999997E+02  0.45594000000E+02  0.51100000000E-03 0. -1.
    9900012    2    1    2    0    0 -0.36596143984E+02 -0.17209795399E+02 -0.42084674555E+01  0.50528855758E+02  0.29999987562E+02 0.  0.
         12    1    1    2    0    0  0.36596143984E+02  0.17209795399E+02  0.42084674555E+01  0.40659144242E+02  0.00000000000E+00 0. -1.
         11    1    3    3    0    0  0.52953533704E+00  0.18052844175E+01 -0.10846520668E+01  0.21716191813E+01  0.51100000000E-03 0. -1.
        -11    1    3    3    0    0 -0.25062641008E+02 -0.82429864795E+01  0.92882695659E+01  0.27970605145E+02  0.51100000000E-03 0.  1.
         12    1    3    3    0    0 -0.12063038313E+02 -0.10772093337E+02 -0.12412084955E+02  0.20386631431E+02  0.00000000000E+00 0. -1.
</event>
<event>
 7    1  0.5902966E-013  0.5052886E+02  0.7816164E-02  0.1300439E+00
        -11   -1    0    0    0    0  0.00000000000E+00  0.00000000000E+00  0.45593999997E+02  0.45594000000E+02  0.51100000000E-03 0.  1.
         11   -1    0    0    0    0 -0.00000000000E+00 -0.00000000000E+00 -0.45593999997E+02  0.45594000000E+02  0.51100000000E-03 0. -1.
    9900012    2    1    2    0    0  0.15889775156E+02  0.33168637263E+02  0.17335565974E+02  0.50528864495E+02  0.30000014119E+02 0.  0.
         12    1    1    2    0    0 -0.15889775156E+02 -0.33168637263E+02 -0.17335565974E+02  0.40659135505E+02  0.00000000000E+00 0. -1.
         11    1    3    3    0    0  0.62592886269E+01  0.23403931959E+02  0.13737418017E+01  0.24265405252E+02  0.51100000000E-03 0. -1.
        -11    1    3    3    0    0  0.87818173367E+00  0.10296217274E+02  0.13786257991E+02  0.17229167216E+02  0.51100000000E-03 0.  1.
         12    1    3    3    0    0  0.87523047958E+01 -0.53151197039E+00  0.21755661820E+01  0.90342920268E+01  0.00000000000E+00 0. -1.
</event>
<event>
 7    1  0.5902966E-013  0.5052886E+02  0.7816164E-02  0.1300439E+00
        -11   -1    0    0    0    0  0.00000000000E+00  0.00000000000E+00  0.45593999997E+02  0.45594000000E+02  0.51100000000E-03 0.  1.
         11   -1    0    0    0    0 -0.00000000000E+00 -0.00000000000E+00 -0.45593999997E+02  0.45594000000E+02  0.51100000000E-03 0. -1.
    9900012    2    1    2    0    0  0.21240528916E+02 -0.56483050619E+01  0.34206757773E+02  0.50528859625E+02  0.29999999316E+02 0.  0.
         12    1    1    2    0    0 -0.21240528916E+02  0.56483050619E+01 -0.34206757773E+02  0.40659140375E+02  0.00000000000E+00 0. -1.
         11    1    3    3    0    0 -0.11537992646E+01  0.53858985980E+01  0.17216609778E+01  0.57708988238E+01  0.51100000000E-03 0. -1.
        -11    1    3    3    0    0  0.13877830074E+02  0.22328399314E+01  0.98108615557E+01  0.17141550293E+02  0.51100000000E-03 0.  1.
        -12    1    3    3    0    0  0.85164981067E+01 -0.13267043591E+02  0.22674235239E+02  0.27616410508E+02  0.00000000000E+00 0.  1.
</event>
<event>
 7    1  0.5902966E-013  0.5052887E+02  0.7816164E-02  0.1300439E+00
        -11   -1    0    0    0    0  0.00000000000E+00  0.00000000000E+00  0.45593999997E+02  0.45594000000E+02  0.51100000000E-03 0.  1.
         11   -1    0    0    0    0 -0.00000000000E+00 -0.00000000000E+00 -0.45593999997E+02  0.45594000000E+02  0.51100000000E-03 0. -1.
    9900012    2    1    2    0    0  0.29965936218E+02  0.24655008633E+01  0.27370221794E+02  0.50528867336E+02  0.30000022754E+02 0.  0.
         12    1    1    2    0    0 -0.29965936218E+02 -0.24655008633E+01 -0.27370221794E+02  0.40659132664E+02  0.00000000000E+00 0. -1.
         11    1    3    3    0    0  0.16716637966E+02 -0.35697732486E+01  0.10071361279E+02  0.19839898795E+02  0.51100000000E-03 0. -1.
        -11    1    3    3    0    0  0.38596390008E+01 -0.49461791660E+01  0.14734660743E+02  0.16014734747E+02  0.51100000000E-03 0.  1.
        -12    1    3    3    0    0  0.93896592516E+01  0.10981453278E+02  0.25641997721E+01  0.14674233794E+02  0.00000000000E+00 0.  1.
</event>
<event>
 7    1  0.5902966E-013  0.5052888E+02  0.7816164E-02  0.1300439E+00
        -11   -1    0    0    0    0  0.00000000000E+00  0.00000000000E+00  0.45593999997E+02  0.45594000000E+02  0.51100000000E-03 0.  1.
         11   -1    0    0    0    0 -0.00000000000E+00 -0.00000000000E+00 -0.45593999997E+02  0.45594000000E+02  0.51100000000E-03 0. -1.
    9900012    2    1    2    0    0  0.34865656760E+02  0.11688160528E+02  0.17347533917E+02  0.50528879857E+02  0.30000060812E+02 0.  0.
         12    1    1    2    0    0 -0.34865656760E+02 -0.11688160528E+02 -0.17347533917E+02  0.40659120143E+02  0.00000000000E+00 0. -1.
         11    1    3    3    0    0  0.14867797040E+02  0.23101575551E+01 -0.76273017019E+00  0.15065522704E+02  0.51100000000E-03 0. -1.
        -11    1    3    3    0    0  0.21601084022E+02  0.12411336187E+02  0.10347633710E+02  0.26976315918E+02  0.51100000000E-03 0.  1.
         12    1    3    3    0    0 -0.16032243024E+01 -0.30333332141E+01  0.77626303768E+01  0.84870412346E+01  0.00000000000E+00 0. -1.
</event>
<event>
 7    1  0.5902966E-013  0.5052887E+02  0.7816164E-02  0.1300439E+00
        -11   -1    0    0    0    0  0.00000000000E+00  0.00000000000E+00  0.45593999997E+02  0.45594000000E+02  0.51100000000E-03 0.  1.
         11   -1    0    0    0    0 -0.00000000000E+00 -0.00000000000E+00 -0.45593999997E+02  0.45594000000E+02  0.51100000000E-03 0. -1.
    9900012    2    1    2    0    0  0.40555685484E+02  0.28395694494E+01  0.58139628051E+00  0.50528870627E+02  0.30000032758E+02 0.  0.
         12    1    1    2    0    0 -0.40555685484E+02 -0.28395694494E+01 -0.58139628051E+00  0.40659129373E+02  0.00000000000E+00 0. -1.
         11    1    3    3    0    0  0.20709935999E+02 -0.62842704759E+01  0.75787674534E+01  0.22931010027E+02  0.51100000000E-03 0. -1.
        -11    1    3    3    0    0  0.19202440889E+02  0.70271612168E+01 -0.19298539819E+00  0.20448764620E+02  0.51100000000E-03 0.  1.
         12    1    3    3    0    0  0.64330859582E+00  0.20966787084E+01 -0.68043857747E+01  0.71490959797E+01  0.00000000000E+00 0. -1.
</event>
<event>
 7    1  0.5902966E-013  0.5052886E+02  0.7816164E-02  0.1300439E+00
        -11   -1    0    0    0    0  0.00000000000E+00  0.00000000000E+00  0.45593999997E+02  0.45594000000E+02  0.51100000000E-03 0.  1.
         11   -1    0    0    0    0 -0.00000000000E+00 -0.00000000000E+00 -0.45593999997E+02  0.45594000000E+02  0.51100000000E-03 0. -1.
    9900012    2    1    2    0    0  0.21073560232E+01 -0.11438265952E+02  0.38960114113E+02  0.50528863646E+02  0.30000011538E+02 0.  0.
         12    1    1    2    0    0 -0.21073560232E+01  0.11438265952E+02 -0.38960114113E+02  0.40659136354E+02  0.00000000000E+00 0. -1.
         11    1    3    3    0    0 -0.65943886695E+00  0.34456542545E+01  0.20188378479E+02  0.20490925278E+02  0.51100000000E-03 0.  1.
        -11    1    3    3    0    0 -0.50827371690E+01 -0.37674320139E+00  0.64174336569E-01  0.50970845760E+01  0.51100000000E-03 0. -1.
         12    1    3    3    0    0  0.78495320591E+01 -0.14507177005E+02  0.18707561297E+02  0.24940853792E+02  0.00000000000E+00 0. -1.
</event>
<event>
 7    1  0.5902966E-013  0.5052885E+02  0.7816164E-02  0.1300439E+00
        -11   -1    0    0    0    0  0.00000000000E+00  0.00000000000E+00  0.45593999997E+02  0.45594000000E+02  0.51100000000E-03 0. -1.
         11   -1    0    0    0    0 -0.00000000000E+00 -0.00000000000E+00 -0.45593999997E+02  0.45594000000E+02  0.51100000000E-03 0.  1.
    9900012    2    1    2    0    0 -0.38936595081E+02  0.90232888902E+01 -0.74624406993E+01  0.50528853427E+02  0.29999980476E+02 0.  0.
         12    1    1    2    0    0  0.38936595081E+02 -0.90232888902E+01  0.74624406993E+01  0.40659146573E+02  0.00000000000E+00 0. -1.
         11    1    3    3    0    0  0.96253715771E+00  0.53834989047E+01  0.21344852385E+00  0.54730337812E+01  0.51100000000E-03 0. -1.
        -11    1    3    3    0    0 -0.31988744059E+02 -0.18049392695E+01  0.10834268796E+01  0.32057937649E+02  0.51100000000E-03 0.  1.
         12    1    3    3    0    0 -0.79103881799E+01  0.54447292551E+01 -0.87593161028E+01  0.12997881997E+02  0.00000000000E+00 0. -1.
</event>
<event>
 7    1  0.7101422E-013  0.5052884E+02  0.7816164E-02  0.1300439E+00
        -11   -1    0    0    0    0  0.00000000000E+00  0.00000000000E+00  0.45593999997E+02  0.45594000000E+02  0.51100000000E-03 0. -1.
         11   -1    0    0    0    0 -0.00000000000E+00 -0.00000000000E+00 -0.45593999997E+02  0.45594000000E+02  0.51100000000E-03 0.  1.
    9900012    2    1    2    0    0  0.26213094871E+01  0.27393251740E+02 -0.29931680807E+02  0.50528843341E+02  0.29999949819E+02 0.  0.
         12    1    1    2    0    0 -0.26213094871E+01 -0.27393251740E+02  0.29931680807E+02  0.40659156659E+02  0.00000000000E+00 0. -1.
         11    1    3    3    0    0 -0.76917221931E+01  0.70450470337E+01 -0.63310861536E+01  0.12201554415E+02  0.51100000000E-03 0. -1.
        -11    1    3    3    0    0  0.16909483731E-01  0.18121210501E+02 -0.87585895687E+01  0.20126883699E+02  0.51100000000E-03 0.  1.
        -12    1    3    3    0    0  0.10296122197E+02  0.22269942054E+01 -0.14842005084E+02  0.18200405226E+02  0.00000000000E+00 0.  1.
</event>
<event>
 7    1  0.5902966E-013  0.5052887E+02  0.7816164E-02  0.1300439E+00
        -11   -1    0    0    0    0  0.00000000000E+00  0.00000000000E+00  0.45593999997E+02  0.45594000000E+02  0.51100000000E-03 0.  1.
         11   -1    0    0    0    0 -0.00000000000E+00 -0.00000000000E+00 -0.45593999997E+02  0.45594000000E+02  0.51100000000E-03 0. -1.
    9900012    2    1    2    0    0  0.12890120558E+02 -0.36146837836E+02  0.13431897965E+02  0.50528868474E+02  0.30000026212E+02 0.  0.
         12    1    1    2    0    0 -0.12890120558E+02  0.36146837836E+02 -0.13431897965E+02  0.40659131526E+02  0.00000000000E+00 0. -1.
         11    1    3    3    0    0  0.21222950310E+02 -0.24737850842E+02  0.77942006708E+01  0.33513048929E+02  0.51100000000E-03 0. -1.
        -11    1    3    3    0    0 -0.29258481829E+01 -0.81687620183E+01  0.18143470283E+00  0.86788351358E+01  0.51100000000E-03 0.  1.
        -12    1    3    3    0    0 -0.54069815685E+01 -0.32402249751E+01  0.54562625913E+01  0.83369844090E+01  0.00000000000E+00 0.  1.
</event>
<event>
 7    1  0.5902966E-013  0.5052886E+02  0.7816164E-02  0.1300439E+00
        -11   -1    0    0    0    0  0.00000000000E+00  0.00000000000E+00  0.45593999997E+02  0.45594000000E+02  0.51100000000E-03 0. -1.
         11   -1    0    0    0    0 -0.00000000000E+00 -0.00000000000E+00 -0.45593999997E+02  0.45594000000E+02  0.51100000000E-03 0.  1.
    9900012    2    1    2    0    0 -0.20333422133E+02 -0.32343204075E+02 -0.13915279204E+02  0.50528857107E+02  0.29999991661E+02 0.  0.
         12    1    1    2    0    0  0.20333422133E+02  0.32343204075E+02  0.13915279204E+02  0.40659142893E+02  0.00000000000E+00 0. -1.
         11    1    3    3    0    0  0.24242619416E+01 -0.14018798613E+02 -0.10146957093E+02  0.17474681657E+02  0.51100000000E-03 0. -1.
        -11    1    3    3    0    0 -0.37413092703E+00 -0.21762006685E+01 -0.49585818303E+01  0.54280159662E+01  0.51100000000E-03 0.  1.
         12    1    3    3    0    0 -0.22383553148E+02 -0.16148204794E+02  0.11902597194E+01  0.27626159483E+02  0.00000000000E+00 0. -1.
</event>
<event>
 7    1  0.5902966E-013  0.5052886E+02  0.7816164E-02  0.1300439E+00
        -11   -1    0    0    0    0  0.00000000000E+00  0.00000000000E+00  0.45593999997E+02  0.45594000000E+02  0.51100000000E-03 0.  1.
         11   -1    0    0    0    0 -0.00000000000E+00 -0.00000000000E+00 -0.45593999997E+02  0.45594000000E+02  0.51100000000E-03 0. -1.
    9900012    2    1    2    0    0 -0.73692027050E+01 -0.18985810962E+02  0.35190900079E+02  0.50528860624E+02  0.30000002354E+02 0.  0.
         12    1    1    2    0    0  0.73692027050E+01  0.18985810962E+02 -0.35190900079E+02  0.40659139376E+02  0.00000000000E+00 0. -1.
         11    1    3    3    0    0 -0.52430321468E+01 -0.16735936828E+01  0.78619648644E+00  0.55595329915E+01  0.51100000000E-03 0.  1.
        -11    1    3    3    0    0 -0.52646844027E+01 -0.22037591515E+02  0.23303344455E+02  0.32502587661E+02  0.51100000000E-03 0. -1.
        -12    1    3    3    0    0  0.31385138445E+01  0.47253742352E+01  0.11101359138E+02  0.12466739972E+02  0.00000000000E+00 0.  1.
</event>
<event>
 7    1  0.5902966E-013  0.5052887E+02  0.7816164E-02  0.1300439E+00
        -11   -1    0    0    0    0  0.00000000000E+00  0.00000000000E+00  0.45593999997E+02  0.45594000000E+02  0.51100000000E-03 0.  1.
         11   -1    0    0    0    0 -0.00000000000E+00 -0.00000000000E+00 -0.45593999997E+02  0.45594000000E+02  0.51100000000E-03 0. -1.
    9900012    2    1    2    0    0 -0.84974482305E+01  0.39212832755E+02  0.65811935893E+01  0.50528868330E+02  0.30000025776E+02 0.  0.
         12    1    1    2    0    0  0.84974482305E+01 -0.39212832755E+02 -0.65811935893E+01  0.40659131670E+02  0.00000000000E+00 0. -1.
         11    1    3    3    0    0 -0.45886298487E+01  0.13326948690E+02 -0.33507842316E+00  0.14098771687E+02  0.51100000000E-03 0. -1.
        -11    1    3    3    0    0  0.87985268548E+01  0.44803616376E+01 -0.18364454895E+01  0.10042920268E+02  0.51100000000E-03 0.  1.
         12    1    3    3    0    0 -0.12707345237E+02  0.21405522427E+02  0.87527175020E+01  0.26387176374E+02  0.00000000000E+00 0. -1.
</event>
<event>
 7    1  0.5902966E-013  0.5052887E+02  0.7816164E-02  0.1300439E+00
        -11   -1    0    0    0    0  0.00000000000E+00  0.00000000000E+00  0.45593999997E+02  0.45594000000E+02  0.51100000000E-03 0. -1.
         11   -1    0    0    0    0 -0.00000000000E+00 -0.00000000000E+00 -0.45593999997E+02  0.45594000000E+02  0.51100000000E-03 0.  1.
    9900012    2    1    2    0    0 -0.54152922582E+01 -0.39121068565E+02 -0.96634050825E+01  0.50528870722E+02  0.30000033046E+02 0.  0.
         12    1    1    2    0    0  0.54152922582E+01  0.39121068565E+02  0.96634050825E+01  0.40659129278E+02  0.00000000000E+00 0. -1.
         11    1    3    3    0    0  0.31464641557E+01 -0.26500400178E+02  0.11144600170E+01  0.26709800967E+02  0.51100000000E-03 0. -1.
        -11    1    3    3    0    0  0.25689351053E+00 -0.97731862803E+01 -0.10778795340E+02  0.14552099285E+02  0.51100000000E-03 0.  1.
        -12    1    3    3    0    0 -0.88186499244E+01 -0.28474821062E+01  0.93024082224E-03  0.92669704704E+01  0.00000000000E+00 0.  1.
</event>
<event>
 7    1  0.5902966E-013  0.5052889E+02  0.7816164E-02  0.1300439E+00
        -11   -1    0    0    0    0  0.00000000000E+00  0.00000000000E+00  0.45593999997E+02  0.45594000000E+02  0.51100000000E-03 0.  1.
         11   -1    0    0    0    0 -0.00000000000E+00 -0.00000000000E+00 -0.45593999997E+02  0.45594000000E+02  0.51100000000E-03 0. -1.
    9900012    2    1    2    0    0  0.33741900235E+02  0.18619320015E+02  0.12960269555E+02  0.50528886677E+02  0.30000081542E+02 0.  0.
         12    1    1    2    0    0 -0.33741900235E+02 -0.18619320015E+02 -0.12960269555E+02  0.40659113323E+02  0.00000000000E+00 0. -1.
         11    1    3    3    0    0  0.16482082689E+02  0.27046818715E+01 -0.11581043503E+01  0.16742627027E+02  0.51100000000E-03 0. -1.
        -11    1    3    3    0    0  0.20877710187E+02  0.87078350265E+01  0.10788386147E+02  0.25061812573E+02  0.51100000000E-03 0.  1.
         12    1    3    3    0    0 -0.36178926413E+01  0.72068031174E+01  0.33299877582E+01  0.87244470774E+01  0.00000000000E+00 0. -1.
</event>
<event>
 7    1  0.5902966E-013  0.5052886E+02  0.7816164E-02  0.1300439E+00
        -11   -1    0    0    0    0  0.00000000000E+00  0.00000000000E+00  0.45593999997E+02  0.45594000000E+02  0.51100000000E-03 0. -1.
         11   -1    0    0    0    0 -0.00000000000E+00 -0.00000000000E+00 -0.45593999997E+02  0.45594000000E+02  0.51100000000E-03 0.  1.
    9900012    2    1    2    0    0 -0.84871993021E+01 -0.39280425703E+02  0.61790712141E+01  0.50528864292E+02  0.30000013503E+02 0.  0.
         12    1    1    2    0    0  0.84871993021E+01  0.39280425703E+02 -0.61790712141E+01  0.40659135708E+02  0.00000000000E+00 0. -1.
         11    1    3    3    0    0 -0.23009125426E+01  0.10578567960E+01 -0.29029521660E+00  0.25490255203E+01  0.51100000000E-03 0. -1.
        -11    1    3    3    0    0  0.32114961018E+01 -0.32480617407E+02  0.11682488912E+02  0.34666767398E+02  0.51100000000E-03 0.  1.
         12    1    3    3    0    0 -0.93977828613E+01 -0.78576650919E+01 -0.52131224817E+01  0.13313071374E+02  0.00000000000E+00 0. -1.
</event>
<event>
 7    1  0.5902966E-013  0.5052886E+02  0.7816164E-02  0.1300439E+00
        -11   -1    0    0    0    0  0.00000000000E+00  0.00000000000E+00  0.45593999997E+02  0.45594000000E+02  0.51100000000E-03 0. -1.
         11   -1    0    0    0    0 -0.00000000000E+00 -0.00000000000E+00 -0.45593999997E+02  0.45594000000E+02  0.51100000000E-03 0.  1.
    9900012    2    1    2    0    0 -0.18576014620E+02 -0.35442567876E+02 -0.72056859758E+01  0.50528857766E+02  0.29999993665E+02 0.  0.
         12    1    1    2    0    0  0.18576014620E+02  0.35442567876E+02  0.72056859758E+01  0.40659142234E+02  0.00000000000E+00 0. -1.
         11    1    3    3    0    0 -0.18908337206E+01 -0.17177847380E+02 -0.98948742818E+01  0.19913870294E+02  0.51100000000E-03 0. -1.
        -11    1    3    3    0    0 -0.13258477988E+02 -0.20940915720E+02  0.55646492845E+01  0.25402254067E+02  0.51100000000E-03 0.  1.
         12    1    3    3    0    0 -0.34267029108E+01  0.26761952236E+01 -0.28754609785E+01  0.52127334051E+01  0.00000000000E+00 0. -1.
</event>
<event>
 7    1  0.5902966E-013  0.5052885E+02  0.7816164E-02  0.1300439E+00
        -11   -1    0    0    0    0  0.00000000000E+00  0.00000000000E+00  0.45593999997E+02  0.45594000000E+02  0.51100000000E-03 0.  1.
         11   -1    0    0    0    0 -0.00000000000E+00 -0.00000000000E+00 -0.45593999997E+02  0.45594000000E+02  0.51100000000E-03 0. -1.
    9900012    2    1    2    0    0  0.70488953223E+01 -0.33188465320E+02  0.22405466921E+02  0.50528854614E+02  0.29999984086E+02 0.  0.
         12    1    1    2    0    0 -0.70488953223E+01  0.33188465320E+02 -0.22405466921E+02  0.40659145386E+02  0.00000000000E+00 0. -1.
         11    1    3    3    0    0  0.33694505037E+01 -0.70959428749E+01  0.24595168376E+01  0.82313319285E+01  0.51100000000E-03 0.  1.
        -11    1    3    3    0    0  0.27267754842E+01 -0.19566656042E+02  0.26464187968E+02  0.33024878172E+02  0.51100000000E-03 0. -1.
         12    1    3    3    0    0  0.95266933437E+00 -0.65258664031E+01 -0.65182378843E+01  0.92726445142E+01  0.00000000000E+00 0. -1.
</event>
<event>
 7    1  0.5902966E-013  0.5052886E+02  0.7816164E-02  0.1300439E+00
        -11   -1    0    0    0    0  0.00000000000E+00  0.00000000000E+00  0.45593999997E+02  0.45594000000E+02  0.51100000000E-03 0. -1.
         11   -1    0    0    0    0 -0.00000000000E+00 -0.00000000000E+00 -0.45593999997E+02  0.45594000000E+02  0.51100000000E-03 0.  1.
    9900012    2    1    2    0    0  0.59395815604E+01  0.38345759551E+02 -0.12144523144E+02  0.50528863916E+02  0.30000012360E+02 0.  0.
         12    1    1    2    0    0 -0.59395815604E+01 -0.38345759551E+02  0.12144523144E+02  0.40659136084E+02  0.00000000000E+00 0. -1.
         11    1    3    3    0    0  0.10101496725E+02  0.23408109188E+02 -0.77257806517E+01  0.26639585184E+02  0.51100000000E-03 0. -1.
        -11    1    3    3    0    0  0.94078789473E+00  0.11368186961E+02  0.51154867634E+01  0.12501558372E+02  0.51100000000E-03 0.  1.
         12    1    3    3    0    0 -0.51027030593E+01  0.35694634017E+01 -0.95342292556E+01  0.11387720359E+02  0.00000000000E+00 0. -1.
</event>
<event>
 7    1  0.5902966E-013  0.5052886E+02  0.7816164E-02  0.1300439E+00
        -11   -1    0    0    0    0  0.00000000000E+00  0.00000000000E+00  0.45593999997E+02  0.45594000000E+02  0.51100000000E-03 0.  1.
         11   -1    0    0    0    0 -0.00000000000E+00 -0.00000000000E+00 -0.45593999997E+02  0.45594000000E+02  0.51100000000E-03 0. -1.
    9900012    2    1    2    0    0  0.69845234241E+01 -0.16829622909E+02  0.36347569596E+02  0.50528860926E+02  0.30000003269E+02 0.  0.
         12    1    1    2    0    0 -0.69845234241E+01  0.16829622909E+02 -0.36347569596E+02  0.40659139074E+02  0.00000000000E+00 0. -1.
         11    1    3    3    0    0 -0.64014766354E+01 -0.29112070509E+01  0.32969520367E+01  0.77668476617E+01  0.51100000000E-03 0. -1.
        -11    1    3    3    0    0  0.46207414228E+00 -0.32275327347E+01  0.22954982558E+02  0.23185376955E+02  0.51100000000E-03 0.  1.
        -12    1    3    3    0    0  0.12923925917E+02 -0.10690883123E+02  0.10095635002E+02  0.19576636309E+02  0.00000000000E+00 0.  1.
</event>
<event>
 7    1  0.5902966E-013  0.5052886E+02  0.7816164E-02  0.1300439E+00
        -11   -1    0    0    0    0  0.00000000000E+00  0.00000000000E+00  0.45593999997E+02  0.45594000000E+02  0.51100000000E-03 0. -1.
         11   -1    0    0    0    0 -0.00000000000E+00 -0.00000000000E+00 -0.45593999997E+02  0.45594000000E+02  0.51100000000E-03 0.  1.
    9900012    2    1    2    0    0  0.44755336303E+01 -0.32424061026E+02 -0.24120853326E+02  0.50528859578E+02  0.29999999172E+02 0.  0.
         12    1    1    2    0    0 -0.44755336303E+01  0.32424061026E+02  0.24120853326E+02  0.40659140422E+02  0.00000000000E+00 0. -1.
         11    1    3    3    0    0  0.30973388583E+00 -0.59130401762E+01 -0.17548236696E+02  0.18520275123E+02  0.51100000000E-03 0.  1.
        -11    1    3    3    0    0  0.53249189085E+00  0.20085927448E+01 -0.20241471642E+01  0.29008902826E+01  0.51100000000E-03 0. -1.
         12    1    3    3    0    0  0.36333078536E+01 -0.28519613595E+02 -0.45484694657E+01  0.29107694172E+02  0.00000000000E+00 0. -1.
</event>
<event>
 7    1  0.5902966E-013  0.5052888E+02  0.7816164E-02  0.1300439E+00
        -11   -1    0    0    0    0  0.00000000000E+00  0.00000000000E+00  0.45593999997E+02  0.45594000000E+02  0.51100000000E-03 0.  1.
         11   -1    0    0    0    0 -0.00000000000E+00 -0.00000000000E+00 -0.45593999997E+02  0.45594000000E+02  0.51100000000E-03 0. -1.
    9900012    2    1    2    0    0  0.57243111735E+01 -0.40191961235E+02 -0.22366996856E+01  0.50528876647E+02  0.30000051056E+02 0.  0.
         12    1    1    2    0    0 -0.57243111735E+01  0.40191961235E+02  0.22366996856E+01  0.40659123353E+02  0.00000000000E+00 0. -1.
         11    1    3    3    0    0  0.85259757289E+01 -0.96809850163E+01 -0.28914288133E+01  0.13220215348E+02  0.51100000000E-03 0. -1.
        -11    1    3    3    0    0  0.38621160054E+01 -0.13004452859E+02  0.95318601263E+01  0.16579749453E+02  0.51100000000E-03 0.  1.
        -12    1    3    3    0    0 -0.66637805608E+01 -0.17506523360E+02 -0.88771309986E+01  0.20728911845E+02  0.00000000000E+00 0.  1.
</event>
<event>
 7    1  0.5902966E-013  0.5052886E+02  0.7816164E-02  0.1300439E+00
        -11   -1    0    0    0    0  0.00000000000E+00  0.00000000000E+00  0.45593999997E+02  0.45594000000E+02  0.51100000000E-03 0.  1.
         11   -1    0    0    0    0 -0.00000000000E+00 -0.00000000000E+00 -0.45593999997E+02  0.45594000000E+02  0.51100000000E-03 0. -1.
    9900012    2    1    2    0    0  0.19579561690E+02 -0.25574666693E+02  0.24814162094E+02  0.50528862615E+02  0.30000008406E+02 0.  0.
         12    1    1    2    0    0 -0.19579561690E+02  0.25574666693E+02 -0.24814162094E+02  0.40659137385E+02  0.00000000000E+00 0. -1.
         11    1    3    3    0    0  0.48774304772E+01 -0.11831850503E+02  0.14670473811E+02  0.19468046037E+02  0.51100000000E-03 0. -1.
        -11    1    3    3    0    0  0.89961151456E+01  0.84763977842E+00  0.12283289503E+02  0.15248861668E+02  0.51100000000E-03 0.  1.
         12    1    3    3    0    0  0.57060160675E+01 -0.14590455968E+02 -0.21396012194E+01  0.15811954911E+02  0.00000000000E+00 0. -1.
</event>
<event>
 7    1  0.5902966E-013  0.5052885E+02  0.7816164E-02  0.1300439E+00
        -11   -1    0    0    0    0  0.00000000000E+00  0.00000000000E+00  0.45593999997E+02  0.45594000000E+02  0.51100000000E-03 0. -1.
         11   -1    0    0    0    0 -0.00000000000E+00 -0.00000000000E+00 -0.45593999997E+02  0.45594000000E+02  0.51100000000E-03 0.  1.
    9900012    2    1    2    0    0 -0.24514490779E+02  0.16710460559E+02 -0.27802275609E+02  0.50528852452E+02  0.29999977513E+02 0.  0.
         12    1    1    2    0    0  0.24514490779E+02 -0.16710460559E+02  0.27802275609E+02  0.40659147548E+02  0.00000000000E+00 0. -1.
         11    1    3    3    0    0 -0.55419676565E+01  0.15038540184E+00 -0.18239337905E+02  0.19063301623E+02  0.51100000000E-03 0. -1.
        -11    1    3    3    0    0 -0.19585158276E+02  0.10622989969E+02 -0.11649995166E+02  0.25142568051E+02  0.51100000000E-03 0.  1.
         12    1    3    3    0    0  0.61263515291E+00  0.59370851885E+01  0.20870574619E+01  0.63229827783E+01  0.00000000000E+00 0. -1.
</event>
<event>
 7    1  0.5902966E-013  0.5052886E+02  0.7816164E-02  0.1300439E+00
        -11   -1    0    0    0    0  0.00000000000E+00  0.00000000000E+00  0.45593999997E+02  0.45594000000E+02  0.51100000000E-03 0. -1.
         11   -1    0    0    0    0 -0.00000000000E+00 -0.00000000000E+00 -0.45593999997E+02  0.45594000000E+02  0.51100000000E-03 0.  1.
    9900012    2    1    2    0    0 -0.33096860928E+02 -0.18804573281E+02  0.14288171201E+02  0.50528855692E+02  0.29999987363E+02 0.  0.
         12    1    1    2    0    0  0.33096860928E+02  0.18804573281E+02 -0.14288171201E+02  0.40659144308E+02  0.00000000000E+00 0. -1.
         11    1    3    3    0    0 -0.15170340082E+02 -0.96532515001E+01  0.57278690933E+01  0.18871485562E+02  0.51100000000E-03 0. -1.
        -11    1    3    3    0    0 -0.18445172060E+02 -0.15108839378E+02  0.40908814576E+01  0.24191666148E+02  0.51100000000E-03 0.  1.
         12    1    3    3    0    0  0.51865121430E+00  0.59575175967E+01  0.44694206498E+01  0.74657039817E+01  0.00000000000E+00 0. -1.
</event>
<event>
 7    1  0.5902966E-013  0.5052885E+02  0.7816164E-02  0.1300439E+00
        -11   -1    0    0    0    0  0.00000000000E+00  0.00000000000E+00  0.45593999997E+02  0.45594000000E+02  0.51100000000E-03 0. -1.
         11   -1    0    0    0    0 -0.00000000000E+00 -0.00000000000E+00 -0.45593999997E+02  0.45594000000E+02  0.51100000000E-03 0.  1.
    9900012    2    1    2    0    0 -0.10058956892E+02 -0.38984036944E+02  0.56770523154E+01  0.50528847608E+02  0.29999962790E+02 0.  0.
         12    1    1    2    0    0  0.10058956892E+02  0.38984036944E+02 -0.56770523154E+01  0.40659152392E+02  0.00000000000E+00 0. -1.
         11    1    3    3    0    0  0.48561021579E+01 -0.15788070802E+02 -0.62555545740E+00  0.16529858672E+02  0.51100000000E-03 0. -1.
        -11    1    3    3    0    0 -0.13898085714E+02 -0.24811694375E+02  0.11034625609E+01  0.28460403970E+02  0.51100000000E-03 0.  1.
         12    1    3    3    0    0 -0.10169733357E+01  0.16157282331E+01  0.51991452119E+01  0.55385849658E+01  0.00000000000E+00 0. -1.
</event>
<event>
 7    1  0.5902966E-013  0.5052883E+02  0.7816164E-02  0.1300439E+00
        -11   -1    0    0    0    0  0.00000000000E+00  0.00000000000E+00  0.45593999997E+02  0.45594000000E+02  0.51100000000E-03 0.  1.
         11   -1    0    0    0    0 -0.00000000000E+00 -0.00000000000E+00 -0.45593999997E+02  0.45594000000E+02  0.51100000000E-03 0. -1.
    9900012    2    1    2    0    0 -0.36584451152E+01  0.11573875781E+02  0.38805011781E+02  0.50528834237E+02  0.29999922146E+02 0.  0.
         12    1    1    2    0    0  0.36584451152E+01 -0.11573875781E+02 -0.38805011781E+02  0.40659165763E+02  0.00000000000E+00 0. -1.
         11    1    3    3    0    0 -0.64363786189E+01  0.27131066117E+01  0.12220627208E+01  0.70909346892E+01  0.51100000000E-03 0. -1.
        -11    1    3    3    0    0 -0.49625243710E+01  0.11911602734E+02  0.17878074957E+02  0.22048548530E+02  0.51100000000E-03 0.  1.
         12    1    3    3    0    0  0.77404578746E+01 -0.30508335647E+01  0.19704874103E+02  0.21389351018E+02  0.00000000000E+00 0. -1.
</event>
<event>
 7    1  0.5902966E-013  0.5052886E+02  0.7816164E-02  0.1300439E+00
        -11   -1    0    0    0    0  0.00000000000E+00  0.00000000000E+00  0.45593999997E+02  0.45594000000E+02  0.51100000000E-03 0.  1.
         11   -1    0    0    0    0 -0.00000000000E+00 -0.00000000000E+00 -0.45593999997E+02  0.45594000000E+02  0.51100000000E-03 0. -1.
    9900012    2    1    2    0    0 -0.18016872253E+02 -0.27133251358E+02  0.24338134179E+02  0.50528858466E+02  0.29999995792E+02 0.  0.
         12    1    1    2    0    0  0.18016872253E+02  0.27133251358E+02 -0.24338134179E+02  0.40659141534E+02  0.00000000000E+00 0. -1.
         11    1    3    3    0    0  0.24980614000E+01 -0.13251528073E+02  0.75893146895E+01  0.15473881373E+02  0.51100000000E-03 0. -1.
        -11    1    3    3    0    0 -0.11570136619E+02 -0.17203654148E+02  0.14356519110E+02  0.25217918602E+02  0.51100000000E-03 0.  1.
        -12    1    3    3    0    0 -0.89447970340E+01  0.33219308629E+01  0.23923003791E+01  0.98370584903E+01  0.00000000000E+00 0.  1.
</event>
<event>
 7    1  0.5902966E-013  0.5052887E+02  0.7816164E-02  0.1300439E+00
        -11   -1    0    0    0    0  0.00000000000E+00  0.00000000000E+00  0.45593999997E+02  0.45594000000E+02  0.51100000000E-03 0.  1.
         11   -1    0    0    0    0 -0.00000000000E+00 -0.00000000000E+00 -0.45593999997E+02  0.45594000000E+02  0.51100000000E-03 0. -1.
    9900012    2    1    2    0    0  0.64570066684E+01  0.39363168089E+02  0.78748480893E+01  0.50528866100E+02  0.30000018996E+02 0.  0.
         12    1    1    2    0    0 -0.64570066684E+01 -0.39363168089E+02 -0.78748480893E+01  0.40659133900E+02  0.00000000000E+00 0. -1.
         11    1    3    3    0    0  0.33841336038E+01  0.27153093407E+02 -0.13217016160E+01  0.27395067754E+02  0.51100000000E-03 0. -1.
        -11    1    3    3    0    0 -0.47636662705E+01  0.12365063763E+02  0.44888118117E+01  0.13990595054E+02  0.51100000000E-03 0.  1.
         12    1    3    3    0    0  0.78365393351E+01 -0.15498908159E+00  0.47077378936E+01  0.91432032921E+01  0.00000000000E+00 0. -1.
</event>
<event>
 7    1  0.5902966E-013  0.5052886E+02  0.7816164E-02  0.1300439E+00
        -11   -1    0    0    0    0  0.00000000000E+00  0.00000000000E+00  0.45593999997E+02  0.45594000000E+02  0.51100000000E-03 0. -1.
         11   -1    0    0    0    0 -0.00000000000E+00 -0.00000000000E+00 -0.45593999997E+02  0.45594000000E+02  0.51100000000E-03 0.  1.
    9900012    2    1    2    0    0  0.10403309755E+02  0.10075432158E+02 -0.37992398050E+02  0.50528862077E+02  0.30000006769E+02 0.  0.
         12    1    1    2    0    0 -0.10403309755E+02 -0.10075432158E+02  0.37992398050E+02  0.40659137923E+02  0.00000000000E+00 0. -1.
         11    1    3    3    0    0 -0.54479493163E+00  0.86979174860E+01 -0.38174488086E+01  0.95143831002E+01  0.51100000000E-03 0. -1.
        -11    1    3    3    0    0 -0.29579825267E+01 -0.30746481870E+01 -0.48194421509E+00  0.42936456060E+01  0.51100000000E-03 0.  1.
         12    1    3    3    0    0  0.13906087214E+02  0.44521628593E+01 -0.33693005027E+02  0.36720833371E+02  0.00000000000E+00 0. -1.
</event>
<event>
 7    1  0.5902966E-013  0.5052890E+02  0.7816164E-02  0.1300439E+00
        -11   -1    0    0    0    0  0.00000000000E+00  0.00000000000E+00  0.45593999997E+02  0.45594000000E+02  0.51100000000E-03 0.  1.
         11   -1    0    0    0    0 -0.00000000000E+00 -0.00000000000E+00 -0.45593999997E+02  0.45594000000E+02  0.51100000000E-03 0. -1.
    9900012    2    1    2    0    0  0.28777221880E+02 -0.20750899033E+02  0.19860361570E+02  0.50528901738E+02  0.30000127323E+02 0.  0.
         12    1    1    2    0    0 -0.28777221880E+02  0.20750899033E+02 -0.19860361570E+02  0.40659098262E+02  0.00000000000E+00 0. -1.
         11    1    3    3    0    0 -0.22227079719E+01 -0.23936979348E+01  0.37893609902E+01  0.50029468822E+01  0.51100000000E-03 0. -1.
        -11    1    3    3    0    0  0.25187411253E+02 -0.79988689130E+01  0.19860978773E+02  0.33058222391E+02  0.51100000000E-03 0.  1.
         12    1    3    3    0    0  0.58125185988E+01 -0.10358332185E+02 -0.37899781940E+01  0.12467732465E+02  0.00000000000E+00 0. -1.
</event>
<event>
 7    1  0.5995073E-013  0.5052886E+02  0.7816164E-02  0.1300439E+00
        -11   -1    0    0    0    0  0.00000000000E+00  0.00000000000E+00  0.45593999997E+02  0.45594000000E+02  0.51100000000E-03 0. -1.
         11   -1    0    0    0    0 -0.00000000000E+00 -0.00000000000E+00 -0.45593999997E+02  0.45594000000E+02  0.51100000000E-03 0.  1.
    9900012    2    1    2    0    0 -0.18667187907E+02 -0.21239770518E+02 -0.29215984624E+02  0.50528861869E+02  0.30000006136E+02 0.  0.
         12    1    1    2    0    0  0.18667187907E+02  0.21239770518E+02  0.29215984624E+02  0.40659138131E+02  0.00000000000E+00 0. -1.
         11    1    3    3    0    0  0.35429345041E+01  0.27903087470E+01 -0.18144649662E+01  0.48611203625E+01  0.51100000000E-03 0.  1.
        -11    1    3    3    0    0 -0.77215603477E+01 -0.12752539163E+00 -0.21918676123E+01  0.80276422952E+01  0.51100000000E-03 0. -1.
        -12    1    3    3    0    0 -0.14488562064E+02 -0.23902553873E+02 -0.25209652046E+02  0.37640099211E+02  0.00000000000E+00 0.  1.
</event>
<event>
 7    1  0.5902966E-013  0.5052886E+02  0.7816164E-02  0.1300439E+00
        -11   -1    0    0    0    0  0.00000000000E+00  0.00000000000E+00  0.45593999997E+02  0.45594000000E+02  0.51100000000E-03 0. -1.
         11   -1    0    0    0    0 -0.00000000000E+00 -0.00000000000E+00 -0.45593999997E+02  0.45594000000E+02  0.51100000000E-03 0.  1.
    9900012    2    1    2    0    0 -0.57843157297E+01 -0.35881302058E+02 -0.18227432091E+02  0.50528862940E+02  0.30000009393E+02 0.  0.
         12    1    1    2    0    0  0.57843157297E+01  0.35881302058E+02  0.18227432091E+02  0.40659137060E+02  0.00000000000E+00 0. -1.
         11    1    3    3    0    0 -0.57936943047E+01 -0.51273932570E+01 -0.48223958490E+01  0.91166088703E+01  0.51100000000E-03 0. -1.
        -11    1    3    3    0    0 -0.40039441351E+00 -0.26563889422E+02  0.81771884979E+00  0.26579488357E+02  0.51100000000E-03 0.  1.
         12    1    3    3    0    0  0.40977298845E+00 -0.41900193784E+01 -0.14222755092E+02  0.14832765713E+02  0.00000000000E+00 0. -1.
</event>
<event>
 7    1  0.5902966E-013  0.5052888E+02  0.7816164E-02  0.1300439E+00
        -11   -1    0    0    0    0  0.00000000000E+00  0.00000000000E+00  0.45593999997E+02  0.45594000000E+02  0.51100000000E-03 0.  1.
         11   -1    0    0    0    0 -0.00000000000E+00 -0.00000000000E+00 -0.45593999997E+02  0.45594000000E+02  0.51100000000E-03 0. -1.
    9900012    2    1    2    0    0  0.42526109617E+01 -0.21816585392E+02  0.34045790690E+02  0.50528880951E+02  0.30000064138E+02 0.  0.
         12    1    1    2    0    0 -0.42526109617E+01  0.21816585392E+02 -0.34045790690E+02  0.40659119049E+02  0.00000000000E+00 0. -1.
         11    1    3    3    0    0  0.28983533772E+01 -0.14099467081E+01  0.48045098515E+01  0.57854746731E+01  0.51100000000E-03 0. -1.
        -11    1    3    3    0    0 -0.87201783874E+01 -0.14008893036E+01  0.50298624258E+00  0.88462985124E+01  0.51100000000E-03 0.  1.
        -12    1    3    3    0    0  0.10074435972E+02 -0.19005749380E+02  0.28738294596E+02  0.35897107765E+02  0.00000000000E+00 0.  1.
</event>
<event>
 7    1  0.5902966E-013  0.5052886E+02  0.7816164E-02  0.1300439E+00
        -11   -1    0    0    0    0  0.00000000000E+00  0.00000000000E+00  0.45593999997E+02  0.45594000000E+02  0.51100000000E-03 0.  1.
         11   -1    0    0    0    0 -0.00000000000E+00 -0.00000000000E+00 -0.45593999997E+02  0.45594000000E+02  0.51100000000E-03 0. -1.
    9900012    2    1    2    0    0 -0.10993696051E+02 -0.11602296052E+02  0.37385709248E+02  0.50528857332E+02  0.29999992345E+02 0.  0.
         12    1    1    2    0    0  0.10993696051E+02  0.11602296052E+02 -0.37385709248E+02  0.40659142668E+02  0.00000000000E+00 0. -1.
         11    1    3    3    0    0 -0.76319084731E+01 -0.71544970700E+01  0.34579639619E+01  0.11017729816E+02  0.51100000000E-03 0. -1.
        -11    1    3    3    0    0 -0.10564262595E+02 -0.65206507609E+01  0.24512943046E+02  0.27477389024E+02  0.51100000000E-03 0.  1.
         12    1    3    3    0    0  0.72024750174E+01  0.20728517792E+01  0.94148022406E+01  0.12033738492E+02  0.00000000000E+00 0. -1.
</event>
<event>
 7    1  0.5902966E-013  0.5052886E+02  0.7816164E-02  0.1300439E+00
        -11   -1    0    0    0    0  0.00000000000E+00  0.00000000000E+00  0.45593999997E+02  0.45594000000E+02  0.51100000000E-03 0.  1.
         11   -1    0    0    0    0 -0.00000000000E+00 -0.00000000000E+00 -0.45593999997E+02  0.45594000000E+02  0.51100000000E-03 0. -1.
    9900012    2    1    2    0    0 -0.27714319387E+02  0.24993619335E+02  0.16136952609E+02  0.50528859010E+02  0.29999997447E+02 0.  0.
         12    1    1    2    0    0  0.27714319387E+02 -0.24993619335E+02 -0.16136952609E+02  0.40659140990E+02  0.00000000000E+00 0. -1.
         11    1    3    3    0    0 -0.17413142878E+02  0.98188214321E+01  0.72650972057E+01  0.21269895084E+02  0.51100000000E-03 0. -1.
        -11    1    3    3    0    0 -0.83609671857E+01 -0.24524576480E+01  0.74576494974E+01  0.11468951874E+02  0.51100000000E-03 0.  1.
         12    1    3    3    0    0 -0.19402093229E+01  0.17627255551E+02  0.14142059058E+01  0.17790012052E+02  0.00000000000E+00 0. -1.
</event>
<event>
 7    1  0.5902966E-013  0.5052886E+02  0.7816164E-02  0.1300439E+00
        -11   -1    0    0    0    0  0.00000000000E+00  0.00000000000E+00  0.45593999997E+02  0.45594000000E+02  0.51100000000E-03 0. -1.
         11   -1    0    0    0    0 -0.00000000000E+00 -0.00000000000E+00 -0.45593999997E+02  0.45594000000E+02  0.51100000000E-03 0.  1.
    9900012    2    1    2    0    0  0.60325546524E+01  0.65360180085E+01 -0.39674355162E+02  0.50528859521E+02  0.29999998999E+02 0.  0.
         12    1    1    2    0    0 -0.60325546524E+01 -0.65360180085E+01  0.39674355162E+02  0.40659140479E+02  0.00000000000E+00 0. -1.
         11    1    3    3    0    0 -0.25076022118E+01  0.53254374684E+01 -0.37366614404E+01  0.69721583505E+01  0.51100000000E-03 0. -1.
        -11    1    3    3    0    0  0.12610055451E+01  0.43466698232E+01 -0.35317702460E+02  0.35606513180E+02  0.51100000000E-03 0.  1.
        -12    1    3    3    0    0  0.72791513190E+01 -0.31360892831E+01 -0.61999126162E+00  0.79501879903E+01  0.00000000000E+00 0.  1.
</event>
<event>
 7    1  0.5902966E-013  0.5052887E+02  0.7816164E-02  0.1300439E+00
        -11   -1    0    0    0    0  0.00000000000E+00  0.00000000000E+00  0.45593999997E+02  0.45594000000E+02  0.51100000000E-03 0. -1.
         11   -1    0    0    0    0 -0.00000000000E+00 -0.00000000000E+00 -0.45593999997E+02  0.45594000000E+02  0.51100000000E-03 0.  1.
    9900012    2    1    2    0    0  0.30004737807E+02  0.64938346102E+01 -0.26659164750E+02  0.50528865184E+02  0.30000016214E+02 0.  0.
         12    1    1    2    0    0 -0.30004737807E+02 -0.64938346102E+01  0.26659164750E+02  0.40659134816E+02  0.00000000000E+00 0. -1.
         11    1    3    3    0    0  0.16684816534E+02  0.51423179872E+01 -0.32236264056E+01  0.17754388318E+02  0.51100000000E-03 0. -1.
        -11    1    3    3    0    0 -0.23692992691E+01  0.58748981640E+01 -0.44954954155E+01  0.77677208212E+01  0.51100000000E-03 0.  1.
        -12    1    3    3    0    0  0.15689220541E+02 -0.45233815410E+01 -0.18940042929E+02  0.25006756045E+02  0.00000000000E+00 0.  1.
</event>
<event>
 7    1  0.5902966E-013  0.5052886E+02  0.7816164E-02  0.1300439E+00
        -11   -1    0    0    0    0  0.00000000000E+00  0.00000000000E+00  0.45593999997E+02  0.45594000000E+02  0.51100000000E-03 0.  1.
         11   -1    0    0    0    0 -0.00000000000E+00 -0.00000000000E+00 -0.45593999997E+02  0.45594000000E+02  0.51100000000E-03 0. -1.
    9900012    2    1    2    0    0 -0.37941883930E+02 -0.10298375706E+02  0.10369320060E+02  0.50528857155E+02  0.29999991809E+02 0.  0.
         12    1    1    2    0    0  0.37941883930E+02  0.10298375706E+02 -0.10369320060E+02  0.40659142845E+02  0.00000000000E+00 0. -1.
         11    1    3    3    0    0 -0.51693466126E+01 -0.84711247454E+01  0.49021183852E+01  0.11068552922E+02  0.51100000000E-03 0. -1.
        -11    1    3    3    0    0 -0.22664336120E+02 -0.82261418957E-01  0.13545272106E+02  0.26403660643E+02  0.51100000000E-03 0.  1.
         12    1    3    3    0    0 -0.10108201198E+02 -0.17449895420E+01 -0.80780704308E+01  0.13056643590E+02  0.00000000000E+00 0. -1.
</event>
<event>
 7    1  0.5902966E-013  0.5052885E+02  0.7816164E-02  0.1300439E+00
        -11   -1    0    0    0    0  0.00000000000E+00  0.00000000000E+00  0.45593999997E+02  0.45594000000E+02  0.51100000000E-03 0.  1.
         11   -1    0    0    0    0 -0.00000000000E+00 -0.00000000000E+00 -0.45593999997E+02  0.45594000000E+02  0.51100000000E-03 0. -1.
    9900012    2    1    2    0    0  0.16578172291E+02  0.16782346529E+02  0.33116211412E+02  0.50528850848E+02  0.29999972637E+02 0.  0.
         12    1    1    2    0    0 -0.16578172291E+02 -0.16782346529E+02 -0.33116211412E+02  0.40659149152E+02  0.00000000000E+00 0. -1.
         11    1    3    3    0    0  0.19722165668E+01  0.69450436303E+01 -0.21174388749E+01  0.75237501862E+01  0.51100000000E-03 0. -1.
        -11    1    3    3    0    0  0.20333420297E+01  0.10825048685E+02  0.10379439160E+02  0.15134362107E+02  0.51100000000E-03 0.  1.
         12    1    3    3    0    0  0.12572613695E+02 -0.98774578716E+00  0.24854211127E+02  0.27870738555E+02  0.00000000000E+00 0. -1.
</event>
<event>
 7    1  0.5902966E-013  0.5052882E+02  0.7816164E-02  0.1300439E+00
        -11   -1    0    0    0    0  0.00000000000E+00  0.00000000000E+00  0.45593999997E+02  0.45594000000E+02  0.51100000000E-03 0.  1.
         11   -1    0    0    0    0 -0.00000000000E+00 -0.00000000000E+00 -0.45593999997E+02  0.45594000000E+02  0.51100000000E-03 0. -1.
    9900012    2    1    2    0    0  0.28999211903E+02  0.21138172307E+02  0.19115242906E+02  0.50528817387E+02  0.29999870928E+02 0.  0.
         12    1    1    2    0    0 -0.28999211903E+02 -0.21138172307E+02 -0.19115242906E+02  0.40659182613E+02  0.00000000000E+00 0. -1.
         11    1    3    3    0    0  0.13054579449E+02  0.70446240352E+01 -0.90035336456E+00  0.14861339402E+02  0.51100000000E-03 0. -1.
        -11    1    3    3    0    0  0.20852766177E+02  0.10045183776E+02  0.15251352905E+02  0.27719078990E+02  0.51100000000E-03 0.  1.
         12    1    3    3    0    0 -0.49081337235E+01  0.40483644951E+01  0.47642433651E+01  0.79483989944E+01  0.00000000000E+00 0. -1.
</event>
<event>
 7    1  0.5902966E-013  0.5052876E+02  0.7816164E-02  0.1300439E+00
        -11   -1    0    0    0    0  0.00000000000E+00  0.00000000000E+00  0.45593999997E+02  0.45594000000E+02  0.51100000000E-03 0. -1.
         11   -1    0    0    0    0 -0.00000000000E+00 -0.00000000000E+00 -0.45593999997E+02  0.45594000000E+02  0.51100000000E-03 0.  1.
    9900012    2    1    2    0    0  0.70018733019E+01  0.28751369510E+02  0.27883794314E+02  0.50528764103E+02  0.29999708965E+02 0.  0.
         12    1    1    2    0    0 -0.70018733019E+01 -0.28751369510E+02 -0.27883794314E+02  0.40659235897E+02  0.00000000000E+00 0. -1.
         11    1    3    3    0    0 -0.23627552707E+01  0.13769000578E+02  0.16587382573E+02  0.21686614541E+02  0.51100000000E-03 0. -1.
        -11    1    3    3    0    0  0.80414619185E+01  0.18909005145E+02  0.13051173913E+02  0.24342323762E+02  0.51100000000E-03 0.  1.
        -12    1    3    3    0    0  0.13231666542E+01 -0.39266362129E+01 -0.17547621724E+01  0.44998257994E+01  0.00000000000E+00 0.  1.
</event>
<event>
 7    1  0.5902966E-013  0.5052884E+02  0.7816164E-02  0.1300439E+00
        -11   -1    0    0    0    0  0.00000000000E+00  0.00000000000E+00  0.45593999997E+02  0.45594000000E+02  0.51100000000E-03 0.  1.
         11   -1    0    0    0    0 -0.00000000000E+00 -0.00000000000E+00 -0.45593999997E+02  0.45594000000E+02  0.51100000000E-03 0. -1.
    9900012    2    1    2    0    0  0.15194763679E+02  0.31304266257E+02  0.21031626153E+02  0.50528840789E+02  0.29999942061E+02 0.  0.
         12    1    1    2    0    0 -0.15194763679E+02 -0.31304266257E+02 -0.21031626153E+02  0.40659159211E+02  0.00000000000E+00 0. -1.
         11    1    3    3    0    0  0.48548341435E+01  0.84516888695E+01 -0.41881764453E+01  0.10608547568E+02  0.51100000000E-03 0. -1.
        -11    1    3    3    0    0  0.48406774366E+01 -0.20148384356E+01  0.62828698405E+01  0.81832869717E+01  0.51100000000E-03 0.  1.
         12    1    3    3    0    0  0.54992520987E+01  0.24867415823E+02  0.18936932758E+02  0.31737006249E+02  0.00000000000E+00 0. -1.
</event>
<event>
 7    1  0.5902966E-013  0.5052886E+02  0.7816164E-02  0.1300439E+00
        -11   -1    0    0    0    0  0.00000000000E+00  0.00000000000E+00  0.45593999997E+02  0.45594000000E+02  0.51100000000E-03 0. -1.
         11   -1    0    0    0    0 -0.00000000000E+00 -0.00000000000E+00 -0.45593999997E+02  0.45594000000E+02  0.51100000000E-03 0.  1.
    9900012    2    1    2    0    0  0.16014819702E+02  0.26515272196E+02 -0.26336888999E+02  0.50528857954E+02  0.29999994238E+02 0.  0.
         12    1    1    2    0    0 -0.16014819702E+02 -0.26515272196E+02  0.26336888999E+02  0.40659142046E+02  0.00000000000E+00 0. -1.
         11    1    3    3    0    0  0.42582072069E+01 -0.46773057950E+01 -0.14563569197E+01  0.64908007099E+01  0.51100000000E-03 0. -1.
        -11    1    3    3    0    0  0.81092529128E+01  0.16719314593E+02 -0.51210605786E+01  0.19274872891E+02  0.51100000000E-03 0.  1.
         12    1    3    3    0    0  0.36473595825E+01  0.14473263398E+02 -0.19759471501E+02  0.24763184353E+02  0.00000000000E+00 0. -1.
</event>
<event>
 7    1  0.5902966E-013  0.5052891E+02  0.7816164E-02  0.1300439E+00
        -11   -1    0    0    0    0  0.00000000000E+00  0.00000000000E+00  0.45593999997E+02  0.45594000000E+02  0.51100000000E-03 0.  1.
         11   -1    0    0    0    0 -0.00000000000E+00 -0.00000000000E+00 -0.45593999997E+02  0.45594000000E+02  0.51100000000E-03 0. -1.
    9900012    2    1    2    0    0 -0.11277873847E+01  0.19942657836E+02  0.35414400710E+02  0.50528913886E+02  0.30000164248E+02 0.  0.
         12    1    1    2    0    0  0.11277873847E+01 -0.19942657836E+02 -0.35414400710E+02  0.40659086114E+02  0.00000000000E+00 0. -1.
         11    1    3    3    0    0  0.43011706475E+01  0.93781984486E+01  0.14240141859E+02  0.17585002573E+02  0.51100000000E-03 0. -1.
        -11    1    3    3    0    0 -0.11667778634E+02  0.73029349911E+01  0.21900112100E+02  0.25866674081E+02  0.51100000000E-03 0.  1.
         12    1    3    3    0    0  0.62388206022E+01  0.32615243967E+01 -0.72585324933E+00  0.70772372319E+01  0.00000000000E+00 0. -1.
</event>
<event>
 7    1  0.5902966E-013  0.5052886E+02  0.7816164E-02  0.1300439E+00
        -11   -1    0    0    0    0  0.00000000000E+00  0.00000000000E+00  0.45593999997E+02  0.45594000000E+02  0.51100000000E-03 0.  1.
         11   -1    0    0    0    0 -0.00000000000E+00 -0.00000000000E+00 -0.45593999997E+02  0.45594000000E+02  0.51100000000E-03 0. -1.
    9900012    2    1    2    0    0 -0.43708491871E+01  0.11352410787E+02  0.38796705690E+02  0.50528856801E+02  0.29999990731E+02 0.  0.
         12    1    1    2    0    0  0.43708491871E+01 -0.11352410787E+02 -0.38796705690E+02  0.40659143199E+02  0.00000000000E+00 0. -1.
         11    1    3    3    0    0 -0.34262260226E+01  0.38986596793E+01  0.10149733710E+01  0.52885483128E+01  0.51100000000E-03 0. -1.
        -11    1    3    3    0    0 -0.11025982116E+02 -0.14361923736E+01  0.20773319663E+02  0.23561955356E+02  0.51100000000E-03 0.  1.
        -12    1    3    3    0    0  0.10081358951E+02  0.88899434809E+01  0.17008412657E+02  0.21678353132E+02  0.00000000000E+00 0.  1.
</event>
<event>
 7    1  0.5902966E-013  0.5052886E+02  0.7816164E-02  0.1300439E+00
        -11   -1    0    0    0    0  0.00000000000E+00  0.00000000000E+00  0.45593999997E+02  0.45594000000E+02  0.51100000000E-03 0.  1.
         11   -1    0    0    0    0 -0.00000000000E+00 -0.00000000000E+00 -0.45593999997E+02  0.45594000000E+02  0.51100000000E-03 0. -1.
    9900012    2    1    2    0    0 -0.45086226136E+01 -0.38371477389E+02  0.12667586942E+02  0.50528859407E+02  0.29999998653E+02 0.  0.
         12    1    1    2    0    0  0.45086226136E+01  0.38371477389E+02 -0.12667586942E+02  0.40659140593E+02  0.00000000000E+00 0. -1.
         11    1    3    3    0    0  0.63777288220E+01  0.17719142647E+01  0.22005416855E+01  0.69754920299E+01  0.51100000000E-03 0.  1.
        -11    1    3    3    0    0 -0.27864477272E+01 -0.90133712760E+01 -0.80606202326E+00  0.94686265605E+01  0.51100000000E-03 0. -1.
        -12    1    3    3    0    0 -0.80999037083E+01 -0.31130020377E+02  0.11273107280E+02  0.34084740816E+02  0.00000000000E+00 0.  1.
</event>
<event>
 7    1  0.5902966E-013  0.5052886E+02  0.7816164E-02  0.1300439E+00
        -11   -1    0    0    0    0  0.00000000000E+00  0.00000000000E+00  0.45593999997E+02  0.45594000000E+02  0.51100000000E-03 0.  1.
         11   -1    0    0    0    0 -0.00000000000E+00 -0.00000000000E+00 -0.45593999997E+02  0.45594000000E+02  0.51100000000E-03 0. -1.
    9900012    2    1    2    0    0 -0.36462240672E+01 -0.55361548884E+01  0.40115101500E+02  0.50528864136E+02  0.30000013027E+02 0.  0.
         12    1    1    2    0    0  0.36462240672E+01  0.55361548884E+01 -0.40115101500E+02  0.40659135864E+02  0.00000000000E+00 0. -1.
         11    1    3    3    0    0 -0.11885704383E+00  0.10550396866E+01 -0.35712669238E+01  0.37257460245E+01  0.51100000000E-03 0. -1.
        -11    1    3    3    0    0 -0.75468504613E+01 -0.51289995785E+01  0.13372870444E+02  0.16189356155E+02  0.51100000000E-03 0.  1.
        -12    1    3    3    0    0  0.40194834379E+01 -0.14621949966E+01  0.30313497980E+02  0.30613761956E+02  0.00000000000E+00 0.  1.
</event>
<event>
 7    1  0.5902966E-013  0.5052883E+02  0.7816164E-02  0.1300439E+00
        -11   -1    0    0    0    0  0.00000000000E+00  0.00000000000E+00  0.45593999997E+02  0.45594000000E+02  0.51100000000E-03 0.  1.
         11   -1    0    0    0    0 -0.00000000000E+00 -0.00000000000E+00 -0.45593999997E+02  0.45594000000E+02  0.51100000000E-03 0. -1.
    9900012    2    1    2    0    0 -0.35783745974E+02  0.95942638710E+01  0.16752365541E+02  0.50528829738E+02  0.29999908473E+02 0.  0.
         12    1    1    2    0    0  0.35783745974E+02 -0.95942638710E+01 -0.16752365541E+02  0.40659170262E+02  0.00000000000E+00 0. -1.
         11    1    3    3    0    0  0.14117696375E+00 -0.31273001246E+01 -0.17154981082E+01  0.35697158185E+01  0.51100000000E-03 0. -1.
        -11    1    3    3    0    0 -0.55141258852E+01  0.11430494953E+02  0.64299260484E+01  0.14226937422E+02  0.51100000000E-03 0.  1.
        -12    1    3    3    0    0 -0.30410797052E+02  0.12910690423E+01  0.12037937601E+02  0.32732176498E+02  0.00000000000E+00 0.  1.
</event>
<event>
 7    1  0.5902966E-013  0.5052885E+02  0.7816164E-02  0.1300439E+00
        -11   -1    0    0    0    0  0.00000000000E+00  0.00000000000E+00  0.45593999997E+02  0.45594000000E+02  0.51100000000E-03 0.  1.
         11   -1    0    0    0    0 -0.00000000000E+00 -0.00000000000E+00 -0.45593999997E+02  0.45594000000E+02  0.51100000000E-03 0. -1.
    9900012    2    1    2    0    0  0.22244335613E+02 -0.37334363790E+01  0.33829235642E+02  0.50528853450E+02  0.29999980545E+02 0.  0.
         12    1    1    2    0    0 -0.22244335613E+02  0.37334363790E+01 -0.33829235642E+02  0.40659146550E+02  0.00000000000E+00 0. -1.
         11    1    3    3    0    0  0.19687073798E+01 -0.49190472157E+01 -0.18497775009E+01  0.56119970886E+01  0.51100000000E-03 0. -1.
        -11    1    3    3    0    0  0.65022107574E+01  0.92591756727E+01  0.14310601197E+02  0.18242927006E+02  0.51100000000E-03 0.  1.
        -12    1    3    3    0    0  0.13773417476E+02 -0.80735648360E+01  0.21368411946E+02  0.26673929355E+02  0.00000000000E+00 0.  1.
</event>
<event>
 7    1  0.5902966E-013  0.5052885E+02  0.7816164E-02  0.1300439E+00
        -11   -1    0    0    0    0  0.00000000000E+00  0.00000000000E+00  0.45593999997E+02  0.45594000000E+02  0.51100000000E-03 0.  1.
         11   -1    0    0    0    0 -0.00000000000E+00 -0.00000000000E+00 -0.45593999997E+02  0.45594000000E+02  0.51100000000E-03 0. -1.
    9900012    2    1    2    0    0  0.24928683043E+02  0.83386640967E+01  0.31019244274E+02  0.50528854995E+02  0.29999985244E+02 0.  0.
         12    1    1    2    0    0 -0.24928683043E+02 -0.83386640967E+01 -0.31019244274E+02  0.40659145005E+02  0.00000000000E+00 0. -1.
         11    1    3    3    0    0 -0.40029955791E+01  0.38212681624E+01  0.47973865521E+01  0.73240004073E+01  0.51100000000E-03 0. -1.
        -11    1    3    3    0    0  0.74215304111E+01  0.92306593581E+01  0.12691624590E+02  0.17359767303E+02  0.51100000000E-03 0.  1.
        -12    1    3    3    0    0  0.21510148211E+02 -0.47132634238E+01  0.13530233132E+02  0.25845087285E+02  0.00000000000E+00 0.  1.
</event>
<event>
 7    1  0.5902966E-013  0.5052886E+02  0.7816164E-02  0.1300439E+00
        -11   -1    0    0    0    0  0.00000000000E+00  0.00000000000E+00  0.45593999997E+02  0.45594000000E+02  0.51100000000E-03 0.  1.
         11   -1    0    0    0    0 -0.00000000000E+00 -0.00000000000E+00 -0.45593999997E+02  0.45594000000E+02  0.51100000000E-03 0. -1.
    9900012    2    1    2    0    0 -0.28517331472E+02  0.15318256547E+01  0.28940987661E+02  0.50528862639E+02  0.30000008478E+02 0.  0.
         12    1    1    2    0    0  0.28517331472E+02 -0.15318256547E+01 -0.28940987661E+02  0.40659137361E+02  0.00000000000E+00 0. -1.
         11    1    3    3    0    0 -0.17442300563E+02 -0.29800503459E+01  0.22839604292E+02  0.28892249367E+02  0.51100000000E-03 0.  1.
        -11    1    3    3    0    0 -0.13274225156E+02  0.86318040267E+01  0.32475436382E+01  0.16163527900E+02  0.51100000000E-03 0. -1.
         12    1    3    3    0    0  0.21991942471E+01 -0.41199280261E+01  0.28538397311E+01  0.54730853719E+01  0.00000000000E+00 0. -1.
</event>
<event>
 7    1  0.5902966E-013  0.5052887E+02  0.7816164E-02  0.1300439E+00
        -11   -1    0    0    0    0  0.00000000000E+00  0.00000000000E+00  0.45593999997E+02  0.45594000000E+02  0.51100000000E-03 0.  1.
         11   -1    0    0    0    0 -0.00000000000E+00 -0.00000000000E+00 -0.45593999997E+02  0.45594000000E+02  0.51100000000E-03 0. -1.
    9900012    2    1    2    0    0  0.13574839704E+02 -0.29014491506E+02  0.25040930574E+02  0.50528865795E+02  0.30000018069E+02 0.  0.
         12    1    1    2    0    0 -0.13574839704E+02  0.29014491506E+02 -0.25040930574E+02  0.40659134205E+02  0.00000000000E+00 0. -1.
         11    1    3    3    0    0 -0.46010455741E+01 -0.14729014054E+01  0.15631402186E+00  0.48335797562E+01  0.51100000000E-03 0. -1.
        -11    1    3    3    0    0  0.16628714282E+02 -0.83367359104E+01  0.87131821890E+01  0.20541052759E+02  0.51100000000E-03 0.  1.
        -12    1    3    3    0    0  0.15471709967E+01 -0.19204854190E+02  0.16171434363E+02  0.25154233280E+02  0.00000000000E+00 0.  1.
</event>
<event>
 7    1  0.5902966E-013  0.5052888E+02  0.7816164E-02  0.1300439E+00
        -11   -1    0    0    0    0  0.00000000000E+00  0.00000000000E+00  0.45593999997E+02  0.45594000000E+02  0.51100000000E-03 0.  1.
         11   -1    0    0    0    0 -0.00000000000E+00 -0.00000000000E+00 -0.45593999997E+02  0.45594000000E+02  0.51100000000E-03 0. -1.
    9900012    2    1    2    0    0 -0.15377631090E+02  0.15150234507E+02  0.34455234159E+02  0.50528876738E+02  0.30000051331E+02 0.  0.
         12    1    1    2    0    0  0.15377631090E+02 -0.15150234507E+02 -0.34455234159E+02  0.40659123262E+02  0.00000000000E+00 0. -1.
         11    1    3    3    0    0  0.51681443774E+01  0.86842698949E+01  0.90282003137E+01  0.13551186704E+02  0.51100000000E-03 0. -1.
        -11    1    3    3    0    0 -0.29927170389E+01  0.13615181488E+01  0.16144181502E+02  0.16475578399E+02  0.51100000000E-03 0.  1.
        -12    1    3    3    0    0 -0.17553058428E+02  0.51044464630E+01  0.92828523431E+01  0.20502111635E+02  0.00000000000E+00 0.  1.
</event>
<event>
 7    1  0.5902966E-013  0.5052886E+02  0.7816164E-02  0.1300439E+00
        -11   -1    0    0    0    0  0.00000000000E+00  0.00000000000E+00  0.45593999997E+02  0.45594000000E+02  0.51100000000E-03 0.  1.
         11   -1    0    0    0    0 -0.00000000000E+00 -0.00000000000E+00 -0.45593999997E+02  0.45594000000E+02  0.51100000000E-03 0. -1.
    9900012    2    1    2    0    0  0.62101131295E+01 -0.22063770635E+02  0.33582593138E+02  0.50528855376E+02  0.29999986401E+02 0.  0.
         12    1    1    2    0    0 -0.62101131295E+01  0.22063770635E+02 -0.33582593138E+02  0.40659144624E+02  0.00000000000E+00 0. -1.
         11    1    3    3    0    0 -0.11067746290E+02 -0.82335380151E+01  0.99356003701E+01  0.17000067975E+02  0.51100000000E-03 0. -1.
        -11    1    3    3    0    0  0.74665902877E+01 -0.12555507465E+01  0.99641334683E+01  0.12514405069E+02  0.51100000000E-03 0.  1.
        -12    1    3    3    0    0  0.98112691318E+01 -0.12574681873E+02  0.13682859299E+02  0.21014382332E+02  0.00000000000E+00 0.  1.
</event>
<event>
 7    1  0.5902966E-013  0.5052886E+02  0.7816164E-02  0.1300439E+00
        -11   -1    0    0    0    0  0.00000000000E+00  0.00000000000E+00  0.45593999997E+02  0.45594000000E+02  0.51100000000E-03 0.  1.
         11   -1    0    0    0    0 -0.00000000000E+00 -0.00000000000E+00 -0.45593999997E+02  0.45594000000E+02  0.51100000000E-03 0. -1.
    9900012    2    1    2    0    0 -0.30103078732E+02 -0.21286460832E+02  0.17142257807E+02  0.50528858757E+02  0.29999996678E+02 0.  0.
         12    1    1    2    0    0  0.30103078732E+02  0.21286460832E+02 -0.17142257807E+02  0.40659141243E+02  0.00000000000E+00 0. -1.
         11    1    3    3    0    0 -0.18140378248E+01  0.52018465189E+01  0.49343470059E+01  0.73957907672E+01  0.51100000000E-03 0. -1.
        -11    1    3    3    0    0 -0.12247315785E+02 -0.30583305847E+01  0.12064121143E+01  0.12680913230E+02  0.51100000000E-03 0.  1.
        -12    1    3    3    0    0 -0.16041725122E+02 -0.23429976766E+02  0.11001498687E+02  0.30452154760E+02  0.00000000000E+00 0.  1.
</event>
<event>
 7    1  0.5902966E-013  0.5052890E+02  0.7816164E-02  0.1300439E+00
        -11   -1    0    0    0    0  0.00000000000E+00  0.00000000000E+00  0.45593999997E+02  0.45594000000E+02  0.51100000000E-03 0.  1.
         11   -1    0    0    0    0 -0.00000000000E+00 -0.00000000000E+00 -0.45593999997E+02  0.45594000000E+02  0.51100000000E-03 0. -1.
    9900012    2    1    2    0    0  0.36241749878E+01 -0.30823977586E+02  0.26266147823E+02  0.50528895731E+02  0.30000109063E+02 0.  0.
         12    1    1    2    0    0 -0.36241749878E+01  0.30823977586E+02 -0.26266147823E+02  0.40659104269E+02  0.00000000000E+00 0. -1.
         11    1    3    3    0    0 -0.43146328564E+01  0.36821962590E+01  0.26563311519E+01  0.62634432563E+01  0.51100000000E-03 0. -1.
        -11    1    3    3    0    0  0.56427483700E+01 -0.26466357829E+02  0.11167955973E+02  0.29275107972E+02  0.51100000000E-03 0.  1.
        -12    1    3    3    0    0  0.22960594742E+01 -0.80398160161E+01  0.12441860698E+02  0.14990344503E+02  0.00000000000E+00 0.  1.
</event>
<event>
 7    1  0.5902966E-013  0.5052886E+02  0.7816164E-02  0.1300439E+00
        -11   -1    0    0    0    0  0.00000000000E+00  0.00000000000E+00  0.45593999997E+02  0.45594000000E+02  0.51100000000E-03 0.  1.
         11   -1    0    0    0    0 -0.00000000000E+00 -0.00000000000E+00 -0.45593999997E+02  0.45594000000E+02  0.51100000000E-03 0. -1.
    9900012    2    1    2    0    0  0.74414536937E+01  0.39969058299E+02  0.51422156550E+00  0.50528864763E+02  0.30000014935E+02 0.  0.
         12    1    1    2    0    0 -0.74414536937E+01 -0.39969058299E+02 -0.51422156550E+00  0.40659135237E+02  0.00000000000E+00 0. -1.
         11    1    3    3    0    0 -0.48559774189E+01  0.18338606194E+02  0.19402549847E+01  0.19069598410E+02  0.51100000000E-03 0. -1.
        -11    1    3    3    0    0  0.69756070828E+01  0.24424217337E+02 -0.76344541284E+00  0.25412287104E+02  0.51100000000E-03 0.  1.
         12    1    3    3    0    0  0.53218240298E+01 -0.27937652324E+01 -0.66258800639E+00  0.60469792496E+01  0.00000000000E+00 0. -1.
</event>
<event>
 7    1  0.5902966E-013  0.5052887E+02  0.7816164E-02  0.1300439E+00
        -11   -1    0    0    0    0  0.00000000000E+00  0.00000000000E+00  0.45593999997E+02  0.45594000000E+02  0.51100000000E-03 0.  1.
         11   -1    0    0    0    0 -0.00000000000E+00 -0.00000000000E+00 -0.45593999997E+02  0.45594000000E+02  0.51100000000E-03 0. -1.
    9900012    2    1    2    0    0  0.35039482039E+01 -0.28834875136E+02  0.28450611120E+02  0.50528868796E+02  0.30000027193E+02 0.  0.
         12    1    1    2    0    0 -0.35039482039E+01  0.28834875136E+02 -0.28450611120E+02  0.40659131204E+02  0.00000000000E+00 0. -1.
         11    1    3    3    0    0 -0.63280036802E+01 -0.21553802853E+01  0.12725208826E+02  0.14374290754E+02  0.51100000000E-03 0. -1.
        -11    1    3    3    0    0 -0.11988506241E+01 -0.13012471526E+02  0.77613702130E+00  0.13090609114E+02  0.51100000000E-03 0.  1.
         12    1    3    3    0    0  0.11030802508E+02 -0.13667023325E+02  0.14949265273E+02  0.23063968928E+02  0.00000000000E+00 0. -1.
</event>
<event>
 7    1  0.5902966E-013  0.5052885E+02  0.7816164E-02  0.1300439E+00
        -11   -1    0    0    0    0  0.00000000000E+00  0.00000000000E+00  0.45593999997E+02  0.45594000000E+02  0.51100000000E-03 0. -1.
         11   -1    0    0    0    0 -0.00000000000E+00 -0.00000000000E+00 -0.45593999997E+02  0.45594000000E+02  0.51100000000E-03 0.  1.
    9900012    2    1    2    0    0 -0.25187795055E+02  0.31917731175E+02 -0.38674962368E-02  0.50528848533E+02  0.29999965600E+02 0.  0.
         12    1    1    2    0    0  0.25187795055E+02 -0.31917731175E+02  0.38674962368E-02  0.40659151467E+02  0.00000000000E+00 0. -1.
         11    1    3    3    0    0 -0.44525615744E+01  0.32937771325E+00 -0.48398770244E+01  0.65846946872E+01  0.51100000000E-03 0.  1.
        -11    1    3    3    0    0 -0.99202975778E+01  0.59595273442E+01 -0.72053824982E+01  0.13632527550E+02  0.51100000000E-03 0. -1.
         12    1    3    3    0    0 -0.10814935902E+02  0.25628826118E+02  0.12041392026E+02  0.30311626295E+02  0.00000000000E+00 0. -1.
</event>
<event>
 7    1  0.5902966E-013  0.5052886E+02  0.7816164E-02  0.1300439E+00
        -11   -1    0    0    0    0  0.00000000000E+00  0.00000000000E+00  0.45593999997E+02  0.45594000000E+02  0.51100000000E-03 0.  1.
         11   -1    0    0    0    0 -0.00000000000E+00 -0.00000000000E+00 -0.45593999997E+02  0.45594000000E+02  0.51100000000E-03 0. -1.
    9900012    2    1    2    0    0 -0.20702416872E+01  0.31513725330E+01  0.40483932529E+02  0.50528857824E+02  0.29999993840E+02 0.  0.
         12    1    1    2    0    0  0.20702416872E+01 -0.31513725330E+01 -0.40483932529E+02  0.40659142176E+02  0.00000000000E+00 0. -1.
         11    1    3    3    0    0 -0.42331177154E+01  0.13291740401E+01  0.14550440806E+02  0.15211880789E+02  0.51100000000E-03 0. -1.
        -11    1    3    3    0    0 -0.36123700360E+01 -0.14215446261E+00  0.28478609592E+02  0.28707152937E+02  0.51100000000E-03 0.  1.
        -12    1    3    3    0    0  0.57752460642E+01  0.19643529555E+01 -0.25451178691E+01  0.66098240977E+01  0.00000000000E+00 0.  1.
</event>
<event>
 7    1  0.5902966E-013  0.5052886E+02  0.7816164E-02  0.1300439E+00
        -11   -1    0    0    0    0  0.00000000000E+00  0.00000000000E+00  0.45593999997E+02  0.45594000000E+02  0.51100000000E-03 0.  1.
         11   -1    0    0    0    0 -0.00000000000E+00 -0.00000000000E+00 -0.45593999997E+02  0.45594000000E+02  0.51100000000E-03 0. -1.
    9900012    2    1    2    0    0  0.27823968953E+02 -0.70130783562E+01  0.28806404605E+02  0.50528862496E+02  0.30000008042E+02 0.  0.
         12    1    1    2    0    0 -0.27823968953E+02  0.70130783562E+01 -0.28806404605E+02  0.40659137504E+02  0.00000000000E+00 0. -1.
         11    1    3    3    0    0  0.44198741822E+01 -0.56117284381E+01  0.11284442660E+02  0.13355352121E+02  0.51100000000E-03 0. -1.
        -11    1    3    3    0    0  0.35492312776E+01  0.93040081997E+01  0.32246954559E+01  0.10467104293E+02  0.51100000000E-03 0.  1.
         12    1    3    3    0    0  0.19854863493E+02 -0.10705358118E+02  0.14297266489E+02  0.26706406082E+02  0.00000000000E+00 0. -1.
</event>
<event>
 7    1  0.5902966E-013  0.5052889E+02  0.7816164E-02  0.1300439E+00
        -11   -1    0    0    0    0  0.00000000000E+00  0.00000000000E+00  0.45593999997E+02  0.45594000000E+02  0.51100000000E-03 0. -1.
         11   -1    0    0    0    0 -0.00000000000E+00 -0.00000000000E+00 -0.45593999997E+02  0.45594000000E+02  0.51100000000E-03 0.  1.
    9900012    2    1    2    0    0 -0.31346098627E+02  0.25877458236E+02 -0.97090705977E+00  0.50528887806E+02  0.30000084974E+02 0.  0.
         12    1    1    2    0    0  0.31346098627E+02 -0.25877458236E+02  0.97090705977E+00  0.40659112194E+02  0.00000000000E+00 0. -1.
         11    1    3    3    0    0 -0.79293256634E+01  0.76692368970E+00 -0.51728749557E+01  0.94984742454E+01  0.51100000000E-03 0. -1.
        -11    1    3    3    0    0 -0.14751499966E+02  0.18464481816E+02 -0.77203606530E+01  0.24862578484E+02  0.51100000000E-03 0.  1.
         12    1    3    3    0    0 -0.86652729979E+01  0.66460527300E+01  0.11922328549E+02  0.16167835076E+02  0.00000000000E+00 0. -1.
</event>
<event>
 7    1  0.5902966E-013  0.5052888E+02  0.7816164E-02  0.1300439E+00
        -11   -1    0    0    0    0  0.00000000000E+00  0.00000000000E+00  0.45593999997E+02  0.45594000000E+02  0.51100000000E-03 0. -1.
         11   -1    0    0    0    0 -0.00000000000E+00 -0.00000000000E+00 -0.45593999997E+02  0.45594000000E+02  0.51100000000E-03 0.  1.
    9900012    2    1    2    0    0  0.42237787586E+00 -0.44361248432E+01 -0.40414190517E+02  0.50528875540E+02  0.30000047691E+02 0.  0.
         12    1    1    2    0    0 -0.42237787586E+00  0.44361248432E+01  0.40414190517E+02  0.40659124460E+02  0.00000000000E+00 0. -1.
         11    1    3    3    0    0 -0.52030878265E+01  0.89726006973E+00 -0.26265452797E+02  0.26790879222E+02  0.51100000000E-03 0. -1.
        -11    1    3    3    0    0  0.66164225788E+01  0.37605269504E+01 -0.12209181879E+02  0.14386894492E+02  0.51100000000E-03 0.  1.
         12    1    3    3    0    0 -0.99095687652E+00 -0.90939118634E+01 -0.19395558407E+01  0.93511018264E+01  0.00000000000E+00 0. -1.
</event>
<event>
 7    1  0.5902966E-013  0.5052886E+02  0.7816164E-02  0.1300439E+00
        -11   -1    0    0    0    0  0.00000000000E+00  0.00000000000E+00  0.45593999997E+02  0.45594000000E+02  0.51100000000E-03 0.  1.
         11   -1    0    0    0    0 -0.00000000000E+00 -0.00000000000E+00 -0.45593999997E+02  0.45594000000E+02  0.51100000000E-03 0. -1.
    9900012    2    1    2    0    0 -0.20620151357E+02 -0.34605707544E+02 -0.55154296811E+01  0.50528860792E+02  0.30000002863E+02 0.  0.
         12    1    1    2    0    0  0.20620151357E+02  0.34605707544E+02  0.55154296811E+01  0.40659139208E+02  0.00000000000E+00 0. -1.
         11    1    3    3    0    0  0.16988184469E+01 -0.14204096167E+01  0.76751867197E+00  0.23436366544E+01  0.51100000000E-03 0. -1.
        -11    1    3    3    0    0  0.97843585784E+00 -0.65040421677E+01 -0.10627988393E+02  0.12498561469E+02  0.51100000000E-03 0.  1.
        -12    1    3    3    0    0 -0.23297405662E+02 -0.26681255759E+02  0.43450400401E+01  0.35686662668E+02  0.00000000000E+00 0.  1.
</event>
<event>
 7    1  0.5902966E-013  0.5052886E+02  0.7816164E-02  0.1300439E+00
        -11   -1    0    0    0    0  0.00000000000E+00  0.00000000000E+00  0.45593999997E+02  0.45594000000E+02  0.51100000000E-03 0. -1.
         11   -1    0    0    0    0 -0.00000000000E+00 -0.00000000000E+00 -0.45593999997E+02  0.45594000000E+02  0.51100000000E-03 0.  1.
    9900012    2    1    2    0    0  0.26382004138E+02 -0.16671255376E+02 -0.26061940191E+02  0.50528860502E+02  0.30000001983E+02 0.  0.
         12    1    1    2    0    0 -0.26382004138E+02  0.16671255376E+02  0.26061940191E+02  0.40659139498E+02  0.00000000000E+00 0. -1.
         11    1    3    3    0    0  0.70789620276E+01 -0.13075682056E+02 -0.54257361702E+01  0.15827942945E+02  0.51100000000E-03 0. -1.
        -11    1    3    3    0    0 -0.60738699325E+00 -0.75590560185E+01 -0.60976396423E+01  0.97308507500E+01  0.51100000000E-03 0.  1.
        -12    1    3    3    0    0  0.19910429103E+02  0.39634826977E+01 -0.14538564379E+02  0.24970066808E+02  0.00000000000E+00 0.  1.
</event>
<event>
 7    1  0.5902966E-013  0.5052886E+02  0.7816164E-02  0.1300439E+00
        -11   -1    0    0    0    0  0.00000000000E+00  0.00000000000E+00  0.45593999997E+02  0.45594000000E+02  0.51100000000E-03 0.  1.
         11   -1    0    0    0    0 -0.00000000000E+00 -0.00000000000E+00 -0.45593999997E+02  0.45594000000E+02  0.51100000000E-03 0. -1.
    9900012    2    1    2    0    0  0.40555525576E+02  0.75166973676E+00  0.28017647741E+01  0.50528861445E+02  0.30000004849E+02 0.  0.
         12    1    1    2    0    0 -0.40555525576E+02 -0.75166973676E+00 -0.28017647741E+01  0.40659138555E+02  0.00000000000E+00 0. -1.
         11    1    3    3    0    0  0.20573637897E+02  0.43963835168E+01 -0.87950945033E+01  0.22802553627E+02  0.51100000000E-03 0. -1.
        -11    1    3    3    0    0  0.17436571580E+01  0.46785869082E+01  0.11657610007E+01  0.51272326565E+01  0.51100000000E-03 0.  1.
         12    1    3    3    0    0  0.18238230522E+02 -0.83233006882E+01  0.10431098277E+02  0.22599075162E+02  0.00000000000E+00 0. -1.
</event>
<event>
 7    1  0.5902966E-013  0.5052886E+02  0.7816164E-02  0.1300439E+00
        -11   -1    0    0    0    0  0.00000000000E+00  0.00000000000E+00  0.45593999997E+02  0.45594000000E+02  0.51100000000E-03 0.  1.
         11   -1    0    0    0    0 -0.00000000000E+00 -0.00000000000E+00 -0.45593999997E+02  0.45594000000E+02  0.51100000000E-03 0. -1.
    9900012    2    1    2    0    0  0.87061846796E+01  0.31208917712E+02  0.24563617366E+02  0.50528862103E+02  0.30000006848E+02 0.  0.
         12    1    1    2    0    0 -0.87061846796E+01 -0.31208917712E+02 -0.24563617366E+02  0.40659137897E+02  0.00000000000E+00 0. -1.
         11    1    3    3    0    0  0.18297971096E+02  0.18671160215E+02  0.73436820837E+01  0.27154329983E+02  0.51100000000E-03 0. -1.
        -11    1    3    3    0    0 -0.23316990272E+01  0.32051582120E+01  0.48287539910E+01  0.62471373351E+01  0.51100000000E-03 0.  1.
         12    1    3    3    0    0 -0.72600873894E+01  0.93325992847E+01  0.12391181291E+02  0.17127394785E+02  0.00000000000E+00 0. -1.
</event>
<event>
 7    1  0.5902966E-013  0.5052886E+02  0.7816164E-02  0.1300439E+00
        -11   -1    0    0    0    0  0.00000000000E+00  0.00000000000E+00  0.45593999997E+02  0.45594000000E+02  0.51100000000E-03 0. -1.
         11   -1    0    0    0    0 -0.00000000000E+00 -0.00000000000E+00 -0.45593999997E+02  0.45594000000E+02  0.51100000000E-03 0.  1.
    9900012    2    1    2    0    0 -0.99276971087E+01  0.28587869868E+02 -0.27154011519E+02  0.50528858162E+02  0.29999994869E+02 0.  0.
         12    1    1    2    0    0  0.99276971087E+01 -0.28587869868E+02  0.27154011519E+02  0.40659141838E+02  0.00000000000E+00 0. -1.
         11    1    3    3    0    0  0.32586931439E+01  0.18490664198E+02 -0.14669467586E+02  0.23826813110E+02  0.51100000000E-03 0. -1.
        -11    1    3    3    0    0 -0.37803790310E+01  0.74691237988E+01 -0.14487781488E+02  0.16732450169E+02  0.51100000000E-03 0.  1.
         12    1    3    3    0    0 -0.94060112216E+01  0.26280818711E+01  0.20032375555E+01  0.99695948828E+01  0.00000000000E+00 0. -1.
</event>
<event>
 7    1  0.1112333E-012  0.5052886E+02  0.7816164E-02  0.1300439E+00
        -11   -1    0    0    0    0  0.00000000000E+00  0.00000000000E+00  0.45593999997E+02  0.45594000000E+02  0.51100000000E-03 0. -1.
         11   -1    0    0    0    0 -0.00000000000E+00 -0.00000000000E+00 -0.45593999997E+02  0.45594000000E+02  0.51100000000E-03 0.  1.
    9900012    2    1    2    0    0  0.30358875541E+01  0.12965140741E+02 -0.38416850751E+02  0.50528857003E+02  0.29999991345E+02 0.  0.
         12    1    1    2    0    0 -0.30358875541E+01 -0.12965140741E+02  0.38416850751E+02  0.40659142997E+02  0.00000000000E+00 0. -1.
         11    1    3    3    0    0  0.17125296462E+01  0.30249749355E+01  0.29834408193E+01  0.45808460499E+01  0.51100000000E-03 0. -1.
        -11    1    3    3    0    0  0.11413263041E+01  0.14537331817E+02 -0.25281277448E+02  0.29185263949E+02  0.51100000000E-03 0.  1.
        -12    1    3    3    0    0  0.18203160379E+00 -0.45971660118E+01 -0.16119014122E+02  0.16762747004E+02  0.00000000000E+00 0.  1.
</event>
<event>
 7    1  0.5902966E-013  0.5052887E+02  0.7816164E-02  0.1300439E+00
        -11   -1    0    0    0    0  0.00000000000E+00  0.00000000000E+00  0.45593999997E+02  0.45594000000E+02  0.51100000000E-03 0.  1.
         11   -1    0    0    0    0 -0.00000000000E+00 -0.00000000000E+00 -0.45593999997E+02  0.45594000000E+02  0.51100000000E-03 0. -1.
    9900012    2    1    2    0    0  0.75768916339E+01 -0.83623413082E+01  0.39061832646E+02  0.50528870537E+02  0.30000032484E+02 0.  0.
         12    1    1    2    0    0 -0.75768916339E+01  0.83623413082E+01 -0.39061832646E+02  0.40659129463E+02  0.00000000000E+00 0. -1.
         11    1    3    3    0    0 -0.39380457624E+01  0.49549841360E+01  0.27416886485E+01  0.68976031432E+01  0.51100000000E-03 0. -1.
        -11    1    3    3    0    0  0.12593739748E+02 -0.82852905326E+01  0.13493671318E+02  0.20231843365E+02  0.51100000000E-03 0.  1.
         12    1    3    3    0    0 -0.10788023518E+01 -0.50320349116E+01  0.22826472680E+02  0.23399424029E+02  0.00000000000E+00 0. -1.
</event>
<event>
 7    1  0.5902966E-013  0.5052885E+02  0.7816164E-02  0.1300439E+00
        -11   -1    0    0    0    0  0.00000000000E+00  0.00000000000E+00  0.45593999997E+02  0.45594000000E+02  0.51100000000E-03 0. -1.
         11   -1    0    0    0    0 -0.00000000000E+00 -0.00000000000E+00 -0.45593999997E+02  0.45594000000E+02  0.51100000000E-03 0.  1.
    9900012    2    1    2    0    0  0.42631536780E+01 -0.40020016564E+02 -0.57784046297E+01  0.50528853856E+02  0.29999981782E+02 0.  0.
         12    1    1    2    0    0 -0.42631536780E+01  0.40020016564E+02  0.57784046297E+01  0.40659146144E+02  0.00000000000E+00 0. -1.
         11    1    3    3    0    0  0.23516629646E+00  0.38006701020E+01  0.27259535418E+01  0.46830779819E+01  0.51100000000E-03 0. -1.
        -11    1    3    3    0    0 -0.28782880125E+01 -0.94260403820E+01 -0.32228984089E+01  0.10369274496E+02  0.51100000000E-03 0.  1.
        -12    1    3    3    0    0  0.69062753940E+01 -0.34394646284E+02 -0.52814597626E+01  0.35476501378E+02  0.00000000000E+00 0.  1.
</event>
<event>
 7    1  0.5902966E-013  0.5052884E+02  0.7816164E-02  0.1300439E+00
        -11   -1    0    0    0    0  0.00000000000E+00  0.00000000000E+00  0.45593999997E+02  0.45594000000E+02  0.51100000000E-03 0. -1.
         11   -1    0    0    0    0 -0.00000000000E+00 -0.00000000000E+00 -0.45593999997E+02  0.45594000000E+02  0.51100000000E-03 0.  1.
    9900012    2    1    2    0    0  0.15731641024E+01 -0.37325597048E+02 -0.16046565945E+02  0.50528839668E+02  0.29999938654E+02 0.  0.
         12    1    1    2    0    0 -0.15731641024E+01  0.37325597048E+02  0.16046565945E+02  0.40659160332E+02  0.00000000000E+00 0. -1.
         11    1    3    3    0    0  0.63379913797E+01 -0.92216849498E+01  0.54116427567E+00  0.11202788362E+02  0.51100000000E-03 0. -1.
        -11    1    3    3    0    0  0.74985985011E+01 -0.10200100227E+02 -0.11347818893E+02  0.17001294597E+02  0.51100000000E-03 0.  1.
         12    1    3    3    0    0 -0.12263425778E+02 -0.17903811872E+02 -0.52399113278E+01  0.22324756709E+02  0.00000000000E+00 0. -1.
</event>
<event>
 7    1  0.5902966E-013  0.5052885E+02  0.7816164E-02  0.1300439E+00
        -11   -1    0    0    0    0  0.00000000000E+00  0.00000000000E+00  0.45593999997E+02  0.45594000000E+02  0.51100000000E-03 0.  1.
         11   -1    0    0    0    0 -0.00000000000E+00 -0.00000000000E+00 -0.45593999997E+02  0.45594000000E+02  0.51100000000E-03 0. -1.
    9900012    2    1    2    0    0  0.29731205042E+02  0.39178470789E+01 -0.27456741927E+02  0.50528846587E+02  0.29999959687E+02 0.  0.
         12    1    1    2    0    0 -0.29731205042E+02 -0.39178470789E+01  0.27456741927E+02  0.40659153413E+02  0.00000000000E+00 0. -1.
         11    1    3    3    0    0 -0.38778028720E+01  0.18296145655E+01 -0.12326213933E+02  0.13050685605E+02  0.51100000000E-03 0. -1.
        -11    1    3    3    0    0  0.50289748260E+01 -0.20067792251E+01 -0.22544575490E+01  0.58651794312E+01  0.51100000000E-03 0.  1.
        -12    1    3    3    0    0  0.28580033088E+02  0.40950117385E+01 -0.12876070445E+02  0.31612981551E+02  0.00000000000E+00 0.  1.
</event>
<event>
 7    1  0.5902966E-013  0.5052889E+02  0.7816164E-02  0.1300439E+00
        -11   -1    0    0    0    0  0.00000000000E+00  0.00000000000E+00  0.45593999997E+02  0.45594000000E+02  0.51100000000E-03 0. -1.
         11   -1    0    0    0    0 -0.00000000000E+00 -0.00000000000E+00 -0.45593999997E+02  0.45594000000E+02  0.51100000000E-03 0.  1.
    9900012    2    1    2    0    0  0.29537369838E+02 -0.89243021067E+01 -0.26477608984E+02  0.50528890780E+02  0.30000094014E+02 0.  0.
         12    1    1    2    0    0 -0.29537369838E+02  0.89243021067E+01  0.26477608984E+02  0.40659109220E+02  0.00000000000E+00 0. -1.
         11    1    3    3    0    0  0.33196050294E+01 -0.88027518960E+00 -0.15128483628E+02  0.15513403209E+02  0.51100000000E-03 0. -1.
        -11    1    3    3    0    0 -0.22066919223E+00 -0.17507086796E+01  0.35920173382E+01  0.40020325576E+01  0.51100000000E-03 0.  1.
        -12    1    3    3    0    0  0.26438434001E+02 -0.62933182375E+01 -0.14941142694E+02  0.31013455014E+02  0.00000000000E+00 0.  1.
</event>
<event>
 7    1  0.5902966E-013  0.5052886E+02  0.7816164E-02  0.1300439E+00
        -11   -1    0    0    0    0  0.00000000000E+00  0.00000000000E+00  0.45593999997E+02  0.45594000000E+02  0.51100000000E-03 0. -1.
         11   -1    0    0    0    0 -0.00000000000E+00 -0.00000000000E+00 -0.45593999997E+02  0.45594000000E+02  0.51100000000E-03 0.  1.
    9900012    2    1    2    0    0  0.62739136604E+00  0.23260473329E+02 -0.33342502407E+02  0.50528859500E+02  0.29999998938E+02 0.  0.
         12    1    1    2    0    0 -0.62739136604E+00 -0.23260473329E+02  0.33342502407E+02  0.40659140500E+02  0.00000000000E+00 0. -1.
         11    1    3    3    0    0  0.23303887765E+01  0.86123534026E+01 -0.73708907301E+01  0.11572958714E+02  0.51100000000E-03 0. -1.
        -11    1    3    3    0    0  0.78992908579E+01  0.30516381466E+01 -0.21718035754E+02  0.23310606357E+02  0.51100000000E-03 0.  1.
         12    1    3    3    0    0 -0.96022882684E+01  0.11596481780E+02 -0.42535759224E+01  0.15645294430E+02  0.00000000000E+00 0. -1.
</event>
<event>
 7    1  0.5902966E-013  0.5052881E+02  0.7816164E-02  0.1300439E+00
        -11   -1    0    0    0    0  0.00000000000E+00  0.00000000000E+00  0.45593999997E+02  0.45594000000E+02  0.51100000000E-03 0.  1.
         11   -1    0    0    0    0 -0.00000000000E+00 -0.00000000000E+00 -0.45593999997E+02  0.45594000000E+02  0.51100000000E-03 0. -1.
    9900012    2    1    2    0    0  0.15790888256E+01  0.15879923983E+02  0.37396584222E+02  0.50528806468E+02  0.29999837739E+02 0.  0.
         12    1    1    2    0    0 -0.15790888256E+01 -0.15879923983E+02 -0.37396584222E+02  0.40659193532E+02  0.00000000000E+00 0. -1.
         11    1    3    3    0    0 -0.10286655621E+02  0.46504157661E+01  0.18260396576E+02  0.21468202860E+02  0.51100000000E-03 0. -1.
        -11    1    3    3    0    0 -0.70691516639E-01 -0.31653394578E+01  0.25659376526E+01  0.40753413933E+01  0.51100000000E-03 0.  1.
         12    1    3    3    0    0  0.11936435964E+02  0.14394847675E+02  0.16570249993E+02  0.24985262215E+02  0.00000000000E+00 0. -1.
</event>
<event>
 7    1  0.5902966E-013  0.5052887E+02  0.7816164E-02  0.1300439E+00
        -11   -1    0    0    0    0  0.00000000000E+00  0.00000000000E+00  0.45593999997E+02  0.45594000000E+02  0.51100000000E-03 0.  1.
         11   -1    0    0    0    0 -0.00000000000E+00 -0.00000000000E+00 -0.45593999997E+02  0.45594000000E+02  0.51100000000E-03 0. -1.
    9900012    2    1    2    0    0 -0.28091302145E+02 -0.29207233016E+02  0.33138050294E+01  0.50528867934E+02  0.30000024571E+02 0.  0.
         12    1    1    2    0    0  0.28091302145E+02  0.29207233016E+02 -0.33138050294E+01  0.40659132066E+02  0.00000000000E+00 0. -1.
         11    1    3    3    0    0 -0.62934125293E+01 -0.11417892571E+01 -0.23456208174E+01  0.68126838509E+01  0.51100000000E-03 0. -1.
        -11    1    3    3    0    0 -0.18315750311E+02 -0.13495062679E+02 -0.73155628476E+01  0.23897717176E+02  0.51100000000E-03 0.  1.
         12    1    3    3    0    0 -0.34821393046E+01 -0.14570381079E+02  0.12974988694E+02  0.19818466907E+02  0.00000000000E+00 0. -1.
</event>
<event>
 7    1  0.5902966E-013  0.5052886E+02  0.7816164E-02  0.1300439E+00
        -11   -1    0    0    0    0  0.00000000000E+00  0.00000000000E+00  0.45593999997E+02  0.45594000000E+02  0.51100000000E-03 0. -1.
         11   -1    0    0    0    0 -0.00000000000E+00 -0.00000000000E+00 -0.45593999997E+02  0.45594000000E+02  0.51100000000E-03 0.  1.
    9900012    2    1    2    0    0  0.36025002953E+02  0.18404662803E+02 -0.40784153044E+01  0.50528856846E+02  0.29999990869E+02 0.  0.
         12    1    1    2    0    0 -0.36025002953E+02 -0.18404662803E+02  0.40784153044E+01  0.40659143154E+02  0.00000000000E+00 0. -1.
         11    1    3    3    0    0  0.27774715804E+02  0.21021897296E+02  0.21913984513E+01  0.34902109268E+02  0.51100000000E-03 0. -1.
        -11    1    3    3    0    0  0.97971919478E+01  0.48895242314E+00 -0.70375867649E+01  0.12072765726E+02  0.51100000000E-03 0.  1.
        -12    1    3    3    0    0 -0.15469047990E+01 -0.31061869161E+01  0.76777300919E+00  0.35539818526E+01  0.00000000000E+00 0.  1.
</event>
<event>
 7    1  0.5902966E-013  0.5052886E+02  0.7816164E-02  0.1300439E+00
        -11   -1    0    0    0    0  0.00000000000E+00  0.00000000000E+00  0.45593999997E+02  0.45594000000E+02  0.51100000000E-03 0.  1.
         11   -1    0    0    0    0 -0.00000000000E+00 -0.00000000000E+00 -0.45593999997E+02  0.45594000000E+02  0.51100000000E-03 0. -1.
    9900012    2    1    2    0    0 -0.25206283704E+02 -0.27061040810E+02  0.16897016138E+02  0.50528858073E+02  0.29999994600E+02 0.  0.
         12    1    1    2    0    0  0.25206283704E+02  0.27061040810E+02 -0.16897016138E+02  0.40659141927E+02  0.00000000000E+00 0. -1.
         11    1    3    3    0    0 -0.94406899109E+01 -0.59843196389E+01 -0.18743466783E+01  0.11333661512E+02  0.51100000000E-03 0. -1.
        -11    1    3    3    0    0 -0.11368312074E+02 -0.24530674065E+02  0.10068365296E+02  0.28850727365E+02  0.51100000000E-03 0.  1.
        -12    1    3    3    0    0 -0.43972817190E+01  0.34539528948E+01  0.87029975199E+01  0.10344469196E+02  0.00000000000E+00 0.  1.
</event>
<event>
 7    1  0.5902966E-013  0.5052884E+02  0.7816164E-02  0.1300439E+00
        -11   -1    0    0    0    0  0.00000000000E+00  0.00000000000E+00  0.45593999997E+02  0.45594000000E+02  0.51100000000E-03 0.  1.
         11   -1    0    0    0    0 -0.00000000000E+00 -0.00000000000E+00 -0.45593999997E+02  0.45594000000E+02  0.51100000000E-03 0. -1.
    9900012    2    1    2    0    0 -0.23554759886E+02 -0.31936229895E+02  0.88553874362E+01  0.50528838919E+02  0.29999936377E+02 0.  0.
         12    1    1    2    0    0  0.23554759886E+02  0.31936229895E+02 -0.88553874362E+01  0.40659161081E+02  0.00000000000E+00 0. -1.
         11    1    3    3    0    0  0.14628145777E+01  0.27221347896E+01  0.39568614448E+01  0.50206171987E+01  0.51100000000E-03 0. -1.
        -11    1    3    3    0    0 -0.36172490859E+01 -0.16514080068E+02 -0.60600979578E+00  0.16916458837E+02  0.51100000000E-03 0.  1.
        -12    1    3    3    0    0 -0.21400325378E+02 -0.18144284617E+02  0.55045357872E+01  0.28591762883E+02  0.00000000000E+00 0.  1.
</event>
<event>
 7    1  0.5902966E-013  0.5052886E+02  0.7816164E-02  0.1300439E+00
        -11   -1    0    0    0    0  0.00000000000E+00  0.00000000000E+00  0.45593999997E+02  0.45594000000E+02  0.51100000000E-03 0.  1.
         11   -1    0    0    0    0 -0.00000000000E+00 -0.00000000000E+00 -0.45593999997E+02  0.45594000000E+02  0.51100000000E-03 0. -1.
    9900012    2    1    2    0    0 -0.97839322107E+01  0.26552468980E+02  0.29196010278E+02  0.50528856446E+02  0.29999989653E+02 0.  0.
         12    1    1    2    0    0  0.97839322107E+01 -0.26552468980E+02 -0.29196010278E+02  0.40659143554E+02  0.00000000000E+00 0. -1.
         11    1    3    3    0    0  0.47930301417E+01  0.77328317201E+00  0.43281632493E+00  0.48742625120E+01  0.51100000000E-03 0. -1.
        -11    1    3    3    0    0 -0.16872003155E+01  0.18202140579E+02  0.23566874642E+02  0.29825528448E+02  0.51100000000E-03 0.  1.
        -12    1    3    3    0    0 -0.12889762037E+02  0.75770452288E+01  0.51963193105E+01  0.15829065486E+02  0.00000000000E+00 0.  1.
</event>
<event>
 7    1  0.5902966E-013  0.5052886E+02  0.7816164E-02  0.1300439E+00
        -11   -1    0    0    0    0  0.00000000000E+00  0.00000000000E+00  0.45593999997E+02  0.45594000000E+02  0.51100000000E-03 0. -1.
         11   -1    0    0    0    0 -0.00000000000E+00 -0.00000000000E+00 -0.45593999997E+02  0.45594000000E+02  0.51100000000E-03 0.  1.
    9900012    2    1    2    0    0  0.21629925561E+02 -0.55344620580E+00 -0.34423905949E+02  0.50528864701E+02  0.30000014744E+02 0.  0.
         12    1    1    2    0    0 -0.21629925561E+02  0.55344620580E+00  0.34423905949E+02  0.40659135299E+02  0.00000000000E+00 0. -1.
         11    1    3    3    0    0  0.83695229939E+01  0.41601596985E+01 -0.42842515747E+00  0.93562488337E+01  0.51100000000E-03 0. -1.
        -11    1    3    3    0    0  0.10429567490E+01 -0.97200169352E+01 -0.11550301698E+02  0.15131951545E+02  0.51100000000E-03 0.  1.
        -12    1    3    3    0    0  0.12217445818E+02  0.50064110309E+01 -0.22445179094E+02  0.26040664322E+02  0.00000000000E+00 0.  1.
</event>
<event>
 7    1  0.5902966E-013  0.5052886E+02  0.7816164E-02  0.1300439E+00
        -11   -1    0    0    0    0  0.00000000000E+00  0.00000000000E+00  0.45593999997E+02  0.45594000000E+02  0.51100000000E-03 0.  1.
         11   -1    0    0    0    0 -0.00000000000E+00 -0.00000000000E+00 -0.45593999997E+02  0.45594000000E+02  0.51100000000E-03 0. -1.
    9900012    2    1    2    0    0  0.15179537830E+02 -0.50141646735E+01  0.37384556683E+02  0.50528864562E+02  0.30000014324E+02 0.  0.
         12    1    1    2    0    0 -0.15179537830E+02  0.50141646735E+01 -0.37384556683E+02  0.40659135438E+02  0.00000000000E+00 0. -1.
         11    1    3    3    0    0 -0.41758095427E+01 -0.43151619179E+01  0.34825830031E+01  0.69416419058E+01  0.51100000000E-03 0. -1.
        -11    1    3    3    0    0 -0.14312968744E+00  0.59837636669E+01  0.37493167763E+01  0.70628103669E+01  0.51100000000E-03 0.  1.
        -12    1    3    3    0    0  0.19498477061E+02 -0.66827664225E+01  0.30152656904E+02  0.36524412290E+02  0.00000000000E+00 0.  1.
</event>
<event>
 7    1  0.5902966E-013  0.5052886E+02  0.7816164E-02  0.1300439E+00
        -11   -1    0    0    0    0  0.00000000000E+00  0.00000000000E+00  0.45593999997E+02  0.45594000000E+02  0.51100000000E-03 0. -1.
         11   -1    0    0    0    0 -0.00000000000E+00 -0.00000000000E+00 -0.45593999997E+02  0.45594000000E+02  0.51100000000E-03 0.  1.
    9900012    2    1    2    0    0  0.36573904685E+02  0.13868758276E+02 -0.11098322189E+02  0.50528859386E+02  0.29999998591E+02 0.  0.
         12    1    1    2    0    0 -0.36573904685E+02 -0.13868758276E+02  0.11098322189E+02  0.40659140614E+02  0.00000000000E+00 0. -1.
         11    1    3    3    0    0  0.53227564249E+00 -0.25783345392E+01  0.14303189907E+01  0.29961540401E+01  0.51100000000E-03 0. -1.
        -11    1    3    3    0    0  0.10289932173E+02  0.26113313249E+01 -0.14797358907E+02  0.18211633268E+02  0.51100000000E-03 0.  1.
         12    1    3    3    0    0  0.25751696870E+02  0.13835761490E+02  0.22687177273E+01  0.29321072078E+02  0.00000000000E+00 0. -1.
</event>
<event>
 7    1  0.5902966E-013  0.5052885E+02  0.7816164E-02  0.1300439E+00
        -11   -1    0    0    0    0  0.00000000000E+00  0.00000000000E+00  0.45593999997E+02  0.45594000000E+02  0.51100000000E-03 0. -1.
         11   -1    0    0    0    0 -0.00000000000E+00 -0.00000000000E+00 -0.45593999997E+02  0.45594000000E+02  0.51100000000E-03 0.  1.
    9900012    2    1    2    0    0 -0.38027731266E+02 -0.10098870513E+02 -0.10250418796E+02  0.50528848308E+02  0.29999964916E+02 0.  0.
         12    1    1    2    0    0  0.38027731266E+02  0.10098870513E+02  0.10250418796E+02  0.40659151692E+02  0.00000000000E+00 0. -1.
         11    1    3    3    0    0 -0.74179334851E+00  0.16701866471E+01  0.13785892167E+01  0.22891678177E+01  0.51100000000E-03 0. -1.
        -11    1    3    3    0    0 -0.23018657408E+02 -0.19858596466E+02 -0.69721932448E+01  0.31190285689E+02  0.51100000000E-03 0.  1.
         12    1    3    3    0    0 -0.14267280509E+02  0.80895393054E+01 -0.46568147681E+01  0.17049394801E+02  0.00000000000E+00 0. -1.
</event>
<event>
 7    1  0.5902966E-013  0.5052885E+02  0.7816164E-02  0.1300439E+00
        -11   -1    0    0    0    0  0.00000000000E+00  0.00000000000E+00  0.45593999997E+02  0.45594000000E+02  0.51100000000E-03 0. -1.
         11   -1    0    0    0    0 -0.00000000000E+00 -0.00000000000E+00 -0.45593999997E+02  0.45594000000E+02  0.51100000000E-03 0.  1.
    9900012    2    1    2    0    0  0.66760268141E+01 -0.25505298893E+02 -0.30952813208E+02  0.50528852799E+02  0.29999978569E+02 0.  0.
         12    1    1    2    0    0 -0.66760268141E+01  0.25505298893E+02  0.30952813208E+02  0.40659147201E+02  0.00000000000E+00 0. -1.
         11    1    3    3    0    0  0.53564254320E+01 -0.76938612257E+01  0.17516304319E+01  0.95370332599E+01  0.51100000000E-03 0. -1.
        -11    1    3    3    0    0  0.66534155002E+01 -0.66891296833E+00 -0.75165357701E+01  0.10060501609E+02  0.51100000000E-03 0.  1.
         12    1    3    3    0    0 -0.53338141181E+01 -0.17142524699E+02 -0.25187907869E+02  0.30931317931E+02  0.00000000000E+00 0. -1.
</event>
<event>
 7    1  0.5902966E-013  0.5052886E+02  0.7816164E-02  0.1300439E+00
        -11   -1    0    0    0    0  0.00000000000E+00  0.00000000000E+00  0.45593999997E+02  0.45594000000E+02  0.51100000000E-03 0.  1.
         11   -1    0    0    0    0 -0.00000000000E+00 -0.00000000000E+00 -0.45593999997E+02  0.45594000000E+02  0.51100000000E-03 0. -1.
    9900012    2    1    2    0    0  0.16771507254E+02 -0.85006670110E+01  0.36050257383E+02  0.50528857700E+02  0.29999993465E+02 0.  0.
         12    1    1    2    0    0 -0.16771507254E+02  0.85006670110E+01 -0.36050257383E+02  0.40659142300E+02  0.00000000000E+00 0. -1.
         11    1    3    3    0    0 -0.54707790071E+01  0.17313335399E+01  0.88838248084E+01  0.10575882103E+02  0.51100000000E-03 0. -1.
        -11    1    3    3    0    0  0.69897802889E+01 -0.12054274339E+02  0.13009101390E+02  0.19063034322E+02  0.51100000000E-03 0.  1.
        -12    1    3    3    0    0  0.15252505972E+02  0.18222737883E+01  0.14157331185E+02  0.20889941275E+02  0.00000000000E+00 0.  1.
</event>
<event>
 7    1  0.5902966E-013  0.5052886E+02  0.7816164E-02  0.1300439E+00
        -11   -1    0    0    0    0  0.00000000000E+00  0.00000000000E+00  0.45593999997E+02  0.45594000000E+02  0.51100000000E-03 0.  1.
         11   -1    0    0    0    0 -0.00000000000E+00 -0.00000000000E+00 -0.45593999997E+02  0.45594000000E+02  0.51100000000E-03 0. -1.
    9900012    2    1    2    0    0 -0.28129150572E+02  0.29349906821E+02 -0.70666912669E+00  0.50528861746E+02  0.30000005763E+02 0.  0.
         12    1    1    2    0    0  0.28129150572E+02 -0.29349906821E+02  0.70666912669E+00  0.40659138254E+02  0.00000000000E+00 0. -1.
         11    1    3    3    0    0 -0.10768248778E+02  0.18099202961E+02 -0.95747271004E+01  0.23134643478E+02  0.51100000000E-03 0. -1.
        -11    1    3    3    0    0 -0.16698966837E+02  0.12880472483E+02  0.30410830154E+01  0.21307516302E+02  0.51100000000E-03 0.  1.
        -12    1    3    3    0    0 -0.66193495714E+00 -0.16297686223E+01  0.58269749583E+01  0.60867019654E+01  0.00000000000E+00 0.  1.
</event>
<event>
 7    1  0.5902966E-013  0.5052885E+02  0.7816164E-02  0.1300439E+00
        -11   -1    0    0    0    0  0.00000000000E+00  0.00000000000E+00  0.45593999997E+02  0.45594000000E+02  0.51100000000E-03 0.  1.
         11   -1    0    0    0    0 -0.00000000000E+00 -0.00000000000E+00 -0.45593999997E+02  0.45594000000E+02  0.51100000000E-03 0. -1.
    9900012    2    1    2    0    0  0.24308951663E+01  0.12662346688E+02  0.38560626080E+02  0.50528853936E+02  0.29999982025E+02 0.  0.
         12    1    1    2    0    0 -0.24308951663E+01 -0.12662346688E+02 -0.38560626080E+02  0.40659146064E+02  0.00000000000E+00 0. -1.
         11    1    3    3    0    0  0.10640778966E+02  0.72938056944E+01  0.11314005267E+02  0.17159035344E+02  0.51100000000E-03 0. -1.
        -11    1    3    3    0    0  0.46704604244E+01  0.42699517808E+01  0.84444199938E+01  0.10552436594E+02  0.51100000000E-03 0.  1.
         12    1    3    3    0    0 -0.12880344224E+02  0.10985892133E+01  0.18802200819E+02  0.22817381998E+02  0.00000000000E+00 0. -1.
</event>
<event>
 7    1  0.7038537E-013  0.5052885E+02  0.7816164E-02  0.1300439E+00
        -11   -1    0    0    0    0  0.00000000000E+00  0.00000000000E+00  0.45593999997E+02  0.45594000000E+02  0.51100000000E-03 0. -1.
         11   -1    0    0    0    0 -0.00000000000E+00 -0.00000000000E+00 -0.45593999997E+02  0.45594000000E+02  0.51100000000E-03 0.  1.
    9900012    2    1    2    0    0 -0.10928199384E+02  0.52364192583E+00 -0.39159503287E+02  0.50528850473E+02  0.29999971497E+02 0.  0.
         12    1    1    2    0    0  0.10928199384E+02 -0.52364192583E+00  0.39159503287E+02  0.40659149527E+02  0.00000000000E+00 0. -1.
         11    1    3    3    0    0  0.25164635130E+01  0.38116064191E+01 -0.39496836418E+01  0.60382889329E+01  0.51100000000E-03 0. -1.
        -11    1    3    3    0    0  0.17012255574E+01 -0.74591327202E+01 -0.24004007551E+02  0.25193753355E+02  0.51100000000E-03 0.  1.
        -12    1    3    3    0    0 -0.15145888454E+02  0.41711682269E+01 -0.11205812094E+02  0.19296808185E+02  0.00000000000E+00 0.  1.
</event>
<event>
 7    1  0.5902966E-013  0.5052886E+02  0.7816164E-02  0.1300439E+00
        -11   -1    0    0    0    0  0.00000000000E+00  0.00000000000E+00  0.45593999997E+02  0.45594000000E+02  0.51100000000E-03 0.  1.
         11   -1    0    0    0    0 -0.00000000000E+00 -0.00000000000E+00 -0.45593999997E+02  0.45594000000E+02  0.51100000000E-03 0. -1.
    9900012    2    1    2    0    0 -0.17022962652E+02  0.30205575327E+02  0.21236947273E+02  0.50528856283E+02  0.29999989159E+02 0.  0.
         12    1    1    2    0    0  0.17022962652E+02 -0.30205575327E+02 -0.21236947273E+02  0.40659143717E+02  0.00000000000E+00 0. -1.
         11    1    3    3    0    0  0.50137287208E+01  0.66789906705E+01  0.99084192410E+01  0.12958517052E+02  0.51100000000E-03 0. -1.
        -11    1    3    3    0    0 -0.21241127066E+02  0.25658179428E+02  0.11616307531E+02  0.35276993232E+02  0.51100000000E-03 0.  1.
         12    1    3    3    0    0 -0.79556430677E+00 -0.21315947712E+01 -0.28777949861E+00  0.22933459998E+01  0.00000000000E+00 0. -1.
</event>
<event>
 7    1  0.5902966E-013  0.5052885E+02  0.7816164E-02  0.1300439E+00
        -11   -1    0    0    0    0  0.00000000000E+00  0.00000000000E+00  0.45593999997E+02  0.45594000000E+02  0.51100000000E-03 0. -1.
         11   -1    0    0    0    0 -0.00000000000E+00 -0.00000000000E+00 -0.45593999997E+02  0.45594000000E+02  0.51100000000E-03 0.  1.
    9900012    2    1    2    0    0  0.35565860876E+02  0.14567774358E+02 -0.13267098809E+02  0.50528850717E+02  0.29999972240E+02 0.  0.
         12    1    1    2    0    0 -0.35565860876E+02 -0.14567774358E+02  0.13267098809E+02  0.40659149283E+02  0.00000000000E+00 0. -1.
         11    1    3    3    0    0  0.45373157193E+01  0.23495314797E+00  0.72529867477E+01  0.85585193779E+01  0.51100000000E-03 0. -1.
        -11    1    3    3    0    0  0.89484651947E+01  0.92259756332E+01 -0.26828437557E+01  0.13129786998E+02  0.51100000000E-03 0.  1.
        -12    1    3    3    0    0  0.22080079962E+02  0.51068455765E+01 -0.17837241800E+02  0.28840544342E+02  0.00000000000E+00 0.  1.
</event>
<event>
 7    1  0.5902966E-013  0.5052886E+02  0.7816164E-02  0.1300439E+00
        -11   -1    0    0    0    0  0.00000000000E+00  0.00000000000E+00  0.45593999997E+02  0.45594000000E+02  0.51100000000E-03 0. -1.
         11   -1    0    0    0    0 -0.00000000000E+00 -0.00000000000E+00 -0.45593999997E+02  0.45594000000E+02  0.51100000000E-03 0.  1.
    9900012    2    1    2    0    0  0.16341727420E+02 -0.70651174929E+01 -0.36554040496E+02  0.50528858139E+02  0.29999994799E+02 0.  0.
         12    1    1    2    0    0 -0.16341727420E+02  0.70651174929E+01  0.36554040496E+02  0.40659141861E+02  0.00000000000E+00 0. -1.
         11    1    3    3    0    0  0.16227395919E+01 -0.34650508080E+01  0.12936013118E+01  0.40389683707E+01  0.51100000000E-03 0. -1.
        -11    1    3    3    0    0 -0.24526398444E+01 -0.79243588948E+01 -0.67103421046E+01  0.10669564074E+02  0.51100000000E-03 0.  1.
        -12    1    3    3    0    0  0.17171627672E+02  0.43242922099E+01 -0.31137299704E+02  0.35820325695E+02  0.00000000000E+00 0.  1.
</event>
<event>
 7    1  0.5902966E-013  0.5052886E+02  0.7816164E-02  0.1300439E+00
        -11   -1    0    0    0    0  0.00000000000E+00  0.00000000000E+00  0.45593999997E+02  0.45594000000E+02  0.51100000000E-03 0. -1.
         11   -1    0    0    0    0 -0.00000000000E+00 -0.00000000000E+00 -0.45593999997E+02  0.45594000000E+02  0.51100000000E-03 0.  1.
    9900012    2    1    2    0    0  0.17811127517E+02  0.18104888408E+02 -0.31751260739E+02  0.50528858270E+02  0.29999995199E+02 0.  0.
         12    1    1    2    0    0 -0.17811127517E+02 -0.18104888408E+02  0.31751260739E+02  0.40659141730E+02  0.00000000000E+00 0. -1.
         11    1    3    3    0    0  0.62232305381E+01  0.15950584002E+02 -0.15071312138E+02  0.22809957873E+02  0.51100000000E-03 0. -1.
        -11    1    3    3    0    0  0.12042481110E+02 -0.20003548103E+01 -0.19263190294E+02  0.22805553517E+02  0.51100000000E-03 0.  1.
         12    1    3    3    0    0 -0.45458413126E+00  0.41546592159E+01  0.25832416925E+01  0.49133468811E+01  0.00000000000E+00 0. -1.
</event>
<event>
 7    1  0.5902966E-013  0.5052886E+02  0.7816164E-02  0.1300439E+00
        -11   -1    0    0    0    0  0.00000000000E+00  0.00000000000E+00  0.45593999997E+02  0.45594000000E+02  0.51100000000E-03 0.  1.
         11   -1    0    0    0    0 -0.00000000000E+00 -0.00000000000E+00 -0.45593999997E+02  0.45594000000E+02  0.51100000000E-03 0. -1.
    9900012    2    1    2    0    0  0.59605516937E+01 -0.16931286766E+02  0.36482448934E+02  0.50528859228E+02  0.29999998111E+02 0.  0.
         12    1    1    2    0    0 -0.59605516937E+01  0.16931286766E+02 -0.36482448934E+02  0.40659140772E+02  0.00000000000E+00 0. -1.
         11    1    3    3    0    0 -0.23600673762E+01  0.48821206091E+01  0.71502023247E+01  0.89738739242E+01  0.51100000000E-03 0. -1.
        -11    1    3    3    0    0  0.69164500005E+00 -0.57877201150E+01 -0.14642227325E+01  0.60099937943E+01  0.51100000000E-03 0.  1.
        -12    1    3    3    0    0  0.76289740698E+01 -0.16025687260E+02  0.30796469342E+02  0.35544991510E+02  0.00000000000E+00 0.  1.
</event>
<event>
 7    1  0.5902966E-013  0.5052886E+02  0.7816164E-02  0.1300439E+00
        -11   -1    0    0    0    0  0.00000000000E+00  0.00000000000E+00  0.45593999997E+02  0.45594000000E+02  0.51100000000E-03 0.  1.
         11   -1    0    0    0    0 -0.00000000000E+00 -0.00000000000E+00 -0.45593999997E+02  0.45594000000E+02  0.51100000000E-03 0. -1.
    9900012    2    1    2    0    0  0.20494520209E+02  0.31794138138E+02  0.14908826758E+02  0.50528859652E+02  0.29999999397E+02 0.  0.
         12    1    1    2    0    0 -0.20494520209E+02 -0.31794138138E+02 -0.14908826758E+02  0.40659140348E+02  0.00000000000E+00 0. -1.
         11    1    3    3    0    0  0.39786781830E+01  0.38168167562E+01 -0.30341211852E+01  0.62931599266E+01  0.51100000000E-03 0. -1.
        -11    1    3    3    0    0 -0.14067992194E-01  0.23236311161E+02  0.10195881078E+02  0.25374836856E+02  0.51100000000E-03 0.  1.
         12    1    3    3    0    0  0.16529910019E+02  0.47410102216E+01  0.77470668647E+01  0.18860862869E+02  0.00000000000E+00 0. -1.
</event>
<event>
 7    1  0.5902966E-013  0.5052885E+02  0.7816164E-02  0.1300439E+00
        -11   -1    0    0    0    0  0.00000000000E+00  0.00000000000E+00  0.45593999997E+02  0.45594000000E+02  0.51100000000E-03 0.  1.
         11   -1    0    0    0    0 -0.00000000000E+00 -0.00000000000E+00 -0.45593999997E+02  0.45594000000E+02  0.51100000000E-03 0. -1.
    9900012    2    1    2    0    0 -0.10937484441E+02  0.32865415693E+02  0.21293240044E+02  0.50528853598E+02  0.29999980998E+02 0.  0.
         12    1    1    2    0    0  0.10937484441E+02 -0.32865415693E+02 -0.21293240044E+02  0.40659146402E+02  0.00000000000E+00 0. -1.
         11    1    3    3    0    0  0.17103013764E+00  0.18119024638E+02  0.93936012152E+01  0.20409998755E+02  0.51100000000E-03 0.  1.
        -11    1    3    3    0    0 -0.65564744708E-01  0.70581000333E+01  0.14761421189E+02  0.16362170718E+02  0.51100000000E-03 0. -1.
         12    1    3    3    0    0 -0.11042949833E+02  0.76882910214E+01 -0.28617823601E+01  0.13756684126E+02  0.00000000000E+00 0. -1.
</event>
<event>
 7    1  0.5902966E-013  0.5052886E+02  0.7816164E-02  0.1300439E+00
        -11   -1    0    0    0    0  0.00000000000E+00  0.00000000000E+00  0.45593999997E+02  0.45594000000E+02  0.51100000000E-03 0. -1.
         11   -1    0    0    0    0 -0.00000000000E+00 -0.00000000000E+00 -0.45593999997E+02  0.45594000000E+02  0.51100000000E-03 0.  1.
    9900012    2    1    2    0    0 -0.22975050072E+02  0.17431593868E+02 -0.28660988124E+02  0.50528860427E+02  0.30000001753E+02 0.  0.
         12    1    1    2    0    0  0.22975050072E+02 -0.17431593868E+02  0.28660988124E+02  0.40659139573E+02  0.00000000000E+00 0. -1.
         11    1    3    3    0    0 -0.43617495168E+01  0.12491003755E+02 -0.41084695142E+01  0.13853864286E+02  0.51100000000E-03 0. -1.
        -11    1    3    3    0    0 -0.83201415688E+01  0.32012721417E+01  0.10975154472E+01  0.89820620944E+01  0.51100000000E-03 0.  1.
        -12    1    3    3    0    0 -0.10293158987E+02  0.17393179708E+01 -0.25650034057E+02  0.27692934046E+02  0.00000000000E+00 0.  1.
</event>
<event>
 7    1  0.5902966E-013  0.5052886E+02  0.7816164E-02  0.1300439E+00
        -11   -1    0    0    0    0  0.00000000000E+00  0.00000000000E+00  0.45593999997E+02  0.45594000000E+02  0.51100000000E-03 0. -1.
         11   -1    0    0    0    0 -0.00000000000E+00 -0.00000000000E+00 -0.45593999997E+02  0.45594000000E+02  0.51100000000E-03 0.  1.
    9900012    2    1    2    0    0 -0.22090965577E+02  0.33793697660E+02  0.48105261883E+01  0.50528856823E+02  0.29999990799E+02 0.  0.
         12    1    1    2    0    0  0.22090965577E+02 -0.33793697660E+02 -0.48105261883E+01  0.40659143177E+02  0.00000000000E+00 0. -1.
         11    1    3    3    0    0 -0.49315807904E+01  0.15670241144E+02  0.56548499652E+01  0.17373953925E+02  0.51100000000E-03 0. -1.
        -11    1    3    3    0    0 -0.14183331111E+02  0.22539674915E+02 -0.40530260640E+01  0.26937536027E+02  0.51100000000E-03 0.  1.
        -12    1    3    3    0    0 -0.29760536758E+01 -0.44162183994E+01  0.32087022871E+01  0.62173668703E+01  0.00000000000E+00 0.  1.
</event>
<event>
 7    1  0.5902966E-013  0.5052886E+02  0.7816164E-02  0.1300439E+00
        -11   -1    0    0    0    0  0.00000000000E+00  0.00000000000E+00  0.45593999997E+02  0.45594000000E+02  0.51100000000E-03 0. -1.
         11   -1    0    0    0    0 -0.00000000000E+00 -0.00000000000E+00 -0.45593999997E+02  0.45594000000E+02  0.51100000000E-03 0.  1.
    9900012    2    1    2    0    0  0.18820705612E+02 -0.30437034865E+02 -0.19301123376E+02  0.50528863085E+02  0.30000009833E+02 0.  0.
         12    1    1    2    0    0 -0.18820705612E+02  0.30437034865E+02  0.19301123376E+02  0.40659136915E+02  0.00000000000E+00 0. -1.
         11    1    3    3    0    0  0.15428414903E+02 -0.22368795724E+02 -0.20886399182E+02  0.34273031375E+02  0.51100000000E-03 0. -1.
        -11    1    3    3    0    0  0.18258160829E+01  0.23868572512E+01 -0.34253469297E+01  0.45567196267E+01  0.51100000000E-03 0.  1.
         12    1    3    3    0    0  0.15664746263E+01 -0.10455096393E+02  0.50106227365E+01  0.11699112083E+02  0.00000000000E+00 0. -1.
</event>
<event>
 7    1  0.5902966E-013  0.5052883E+02  0.7816164E-02  0.1300439E+00
        -11   -1    0    0    0    0  0.00000000000E+00  0.00000000000E+00  0.45593999997E+02  0.45594000000E+02  0.51100000000E-03 0. -1.
         11   -1    0    0    0    0 -0.00000000000E+00 -0.00000000000E+00 -0.45593999997E+02  0.45594000000E+02  0.51100000000E-03 0.  1.
    9900012    2    1    2    0    0  0.21060265150E+02 -0.34599496214E+02 -0.35366613527E+01  0.50528832768E+02  0.29999917682E+02 0.  0.
         12    1    1    2    0    0 -0.21060265150E+02  0.34599496214E+02  0.35366613527E+01  0.40659167232E+02  0.00000000000E+00 0. -1.
         11    1    3    3    0    0  0.84712926195E+01 -0.11064505758E+02 -0.63677101124E+00  0.13949608020E+02  0.51100000000E-03 0. -1.
        -11    1    3    3    0    0  0.14015852433E+02 -0.37223584464E+01  0.47994844394E+01  0.15275310896E+02  0.51100000000E-03 0.  1.
        -12    1    3    3    0    0 -0.14268799031E+01 -0.19812632010E+02 -0.76993747809E+01  0.21303913852E+02  0.00000000000E+00 0.  1.
</event>
<event>
 7    1  0.5902966E-013  0.5052887E+02  0.7816164E-02  0.1300439E+00
        -11   -1    0    0    0    0  0.00000000000E+00  0.00000000000E+00  0.45593999997E+02  0.45594000000E+02  0.51100000000E-03 0. -1.
         11   -1    0    0    0    0 -0.00000000000E+00 -0.00000000000E+00 -0.45593999997E+02  0.45594000000E+02  0.51100000000E-03 0.  1.
    9900012    2    1    2    0    0  0.13671282804E+02 -0.94988721280E+01 -0.37094909073E+02  0.50528870345E+02  0.30000031900E+02 0.  0.
         12    1    1    2    0    0 -0.13671282804E+02  0.94988721280E+01  0.37094909073E+02  0.40659129655E+02  0.00000000000E+00 0. -1.
         11    1    3    3    0    0 -0.59202348100E+01 -0.62017199396E+01 -0.11090900320E+02  0.14018508500E+02  0.51100000000E-03 0. -1.
        -11    1    3    3    0    0  0.13272839718E+02 -0.87506268464E+01 -0.10971801107E+02  0.19316370368E+02  0.51100000000E-03 0.  1.
         12    1    3    3    0    0  0.63186778955E+01  0.54534746581E+01 -0.15032207646E+02  0.17193991477E+02  0.00000000000E+00 0. -1.
</event>
<event>
 7    1  0.5902966E-013  0.5052885E+02  0.7816164E-02  0.1300439E+00
        -11   -1    0    0    0    0  0.00000000000E+00  0.00000000000E+00  0.45593999997E+02  0.45594000000E+02  0.51100000000E-03 0. -1.
         11   -1    0    0    0    0 -0.00000000000E+00 -0.00000000000E+00 -0.45593999997E+02  0.45594000000E+02  0.51100000000E-03 0.  1.
    9900012    2    1    2    0    0  0.29475256695E+02  0.30890882166E+00 -0.28005007952E+02  0.50528847865E+02  0.29999963571E+02 0.  0.
         12    1    1    2    0    0 -0.29475256695E+02 -0.30890882166E+00  0.28005007952E+02  0.40659152135E+02  0.00000000000E+00 0. -1.
         11    1    3    3    0    0  0.38611140182E+01 -0.14576611959E+01 -0.16798744233E+02  0.17298288519E+02  0.51100000000E-03 0.  1.
        -11    1    3    3    0    0 -0.69133074685E+00  0.38675538128E+01 -0.45563792979E+01  0.60163529869E+01  0.51100000000E-03 0. -1.
        -12    1    3    3    0    0  0.26305473424E+02 -0.21009837952E+01 -0.66498844216E+01  0.27214206360E+02  0.00000000000E+00 0.  1.
</event>
<event>
 7    1  0.5902966E-013  0.5052887E+02  0.7816164E-02  0.1300439E+00
        -11   -1    0    0    0    0  0.00000000000E+00  0.00000000000E+00  0.45593999997E+02  0.45594000000E+02  0.51100000000E-03 0.  1.
         11   -1    0    0    0    0 -0.00000000000E+00 -0.00000000000E+00 -0.45593999997E+02  0.45594000000E+02  0.51100000000E-03 0. -1.
    9900012    2    1    2    0    0 -0.17707318278E+02 -0.23311221059E+02  0.28217069652E+02  0.50528866123E+02  0.30000019068E+02 0.  0.
         12    1    1    2    0    0  0.17707318278E+02  0.23311221059E+02 -0.28217069652E+02  0.40659133877E+02  0.00000000000E+00 0. -1.
         11    1    3    3    0    0 -0.25009392842E+01 -0.83338296212E+01 -0.15766835088E+01  0.88427000744E+01  0.51100000000E-03 0. -1.
        -11    1    3    3    0    0  0.34102344708E-02 -0.78854479171E+00  0.17513272593E+02  0.17531016277E+02  0.51100000000E-03 0.  1.
         12    1    3    3    0    0 -0.15209789229E+02 -0.14188846646E+02  0.12280480567E+02  0.24155149772E+02  0.00000000000E+00 0. -1.
</event>
<event>
 7    1  0.5902966E-013  0.5052886E+02  0.7816164E-02  0.1300439E+00
        -11   -1    0    0    0    0  0.00000000000E+00  0.00000000000E+00  0.45593999997E+02  0.45594000000E+02  0.51100000000E-03 0. -1.
         11   -1    0    0    0    0 -0.00000000000E+00 -0.00000000000E+00 -0.45593999997E+02  0.45594000000E+02  0.51100000000E-03 0.  1.
    9900012    2    1    2    0    0  0.24898219988E+02  0.27520173695E+02 -0.16609763053E+02  0.50528861452E+02  0.30000004870E+02 0.  0.
         12    1    1    2    0    0 -0.24898219988E+02 -0.27520173695E+02  0.16609763053E+02  0.40659138548E+02  0.00000000000E+00 0. -1.
         11    1    3    3    0    0 -0.19845335299E+01  0.91879371941E+01 -0.43717858447E+01  0.10366729231E+02  0.51100000000E-03 0. -1.
        -11    1    3    3    0    0  0.12451908484E+02  0.19957510836E+02 -0.55251186832E+01  0.24163592456E+02  0.51100000000E-03 0.  1.
        -12    1    3    3    0    0  0.14430845033E+02 -0.16252743344E+01 -0.67128585250E+01  0.15998539765E+02  0.00000000000E+00 0.  1.
</event>
<event>
 7    1  0.5902966E-013  0.5052885E+02  0.7816164E-02  0.1300439E+00
        -11   -1    0    0    0    0  0.00000000000E+00  0.00000000000E+00  0.45593999997E+02  0.45594000000E+02  0.51100000000E-03 0.  1.
         11   -1    0    0    0    0 -0.00000000000E+00 -0.00000000000E+00 -0.45593999997E+02  0.45594000000E+02  0.51100000000E-03 0. -1.
    9900012    2    1    2    0    0  0.41463025877E+01 -0.29235066544E+02 -0.27951491157E+02  0.50528846063E+02  0.29999958093E+02 0.  0.
         12    1    1    2    0    0 -0.41463025877E+01  0.29235066544E+02  0.27951491157E+02  0.40659153937E+02  0.00000000000E+00 0. -1.
         11    1    3    3    0    0 -0.12116134721E+01  0.10716704290E+01  0.28641038071E+01  0.32893123283E+01  0.51100000000E-03 0. -1.
        -11    1    3    3    0    0  0.31508248703E+01 -0.12777087497E+02 -0.18200263042E+01  0.13285110397E+02  0.51100000000E-03 0.  1.
         12    1    3    3    0    0  0.22070911894E+01 -0.17529649476E+02 -0.28995568659E+02  0.33954423337E+02  0.00000000000E+00 0. -1.
</event>
<event>
 7    1  0.5902966E-013  0.5052886E+02  0.7816164E-02  0.1300439E+00
        -11   -1    0    0    0    0  0.00000000000E+00  0.00000000000E+00  0.45593999997E+02  0.45594000000E+02  0.51100000000E-03 0.  1.
         11   -1    0    0    0    0 -0.00000000000E+00 -0.00000000000E+00 -0.45593999997E+02  0.45594000000E+02  0.51100000000E-03 0. -1.
    9900012    2    1    2    0    0  0.38395334279E+02  0.11799112249E+02  0.63043821965E+01  0.50528856143E+02  0.29999988733E+02 0.  0.
         12    1    1    2    0    0 -0.38395334279E+02 -0.11799112249E+02 -0.63043821965E+01  0.40659143857E+02  0.00000000000E+00 0. -1.
         11    1    3    3    0    0  0.74280822896E+01  0.10011306871E+02  0.16783357006E+00  0.12467190547E+02  0.51100000000E-03 0. -1.
        -11    1    3    3    0    0  0.32499641859E+02  0.53148931694E+01  0.78461799785E+01  0.33853173424E+02  0.51100000000E-03 0.  1.
         12    1    3    3    0    0 -0.15323898694E+01 -0.35270877912E+01 -0.17096313521E+01  0.42084921717E+01  0.00000000000E+00 0. -1.
</event>
<event>
 7    1  0.5902966E-013  0.5052886E+02  0.7816164E-02  0.1300439E+00
        -11   -1    0    0    0    0  0.00000000000E+00  0.00000000000E+00  0.45593999997E+02  0.45594000000E+02  0.51100000000E-03 0.  1.
         11   -1    0    0    0    0 -0.00000000000E+00 -0.00000000000E+00 -0.45593999997E+02  0.45594000000E+02  0.51100000000E-03 0. -1.
    9900012    2    1    2    0    0 -0.30825127965E+02 -0.22977973680E+02  0.13228374320E+02  0.50528859876E+02  0.30000000078E+02 0.  0.
         12    1    1    2    0    0  0.30825127965E+02  0.22977973680E+02 -0.13228374320E+02  0.40659140124E+02  0.00000000000E+00 0. -1.
         11    1    3    3    0    0  0.35241321582E+01  0.11377269273E+01  0.15673678148E+01  0.40212649946E+01  0.51100000000E-03 0. -1.
        -11    1    3    3    0    0 -0.10383031544E+02  0.61002852733E+00  0.45185218265E+01  0.11340040503E+02  0.51100000000E-03 0.  1.
        -12    1    3    3    0    0 -0.23966228579E+02 -0.24725729135E+02  0.71424846785E+01  0.35167554378E+02  0.00000000000E+00 0.  1.
</event>
<event>
 7    1  0.5902966E-013  0.5052885E+02  0.7816164E-02  0.1300439E+00
        -11   -1    0    0    0    0  0.00000000000E+00  0.00000000000E+00  0.45593999997E+02  0.45594000000E+02  0.51100000000E-03 0. -1.
         11   -1    0    0    0    0 -0.00000000000E+00 -0.00000000000E+00 -0.45593999997E+02  0.45594000000E+02  0.51100000000E-03 0.  1.
    9900012    2    1    2    0    0  0.36975112111E+02  0.59261399073E+01  0.15839449876E+02  0.50528853155E+02  0.29999979650E+02 0.  0.
         12    1    1    2    0    0 -0.36975112111E+02 -0.59261399073E+01 -0.15839449876E+02  0.40659146845E+02  0.00000000000E+00 0. -1.
         11    1    3    3    0    0  0.16160530092E+02  0.96239393678E+01  0.10579280441E+02  0.21580178793E+02  0.51100000000E-03 0.  1.
        -11    1    3    3    0    0  0.13620381168E+01  0.56412793372E+01 -0.20667981976E+01  0.61604249401E+01  0.51100000000E-03 0. -1.
        -12    1    3    3    0    0  0.19452543902E+02 -0.93390787977E+01  0.73269676327E+01  0.22788249422E+02  0.00000000000E+00 0.  1.
</event>
<event>
 7    1  0.5902966E-013  0.5052885E+02  0.7816164E-02  0.1300439E+00
        -11   -1    0    0    0    0  0.00000000000E+00  0.00000000000E+00  0.45593999997E+02  0.45594000000E+02  0.51100000000E-03 0.  1.
         11   -1    0    0    0    0 -0.00000000000E+00 -0.00000000000E+00 -0.45593999997E+02  0.45594000000E+02  0.51100000000E-03 0. -1.
    9900012    2    1    2    0    0 -0.73831840558E+01 -0.17423639090E+02  0.35987102641E+02  0.50528853889E+02  0.29999981882E+02 0.  0.
         12    1    1    2    0    0  0.73831840558E+01  0.17423639090E+02 -0.35987102641E+02  0.40659146111E+02  0.00000000000E+00 0. -1.
         11    1    3    3    0    0  0.69876567010E+01  0.50161423942E+00  0.53910926354E+01  0.88398440643E+01  0.51100000000E-03 0. -1.
        -11    1    3    3    0    0 -0.14479270393E+02 -0.63839156587E+01  0.12238434294E+02  0.20004572589E+02  0.51100000000E-03 0.  1.
        -12    1    3    3    0    0  0.10842963654E+00 -0.11541337670E+02  0.18357575712E+02  0.21684437236E+02  0.00000000000E+00 0.  1.
</event>
<event>
 7    1  0.5902966E-013  0.5052886E+02  0.7816164E-02  0.1300439E+00
        -11   -1    0    0    0    0  0.00000000000E+00  0.00000000000E+00  0.45593999997E+02  0.45594000000E+02  0.51100000000E-03 0.  1.
         11   -1    0    0    0    0 -0.00000000000E+00 -0.00000000000E+00 -0.45593999997E+02  0.45594000000E+02  0.51100000000E-03 0. -1.
    9900012    2    1    2    0    0 -0.19641018896E+01  0.36690250720E+02  0.17410732275E+02  0.50528858439E+02  0.29999995711E+02 0.  0.
         12    1    1    2    0    0  0.19641018896E+01 -0.36690250720E+02 -0.17410732275E+02  0.40659141561E+02  0.00000000000E+00 0. -1.
         11    1    3    3    0    0 -0.47360080901E+01  0.48067473814E+01  0.10371359198E+02  0.12373345744E+02  0.51100000000E-03 0. -1.
        -11    1    3    3    0    0  0.29806398025E+01  0.13144377045E+02  0.12761487502E+02  0.18561099781E+02  0.51100000000E-03 0.  1.
        -12    1    3    3    0    0 -0.20873360200E+00  0.18739126293E+02 -0.57221144255E+01  0.19594412914E+02  0.00000000000E+00 0.  1.
</event>
<event>
 7    1  0.5902966E-013  0.5052886E+02  0.7816164E-02  0.1300439E+00
        -11   -1    0    0    0    0  0.00000000000E+00  0.00000000000E+00  0.45593999997E+02  0.45594000000E+02  0.51100000000E-03 0. -1.
         11   -1    0    0    0    0 -0.00000000000E+00 -0.00000000000E+00 -0.45593999997E+02  0.45594000000E+02  0.51100000000E-03 0.  1.
    9900012    2    1    2    0    0  0.15712022883E+01 -0.23194453659E+02 -0.33357378257E+02  0.50528855378E+02  0.29999986408E+02 0.  0.
         12    1    1    2    0    0 -0.15712022883E+01  0.23194453659E+02  0.33357378257E+02  0.40659144622E+02  0.00000000000E+00 0. -1.
         11    1    3    3    0    0  0.42568341930E+01  0.25637962388E+01 -0.10348895452E+02  0.11480127431E+02  0.51100000000E-03 0. -1.
        -11    1    3    3    0    0 -0.53813347712E+01  0.19068855589E+00 -0.50010879685E+01  0.73488779535E+01  0.51100000000E-03 0.  1.
        -12    1    3    3    0    0  0.26957028665E+01 -0.25948938454E+02 -0.18007394836E+02  0.31699849993E+02  0.00000000000E+00 0.  1.
</event>
<event>
 7    1  0.5902966E-013  0.5052883E+02  0.7816164E-02  0.1300439E+00
        -11   -1    0    0    0    0  0.00000000000E+00  0.00000000000E+00  0.45593999997E+02  0.45594000000E+02  0.51100000000E-03 0.  1.
         11   -1    0    0    0    0 -0.00000000000E+00 -0.00000000000E+00 -0.45593999997E+02  0.45594000000E+02  0.51100000000E-03 0. -1.
    9900012    2    1    2    0    0  0.79216271219E+01  0.22097445665E+02  0.33198178444E+02  0.50528827195E+02  0.29999900741E+02 0.  0.
         12    1    1    2    0    0 -0.79216271219E+01 -0.22097445665E+02 -0.33198178444E+02  0.40659172805E+02  0.00000000000E+00 0. -1.
         11    1    3    3    0    0  0.80735499314E+01  0.13644719477E+02  0.26423503560E+01  0.16073039345E+02  0.51100000000E-03 0. -1.
        -11    1    3    3    0    0  0.19479392612E+01 -0.31986599077E+01  0.46328626615E+01  0.59572904304E+01  0.51100000000E-03 0.  1.
        -12    1    3    3    0    0 -0.20998620707E+01  0.11651386096E+02  0.25922965427E+02  0.28498497420E+02  0.00000000000E+00 0.  1.
</event>
<event>
 7    1  0.5902966E-013  0.5052887E+02  0.7816164E-02  0.1300439E+00
        -11   -1    0    0    0    0  0.00000000000E+00  0.00000000000E+00  0.45593999997E+02  0.45594000000E+02  0.51100000000E-03 0.  1.
         11   -1    0    0    0    0 -0.00000000000E+00 -0.00000000000E+00 -0.45593999997E+02  0.45594000000E+02  0.51100000000E-03 0. -1.
    9900012    2    1    2    0    0 -0.22683506858E+02  0.74397676305E+01  0.32913117705E+02  0.50528868887E+02  0.30000027469E+02 0.  0.
         12    1    1    2    0    0  0.22683506858E+02 -0.74397676305E+01 -0.32913117705E+02  0.40659131113E+02  0.00000000000E+00 0. -1.
         11    1    3    3    0    0 -0.59870015155E+01 -0.58554406894E+01  0.80090205743E+01  0.11587699670E+02  0.51100000000E-03 0. -1.
        -11    1    3    3    0    0 -0.17880948652E+02  0.15136812173E+01  0.13067412257E+02  0.22198576956E+02  0.51100000000E-03 0.  1.
        -12    1    3    3    0    0  0.11844433089E+01  0.11781527103E+02  0.11836684873E+02  0.16742592261E+02  0.00000000000E+00 0.  1.
</event>
<event>
 7    1  0.5902966E-013  0.5052886E+02  0.7816164E-02  0.1300439E+00
        -11   -1    0    0    0    0  0.00000000000E+00  0.00000000000E+00  0.45593999997E+02  0.45594000000E+02  0.51100000000E-03 0. -1.
         11   -1    0    0    0    0 -0.00000000000E+00 -0.00000000000E+00 -0.45593999997E+02  0.45594000000E+02  0.51100000000E-03 0.  1.
    9900012    2    1    2    0    0 -0.22301346834E+02  0.33147345348E+02 -0.75543994604E+01  0.50528861723E+02  0.30000005692E+02 0.  0.
         12    1    1    2    0    0  0.22301346834E+02 -0.33147345348E+02  0.75543994604E+01  0.40659138277E+02  0.00000000000E+00 0. -1.
         11    1    3    3    0    0  0.22660598338E+01  0.58371767307E+00  0.23021221537E+01  0.32826087437E+01  0.51100000000E-03 0. -1.
        -11    1    3    3    0    0 -0.43804784300E+00  0.15166242510E+02 -0.86709046008E+01  0.17475450914E+02  0.51100000000E-03 0.  1.
         12    1    3    3    0    0 -0.24129358825E+02  0.17397385165E+02 -0.11856170133E+01  0.29770802065E+02  0.00000000000E+00 0. -1.
</event>
<event>
 7    1  0.5902966E-013  0.5052886E+02  0.7816164E-02  0.1300439E+00
        -11   -1    0    0    0    0  0.00000000000E+00  0.00000000000E+00  0.45593999997E+02  0.45594000000E+02  0.51100000000E-03 0. -1.
         11   -1    0    0    0    0 -0.00000000000E+00 -0.00000000000E+00 -0.45593999997E+02  0.45594000000E+02  0.51100000000E-03 0.  1.
    9900012    2    1    2    0    0 -0.91192750075E+01  0.21465847679E+02 -0.33304976723E+02  0.50528864891E+02  0.30000015324E+02 0.  0.
         12    1    1    2    0    0  0.91192750075E+01 -0.21465847679E+02  0.33304976723E+02  0.40659135109E+02  0.00000000000E+00 0. -1.
         11    1    3    3    0    0 -0.77955702579E+00  0.12728779311E+01  0.17948838792E+00  0.15033774397E+01  0.51100000000E-03 0. -1.
        -11    1    3    3    0    0 -0.18485831584E+02  0.96101284935E+01 -0.22792126311E+02  0.30879792114E+02  0.51100000000E-03 0.  1.
         12    1    3    3    0    0  0.10146113602E+02  0.10582841254E+02 -0.10692338801E+02  0.18145695337E+02  0.00000000000E+00 0. -1.
</event>
<event>
 7    1  0.5902966E-013  0.5052885E+02  0.7816164E-02  0.1300439E+00
        -11   -1    0    0    0    0  0.00000000000E+00  0.00000000000E+00  0.45593999997E+02  0.45594000000E+02  0.51100000000E-03 0. -1.
         11   -1    0    0    0    0 -0.00000000000E+00 -0.00000000000E+00 -0.45593999997E+02  0.45594000000E+02  0.51100000000E-03 0.  1.
    9900012    2    1    2    0    0 -0.21645557768E+02  0.32083899357E+02 -0.12460330620E+02  0.50528848408E+02  0.29999965220E+02 0.  0.
         12    1    1    2    0    0  0.21645557768E+02 -0.32083899357E+02  0.12460330620E+02  0.40659151592E+02  0.00000000000E+00 0. -1.
         11    1    3    3    0    0 -0.85918761968E+00  0.64906033068E+01 -0.96876068305E+01  0.11692555795E+02  0.51100000000E-03 0. -1.
        -11    1    3    3    0    0 -0.14542878846E+02  0.14988339859E+02 -0.11413419792E+02  0.23799407733E+02  0.51100000000E-03 0.  1.
        -12    1    3    3    0    0 -0.62434913018E+01  0.10604956192E+02  0.86406960028E+01  0.15036884879E+02  0.00000000000E+00 0.  1.
</event>
<event>
 7    1  0.5902966E-013  0.5052885E+02  0.7816164E-02  0.1300439E+00
        -11   -1    0    0    0    0  0.00000000000E+00  0.00000000000E+00  0.45593999997E+02  0.45594000000E+02  0.51100000000E-03 0. -1.
         11   -1    0    0    0    0 -0.00000000000E+00 -0.00000000000E+00 -0.45593999997E+02  0.45594000000E+02  0.51100000000E-03 0.  1.
    9900012    2    1    2    0    0 -0.31097541096E+01 -0.38970742590E+02  0.11170375828E+02  0.50528847958E+02  0.29999963852E+02 0.  0.
         12    1    1    2    0    0  0.31097541096E+01  0.38970742590E+02 -0.11170375828E+02  0.40659152042E+02  0.00000000000E+00 0. -1.
         11    1    3    3    0    0  0.41637876073E+01 -0.80681496711E+01  0.78649919243E+01  0.12012088269E+02  0.51100000000E-03 0. -1.
        -11    1    3    3    0    0  0.43465852544E+01 -0.75788296132E+01 -0.62713252416E+01  0.10754579593E+02  0.51100000000E-03 0.  1.
         12    1    3    3    0    0 -0.11620126971E+02 -0.23323763306E+02  0.95767091455E+01  0.27762180095E+02  0.00000000000E+00 0. -1.
</event>
<event>
 7    1  0.5902966E-013  0.5052886E+02  0.7816164E-02  0.1300439E+00
        -11   -1    0    0    0    0  0.00000000000E+00  0.00000000000E+00  0.45593999997E+02  0.45594000000E+02  0.51100000000E-03 0.  1.
         11   -1    0    0    0    0 -0.00000000000E+00 -0.00000000000E+00 -0.45593999997E+02  0.45594000000E+02  0.51100000000E-03 0. -1.
    9900012    2    1    2    0    0  0.32037432076E+02 -0.24272095968E+02 -0.61346521679E+01  0.50528860143E+02  0.30000000889E+02 0.  0.
         12    1    1    2    0    0 -0.32037432076E+02  0.24272095968E+02  0.61346521679E+01  0.40659139857E+02  0.00000000000E+00 0. -1.
         11    1    3    3    0    0  0.18059556440E+02  0.13050520141E+01 -0.62862031352E+01  0.19166822629E+02  0.51100000000E-03 0. -1.
        -11    1    3    3    0    0  0.83245500647E+01 -0.93969964599E+01 -0.49268823731E+01  0.13486135341E+02  0.51100000000E-03 0.  1.
        -12    1    3    3    0    0  0.56533255716E+01 -0.16180151523E+02  0.50784333404E+01  0.17875902173E+02  0.00000000000E+00 0.  1.
</event>
<event>
 7    1  0.5902966E-013  0.5052886E+02  0.7816164E-02  0.1300439E+00
        -11   -1    0    0    0    0  0.00000000000E+00  0.00000000000E+00  0.45593999997E+02  0.45594000000E+02  0.51100000000E-03 0.  1.
         11   -1    0    0    0    0 -0.00000000000E+00 -0.00000000000E+00 -0.45593999997E+02  0.45594000000E+02  0.51100000000E-03 0. -1.
    9900012    2    1    2    0    0  0.31203464757E+02  0.57134974485E+01  0.25433546281E+02  0.50528861515E+02  0.30000005062E+02 0.  0.
         12    1    1    2    0    0 -0.31203464757E+02 -0.57134974485E+01 -0.25433546281E+02  0.40659138485E+02  0.00000000000E+00 0. -1.
         11    1    3    3    0    0  0.80336939535E+01 -0.48232825068E+01 -0.14415192242E+01  0.94806260666E+01  0.51100000000E-03 0. -1.
        -11    1    3    3    0    0  0.21531428134E+02  0.12757776253E+02  0.15715207253E+02  0.29552174060E+02  0.51100000000E-03 0.  1.
         12    1    3    3    0    0  0.16383426696E+01 -0.22209962978E+01  0.11159858252E+02  0.11496061389E+02  0.00000000000E+00 0. -1.
</event>
<event>
 7    1  0.5902966E-013  0.5052886E+02  0.7816164E-02  0.1300439E+00
        -11   -1    0    0    0    0  0.00000000000E+00  0.00000000000E+00  0.45593999997E+02  0.45594000000E+02  0.51100000000E-03 0.  1.
         11   -1    0    0    0    0 -0.00000000000E+00 -0.00000000000E+00 -0.45593999997E+02  0.45594000000E+02  0.51100000000E-03 0. -1.
    9900012    2    1    2    0    0  0.22093842370E+02  0.28492762910E+02  0.18793347373E+02  0.50528864318E+02  0.30000013580E+02 0.  0.
         12    1    1    2    0    0 -0.22093842370E+02 -0.28492762910E+02 -0.18793347373E+02  0.40659135682E+02  0.00000000000E+00 0. -1.
         11    1    3    3    0    0 -0.40005810488E+00 -0.29814311217E+00 -0.31021688574E+01  0.31420355955E+01  0.51100000000E-03 0. -1.
        -11    1    3    3    0    0 -0.33465163270E+01  0.52163030786E+01  0.70545953464E+01  0.93902239110E+01  0.51100000000E-03 0.  1.
        -12    1    3    3    0    0  0.25840416802E+02  0.23574602944E+02  0.14840920884E+02  0.37996604811E+02  0.00000000000E+00 0.  1.
</event>
<event>
 7    1  0.5902966E-013  0.5052886E+02  0.7816164E-02  0.1300439E+00
        -11   -1    0    0    0    0  0.00000000000E+00  0.00000000000E+00  0.45593999997E+02  0.45594000000E+02  0.51100000000E-03 0.  1.
         11   -1    0    0    0    0 -0.00000000000E+00 -0.00000000000E+00 -0.45593999997E+02  0.45594000000E+02  0.51100000000E-03 0. -1.
    9900012    2    1    2    0    0  0.11597738656E+02  0.38838546358E+01  0.38775945237E+02  0.50528858373E+02  0.29999995512E+02 0.  0.
         12    1    1    2    0    0 -0.11597738656E+02 -0.38838546358E+01 -0.38775945237E+02  0.40659141627E+02  0.00000000000E+00 0. -1.
         11    1    3    3    0    0  0.27006379287E+01 -0.10876687991E+02  0.97340714264E+01  0.14844121182E+02  0.51100000000E-03 0. -1.
        -11    1    3    3    0    0 -0.26295573328E+01  0.24736287396E+01  0.76177438965E+01  0.84299130032E+01  0.51100000000E-03 0.  1.
        -12    1    3    3    0    0  0.11526658060E+02  0.12286913888E+02  0.21424129914E+02  0.27254824188E+02  0.00000000000E+00 0.  1.
</event>
<event>
 7    1  0.5902966E-013  0.5052886E+02  0.7816164E-02  0.1300439E+00
        -11   -1    0    0    0    0  0.00000000000E+00  0.00000000000E+00  0.45593999997E+02  0.45594000000E+02  0.51100000000E-03 0. -1.
         11   -1    0    0    0    0 -0.00000000000E+00 -0.00000000000E+00 -0.45593999997E+02  0.45594000000E+02  0.51100000000E-03 0.  1.
    9900012    2    1    2    0    0 -0.30831901275E+02 -0.26106709396E+02 -0.45824949388E+01  0.50528859925E+02  0.30000000229E+02 0.  0.
         12    1    1    2    0    0  0.30831901275E+02  0.26106709396E+02  0.45824949388E+01  0.40659140075E+02  0.00000000000E+00 0. -1.
         11    1    3    3    0    0 -0.16578913561E+02 -0.34657461562E+01  0.13594974943E+01  0.16991762857E+02  0.51100000000E-03 0. -1.
        -11    1    3    3    0    0 -0.34553724905E+01 -0.32457099810E+01  0.65343664072E+01  0.80729286466E+01  0.51100000000E-03 0.  1.
        -12    1    3    3    0    0 -0.10797615224E+02 -0.19395253259E+02 -0.12476358840E+02  0.25464168422E+02  0.00000000000E+00 0.  1.
</event>
<event>
 7    1  0.5902966E-013  0.5052885E+02  0.7816164E-02  0.1300439E+00
        -11   -1    0    0    0    0  0.00000000000E+00  0.00000000000E+00  0.45593999997E+02  0.45594000000E+02  0.51100000000E-03 0. -1.
         11   -1    0    0    0    0 -0.00000000000E+00 -0.00000000000E+00 -0.45593999997E+02  0.45594000000E+02  0.51100000000E-03 0.  1.
    9900012    2    1    2    0    0 -0.18594963603E+02 -0.35067394600E+02 -0.88131294634E+01  0.50528854825E+02  0.29999984728E+02 0.  0.
         12    1    1    2    0    0  0.18594963603E+02  0.35067394600E+02  0.88131294634E+01  0.40659145175E+02  0.00000000000E+00 0. -1.
         11    1    3    3    0    0 -0.10741429721E+02 -0.11460884294E+02  0.10464544132E+02  0.18874238141E+02  0.51100000000E-03 0.  1.
        -11    1    3    3    0    0 -0.57264659043E+01 -0.13576142484E+02 -0.98325905255E+01  0.17713946291E+02  0.51100000000E-03 0. -1.
        -12    1    3    3    0    0 -0.21270679775E+01 -0.10030367821E+02 -0.94450830701E+01  0.13940670393E+02  0.00000000000E+00 0.  1.
</event>
<event>
 7    1  0.5902966E-013  0.5052886E+02  0.7816164E-02  0.1300439E+00
        -11   -1    0    0    0    0  0.00000000000E+00  0.00000000000E+00  0.45593999997E+02  0.45594000000E+02  0.51100000000E-03 0.  1.
         11   -1    0    0    0    0 -0.00000000000E+00 -0.00000000000E+00 -0.45593999997E+02  0.45594000000E+02  0.51100000000E-03 0. -1.
    9900012    2    1    2    0    0 -0.30066443422E+02  0.25391838845E+02  0.10219074826E+02  0.50528856006E+02  0.29999988316E+02 0.  0.
         12    1    1    2    0    0  0.30066443422E+02 -0.25391838845E+02 -0.10219074826E+02  0.40659143994E+02  0.00000000000E+00 0. -1.
         11    1    3    3    0    0 -0.24000716821E+01  0.16063767354E+02  0.48846524633E+01  0.16960683820E+02  0.51100000000E-03 0. -1.
        -11    1    3    3    0    0 -0.20404352011E+02  0.83792484642E+01  0.10673838906E+02  0.24504697979E+02  0.51100000000E-03 0.  1.
        -12    1    3    3    0    0 -0.72620197295E+01  0.94882302731E+00 -0.53394165428E+01  0.90634742073E+01  0.00000000000E+00 0.  1.
</event>
<event>
 7    1  0.5902966E-013  0.5052887E+02  0.7816164E-02  0.1300439E+00
        -11   -1    0    0    0    0  0.00000000000E+00  0.00000000000E+00  0.45593999997E+02  0.45594000000E+02  0.51100000000E-03 0.  1.
         11   -1    0    0    0    0 -0.00000000000E+00 -0.00000000000E+00 -0.45593999997E+02  0.45594000000E+02  0.51100000000E-03 0. -1.
    9900012    2    1    2    0    0 -0.18804549282E+02  0.52824575577E+01  0.35660188406E+02  0.50528874718E+02  0.30000045192E+02 0.  0.
         12    1    1    2    0    0  0.18804549282E+02 -0.52824575577E+01 -0.35660188406E+02  0.40659125282E+02  0.00000000000E+00 0. -1.
         11    1    3    3    0    0  0.94171697958E+00  0.25477099386E+01 -0.17371099101E+00  0.27217333761E+01  0.51100000000E-03 0. -1.
        -11    1    3    3    0    0 -0.17621916437E+02 -0.58688473246E+01  0.11345495381E+02  0.21764548549E+02  0.51100000000E-03 0.  1.
         12    1    3    3    0    0 -0.21243498254E+01  0.86035949436E+01  0.24488404016E+02  0.26042592793E+02  0.00000000000E+00 0. -1.
</event>
<event>
 7    1  0.5902966E-013  0.5052888E+02  0.7816164E-02  0.1300439E+00
        -11   -1    0    0    0    0  0.00000000000E+00  0.00000000000E+00  0.45593999997E+02  0.45594000000E+02  0.51100000000E-03 0.  1.
         11   -1    0    0    0    0 -0.00000000000E+00 -0.00000000000E+00 -0.45593999997E+02  0.45594000000E+02  0.51100000000E-03 0. -1.
    9900012    2    1    2    0    0 -0.79533067977E+01  0.38559708457E+02  0.10151731077E+02  0.50528882337E+02  0.30000068350E+02 0.  0.
         12    1    1    2    0    0  0.79533067977E+01 -0.38559708457E+02 -0.10151731077E+02  0.40659117663E+02  0.00000000000E+00 0. -1.
         11    1    3    3    0    0 -0.41778882907E+01  0.13452084782E+02 -0.59523617548E+01  0.15291956914E+02  0.51100000000E-03 0. -1.
        -11    1    3    3    0    0 -0.76595085593E+00  0.23910095830E+02  0.60521916533E+01  0.24676069123E+02  0.51100000000E-03 0.  1.
         12    1    3    3    0    0 -0.30094676511E+01  0.11975278458E+01  0.10051901178E+02  0.10560856299E+02  0.00000000000E+00 0. -1.
</event>
<event>
 7    1  0.5974008E-013  0.5052885E+02  0.7816164E-02  0.1300439E+00
        -11   -1    0    0    0    0  0.00000000000E+00  0.00000000000E+00  0.45593999997E+02  0.45594000000E+02  0.51100000000E-03 0. -1.
         11   -1    0    0    0    0 -0.00000000000E+00 -0.00000000000E+00 -0.45593999997E+02  0.45594000000E+02  0.51100000000E-03 0.  1.
    9900012    2    1    2    0    0 -0.31197401994E+02 -0.86473878187E+01 -0.24599015856E+02  0.50528846193E+02  0.29999958488E+02 0.  0.
         12    1    1    2    0    0  0.31197401994E+02  0.86473878187E+01  0.24599015856E+02  0.40659153807E+02  0.00000000000E+00 0. -1.
         11    1    3    3    0    0 -0.49002790589E+01 -0.42965560740E+00  0.46109601294E+01  0.67422764977E+01  0.51100000000E-03 0. -1.
        -11    1    3    3    0    0 -0.19301075859E+02 -0.22461842409E+01 -0.86634508030E+01  0.21275155770E+02  0.51100000000E-03 0.  1.
        -12    1    3    3    0    0 -0.69960470756E+01 -0.59715479704E+01 -0.20546525182E+02  0.22511413925E+02  0.00000000000E+00 0.  1.
</event>
<event>
 7    1  0.5902966E-013  0.5052884E+02  0.7816164E-02  0.1300439E+00
        -11   -1    0    0    0    0  0.00000000000E+00  0.00000000000E+00  0.45593999997E+02  0.45594000000E+02  0.51100000000E-03 0.  1.
         11   -1    0    0    0    0 -0.00000000000E+00 -0.00000000000E+00 -0.45593999997E+02  0.45594000000E+02  0.51100000000E-03 0. -1.
    9900012    2    1    2    0    0  0.23398668436E+02 -0.53496926328E+01  0.32818444514E+02  0.50528841177E+02  0.29999943243E+02 0.  0.
         12    1    1    2    0    0 -0.23398668436E+02  0.53496926328E+01 -0.32818444514E+02  0.40659158823E+02  0.00000000000E+00 0. -1.
         11    1    3    3    0    0  0.13266388217E+01 -0.21756043188E+00 -0.31783466776E+01  0.34509695694E+01  0.51100000000E-03 0. -1.
        -11    1    3    3    0    0  0.56675531909E+01  0.74414659247E+01  0.82034541006E+01  0.12441592893E+02  0.51100000000E-03 0.  1.
        -12    1    3    3    0    0  0.16404476423E+02 -0.12573598126E+02  0.27793337091E+02  0.34636278715E+02  0.00000000000E+00 0.  1.
</event>
<event>
 7    1  0.5902966E-013  0.5052886E+02  0.7816164E-02  0.1300439E+00
        -11   -1    0    0    0    0  0.00000000000E+00  0.00000000000E+00  0.45593999997E+02  0.45594000000E+02  0.51100000000E-03 0.  1.
         11   -1    0    0    0    0 -0.00000000000E+00 -0.00000000000E+00 -0.45593999997E+02  0.45594000000E+02  0.51100000000E-03 0. -1.
    9900012    2    1    2    0    0  0.24693801593E-01 -0.18216333268E+02  0.36350108413E+02  0.50528858480E+02  0.29999995836E+02 0.  0.
         12    1    1    2    0    0 -0.24693801593E-01  0.18216333268E+02 -0.36350108413E+02  0.40659141520E+02  0.00000000000E+00 0. -1.
         11    1    3    3    0    0 -0.50070102168E+01 -0.23218121830E+02  0.17218340021E+02  0.29336369338E+02  0.51100000000E-03 0. -1.
        -11    1    3    3    0    0  0.27689419525E+01 -0.31305128860E+00  0.10051144864E+02  0.10430271040E+02  0.51100000000E-03 0.  1.
        -12    1    3    3    0    0  0.22627620660E+01  0.53148398501E+01  0.90806235280E+01  0.10762218101E+02  0.00000000000E+00 0.  1.
</event>
<event>
 7    1  0.5902966E-013  0.5052886E+02  0.7816164E-02  0.1300439E+00
        -11   -1    0    0    0    0  0.00000000000E+00  0.00000000000E+00  0.45593999997E+02  0.45594000000E+02  0.51100000000E-03 0.  1.
         11   -1    0    0    0    0 -0.00000000000E+00 -0.00000000000E+00 -0.45593999997E+02  0.45594000000E+02  0.51100000000E-03 0. -1.
    9900012    2    1    2    0    0  0.31107348361E+02 -0.14755159476E+02  0.21628314341E+02  0.50528857923E+02  0.29999994142E+02 0.  0.
         12    1    1    2    0    0 -0.31107348361E+02  0.14755159476E+02 -0.21628314341E+02  0.40659142077E+02  0.00000000000E+00 0. -1.
         11    1    3    3    0    0  0.12704380026E+02 -0.16817236765E+02  0.14055985313E+02  0.25333603132E+02  0.51100000000E-03 0. -1.
        -11    1    3    3    0    0  0.14431085807E+02 -0.15803268331E+01  0.11505243975E+02  0.18523614918E+02  0.51100000000E-03 0.  1.
        -12    1    3    3    0    0  0.39718825286E+01  0.36424041218E+01 -0.39329149473E+01  0.66716398726E+01  0.00000000000E+00 0.  1.
</event>
<event>
 7    1  0.5902966E-013  0.5052886E+02  0.7816164E-02  0.1300439E+00
        -11   -1    0    0    0    0  0.00000000000E+00  0.00000000000E+00  0.45593999997E+02  0.45594000000E+02  0.51100000000E-03 0. -1.
         11   -1    0    0    0    0 -0.00000000000E+00 -0.00000000000E+00 -0.45593999997E+02  0.45594000000E+02  0.51100000000E-03 0.  1.
    9900012    2    1    2    0    0 -0.32949994680E+02 -0.22749900612E+02 -0.70644029624E+01  0.50528856913E+02  0.29999991074E+02 0.  0.
         12    1    1    2    0    0  0.32949994680E+02  0.22749900612E+02  0.70644029624E+01  0.40659143087E+02  0.00000000000E+00 0. -1.
         11    1    3    3    0    0 -0.18199775169E+02  0.56022096666E+00 -0.58756277635E+01  0.19132920990E+02  0.51100000000E-03 0. -1.
        -11    1    3    3    0    0 -0.13834734311E+02 -0.10989821722E+02  0.37998444240E+01  0.18072489393E+02  0.51100000000E-03 0.  1.
        -12    1    3    3    0    0 -0.91548520023E+00 -0.12320299857E+02 -0.49886196229E+01  0.13323446530E+02  0.00000000000E+00 0.  1.
</event>
<event>
 7    1  0.5902966E-013  0.5052886E+02  0.7816164E-02  0.1300439E+00
        -11   -1    0    0    0    0  0.00000000000E+00  0.00000000000E+00  0.45593999997E+02  0.45594000000E+02  0.51100000000E-03 0. -1.
         11   -1    0    0    0    0 -0.00000000000E+00 -0.00000000000E+00 -0.45593999997E+02  0.45594000000E+02  0.51100000000E-03 0.  1.
    9900012    2    1    2    0    0  0.27841731961E+02  0.29598639196E+02 -0.13872362710E+01  0.50528857052E+02  0.29999991495E+02 0.  0.
         12    1    1    2    0    0 -0.27841731961E+02 -0.29598639196E+02  0.13872362710E+01  0.40659142948E+02  0.00000000000E+00 0. -1.
         11    1    3    3    0    0  0.13376983624E+02  0.21758510719E+02  0.11127879139E+02  0.27860476916E+02  0.51100000000E-03 0. -1.
        -11    1    3    3    0    0  0.81384798454E+01  0.15558583902E+01 -0.13753258624E+01  0.83992303822E+01  0.51100000000E-03 0.  1.
        -12    1    3    3    0    0  0.63262684911E+01  0.62842700863E+01 -0.11139789547E+02  0.14269149754E+02  0.00000000000E+00 0.  1.
</event>
<event>
 7    1  0.8009213E-013  0.5052885E+02  0.7816164E-02  0.1300439E+00
        -11   -1    0    0    0    0  0.00000000000E+00  0.00000000000E+00  0.45593999997E+02  0.45594000000E+02  0.51100000000E-03 0. -1.
         11   -1    0    0    0    0 -0.00000000000E+00 -0.00000000000E+00 -0.45593999997E+02  0.45594000000E+02  0.51100000000E-03 0.  1.
    9900012    2    1    2    0    0  0.12444495043E+02 -0.32153015992E+02 -0.21551908279E+02  0.50528847959E+02  0.29999963855E+02 0.  0.
         12    1    1    2    0    0 -0.12444495043E+02  0.32153015992E+02  0.21551908279E+02  0.40659152041E+02  0.00000000000E+00 0. -1.
         11    1    3    3    0    0  0.80490128201E+01 -0.74363768990E+01  0.25230337342E+01  0.11245088183E+02  0.51100000000E-03 0. -1.
        -11    1    3    3    0    0 -0.56456369298E+01 -0.20732261958E+01 -0.68381867827E+01  0.91067163094E+01  0.51100000000E-03 0.  1.
        -12    1    3    3    0    0  0.10041119153E+02 -0.22643412897E+02 -0.17236755231E+02  0.30177043466E+02  0.00000000000E+00 0.  1.
</event>
<event>
 7    1  0.5902966E-013  0.5052886E+02  0.7816164E-02  0.1300439E+00
        -11   -1    0    0    0    0  0.00000000000E+00  0.00000000000E+00  0.45593999997E+02  0.45594000000E+02  0.51100000000E-03 0. -1.
         11   -1    0    0    0    0 -0.00000000000E+00 -0.00000000000E+00 -0.45593999997E+02  0.45594000000E+02  0.51100000000E-03 0.  1.
    9900012    2    1    2    0    0  0.11038329837E+02  0.34637014238E+02 -0.18209840018E+02  0.50528858907E+02  0.29999997135E+02 0.  0.
         12    1    1    2    0    0 -0.11038329837E+02 -0.34637014238E+02  0.18209840018E+02  0.40659141093E+02  0.00000000000E+00 0. -1.
         11    1    3    3    0    0 -0.13633625459E+01  0.10667825368E+02  0.26142651045E+01  0.11067774745E+02  0.51100000000E-03 0. -1.
        -11    1    3    3    0    0  0.68063696792E+01  0.21326068789E+02 -0.23731618281E+02  0.32623880589E+02  0.51100000000E-03 0.  1.
         12    1    3    3    0    0  0.55953227042E+01  0.26431200813E+01  0.29075131590E+01  0.68372035729E+01  0.00000000000E+00 0. -1.
</event>
<event>
 7    1  0.5902966E-013  0.5052886E+02  0.7816164E-02  0.1300439E+00
        -11   -1    0    0    0    0  0.00000000000E+00  0.00000000000E+00  0.45593999997E+02  0.45594000000E+02  0.51100000000E-03 0. -1.
         11   -1    0    0    0    0 -0.00000000000E+00 -0.00000000000E+00 -0.45593999997E+02  0.45594000000E+02  0.51100000000E-03 0.  1.
    9900012    2    1    2    0    0  0.40422168128E+02  0.34520851182E+00 -0.43698046883E+01  0.50528855418E+02  0.29999986530E+02 0.  0.
         12    1    1    2    0    0 -0.40422168128E+02 -0.34520851182E+00  0.43698046883E+01  0.40659144582E+02  0.00000000000E+00 0. -1.
         11    1    3    3    0    0 -0.35423353634E+01  0.13416486061E+01  0.18998312279E+01  0.42376313861E+01  0.51100000000E-03 0. -1.
        -11    1    3    3    0    0  0.11113668019E+02 -0.43542001542E+01 -0.57885100065E+01  0.13265727428E+02  0.51100000000E-03 0.  1.
         12    1    3    3    0    0  0.32850835472E+02  0.33577600600E+01 -0.48112590976E+00  0.33025496605E+02  0.00000000000E+00 0. -1.
</event>
<event>
 7    1  0.5902966E-013  0.5052891E+02  0.7816164E-02  0.1300439E+00
        -11   -1    0    0    0    0  0.00000000000E+00  0.00000000000E+00  0.45593999997E+02  0.45594000000E+02  0.51100000000E-03 0. -1.
         11   -1    0    0    0    0 -0.00000000000E+00 -0.00000000000E+00 -0.45593999997E+02  0.45594000000E+02  0.51100000000E-03 0.  1.
    9900012    2    1    2    0    0  0.36044012303E+02 -0.17273815322E+02 -0.74569662236E+01  0.50528906750E+02  0.30000142557E+02 0.  0.
         12    1    1    2    0    0 -0.36044012303E+02  0.17273815322E+02  0.74569662236E+01  0.40659093250E+02  0.00000000000E+00 0. -1.
         11    1    3    3    0    0  0.97147740374E+00  0.30352528694E+01  0.41163205545E+00  0.32134046645E+01  0.51100000000E-03 0. -1.
        -11    1    3    3    0    0  0.19898764959E+02 -0.62534862022E+01  0.68224150288E+01  0.21945666626E+02  0.51100000000E-03 0.  1.
        -12    1    3    3    0    0  0.15173769940E+02 -0.14055581989E+02 -0.14691013308E+02  0.25369835460E+02  0.00000000000E+00 0.  1.
</event>
<event>
 7    1  0.5902966E-013  0.5052887E+02  0.7816164E-02  0.1300439E+00
        -11   -1    0    0    0    0  0.00000000000E+00  0.00000000000E+00  0.45593999997E+02  0.45594000000E+02  0.51100000000E-03 0. -1.
         11   -1    0    0    0    0 -0.00000000000E+00 -0.00000000000E+00 -0.45593999997E+02  0.45594000000E+02  0.51100000000E-03 0.  1.
    9900012    2    1    2    0    0 -0.92966093129E+00  0.37692585493E+02 -0.15217416959E+02  0.50528867576E+02  0.30000023483E+02 0.  0.
         12    1    1    2    0    0  0.92966093129E+00 -0.37692585493E+02  0.15217416959E+02  0.40659132424E+02  0.00000000000E+00 0. -1.
         11    1    3    3    0    0 -0.63836537200E+01  0.17367773889E+02 -0.12471837288E+02  0.22314509411E+02  0.51100000000E-03 0. -1.
        -11    1    3    3    0    0 -0.15190683728E+01  0.20591432185E+02  0.17890881143E+00  0.20648163521E+02  0.51100000000E-03 0.  1.
         12    1    3    3    0    0  0.69730611615E+01 -0.26662058111E+00 -0.29244884821E+01  0.75661946432E+01  0.00000000000E+00 0. -1.
</event>
<event>
 7    1  0.5902966E-013  0.5052883E+02  0.7816164E-02  0.1300439E+00
        -11   -1    0    0    0    0  0.00000000000E+00  0.00000000000E+00  0.45593999997E+02  0.45594000000E+02  0.51100000000E-03 0.  1.
         11   -1    0    0    0    0 -0.00000000000E+00 -0.00000000000E+00 -0.45593999997E+02  0.45594000000E+02  0.51100000000E-03 0. -1.
    9900012    2    1    2    0    0  0.10582443066E+01  0.39285018598E+02  0.10427651965E+02  0.50528825233E+02  0.29999894777E+02 0.  0.
         12    1    1    2    0    0 -0.10582443066E+01 -0.39285018598E+02 -0.10427651965E+02  0.40659174767E+02  0.00000000000E+00 0. -1.
         11    1    3    3    0    0 -0.83515690993E+01  0.97978862769E+01  0.32565836252E+01  0.13279782343E+02  0.51100000000E-03 0. -1.
        -11    1    3    3    0    0  0.71837527000E+00 -0.27107409093E+01  0.21264005556E+01  0.35193406897E+01  0.51100000000E-03 0.  1.
        -12    1    3    3    0    0  0.86914381359E+01  0.32197873230E+02  0.50446677838E+01  0.33729702200E+02  0.00000000000E+00 0.  1.
</event>
<event>
 7    1  0.5902966E-013  0.5052886E+02  0.7816164E-02  0.1300439E+00
        -11   -1    0    0    0    0  0.00000000000E+00  0.00000000000E+00  0.45593999997E+02  0.45594000000E+02  0.51100000000E-03 0.  1.
         11   -1    0    0    0    0 -0.00000000000E+00 -0.00000000000E+00 -0.45593999997E+02  0.45594000000E+02  0.51100000000E-03 0. -1.
    9900012    2    1    2    0    0 -0.12791629904E+02 -0.22767572588E+02  0.31163714929E+02  0.50528864676E+02  0.30000014668E+02 0.  0.
         12    1    1    2    0    0  0.12791629904E+02  0.22767572588E+02 -0.31163714929E+02  0.40659135324E+02  0.00000000000E+00 0. -1.
         11    1    3    3    0    0 -0.92581620566E+01 -0.20086066672E+02  0.22349536694E+02  0.31443050579E+02  0.51100000000E-03 0. -1.
        -11    1    3    3    0    0 -0.95683429875E+01 -0.31252789238E+01  0.82382862632E+01  0.13007302437E+02  0.51100000000E-03 0.  1.
         12    1    3    3    0    0  0.60348751398E+01  0.44377300744E+00  0.57589197194E+00  0.60785116598E+01  0.00000000000E+00 0. -1.
</event>
<event>
 7    1  0.5902966E-013  0.5052886E+02  0.7816164E-02  0.1300439E+00
        -11   -1    0    0    0    0  0.00000000000E+00  0.00000000000E+00  0.45593999997E+02  0.45594000000E+02  0.51100000000E-03 0.  1.
         11   -1    0    0    0    0 -0.00000000000E+00 -0.00000000000E+00 -0.45593999997E+02  0.45594000000E+02  0.51100000000E-03 0. -1.
    9900012    2    1    2    0    0 -0.55830115598E+01  0.17285955316E+02  0.36375699527E+02  0.50528858527E+02  0.29999995978E+02 0.  0.
         12    1    1    2    0    0  0.55830115598E+01 -0.17285955316E+02 -0.36375699527E+02  0.40659141473E+02  0.00000000000E+00 0. -1.
         11    1    3    3    0    0  0.50073582620E+01  0.10930709018E+01  0.10789942973E+02  0.11945346809E+02  0.51100000000E-03 0. -1.
        -11    1    3    3    0    0 -0.12615487247E+01  0.14474068407E+02  0.25201829667E+02  0.29089901689E+02  0.51100000000E-03 0.  1.
         12    1    3    3    0    0 -0.93288210971E+01  0.17188160075E+01  0.38392688626E+00  0.94936100291E+01  0.00000000000E+00 0. -1.
</event>
<event>
 7    1  0.5902966E-013  0.5052886E+02  0.7816164E-02  0.1300439E+00
        -11   -1    0    0    0    0  0.00000000000E+00  0.00000000000E+00  0.45593999997E+02  0.45594000000E+02  0.51100000000E-03 0.  1.
         11   -1    0    0    0    0 -0.00000000000E+00 -0.00000000000E+00 -0.45593999997E+02  0.45594000000E+02  0.51100000000E-03 0. -1.
    9900012    2    1    2    0    0 -0.27106909718E+02 -0.24805455504E+02  0.17408929455E+02  0.50528855862E+02  0.29999987879E+02 0.  0.
         12    1    1    2    0    0  0.27106909718E+02  0.24805455504E+02 -0.17408929455E+02  0.40659144138E+02  0.00000000000E+00 0. -1.
         11    1    3    3    0    0 -0.85783824135E+01 -0.14082364568E+02  0.29503994837E+01  0.16751313203E+02  0.51100000000E-03 0.  1.
        -11    1    3    3    0    0 -0.22786037212E+02 -0.11133347600E+02  0.91508952074E+01  0.26960968157E+02  0.51100000000E-03 0. -1.
         12    1    3    3    0    0  0.42575099075E+01  0.41025666447E+00  0.53076347644E+01  0.68165745015E+01  0.00000000000E+00 0. -1.
</event>
<event>
 7    1  0.5902966E-013  0.5052887E+02  0.7816164E-02  0.1300439E+00
        -11   -1    0    0    0    0  0.00000000000E+00  0.00000000000E+00  0.45593999997E+02  0.45594000000E+02  0.51100000000E-03 0.  1.
         11   -1    0    0    0    0 -0.00000000000E+00 -0.00000000000E+00 -0.45593999997E+02  0.45594000000E+02  0.51100000000E-03 0. -1.
    9900012    2    1    2    0    0  0.21240682258E+02  0.30983730694E+02  0.15556569801E+02  0.50528868006E+02  0.30000024792E+02 0.  0.
         12    1    1    2    0    0 -0.21240682258E+02 -0.30983730694E+02 -0.15556569801E+02  0.40659131994E+02  0.00000000000E+00 0. -1.
         11    1    3    3    0    0  0.15473167584E+02  0.20788662465E+02  0.14727185062E+02  0.29807337726E+02  0.51100000000E-03 0. -1.
        -11    1    3    3    0    0 -0.23175458895E+01  0.98766563381E+00  0.66828057824E+01  0.71418762059E+01  0.51100000000E-03 0.  1.
         12    1    3    3    0    0  0.80850605634E+01  0.92074025950E+01 -0.58534210438E+01  0.13579654074E+02  0.00000000000E+00 0. -1.
</event>
<event>
 7    1  0.5902966E-013  0.5052891E+02  0.7816164E-02  0.1300439E+00
        -11   -1    0    0    0    0  0.00000000000E+00  0.00000000000E+00  0.45593999997E+02  0.45594000000E+02  0.51100000000E-03 0.  1.
         11   -1    0    0    0    0 -0.00000000000E+00 -0.00000000000E+00 -0.45593999997E+02  0.45594000000E+02  0.51100000000E-03 0. -1.
    9900012    2    1    2    0    0 -0.22976840389E+02  0.33533120922E+02  0.86970031306E+00  0.50528907884E+02  0.30000146005E+02 0.  0.
         12    1    1    2    0    0  0.22976840389E+02 -0.33533120922E+02 -0.86970031306E+00  0.40659092116E+02  0.00000000000E+00 0. -1.
         11    1    3    3    0    0  0.74969744038E+00  0.21439746096E+02  0.47539026019E+00  0.21458116299E+02  0.51100000000E-03 0. -1.
        -11    1    3    3    0    0 -0.19225440814E+01  0.17876712931E+01  0.38991995586E+01  0.47006065413E+01  0.51100000000E-03 0.  1.
        -12    1    3    3    0    0 -0.21803993748E+02  0.10305703533E+02 -0.35048895058E+01  0.24370185045E+02  0.00000000000E+00 0.  1.
</event>
<event>
 7    1  0.5902966E-013  0.5052886E+02  0.7816164E-02  0.1300439E+00
        -11   -1    0    0    0    0  0.00000000000E+00  0.00000000000E+00  0.45593999997E+02  0.45594000000E+02  0.51100000000E-03 0. -1.
         11   -1    0    0    0    0 -0.00000000000E+00 -0.00000000000E+00 -0.45593999997E+02  0.45594000000E+02  0.51100000000E-03 0.  1.
    9900012    2    1    2    0    0  0.93839909076E+01  0.32982713237E+02 -0.21845984172E+02  0.50528859794E+02  0.29999999831E+02 0.  0.
         12    1    1    2    0    0 -0.93839909076E+01 -0.32982713237E+02  0.21845984172E+02  0.40659140206E+02  0.00000000000E+00 0. -1.
         11    1    3    3    0    0 -0.11258106869E+01  0.20374220902E+02  0.11105350966E+00  0.20405603647E+02  0.51100000000E-03 0. -1.
        -11    1    3    3    0    0  0.13638058301E+01  0.10362897662E+02 -0.15536640390E+02  0.18725298640E+02  0.51100000000E-03 0.  1.
        -12    1    3    3    0    0  0.91459957643E+01  0.22455946737E+01 -0.64203972922E+01  0.11397957508E+02  0.00000000000E+00 0.  1.
</event>
<event>
 7    1  0.5902966E-013  0.5052887E+02  0.7816164E-02  0.1300439E+00
        -11   -1    0    0    0    0  0.00000000000E+00  0.00000000000E+00  0.45593999997E+02  0.45594000000E+02  0.51100000000E-03 0. -1.
         11   -1    0    0    0    0 -0.00000000000E+00 -0.00000000000E+00 -0.45593999997E+02  0.45594000000E+02  0.51100000000E-03 0.  1.
    9900012    2    1    2    0    0 -0.11212569522E+02 -0.16624956056E+02 -0.35370246154E+02  0.50528865822E+02  0.30000018151E+02 0.  0.
         12    1    1    2    0    0  0.11212569522E+02  0.16624956056E+02  0.35370246154E+02  0.40659134178E+02  0.00000000000E+00 0. -1.
         11    1    3    3    0    0  0.78636133532E+00 -0.20949620090E+02 -0.12850029811E+02  0.24589188935E+02  0.51100000000E-03 0. -1.
        -11    1    3    3    0    0 -0.36773006072E+01  0.10717205773E+01 -0.83685416279E+01  0.92034566327E+01  0.51100000000E-03 0.  1.
         12    1    3    3    0    0 -0.83216302496E+01  0.32529434567E+01 -0.14151674715E+02  0.16736220254E+02  0.00000000000E+00 0. -1.
</event>
<event>
 7    1  0.5902966E-013  0.5052884E+02  0.7816164E-02  0.1300439E+00
        -11   -1    0    0    0    0  0.00000000000E+00  0.00000000000E+00  0.45593999997E+02  0.45594000000E+02  0.51100000000E-03 0.  1.
         11   -1    0    0    0    0 -0.00000000000E+00 -0.00000000000E+00 -0.45593999997E+02  0.45594000000E+02  0.51100000000E-03 0. -1.
    9900012    2    1    2    0    0 -0.19739886135E+02 -0.93682750340E+01  0.34289060210E+02  0.50528839509E+02  0.29999938173E+02 0.  0.
         12    1    1    2    0    0  0.19739886135E+02  0.93682750340E+01 -0.34289060210E+02  0.40659160491E+02  0.00000000000E+00 0. -1.
         11    1    3    3    0    0 -0.70377546409E+01 -0.55422319696E+01 -0.17113511252E+01  0.91200355550E+01  0.51100000000E-03 0. -1.
        -11    1    3    3    0    0 -0.91167321263E+01 -0.26011558164E+01  0.61092346197E+01  0.11278455752E+02  0.51100000000E-03 0.  1.
        -12    1    3    3    0    0 -0.35853993683E+01 -0.12248872481E+01  0.29891176715E+02  0.30130348203E+02  0.00000000000E+00 0.  1.
</event>
<event>
 7    1  0.5902966E-013  0.5052886E+02  0.7816164E-02  0.1300439E+00
        -11   -1    0    0    0    0  0.00000000000E+00  0.00000000000E+00  0.45593999997E+02  0.45594000000E+02  0.51100000000E-03 0. -1.
         11   -1    0    0    0    0 -0.00000000000E+00 -0.00000000000E+00 -0.45593999997E+02  0.45594000000E+02  0.51100000000E-03 0.  1.
    9900012    2    1    2    0    0  0.22897598105E+02  0.33596540867E+02 -0.37149372493E+00  0.50528861239E+02  0.30000004221E+02 0.  0.
         12    1    1    2    0    0 -0.22897598105E+02 -0.33596540867E+02  0.37149372493E+00  0.40659138761E+02  0.00000000000E+00 0. -1.
         11    1    3    3    0    0  0.52483172783E+00  0.29465136456E+00  0.17244515924E+01  0.18264723717E+01  0.51100000000E-03 0. -1.
        -11    1    3    3    0    0  0.14739904898E+02  0.31137838341E+02 -0.11573487806E+02  0.36342473680E+02  0.51100000000E-03 0.  1.
        -12    1    3    3    0    0  0.76328614797E+01  0.21640511621E+01  0.94775424889E+01  0.12359915187E+02  0.00000000000E+00 0.  1.
</event>
<event>
 7    1  0.5902966E-013  0.5052884E+02  0.7816164E-02  0.1300439E+00
        -11   -1    0    0    0    0  0.00000000000E+00  0.00000000000E+00  0.45593999997E+02  0.45594000000E+02  0.51100000000E-03 0. -1.
         11   -1    0    0    0    0 -0.00000000000E+00 -0.00000000000E+00 -0.45593999997E+02  0.45594000000E+02  0.51100000000E-03 0.  1.
    9900012    2    1    2    0    0  0.21964717280E+02 -0.98807969780E+01 -0.32758021194E+02  0.50528844738E+02  0.29999954064E+02 0.  0.
         12    1    1    2    0    0 -0.21964717280E+02  0.98807969780E+01  0.32758021194E+02  0.40659155262E+02  0.00000000000E+00 0. -1.
         11    1    3    3    0    0  0.55319770195E+01 -0.36767492908E+00  0.19426354638E+01  0.58746733870E+01  0.51100000000E-03 0. -1.
        -11    1    3    3    0    0  0.17367295592E+02  0.96517044262E+00 -0.24081462545E+02  0.29706419319E+02  0.51100000000E-03 0.  1.
         12    1    3    3    0    0 -0.93455533174E+00 -0.10478292492E+02 -0.10619194113E+02  0.14947752032E+02  0.00000000000E+00 0. -1.
</event>
<event>
 7    1  0.5902966E-013  0.5052887E+02  0.7816164E-02  0.1300439E+00
        -11   -1    0    0    0    0  0.00000000000E+00  0.00000000000E+00  0.45593999997E+02  0.45594000000E+02  0.51100000000E-03 0.  1.
         11   -1    0    0    0    0 -0.00000000000E+00 -0.00000000000E+00 -0.45593999997E+02  0.45594000000E+02  0.51100000000E-03 0. -1.
    9900012    2    1    2    0    0 -0.97253845902E+01 -0.35705120611E+02  0.16844174114E+02  0.50528868862E+02  0.30000027394E+02 0.  0.
         12    1    1    2    0    0  0.97253845902E+01  0.35705120611E+02 -0.16844174114E+02  0.40659131138E+02  0.00000000000E+00 0. -1.
         11    1    3    3    0    0 -0.54285926714E+01 -0.17427207447E+02  0.68876017824E+01  0.19509388416E+02  0.51100000000E-03 0. -1.
        -11    1    3    3    0    0 -0.12033431038E+02 -0.17133398195E+02  0.43170791961E+01  0.21377417274E+02  0.51100000000E-03 0.  1.
         12    1    3    3    0    0  0.77366391196E+01 -0.11445149684E+01  0.56394931360E+01  0.96420631719E+01  0.00000000000E+00 0. -1.
</event>
<event>
 7    1  0.5902966E-013  0.5052886E+02  0.7816164E-02  0.1300439E+00
        -11   -1    0    0    0    0  0.00000000000E+00  0.00000000000E+00  0.45593999997E+02  0.45594000000E+02  0.51100000000E-03 0. -1.
         11   -1    0    0    0    0 -0.00000000000E+00 -0.00000000000E+00 -0.45593999997E+02  0.45594000000E+02  0.51100000000E-03 0.  1.
    9900012    2    1    2    0    0  0.31301267274E+02  0.22165561671E+02  0.13493849999E+02  0.50528862713E+02  0.30000008702E+02 0.  0.
         12    1    1    2    0    0 -0.31301267274E+02 -0.22165561671E+02 -0.13493849999E+02  0.40659137287E+02  0.00000000000E+00 0. -1.
         11    1    3    3    0    0  0.33183078362E+01  0.18048210091E+01  0.67778024361E+01  0.77593267681E+01  0.51100000000E-03 0. -1.
        -11    1    3    3    0    0  0.26297600875E+02  0.20685969613E+02  0.13270428690E+02  0.35994130472E+02  0.51100000000E-03 0.  1.
        -12    1    3    3    0    0  0.16853585630E+01 -0.32522895093E+00 -0.65543811269E+01  0.67754054722E+01  0.00000000000E+00 0.  1.
</event>
<event>
 7    1  0.5902966E-013  0.5052886E+02  0.7816164E-02  0.1300439E+00
        -11   -1    0    0    0    0  0.00000000000E+00  0.00000000000E+00  0.45593999997E+02  0.45594000000E+02  0.51100000000E-03 0. -1.
         11   -1    0    0    0    0 -0.00000000000E+00 -0.00000000000E+00 -0.45593999997E+02  0.45594000000E+02  0.51100000000E-03 0.  1.
    9900012    2    1    2    0    0 -0.92389552255E+01  0.36889483769E+02 -0.14386557974E+02  0.50528863797E+02  0.30000011997E+02 0.  0.
         12    1    1    2    0    0  0.92389552255E+01 -0.36889483769E+02  0.14386557974E+02  0.40659136203E+02  0.00000000000E+00 0. -1.
         11    1    3    3    0    0  0.40233388900E+01  0.10903347237E+02 -0.12340026523E+01  0.11687300784E+02  0.51100000000E-03 0. -1.
        -11    1    3    3    0    0  0.26781730462E+01 -0.25434503538E+01 -0.23667881146E+00  0.37010495388E+01  0.51100000000E-03 0.  1.
        -12    1    3    3    0    0 -0.15940467162E+02  0.28529586886E+02 -0.12915876510E+02  0.35140513474E+02  0.00000000000E+00 0.  1.
</event>
<event>
 7    1  0.5902966E-013  0.5052886E+02  0.7816164E-02  0.1300439E+00
        -11   -1    0    0    0    0  0.00000000000E+00  0.00000000000E+00  0.45593999997E+02  0.45594000000E+02  0.51100000000E-03 0.  1.
         11   -1    0    0    0    0 -0.00000000000E+00 -0.00000000000E+00 -0.45593999997E+02  0.45594000000E+02  0.51100000000E-03 0. -1.
    9900012    2    1    2    0    0  0.23726728048E+02 -0.27215001293E+02  0.18696300626E+02  0.50528861097E+02  0.30000003789E+02 0.  0.
         12    1    1    2    0    0 -0.23726728048E+02  0.27215001293E+02 -0.18696300626E+02  0.40659138903E+02  0.00000000000E+00 0. -1.
         11    1    3    3    0    0  0.54626724731E+01 -0.15192533014E+02 -0.48704112763E+01  0.16863414725E+02  0.51100000000E-03 0. -1.
        -11    1    3    3    0    0  0.35279448949E+01  0.12398020885E+01  0.65332614066E+01  0.75277492830E+01  0.51100000000E-03 0.  1.
        -12    1    3    3    0    0  0.14736110680E+02 -0.13262270367E+02  0.17033450496E+02  0.26137697088E+02  0.00000000000E+00 0.  1.
</event>
<event>
 7    1  0.5902966E-013  0.5052886E+02  0.7816164E-02  0.1300439E+00
        -11   -1    0    0    0    0  0.00000000000E+00  0.00000000000E+00  0.45593999997E+02  0.45594000000E+02  0.51100000000E-03 0. -1.
         11   -1    0    0    0    0 -0.00000000000E+00 -0.00000000000E+00 -0.45593999997E+02  0.45594000000E+02  0.51100000000E-03 0.  1.
    9900012    2    1    2    0    0 -0.32815280131E+02 -0.23815547527E+02  0.30237276117E+01  0.50528857821E+02  0.29999993831E+02 0.  0.
         12    1    1    2    0    0  0.32815280131E+02  0.23815547527E+02 -0.30237276117E+01  0.40659142179E+02  0.00000000000E+00 0. -1.
         11    1    3    3    0    0 -0.34487101589E-01  0.42691206684E+01 -0.57848019060E+00  0.43082734632E+01  0.51100000000E-03 0. -1.
        -11    1    3    3    0    0 -0.47178507064E+01 -0.34701246340E+01  0.65373140743E+01  0.87770357086E+01  0.51100000000E-03 0.  1.
        -12    1    3    3    0    0 -0.28062942323E+02 -0.24614543562E+02 -0.29351062719E+01  0.37443548649E+02  0.00000000000E+00 0.  1.
</event>
<event>
 7    1  0.5902966E-013  0.5052887E+02  0.7816164E-02  0.1300439E+00
        -11   -1    0    0    0    0  0.00000000000E+00  0.00000000000E+00  0.45593999997E+02  0.45594000000E+02  0.51100000000E-03 0. -1.
         11   -1    0    0    0    0 -0.00000000000E+00 -0.00000000000E+00 -0.45593999997E+02  0.45594000000E+02  0.51100000000E-03 0.  1.
    9900012    2    1    2    0    0  0.91026776650E+01  0.37424513887E+02 -0.13027364056E+02  0.50528865791E+02  0.30000018058E+02 0.  0.
         12    1    1    2    0    0 -0.91026776650E+01 -0.37424513887E+02  0.13027364056E+02  0.40659134209E+02  0.00000000000E+00 0. -1.
         11    1    3    3    0    0  0.44025731502E+01  0.10144971201E+02 -0.55259811846E+01  0.12362829746E+02  0.51100000000E-03 0.  1.
        -11    1    3    3    0    0  0.73009367154E+00 -0.48443888734E+01 -0.21840132185E+01  0.53638656141E+01  0.51100000000E-03 0. -1.
         12    1    3    3    0    0  0.39700108432E+01  0.32123931560E+02 -0.53173696529E+01  0.32802170431E+02  0.00000000000E+00 0. -1.
</event>
<event>
 7    1  0.5902966E-013  0.5052887E+02  0.7816164E-02  0.1300439E+00
        -11   -1    0    0    0    0  0.00000000000E+00  0.00000000000E+00  0.45593999997E+02  0.45594000000E+02  0.51100000000E-03 0. -1.
         11   -1    0    0    0    0 -0.00000000000E+00 -0.00000000000E+00 -0.45593999997E+02  0.45594000000E+02  0.51100000000E-03 0.  1.
    9900012    2    1    2    0    0 -0.16991011731E+02 -0.36658901969E+02 -0.45381863367E+01  0.50528871770E+02  0.30000036231E+02 0.  0.
         12    1    1    2    0    0  0.16991011731E+02  0.36658901969E+02  0.45381863367E+01  0.40659128230E+02  0.00000000000E+00 0. -1.
         11    1    3    3    0    0  0.99846378776E+00  0.61764313778E+00 -0.40257735710E+00  0.12411614604E+01  0.51100000000E-03 0. -1.
        -11    1    3    3    0    0 -0.19881992289E+02 -0.11681989737E+02  0.11341086993E+01  0.23087847548E+02  0.51100000000E-03 0.  1.
         12    1    3    3    0    0  0.18925167701E+01 -0.25594555370E+02 -0.52697176789E+01  0.26199862761E+02  0.00000000000E+00 0. -1.
</event>
<event>
 7    1  0.5902966E-013  0.5052886E+02  0.7816164E-02  0.1300439E+00
        -11   -1    0    0    0    0  0.00000000000E+00  0.00000000000E+00  0.45593999997E+02  0.45594000000E+02  0.51100000000E-03 0.  1.
         11   -1    0    0    0    0 -0.00000000000E+00 -0.00000000000E+00 -0.45593999997E+02  0.45594000000E+02  0.51100000000E-03 0. -1.
    9900012    2    1    2    0    0  0.10571931691E+02  0.37130714679E+02  0.12755793574E+02  0.50528856109E+02  0.29999988628E+02 0.  0.
         12    1    1    2    0    0 -0.10571931691E+02 -0.37130714679E+02 -0.12755793574E+02  0.40659143891E+02  0.00000000000E+00 0. -1.
         11    1    3    3    0    0  0.67402323845E+01  0.15442466623E+02 -0.42260388146E+01  0.17371238077E+02  0.51100000000E-03 0. -1.
        -11    1    3    3    0    0  0.24096771650E+01  0.24840980762E+02  0.15607651565E+02  0.29436026514E+02  0.51100000000E-03 0.  1.
         12    1    3    3    0    0  0.14220221420E+01 -0.31527327065E+01  0.13741808235E+01  0.37215915179E+01  0.00000000000E+00 0. -1.
</event>
<event>
 7    1  0.5902966E-013  0.5052886E+02  0.7816164E-02  0.1300439E+00
        -11   -1    0    0    0    0  0.00000000000E+00  0.00000000000E+00  0.45593999997E+02  0.45594000000E+02  0.51100000000E-03 0.  1.
         11   -1    0    0    0    0 -0.00000000000E+00 -0.00000000000E+00 -0.45593999997E+02  0.45594000000E+02  0.51100000000E-03 0. -1.
    9900012    2    1    2    0    0  0.10240351561E+02  0.39335096908E+02  0.10251908615E+01  0.50528860005E+02  0.30000000471E+02 0.  0.
         12    1    1    2    0    0 -0.10240351561E+02 -0.39335096908E+02 -0.10251908615E+01  0.40659139995E+02  0.00000000000E+00 0. -1.
         11    1    3    3    0    0  0.16509528023E+01  0.46001182524E+01 -0.81295617849E+01  0.94855947714E+01  0.51100000000E-03 0. -1.
        -11    1    3    3    0    0  0.10446517644E+02  0.15975241350E+02 -0.19125414024E+01  0.19183218759E+02  0.51100000000E-03 0.  1.
         12    1    3    3    0    0 -0.18571188853E+01  0.18759737305E+02  0.11067294049E+02  0.21860046474E+02  0.00000000000E+00 0. -1.
</event>
<event>
 7    1  0.5902966E-013  0.5052880E+02  0.7816164E-02  0.1300439E+00
        -11   -1    0    0    0    0  0.00000000000E+00  0.00000000000E+00  0.45593999997E+02  0.45594000000E+02  0.51100000000E-03 0.  1.
         11   -1    0    0    0    0 -0.00000000000E+00 -0.00000000000E+00 -0.45593999997E+02  0.45594000000E+02  0.51100000000E-03 0. -1.
    9900012    2    1    2    0    0  0.31209589913E+01 -0.37219813279E+02  0.16065970828E+02  0.50528802957E+02  0.29999827068E+02 0.  0.
         12    1    1    2    0    0 -0.31209589913E+01  0.37219813279E+02 -0.16065970828E+02  0.40659197043E+02  0.00000000000E+00 0. -1.
         11    1    3    3    0    0 -0.58151239958E+01 -0.47761502641E+01 -0.44258684638E+01  0.87301540852E+01  0.51100000000E-03 0. -1.
        -11    1    3    3    0    0 -0.25749858220E+01 -0.50501037955E+01  0.74174793098E+01  0.93355824618E+01  0.51100000000E-03 0.  1.
         12    1    3    3    0    0  0.11511068809E+02 -0.27393559219E+02  0.13074359982E+02  0.32463066410E+02  0.00000000000E+00 0. -1.
</event>
<event>
 7    1  0.5902966E-013  0.5052885E+02  0.7816164E-02  0.1300439E+00
        -11   -1    0    0    0    0  0.00000000000E+00  0.00000000000E+00  0.45593999997E+02  0.45594000000E+02  0.51100000000E-03 0. -1.
         11   -1    0    0    0    0 -0.00000000000E+00 -0.00000000000E+00 -0.45593999997E+02  0.45594000000E+02  0.51100000000E-03 0.  1.
    9900012    2    1    2    0    0 -0.15276475737E+02  0.17203210888E+02 -0.33523796489E+02  0.50528854573E+02  0.29999983961E+02 0.  0.
         12    1    1    2    0    0  0.15276475737E+02 -0.17203210888E+02  0.33523796489E+02  0.40659145427E+02  0.00000000000E+00 0. -1.
         11    1    3    3    0    0  0.33503802389E+00  0.19822920531E+01  0.48225971077E+01  0.52248612791E+01  0.51100000000E-03 0. -1.
        -11    1    3    3    0    0 -0.60769409003E+01  0.21092908632E+01 -0.47358897307E+01  0.79879265428E+01  0.51100000000E-03 0.  1.
        -12    1    3    3    0    0 -0.95345728608E+01  0.13111627972E+02 -0.33610503865E+02  0.37316066752E+02  0.00000000000E+00 0.  1.
</event>
<event>
 7    1  0.5902966E-013  0.5052886E+02  0.7816164E-02  0.1300439E+00
        -11   -1    0    0    0    0  0.00000000000E+00  0.00000000000E+00  0.45593999997E+02  0.45594000000E+02  0.51100000000E-03 0.  1.
         11   -1    0    0    0    0 -0.00000000000E+00 -0.00000000000E+00 -0.45593999997E+02  0.45594000000E+02  0.51100000000E-03 0. -1.
    9900012    2    1    2    0    0  0.16414095286E+02 -0.68233569664E+01  0.36567534113E+02  0.50528864797E+02  0.30000015038E+02 0.  0.
         12    1    1    2    0    0 -0.16414095286E+02  0.68233569664E+01 -0.36567534113E+02  0.40659135203E+02  0.00000000000E+00 0. -1.
         11    1    3    3    0    0 -0.17252431764E+01 -0.23172055377E+01  0.16982122993E+02  0.17226096689E+02  0.51100000000E-03 0. -1.
        -11    1    3    3    0    0  0.54228335009E+01  0.55850165040E+01  0.14208970225E+02  0.16201677927E+02  0.51100000000E-03 0.  1.
        -12    1    3    3    0    0  0.12716504962E+02 -0.10091167933E+02  0.53764408940E+01  0.17101090181E+02  0.00000000000E+00 0.  1.
</event>
<event>
 7    1  0.5902966E-013  0.5052890E+02  0.7816164E-02  0.1300439E+00
        -11   -1    0    0    0    0  0.00000000000E+00  0.00000000000E+00  0.45593999997E+02  0.45594000000E+02  0.51100000000E-03 0. -1.
         11   -1    0    0    0    0 -0.00000000000E+00 -0.00000000000E+00 -0.45593999997E+02  0.45594000000E+02  0.51100000000E-03 0.  1.
    9900012    2    1    2    0    0  0.34312313269E+01  0.23426340202E+02 -0.33054438144E+02  0.50528897148E+02  0.30000113372E+02 0.  0.
         12    1    1    2    0    0 -0.34312313269E+01 -0.23426340202E+02  0.33054438144E+02  0.40659102852E+02  0.00000000000E+00 0. -1.
         11    1    3    3    0    0 -0.30054346508E+01  0.64781652157E+01 -0.60880415090E+01  0.93842160929E+01  0.51100000000E-03 0.  1.
        -11    1    3    3    0    0  0.30279978269E+01  0.18249927800E+01  0.47034888659E+01  0.58840612896E+01  0.51100000000E-03 0. -1.
         12    1    3    3    0    0  0.34086681508E+01  0.15123182206E+02 -0.31669885501E+02  0.35260619766E+02  0.00000000000E+00 0. -1.
</event>
<event>
 7    1  0.5902966E-013  0.5052886E+02  0.7816164E-02  0.1300439E+00
        -11   -1    0    0    0    0  0.00000000000E+00  0.00000000000E+00  0.45593999997E+02  0.45594000000E+02  0.51100000000E-03 0.  1.
         11   -1    0    0    0    0 -0.00000000000E+00 -0.00000000000E+00 -0.45593999997E+02  0.45594000000E+02  0.51100000000E-03 0. -1.
    9900012    2    1    2    0    0  0.15372550923E+01 -0.23648571559E+02  0.33038577503E+02  0.50528859657E+02  0.29999999414E+02 0.  0.
         12    1    1    2    0    0 -0.15372550923E+01  0.23648571559E+02 -0.33038577503E+02  0.40659140343E+02  0.00000000000E+00 0. -1.
         11    1    3    3    0    0  0.49842826157E+01 -0.15556048034E+02  0.22382197873E+02  0.27709140830E+02  0.51100000000E-03 0. -1.
        -11    1    3    3    0    0  0.24795089699E+00 -0.85172108975E+01  0.14907747195E+02  0.17171059600E+02  0.51100000000E-03 0.  1.
         12    1    3    3    0    0 -0.36949784204E+01  0.42468737246E+00 -0.42513675648E+01  0.56486592270E+01  0.00000000000E+00 0. -1.
</event>
<event>
 7    1  0.5902966E-013  0.5052887E+02  0.7816164E-02  0.1300439E+00
        -11   -1    0    0    0    0  0.00000000000E+00  0.00000000000E+00  0.45593999997E+02  0.45594000000E+02  0.51100000000E-03 0.  1.
         11   -1    0    0    0    0 -0.00000000000E+00 -0.00000000000E+00 -0.45593999997E+02  0.45594000000E+02  0.51100000000E-03 0. -1.
    9900012    2    1    2    0    0 -0.18628233155E+02  0.24151286137E+02  0.26886233617E+02  0.50528865101E+02  0.30000015962E+02 0.  0.
         12    1    1    2    0    0  0.18628233155E+02 -0.24151286137E+02 -0.26886233617E+02  0.40659134899E+02  0.00000000000E+00 0. -1.
         11    1    3    3    0    0 -0.14762756653E+02  0.12989978133E+02  0.10038438843E+02  0.22078242017E+02  0.51100000000E-03 0. -1.
        -11    1    3    3    0    0 -0.87491037480E+01  0.89197701685E+01  0.18935217901E+02  0.22685933824E+02  0.51100000000E-03 0.  1.
         12    1    3    3    0    0  0.48836272460E+01  0.22415378360E+01 -0.20874231273E+01  0.57646892597E+01  0.00000000000E+00 0. -1.
</event>
<event>
 7    1  0.5902966E-013  0.5052885E+02  0.7816164E-02  0.1300439E+00
        -11   -1    0    0    0    0  0.00000000000E+00  0.00000000000E+00  0.45593999997E+02  0.45594000000E+02  0.51100000000E-03 0.  1.
         11   -1    0    0    0    0 -0.00000000000E+00 -0.00000000000E+00 -0.45593999997E+02  0.45594000000E+02  0.51100000000E-03 0. -1.
    9900012    2    1    2    0    0  0.80237229689E+01  0.38344056201E+02  0.10886678825E+02  0.50528849098E+02  0.29999967318E+02 0.  0.
         12    1    1    2    0    0 -0.80237229689E+01 -0.38344056201E+02 -0.10886678825E+02  0.40659150902E+02  0.00000000000E+00 0. -1.
         11    1    3    3    0    0  0.41631481130E+01  0.46792217536E+01 -0.39005232192E+01  0.73784144689E+01  0.51100000000E-03 0. -1.
        -11    1    3    3    0    0  0.97963546871E+01  0.31198680987E+02  0.77240956051E+01  0.33600415379E+02  0.51100000000E-03 0.  1.
        -12    1    3    3    0    0 -0.59357798312E+01  0.24661534606E+01  0.70631064396E+01  0.95500192499E+01  0.00000000000E+00 0.  1.
</event>
<event>
 7    1  0.5902966E-013  0.5052886E+02  0.7816164E-02  0.1300439E+00
        -11   -1    0    0    0    0  0.00000000000E+00  0.00000000000E+00  0.45593999997E+02  0.45594000000E+02  0.51100000000E-03 0. -1.
         11   -1    0    0    0    0 -0.00000000000E+00 -0.00000000000E+00 -0.45593999997E+02  0.45594000000E+02  0.51100000000E-03 0.  1.
    9900012    2    1    2    0    0 -0.19095727583E+02 -0.24601672977E+02 -0.26139556174E+02  0.50528861763E+02  0.30000005816E+02 0.  0.
         12    1    1    2    0    0  0.19095727583E+02  0.24601672977E+02  0.26139556174E+02  0.40659138237E+02  0.00000000000E+00 0. -1.
         11    1    3    3    0    0  0.37521854816E+01  0.13230866135E+01 -0.11177643683E+02  0.11864618520E+02  0.51100000000E-03 0. -1.
        -11    1    3    3    0    0 -0.11105620132E+02 -0.64691395040E+01 -0.42088287502E+01  0.13524008435E+02  0.51100000000E-03 0.  1.
        -12    1    3    3    0    0 -0.11742292933E+02 -0.19455620087E+02 -0.10753083741E+02  0.25140234808E+02  0.00000000000E+00 0.  1.
</event>
<event>
 7    1  0.5902966E-013  0.5052886E+02  0.7816164E-02  0.1300439E+00
        -11   -1    0    0    0    0  0.00000000000E+00  0.00000000000E+00  0.45593999997E+02  0.45594000000E+02  0.51100000000E-03 0.  1.
         11   -1    0    0    0    0 -0.00000000000E+00 -0.00000000000E+00 -0.45593999997E+02  0.45594000000E+02  0.51100000000E-03 0. -1.
    9900012    2    1    2    0    0 -0.44478067295E+01 -0.36555528252E+02  0.17235896752E+02  0.50528858748E+02  0.29999996651E+02 0.  0.
         12    1    1    2    0    0  0.44478067295E+01  0.36555528252E+02 -0.17235896752E+02  0.40659141252E+02  0.00000000000E+00 0. -1.
         11    1    3    3    0    0 -0.60783664283E+01 -0.38718012227E+01 -0.29827890110E+01  0.77996418949E+01  0.51100000000E-03 0. -1.
        -11    1    3    3    0    0  0.26894850448E+01 -0.29794451763E+02  0.92140187152E+01  0.31302409281E+02  0.51100000000E-03 0.  1.
         12    1    3    3    0    0 -0.10589253460E+01 -0.28892752664E+01  0.11004667048E+02  0.11426807572E+02  0.00000000000E+00 0. -1.
</event>
<event>
 7    1  0.5902966E-013  0.5052889E+02  0.7816164E-02  0.1300439E+00
        -11   -1    0    0    0    0  0.00000000000E+00  0.00000000000E+00  0.45593999997E+02  0.45594000000E+02  0.51100000000E-03 0.  1.
         11   -1    0    0    0    0 -0.00000000000E+00 -0.00000000000E+00 -0.45593999997E+02  0.45594000000E+02  0.51100000000E-03 0. -1.
    9900012    2    1    2    0    0  0.15800463933E+01 -0.87169409898E+01  0.39682255809E+02  0.50528892374E+02  0.30000098860E+02 0.  0.
         12    1    1    2    0    0 -0.15800463933E+01  0.87169409898E+01 -0.39682255809E+02  0.40659107626E+02  0.00000000000E+00 0. -1.
         11    1    3    3    0    0  0.29760588692E+01 -0.83214524055E+01  0.14387935052E+02  0.16885383379E+02  0.51100000000E-03 0. -1.
        -11    1    3    3    0    0  0.76305936647E+01 -0.65847420637E+01  0.68164885739E+01  0.12167551293E+02  0.51100000000E-03 0.  1.
         12    1    3    3    0    0 -0.90266061406E+01  0.61892534793E+01  0.18477832184E+02  0.21475957703E+02  0.00000000000E+00 0. -1.
</event>
<event>
 7    1  0.5902966E-013  0.5052886E+02  0.7816164E-02  0.1300439E+00
        -11   -1    0    0    0    0  0.00000000000E+00  0.00000000000E+00  0.45593999997E+02  0.45594000000E+02  0.51100000000E-03 0. -1.
         11   -1    0    0    0    0 -0.00000000000E+00 -0.00000000000E+00 -0.45593999997E+02  0.45594000000E+02  0.51100000000E-03 0.  1.
    9900012    2    1    2    0    0 -0.23111662103E+02  0.29026246548E+02 -0.16628100700E+02  0.50528860231E+02  0.30000001159E+02 0.  0.
         12    1    1    2    0    0  0.23111662103E+02 -0.29026246548E+02  0.16628100700E+02  0.40659139769E+02  0.00000000000E+00 0. -1.
         11    1    3    3    0    0  0.40947388037E+00 -0.13916545922E+01 -0.18211959048E+01  0.23283311937E+01  0.51100000000E-03 0. -1.
        -11    1    3    3    0    0 -0.19774239062E+02  0.75676180370E+01 -0.90447420011E+00  0.21192155319E+02  0.51100000000E-03 0.  1.
         12    1    3    3    0    0 -0.37468969216E+01  0.22850283103E+02 -0.13902430596E+02  0.27008373718E+02  0.00000000000E+00 0. -1.
</event>
<event>
 7    1  0.5902966E-013  0.5052888E+02  0.7816164E-02  0.1300439E+00
        -11   -1    0    0    0    0  0.00000000000E+00  0.00000000000E+00  0.45593999997E+02  0.45594000000E+02  0.51100000000E-03 0.  1.
         11   -1    0    0    0    0 -0.00000000000E+00 -0.00000000000E+00 -0.45593999997E+02  0.45594000000E+02  0.51100000000E-03 0. -1.
    9900012    2    1    2    0    0 -0.34930438498E+02 -0.46216200901E+01  0.20289640453E+02  0.50528875371E+02  0.30000047177E+02 0.  0.
         12    1    1    2    0    0  0.34930438498E+02  0.46216200901E+01 -0.20289640453E+02  0.40659124629E+02  0.00000000000E+00 0. -1.
         11    1    3    3    0    0 -0.12372671071E+02 -0.73433546435E+00 -0.59090809969E+01  0.13730967792E+02  0.51100000000E-03 0. -1.
        -11    1    3    3    0    0 -0.18336279455E+02 -0.33029619690E+01  0.12461176550E+02  0.22414495829E+02  0.51100000000E-03 0.  1.
        -12    1    3    3    0    0 -0.42214879713E+01 -0.58432265678E+00  0.13737544901E+02  0.14383411750E+02  0.00000000000E+00 0.  1.
</event>
<event>
 7    1  0.5902966E-013  0.5052885E+02  0.7816164E-02  0.1300439E+00
        -11   -1    0    0    0    0  0.00000000000E+00  0.00000000000E+00  0.45593999997E+02  0.45594000000E+02  0.51100000000E-03 0.  1.
         11   -1    0    0    0    0 -0.00000000000E+00 -0.00000000000E+00 -0.45593999997E+02  0.45594000000E+02  0.51100000000E-03 0. -1.
    9900012    2    1    2    0    0 -0.33958701941E+01  0.16232460463E+02  0.37123330048E+02  0.50528851695E+02  0.29999975212E+02 0.  0.
         12    1    1    2    0    0  0.33958701941E+01 -0.16232460463E+02 -0.37123330048E+02  0.40659148305E+02  0.00000000000E+00 0. -1.
         11    1    3    3    0    0  0.42142431342E+01  0.18710102784E+01 -0.60286905090E+00  0.46501587080E+01  0.51100000000E-03 0. -1.
        -11    1    3    3    0    0  0.26672712426E+01  0.10074768708E+02  0.55026899623E+01  0.11785367940E+02  0.51100000000E-03 0.  1.
        -12    1    3    3    0    0 -0.10277384571E+02  0.42866814764E+01  0.32223509136E+02  0.34093325047E+02  0.00000000000E+00 0.  1.
</event>
<event>
 7    1  0.5902966E-013  0.5052886E+02  0.7816164E-02  0.1300439E+00
        -11   -1    0    0    0    0  0.00000000000E+00  0.00000000000E+00  0.45593999997E+02  0.45594000000E+02  0.51100000000E-03 0.  1.
         11   -1    0    0    0    0 -0.00000000000E+00 -0.00000000000E+00 -0.45593999997E+02  0.45594000000E+02  0.51100000000E-03 0. -1.
    9900012    2    1    2    0    0 -0.24764814225E+02  0.89830188403E+01  0.30970548188E+02  0.50528861961E+02  0.30000006415E+02 0.  0.
         12    1    1    2    0    0  0.24764814225E+02 -0.89830188403E+01 -0.30970548188E+02  0.40659138039E+02  0.00000000000E+00 0. -1.
         11    1    3    3    0    0 -0.24777935791E+01  0.11198032888E+02  0.39857169356E+01  0.12141719044E+02  0.51100000000E-03 0. -1.
        -11    1    3    3    0    0 -0.72895681670E+01 -0.18718491134E+01  0.20873242566E+02  0.22188597942E+02  0.51100000000E-03 0.  1.
         12    1    3    3    0    0 -0.14997452479E+02 -0.34316493446E+00  0.61115886860E+01  0.16198544975E+02  0.00000000000E+00 0. -1.
</event>
<event>
 7    1  0.5902966E-013  0.5052887E+02  0.7816164E-02  0.1300439E+00
        -11   -1    0    0    0    0  0.00000000000E+00  0.00000000000E+00  0.45593999997E+02  0.45594000000E+02  0.51100000000E-03 0.  1.
         11   -1    0    0    0    0 -0.00000000000E+00 -0.00000000000E+00 -0.45593999997E+02  0.45594000000E+02  0.51100000000E-03 0. -1.
    9900012    2    1    2    0    0 -0.59495087825E+01  0.74463184863E+01  0.39526199418E+02  0.50528871207E+02  0.30000034522E+02 0.  0.
         12    1    1    2    0    0  0.59495087825E+01 -0.74463184863E+01 -0.39526199418E+02  0.40659128793E+02  0.00000000000E+00 0. -1.
         11    1    3    3    0    0  0.54810405912E+01  0.94184503133E+00  0.17768179946E+02  0.18618192631E+02  0.51100000000E-03 0. -1.
        -11    1    3    3    0    0 -0.79619508532E+01  0.60422952540E+01  0.25133936898E+02  0.27048415435E+02  0.51100000000E-03 0.  1.
         12    1    3    3    0    0 -0.34685985204E+01  0.46217820093E+00 -0.33759174254E+01  0.48622631406E+01  0.00000000000E+00 0. -1.
</event>
<event>
 7    1  0.5902966E-013  0.5052887E+02  0.7816164E-02  0.1300439E+00
        -11   -1    0    0    0    0  0.00000000000E+00  0.00000000000E+00  0.45593999997E+02  0.45594000000E+02  0.51100000000E-03 0.  1.
         11   -1    0    0    0    0 -0.00000000000E+00 -0.00000000000E+00 -0.45593999997E+02  0.45594000000E+02  0.51100000000E-03 0. -1.
    9900012    2    1    2    0    0 -0.20644757919E+02 -0.33652108823E+02  0.97208021047E+01  0.50528874932E+02  0.30000045843E+02 0.  0.
         12    1    1    2    0    0  0.20644757919E+02  0.33652108823E+02 -0.97208021047E+01  0.40659125068E+02  0.00000000000E+00 0. -1.
         11    1    3    3    0    0 -0.66819706425E+01 -0.13144746160E+02 -0.49691643717E+01  0.15560388108E+02  0.51100000000E-03 0. -1.
        -11    1    3    3    0    0 -0.15590236108E+02 -0.22294339942E+02  0.87848603423E+01  0.28587879020E+02  0.51100000000E-03 0.  1.
         12    1    3    3    0    0  0.16274488320E+01  0.17869772784E+01  0.59051061341E+01  0.63806078040E+01  0.00000000000E+00 0. -1.
</event>
<event>
 7    1  0.5902966E-013  0.5052888E+02  0.7816164E-02  0.1300439E+00
        -11   -1    0    0    0    0  0.00000000000E+00  0.00000000000E+00  0.45593999997E+02  0.45594000000E+02  0.51100000000E-03 0.  1.
         11   -1    0    0    0    0 -0.00000000000E+00 -0.00000000000E+00 -0.45593999997E+02  0.45594000000E+02  0.51100000000E-03 0. -1.
    9900012    2    1    2    0    0 -0.38038768487E+02 -0.35559366863E+01  0.13912990924E+02  0.50528881586E+02  0.30000066070E+02 0.  0.
         12    1    1    2    0    0  0.38038768487E+02  0.35559366863E+01 -0.13912990924E+02  0.40659118414E+02  0.00000000000E+00 0. -1.
         11    1    3    3    0    0 -0.11844541397E+01 -0.29036452157E+01 -0.34483679114E+01  0.46610437309E+01  0.51100000000E-03 0. -1.
        -11    1    3    3    0    0 -0.96508085155E+01  0.90693475481E+01  0.28804072919E+01  0.13553151529E+02  0.51100000000E-03 0.  1.
        -12    1    3    3    0    0 -0.27203505832E+02 -0.97216390187E+01  0.14480951543E+02  0.32314686326E+02  0.00000000000E+00 0.  1.
</event>
<event>
 7    1  0.5902966E-013  0.5052887E+02  0.7816164E-02  0.1300439E+00
        -11   -1    0    0    0    0  0.00000000000E+00  0.00000000000E+00  0.45593999997E+02  0.45594000000E+02  0.51100000000E-03 0.  1.
         11   -1    0    0    0    0 -0.00000000000E+00 -0.00000000000E+00 -0.45593999997E+02  0.45594000000E+02  0.51100000000E-03 0. -1.
    9900012    2    1    2    0    0 -0.68132308072E+01 -0.33781558714E+02  0.21576629064E+02  0.50528871321E+02  0.30000034866E+02 0.  0.
         12    1    1    2    0    0  0.68132308072E+01  0.33781558714E+02 -0.21576629064E+02  0.40659128679E+02  0.00000000000E+00 0. -1.
         11    1    3    3    0    0 -0.12639249547E-01 -0.66746699652E+01 -0.12451233389E+01  0.67898240983E+01  0.51100000000E-03 0. -1.
        -11    1    3    3    0    0 -0.12105317608E+02 -0.56789736347E+01  0.15525403345E+02  0.20489695098E+02  0.51100000000E-03 0.  1.
         12    1    3    3    0    0  0.53047260501E+01 -0.21427915114E+02  0.72963490582E+01  0.23249352124E+02  0.00000000000E+00 0. -1.
</event>
<event>
 7    1  0.5902966E-013  0.5052885E+02  0.7816164E-02  0.1300439E+00
        -11   -1    0    0    0    0  0.00000000000E+00  0.00000000000E+00  0.45593999997E+02  0.45594000000E+02  0.51100000000E-03 0.  1.
         11   -1    0    0    0    0 -0.00000000000E+00 -0.00000000000E+00 -0.45593999997E+02  0.45594000000E+02  0.51100000000E-03 0. -1.
    9900012    2    1    2    0    0 -0.14268248284E+02 -0.24338090585E+02  0.29278672205E+02  0.50528853323E+02  0.29999980160E+02 0.  0.
         12    1    1    2    0    0  0.14268248284E+02  0.24338090585E+02 -0.29278672205E+02  0.40659146677E+02  0.00000000000E+00 0. -1.
         11    1    3    3    0    0 -0.28842720165E+01 -0.12607213541E+02  0.26967790142E+02  0.29908570072E+02  0.51100000000E-03 0.  1.
        -11    1    3    3    0    0 -0.31844391364E+01 -0.11770307109E+02  0.39536348962E+00  0.12199880926E+02  0.51100000000E-03 0. -1.
        -12    1    3    3    0    0 -0.81995371313E+01  0.39430065687E-01  0.19155185733E+01  0.84204023242E+01  0.00000000000E+00 0.  1.
</event>
<event>
 7    1  0.5902966E-013  0.5052886E+02  0.7816164E-02  0.1300439E+00
        -11   -1    0    0    0    0  0.00000000000E+00  0.00000000000E+00  0.45593999997E+02  0.45594000000E+02  0.51100000000E-03 0.  1.
         11   -1    0    0    0    0 -0.00000000000E+00 -0.00000000000E+00 -0.45593999997E+02  0.45594000000E+02  0.51100000000E-03 0. -1.
    9900012    2    1    2    0    0 -0.27844968474E+02 -0.29426229145E+02 -0.34525644163E+01  0.50528862871E+02  0.30000009183E+02 0.  0.
         12    1    1    2    0    0  0.27844968474E+02  0.29426229145E+02  0.34525644163E+01  0.40659137129E+02  0.00000000000E+00 0. -1.
         11    1    3    3    0    0 -0.25115004838E+01 -0.81521628474E+01  0.10289748836E+01  0.85921000543E+01  0.51100000000E-03 0. -1.
        -11    1    3    3    0    0 -0.27093717776E+02 -0.22809811645E+02 -0.92690520971E+01  0.36609730636E+02  0.51100000000E-03 0.  1.
        -12    1    3    3    0    0  0.17602497855E+01  0.15357453469E+01  0.47875127971E+01  0.53270321813E+01  0.00000000000E+00 0.  1.
</event>
<event>
 7    1  0.5902966E-013  0.5052886E+02  0.7816164E-02  0.1300439E+00
        -11   -1    0    0    0    0  0.00000000000E+00  0.00000000000E+00  0.45593999997E+02  0.45594000000E+02  0.51100000000E-03 0.  1.
         11   -1    0    0    0    0 -0.00000000000E+00 -0.00000000000E+00 -0.45593999997E+02  0.45594000000E+02  0.51100000000E-03 0. -1.
    9900012    2    1    2    0    0  0.26929106003E+02 -0.19449981804E+02  0.23445402644E+02  0.50528862681E+02  0.30000008607E+02 0.  0.
         12    1    1    2    0    0 -0.26929106003E+02  0.19449981804E+02 -0.23445402644E+02  0.40659137319E+02  0.00000000000E+00 0. -1.
         11    1    3    3    0    0  0.11620886132E+02 -0.19769659371E+01  0.13911574912E+02  0.18234179598E+02  0.51100000000E-03 0. -1.
        -11    1    3    3    0    0  0.20178558152E+02 -0.15951312520E+02  0.74119999926E+01  0.26768569711E+02  0.51100000000E-03 0.  1.
         12    1    3    3    0    0 -0.48703382812E+01 -0.15217033474E+01  0.21218277394E+01  0.55261133725E+01  0.00000000000E+00 0. -1.
</event>
<event>
 7    1  0.5902966E-013  0.5052884E+02  0.7816164E-02  0.1300439E+00
        -11   -1    0    0    0    0  0.00000000000E+00  0.00000000000E+00  0.45593999997E+02  0.45594000000E+02  0.51100000000E-03 0. -1.
         11   -1    0    0    0    0 -0.00000000000E+00 -0.00000000000E+00 -0.45593999997E+02  0.45594000000E+02  0.51100000000E-03 0.  1.
    9900012    2    1    2    0    0 -0.14604481058E+02 -0.13550272272E+02 -0.35443852848E+02  0.50528838052E+02  0.29999933743E+02 0.  0.
         12    1    1    2    0    0  0.14604481058E+02  0.13550272272E+02  0.35443852848E+02  0.40659161948E+02  0.00000000000E+00 0. -1.
         11    1    3    3    0    0  0.51476608502E+01 -0.38616762635E+01 -0.31982578188E+01  0.71860844088E+01  0.51100000000E-03 0. -1.
        -11    1    3    3    0    0 -0.60639360084E+01 -0.12222316772E+02 -0.93254796298E+01  0.16526370375E+02  0.51100000000E-03 0.  1.
         12    1    3    3    0    0 -0.13688205899E+02  0.25337207640E+01 -0.22920115399E+02  0.26816383268E+02  0.00000000000E+00 0. -1.
</event>
<event>
 7    1  0.5902966E-013  0.5052885E+02  0.7816164E-02  0.1300439E+00
        -11   -1    0    0    0    0  0.00000000000E+00  0.00000000000E+00  0.45593999997E+02  0.45594000000E+02  0.51100000000E-03 0.  1.
         11   -1    0    0    0    0 -0.00000000000E+00 -0.00000000000E+00 -0.45593999997E+02  0.45594000000E+02  0.51100000000E-03 0. -1.
    9900012    2    1    2    0    0 -0.93447232051E+01 -0.24915299078E+02  0.30742001608E+02  0.50528847982E+02  0.29999963927E+02 0.  0.
         12    1    1    2    0    0  0.93447232051E+01  0.24915299078E+02 -0.30742001608E+02  0.40659152018E+02  0.00000000000E+00 0. -1.
         11    1    3    3    0    0  0.16318737060E+01  0.32245389679E+01  0.22132128572E+01  0.42378030582E+01  0.51100000000E-03 0. -1.
        -11    1    3    3    0    0 -0.10158647598E+02 -0.39715025854E+01  0.34201628011E+01  0.11431030910E+02  0.51100000000E-03 0.  1.
        -12    1    3    3    0    0 -0.81794931267E+00 -0.24168335460E+02  0.25108625950E+02  0.34860014014E+02  0.00000000000E+00 0.  1.
</event>
<event>
 7    1  0.5902966E-013  0.5052885E+02  0.7816164E-02  0.1300439E+00
        -11   -1    0    0    0    0  0.00000000000E+00  0.00000000000E+00  0.45593999997E+02  0.45594000000E+02  0.51100000000E-03 0. -1.
         11   -1    0    0    0    0 -0.00000000000E+00 -0.00000000000E+00 -0.45593999997E+02  0.45594000000E+02  0.51100000000E-03 0.  1.
    9900012    2    1    2    0    0 -0.35152053207E+02  0.14525845878E+02 -0.14370080032E+02  0.50528852896E+02  0.29999978863E+02 0.  0.
         12    1    1    2    0    0  0.35152053207E+02 -0.14525845878E+02  0.14370080032E+02  0.40659147104E+02  0.00000000000E+00 0. -1.
         11    1    3    3    0    0 -0.21956919210E+02  0.20285434042E+02 -0.69171765335E+01  0.30683097414E+02  0.51100000000E-03 0. -1.
        -11    1    3    3    0    0 -0.82601470185E+01 -0.11322834095E+01 -0.96312356338E+01  0.12738633937E+02  0.51100000000E-03 0.  1.
        -12    1    3    3    0    0 -0.49349869776E+01 -0.46273047544E+01  0.21783321357E+01  0.71071215449E+01  0.00000000000E+00 0.  1.
</event>
<event>
 7    1  0.5902966E-013  0.5052888E+02  0.7816164E-02  0.1300439E+00
        -11   -1    0    0    0    0  0.00000000000E+00  0.00000000000E+00  0.45593999997E+02  0.45594000000E+02  0.51100000000E-03 0.  1.
         11   -1    0    0    0    0 -0.00000000000E+00 -0.00000000000E+00 -0.45593999997E+02  0.45594000000E+02  0.51100000000E-03 0. -1.
    9900012    2    1    2    0    0 -0.52767857405E+01  0.30921671149E+02  0.25868315666E+02  0.50528880853E+02  0.30000063840E+02 0.  0.
         12    1    1    2    0    0  0.52767857405E+01 -0.30921671149E+02 -0.25868315666E+02  0.40659119147E+02  0.00000000000E+00 0. -1.
         11    1    3    3    0    0 -0.10360072362E+02  0.13045969360E+02  0.50594925374E+01  0.17410539362E+02  0.51100000000E-03 0. -1.
        -11    1    3    3    0    0 -0.19472272438E+00  0.11015598255E+02  0.21780498982E+02  0.24408430061E+02  0.51100000000E-03 0.  1.
         12    1    3    3    0    0  0.52780093462E+01  0.68601035341E+01 -0.97167585276E+00  0.87099114301E+01  0.00000000000E+00 0. -1.
</event>
<event>
 7    1  0.5902966E-013  0.5052888E+02  0.7816164E-02  0.1300439E+00
        -11   -1    0    0    0    0  0.00000000000E+00  0.00000000000E+00  0.45593999997E+02  0.45594000000E+02  0.51100000000E-03 0.  1.
         11   -1    0    0    0    0 -0.00000000000E+00 -0.00000000000E+00 -0.45593999997E+02  0.45594000000E+02  0.51100000000E-03 0. -1.
    9900012    2    1    2    0    0  0.12623264146E+02 -0.30761608876E+02  0.23399592703E+02  0.50528876584E+02  0.30000050863E+02 0.  0.
         12    1    1    2    0    0 -0.12623264146E+02  0.30761608876E+02 -0.23399592703E+02  0.40659123416E+02  0.00000000000E+00 0. -1.
         11    1    3    3    0    0  0.12821430349E+01 -0.18020035057E+02  0.57642915549E+01  0.18962927296E+02  0.51100000000E-03 0. -1.
        -11    1    3    3    0    0  0.92706360058E+01 -0.16938754803E+02  0.80917685399E+01  0.20936638330E+02  0.51100000000E-03 0.  1.
        -12    1    3    3    0    0  0.20704851050E+01  0.41971809841E+01  0.95435326085E+01  0.10629310958E+02  0.00000000000E+00 0.  1.
</event>
<event>
 7    1  0.5902966E-013  0.5052886E+02  0.7816164E-02  0.1300439E+00
        -11   -1    0    0    0    0  0.00000000000E+00  0.00000000000E+00  0.45593999997E+02  0.45594000000E+02  0.51100000000E-03 0.  1.
         11   -1    0    0    0    0 -0.00000000000E+00 -0.00000000000E+00 -0.45593999997E+02  0.45594000000E+02  0.51100000000E-03 0. -1.
    9900012    2    1    2    0    0 -0.12264152976E+02 -0.14059224407E+02  0.36126085589E+02  0.50528864506E+02  0.30000014153E+02 0.  0.
         12    1    1    2    0    0  0.12264152976E+02  0.14059224407E+02 -0.36126085589E+02  0.40659135494E+02  0.00000000000E+00 0. -1.
         11    1    3    3    0    0 -0.61815084601E+01 -0.55848838040E+01 -0.11258146030E+01  0.84065113292E+01  0.51100000000E-03 0. -1.
        -11    1    3    3    0    0 -0.81941643652E+00 -0.52493128309E+01  0.10723721334E+01  0.54200286666E+01  0.51100000000E-03 0.  1.
        -12    1    3    3    0    0 -0.52632280796E+01 -0.32250277718E+01  0.36179528058E+02  0.36702324510E+02  0.00000000000E+00 0.  1.
</event>
<event>
 7    1  0.5902966E-013  0.5052886E+02  0.7816164E-02  0.1300439E+00
        -11   -1    0    0    0    0  0.00000000000E+00  0.00000000000E+00  0.45593999997E+02  0.45594000000E+02  0.51100000000E-03 0.  1.
         11   -1    0    0    0    0 -0.00000000000E+00 -0.00000000000E+00 -0.45593999997E+02  0.45594000000E+02  0.51100000000E-03 0. -1.
    9900012    2    1    2    0    0  0.17690601358E+02 -0.32937755190E+02  0.15978504525E+02  0.50528859574E+02  0.29999999162E+02 0.  0.
         12    1    1    2    0    0 -0.17690601358E+02  0.32937755190E+02 -0.15978504525E+02  0.40659140426E+02  0.00000000000E+00 0. -1.
         11    1    3    3    0    0 -0.36290116491E+01 -0.13950408124E+02  0.73332438809E+01  0.16172819125E+02  0.51100000000E-03 0. -1.
        -11    1    3    3    0    0  0.70689770275E+00 -0.65886635920E+01 -0.34072307540E+01  0.74511350788E+01  0.51100000000E-03 0.  1.
         12    1    3    3    0    0  0.20612715304E+02 -0.12398683473E+02  0.12052491398E+02  0.26904905370E+02  0.00000000000E+00 0. -1.
</event>
<event>
 7    1  0.5902966E-013  0.5052886E+02  0.7816164E-02  0.1300439E+00
        -11   -1    0    0    0    0  0.00000000000E+00  0.00000000000E+00  0.45593999997E+02  0.45594000000E+02  0.51100000000E-03 0.  1.
         11   -1    0    0    0    0 -0.00000000000E+00 -0.00000000000E+00 -0.45593999997E+02  0.45594000000E+02  0.51100000000E-03 0. -1.
    9900012    2    1    2    0    0 -0.11897823879E+02  0.14667769404E+02  0.36006443289E+02  0.50528860429E+02  0.30000001761E+02 0.  0.
         12    1    1    2    0    0  0.11897823879E+02 -0.14667769404E+02 -0.36006443289E+02  0.40659139571E+02  0.00000000000E+00 0. -1.
         11    1    3    3    0    0 -0.10531095562E+02  0.54527103736E+01  0.21764466043E+02  0.24785641137E+02  0.51100000000E-03 0. -1.
        -11    1    3    3    0    0 -0.33920039471E+01 -0.54545284574E+01  0.26990892126E+01  0.69672558664E+01  0.51100000000E-03 0.  1.
         12    1    3    3    0    0  0.20252756303E+01  0.14669587487E+02  0.11542888033E+02  0.18775963426E+02  0.00000000000E+00 0. -1.
</event>
<event>
 7    1  0.5902966E-013  0.5052892E+02  0.7816164E-02  0.1300439E+00
        -11   -1    0    0    0    0  0.00000000000E+00  0.00000000000E+00  0.45593999997E+02  0.45594000000E+02  0.51100000000E-03 0. -1.
         11   -1    0    0    0    0 -0.00000000000E+00 -0.00000000000E+00 -0.45593999997E+02  0.45594000000E+02  0.51100000000E-03 0.  1.
    9900012    2    1    2    0    0 -0.18665103362E+02  0.20895935070E+02 -0.29464118433E+02  0.50528924003E+02  0.30000194998E+02 0.  0.
         12    1    1    2    0    0  0.18665103362E+02 -0.20895935070E+02  0.29464118433E+02  0.40659075997E+02  0.00000000000E+00 0. -1.
         11    1    3    3    0    0 -0.12358000901E+02  0.17035024659E+02 -0.16672738608E+02  0.26849440671E+02  0.51100000000E-03 0. -1.
        -11    1    3    3    0    0  0.20905993288E+01  0.93389358626E+01 -0.83993768144E+01  0.12733258017E+02  0.51100000000E-03 0.  1.
         12    1    3    3    0    0 -0.83977017901E+01 -0.54780254515E+01 -0.43920030102E+01  0.10946225315E+02  0.00000000000E+00 0. -1.
</event>
<event>
 7    1  0.5902966E-013  0.5052886E+02  0.7816164E-02  0.1300439E+00
        -11   -1    0    0    0    0  0.00000000000E+00  0.00000000000E+00  0.45593999997E+02  0.45594000000E+02  0.51100000000E-03 0.  1.
         11   -1    0    0    0    0 -0.00000000000E+00 -0.00000000000E+00 -0.45593999997E+02  0.45594000000E+02  0.51100000000E-03 0. -1.
    9900012    2    1    2    0    0 -0.22318026848E+02  0.33857825025E+02  0.29527879897E+01  0.50528860871E+02  0.30000003103E+02 0.  0.
         12    1    1    2    0    0  0.22318026848E+02 -0.33857825025E+02 -0.29527879897E+01  0.40659139129E+02  0.00000000000E+00 0. -1.
         11    1    3    3    0    0 -0.14439076832E+01  0.56637919115E+00 -0.32350704727E+01  0.35876644227E+01  0.51100000000E-03 0. -1.
        -11    1    3    3    0    0 -0.86419120771E-01  0.59295499034E+01  0.10749684952E+02  0.12276919693E+02  0.51100000000E-03 0.  1.
        -12    1    3    3    0    0 -0.20787700044E+02  0.27361895930E+02 -0.45618264899E+01  0.34664276755E+02  0.00000000000E+00 0.  1.
</event>
<event>
 7    1  0.5902966E-013  0.5052884E+02  0.7816164E-02  0.1300439E+00
        -11   -1    0    0    0    0  0.00000000000E+00  0.00000000000E+00  0.45593999997E+02  0.45594000000E+02  0.51100000000E-03 0.  1.
         11   -1    0    0    0    0 -0.00000000000E+00 -0.00000000000E+00 -0.45593999997E+02  0.45594000000E+02  0.51100000000E-03 0. -1.
    9900012    2    1    2    0    0 -0.29638168622E+02  0.13003392353E+02  0.24610120931E+02  0.50528839849E+02  0.29999939205E+02 0.  0.
         12    1    1    2    0    0  0.29638168622E+02 -0.13003392353E+02 -0.24610120931E+02  0.40659160151E+02  0.00000000000E+00 0. -1.
         11    1    3    3    0    0 -0.60055179383E+01  0.17468254084E+01  0.28429253596E+01  0.68702161230E+01  0.51100000000E-03 0. -1.
        -11    1    3    3    0    0  0.38381629166E+01  0.19920954237E+01 -0.32151526267E+01  0.53886125696E+01  0.51100000000E-03 0.  1.
        -12    1    3    3    0    0 -0.27470813600E+02  0.92644715208E+01  0.24982348198E+02  0.38270011156E+02  0.00000000000E+00 0.  1.
</event>
<event>
 7    1  0.5902966E-013  0.5052886E+02  0.7816164E-02  0.1300439E+00
        -11   -1    0    0    0    0  0.00000000000E+00  0.00000000000E+00  0.45593999997E+02  0.45594000000E+02  0.51100000000E-03 0. -1.
         11   -1    0    0    0    0 -0.00000000000E+00 -0.00000000000E+00 -0.45593999997E+02  0.45594000000E+02  0.51100000000E-03 0.  1.
    9900012    2    1    2    0    0  0.36709899486E+02 -0.17416929502E+02 -0.14829805964E+01  0.50528863450E+02  0.30000010943E+02 0.  0.
         12    1    1    2    0    0 -0.36709899486E+02  0.17416929502E+02  0.14829805964E+01  0.40659136550E+02  0.00000000000E+00 0. -1.
         11    1    3    3    0    0  0.16323914169E+02 -0.56826084449E+01  0.48598936483E+01  0.17954965304E+02  0.51100000000E-03 0. -1.
        -11    1    3    3    0    0  0.22522078600E+02 -0.10006945411E+02 -0.11139946547E+02  0.27045912635E+02  0.51100000000E-03 0.  1.
         12    1    3    3    0    0 -0.21360932833E+01 -0.17273756459E+01  0.47970723024E+01  0.55279855112E+01  0.00000000000E+00 0. -1.
</event>
<event>
 7    1  0.5902966E-013  0.5052886E+02  0.7816164E-02  0.1300439E+00
        -11   -1    0    0    0    0  0.00000000000E+00  0.00000000000E+00  0.45593999997E+02  0.45594000000E+02  0.51100000000E-03 0.  1.
         11   -1    0    0    0    0 -0.00000000000E+00 -0.00000000000E+00 -0.45593999997E+02  0.45594000000E+02  0.51100000000E-03 0. -1.
    9900012    2    1    2    0    0  0.25576890464E+02 -0.11395851576E+02  0.29480896866E+02  0.50528855408E+02  0.29999986499E+02 0.  0.
         12    1    1    2    0    0 -0.25576890464E+02  0.11395851576E+02 -0.29480896866E+02  0.40659144592E+02  0.00000000000E+00 0. -1.
         11    1    3    3    0    0  0.67823044069E+01  0.50222215224E+01  0.10186485197E+02  0.13228259258E+02  0.51100000000E-03 0. -1.
        -11    1    3    3    0    0  0.34925648146E+01 -0.14213258663E+01  0.14977002878E+02  0.15444377348E+02  0.51100000000E-03 0.  1.
        -12    1    3    3    0    0  0.15302021242E+02 -0.14996747232E+02  0.43174087911E+01  0.21856218801E+02  0.00000000000E+00 0.  1.
</event>
<event>
 7    1  0.5902966E-013  0.5052886E+02  0.7816164E-02  0.1300439E+00
        -11   -1    0    0    0    0  0.00000000000E+00  0.00000000000E+00  0.45593999997E+02  0.45594000000E+02  0.51100000000E-03 0. -1.
         11   -1    0    0    0    0 -0.00000000000E+00 -0.00000000000E+00 -0.45593999997E+02  0.45594000000E+02  0.51100000000E-03 0.  1.
    9900012    2    1    2    0    0  0.11007998233E+02  0.29386674693E+02 -0.25853684365E+02  0.50528859946E+02  0.30000000293E+02 0.  0.
         12    1    1    2    0    0 -0.11007998233E+02 -0.29386674693E+02  0.25853684365E+02  0.40659140054E+02  0.00000000000E+00 0. -1.
         11    1    3    3    0    0  0.17085896526E+01  0.10022085045E+02  0.13204310882E+01  0.10252073243E+02  0.51100000000E-03 0. -1.
        -11    1    3    3    0    0  0.13562474369E+02  0.14916385450E+02 -0.10993693202E+02  0.22963025855E+02  0.51100000000E-03 0.  1.
         12    1    3    3    0    0 -0.42630657887E+01  0.44482041975E+01 -0.16180422251E+02  0.17313760849E+02  0.00000000000E+00 0. -1.
</event>
<event>
 7    1  0.5902966E-013  0.5052886E+02  0.7816164E-02  0.1300439E+00
        -11   -1    0    0    0    0  0.00000000000E+00  0.00000000000E+00  0.45593999997E+02  0.45594000000E+02  0.51100000000E-03 0. -1.
         11   -1    0    0    0    0 -0.00000000000E+00 -0.00000000000E+00 -0.45593999997E+02  0.45594000000E+02  0.51100000000E-03 0.  1.
    9900012    2    1    2    0    0  0.12234340041E+02 -0.33365265862E+02 -0.19754627897E+02  0.50528863689E+02  0.30000011668E+02 0.  0.
         12    1    1    2    0    0 -0.12234340041E+02  0.33365265862E+02  0.19754627897E+02  0.40659136311E+02  0.00000000000E+00 0. -1.
         11    1    3    3    0    0 -0.63467207249E+01 -0.82588061759E+01  0.59305493406E+00  0.10432663027E+02  0.51100000000E-03 0. -1.
        -11    1    3    3    0    0  0.23654071931E+01 -0.14088930435E+02 -0.12488441453E+02  0.18975096368E+02  0.51100000000E-03 0.  1.
         12    1    3    3    0    0  0.16215653572E+02 -0.11017529250E+02 -0.78592413779E+01  0.21121104294E+02  0.00000000000E+00 0. -1.
</event>
<event>
 7    1  0.5902966E-013  0.5052888E+02  0.7816164E-02  0.1300439E+00
        -11   -1    0    0    0    0  0.00000000000E+00  0.00000000000E+00  0.45593999997E+02  0.45594000000E+02  0.51100000000E-03 0.  1.
         11   -1    0    0    0    0 -0.00000000000E+00 -0.00000000000E+00 -0.45593999997E+02  0.45594000000E+02  0.51100000000E-03 0. -1.
    9900012    2    1    2    0    0 -0.16084758927E+02 -0.36404188417E+02  0.83174132798E+01  0.50528883339E+02  0.30000071396E+02 0.  0.
         12    1    1    2    0    0  0.16084758927E+02  0.36404188417E+02 -0.83174132798E+01  0.40659116661E+02  0.00000000000E+00 0. -1.
         11    1    3    3    0    0  0.70132893054E+01 -0.42594364426E+01 -0.25221210534E+01  0.85842949949E+01  0.51100000000E-03 0. -1.
        -11    1    3    3    0    0 -0.67280324826E+01 -0.78050827900E+01  0.67737089019E+01  0.12331620777E+02  0.51100000000E-03 0.  1.
        -12    1    3    3    0    0 -0.16370015750E+02 -0.24339669184E+02  0.40658254313E+01  0.29612967566E+02  0.00000000000E+00 0.  1.
</event>
<event>
 7    1  0.5902966E-013  0.5052887E+02  0.7816164E-02  0.1300439E+00
        -11   -1    0    0    0    0  0.00000000000E+00  0.00000000000E+00  0.45593999997E+02  0.45594000000E+02  0.51100000000E-03 0.  1.
         11   -1    0    0    0    0 -0.00000000000E+00 -0.00000000000E+00 -0.45593999997E+02  0.45594000000E+02  0.51100000000E-03 0. -1.
    9900012    2    1    2    0    0  0.29359219570E+02  0.15779689501E+02  0.23285248144E+02  0.50528866270E+02  0.30000019515E+02 0.  0.
         12    1    1    2    0    0 -0.29359219570E+02 -0.15779689501E+02 -0.23285248144E+02  0.40659133730E+02  0.00000000000E+00 0. -1.
         11    1    3    3    0    0 -0.17041888697E+01  0.77032649149E+01  0.17251901976E+01  0.80759415261E+01  0.51100000000E-03 0. -1.
        -11    1    3    3    0    0  0.91962034730E+01  0.30169307058E+01 -0.20323650570E+01  0.98895165295E+01  0.51100000000E-03 0.  1.
        -12    1    3    3    0    0  0.21867204967E+02  0.50594938799E+01  0.23592423003E+02  0.32563408215E+02  0.00000000000E+00 0.  1.
</event>
<event>
 7    1  0.5902966E-013  0.5052884E+02  0.7816164E-02  0.1300439E+00
        -11   -1    0    0    0    0  0.00000000000E+00  0.00000000000E+00  0.45593999997E+02  0.45594000000E+02  0.51100000000E-03 0. -1.
         11   -1    0    0    0    0 -0.00000000000E+00 -0.00000000000E+00 -0.45593999997E+02  0.45594000000E+02  0.51100000000E-03 0.  1.
    9900012    2    1    2    0    0 -0.21338150986E+01  0.38339725018E+02 -0.13367100354E+02  0.50528842935E+02  0.29999948586E+02 0.  0.
         12    1    1    2    0    0  0.21338150986E+01 -0.38339725018E+02  0.13367100354E+02  0.40659157065E+02  0.00000000000E+00 0. -1.
         11    1    3    3    0    0 -0.28565549193E+01  0.10118827385E+02  0.21433994015E+01  0.10730551473E+02  0.51100000000E-03 0. -1.
        -11    1    3    3    0    0  0.60914217586E+01  0.27180716924E+02 -0.55017861865E+01  0.28393070335E+02  0.51100000000E-03 0.  1.
         12    1    3    3    0    0 -0.53686819378E+01  0.10401807090E+01 -0.10008713569E+02  0.11405221127E+02  0.00000000000E+00 0. -1.
</event>
<event>
 7    1  0.5902966E-013  0.5052891E+02  0.7816164E-02  0.1300439E+00
        -11   -1    0    0    0    0  0.00000000000E+00  0.00000000000E+00  0.45593999997E+02  0.45594000000E+02  0.51100000000E-03 0.  1.
         11   -1    0    0    0    0 -0.00000000000E+00 -0.00000000000E+00 -0.45593999997E+02  0.45594000000E+02  0.51100000000E-03 0. -1.
    9900012    2    1    2    0    0 -0.31168195344E+02 -0.21397676500E+02 -0.14961451262E+02  0.50528905267E+02  0.30000138050E+02 0.  0.
         12    1    1    2    0    0  0.31168195344E+02  0.21397676500E+02  0.14961451262E+02  0.40659094733E+02  0.00000000000E+00 0. -1.
         11    1    3    3    0    0  0.51384666649E+00 -0.29539084493E+01 -0.86029208807E+01  0.91104259760E+01  0.51100000000E-03 0. -1.
        -11    1    3    3    0    0 -0.10727676507E+02  0.19099050676E+01  0.19010886740E+01  0.11060963747E+02  0.51100000000E-03 0.  1.
        -12    1    3    3    0    0 -0.20954365504E+02 -0.20353673119E+02 -0.82596190551E+01  0.30357515545E+02  0.00000000000E+00 0.  1.
</event>
<event>
 7    1  0.5902966E-013  0.5052889E+02  0.7816164E-02  0.1300439E+00
        -11   -1    0    0    0    0  0.00000000000E+00  0.00000000000E+00  0.45593999997E+02  0.45594000000E+02  0.51100000000E-03 0. -1.
         11   -1    0    0    0    0 -0.00000000000E+00 -0.00000000000E+00 -0.45593999997E+02  0.45594000000E+02  0.51100000000E-03 0.  1.
    9900012    2    1    2    0    0 -0.13941633452E+02 -0.36011516186E+02 -0.12726539820E+02  0.50528889618E+02  0.30000090481E+02 0.  0.
         12    1    1    2    0    0  0.13941633452E+02  0.36011516186E+02  0.12726539820E+02  0.40659110382E+02  0.00000000000E+00 0. -1.
         11    1    3    3    0    0  0.86925609415E+00 -0.81787230597E+01 -0.10129943108E+02  0.13048481317E+02  0.51100000000E-03 0. -1.
        -11    1    3    3    0    0 -0.14956858381E+02 -0.18700022711E+02 -0.97742004724E+01  0.25863747933E+02  0.51100000000E-03 0.  1.
         12    1    3    3    0    0  0.14596883489E+00 -0.91327704152E+01  0.71776037603E+01  0.11616660368E+02  0.00000000000E+00 0. -1.
</event>
<event>
 7    1  0.5902966E-013  0.5052886E+02  0.7816164E-02  0.1300439E+00
        -11   -1    0    0    0    0  0.00000000000E+00  0.00000000000E+00  0.45593999997E+02  0.45594000000E+02  0.51100000000E-03 0.  1.
         11   -1    0    0    0    0 -0.00000000000E+00 -0.00000000000E+00 -0.45593999997E+02  0.45594000000E+02  0.51100000000E-03 0. -1.
    9900012    2    1    2    0    0  0.66867631809E+01  0.94567071837E+01  0.38974652296E+02  0.50528860385E+02  0.30000001627E+02 0.  0.
         12    1    1    2    0    0 -0.66867631809E+01 -0.94567071837E+01 -0.38974652296E+02  0.40659139615E+02  0.00000000000E+00 0. -1.
         11    1    3    3    0    0  0.10283334446E+01 -0.76779333774E-01  0.19607066891E+01  0.22153409944E+01  0.51100000000E-03 0. -1.
        -11    1    3    3    0    0  0.17451930119E+02  0.42851803799E+01  0.24012902160E+02  0.29992534174E+02  0.51100000000E-03 0.  1.
         12    1    3    3    0    0 -0.11793500383E+02  0.52483061377E+01  0.13001043448E+02  0.18320985217E+02  0.00000000000E+00 0. -1.
</event>
<event>
 7    1  0.5902966E-013  0.5052881E+02  0.7816164E-02  0.1300439E+00
        -11   -1    0    0    0    0  0.00000000000E+00  0.00000000000E+00  0.45593999997E+02  0.45594000000E+02  0.51100000000E-03 0. -1.
         11   -1    0    0    0    0 -0.00000000000E+00 -0.00000000000E+00 -0.45593999997E+02  0.45594000000E+02  0.51100000000E-03 0.  1.
    9900012    2    1    2    0    0 -0.46433714914E+01 -0.31341233576E+02  0.25482073550E+02  0.50528808009E+02  0.29999842425E+02 0.  0.
         12    1    1    2    0    0  0.46433714914E+01  0.31341233576E+02 -0.25482073550E+02  0.40659191991E+02  0.00000000000E+00 0. -1.
         11    1    3    3    0    0 -0.16133726493E+01 -0.43047966206E+01 -0.39873740923E+01  0.60855071821E+01  0.51100000000E-03 0. -1.
        -11    1    3    3    0    0 -0.37124091109E+01 -0.19751687280E+02  0.77763330301E+01  0.21549535667E+02  0.51100000000E-03 0.  1.
         12    1    3    3    0    0  0.68241026882E+00 -0.72847496760E+01  0.21693114613E+02  0.22893765160E+02  0.00000000000E+00 0. -1.
</event>
<event>
 7    1  0.5902966E-013  0.5052887E+02  0.7816164E-02  0.1300439E+00
        -11   -1    0    0    0    0  0.00000000000E+00  0.00000000000E+00  0.45593999997E+02  0.45594000000E+02  0.51100000000E-03 0.  1.
         11   -1    0    0    0    0 -0.00000000000E+00 -0.00000000000E+00 -0.45593999997E+02  0.45594000000E+02  0.51100000000E-03 0. -1.
    9900012    2    1    2    0    0  0.27522347463E+02  0.27900310801E+02  0.10828583945E+02  0.50528865935E+02  0.30000018496E+02 0.  0.
         12    1    1    2    0    0 -0.27522347463E+02 -0.27900310801E+02 -0.10828583945E+02  0.40659134065E+02  0.00000000000E+00 0. -1.
         11    1    3    3    0    0  0.82102343168E+01  0.40405041716E+01  0.50677545904E+01  0.10460198772E+02  0.51100000000E-03 0. -1.
        -11    1    3    3    0    0  0.95808614828E+01  0.23469937653E+02  0.12461178251E+02  0.28247333394E+02  0.51100000000E-03 0.  1.
         12    1    3    3    0    0  0.97312516632E+01  0.38986897670E+00 -0.67003488966E+01  0.11821333769E+02  0.00000000000E+00 0. -1.
</event>
<event>
 7    1  0.5902966E-013  0.5052886E+02  0.7816164E-02  0.1300439E+00
        -11   -1    0    0    0    0  0.00000000000E+00  0.00000000000E+00  0.45593999997E+02  0.45594000000E+02  0.51100000000E-03 0. -1.
         11   -1    0    0    0    0 -0.00000000000E+00 -0.00000000000E+00 -0.45593999997E+02  0.45594000000E+02  0.51100000000E-03 0.  1.
    9900012    2    1    2    0    0 -0.15464868345E+02 -0.21891837988E+02 -0.30573694853E+02  0.50528861539E+02  0.30000005133E+02 0.  0.
         12    1    1    2    0    0  0.15464868345E+02  0.21891837988E+02  0.30573694853E+02  0.40659138461E+02  0.00000000000E+00 0. -1.
         11    1    3    3    0    0 -0.86999703843E+01 -0.45988582610E+01 -0.13438438230E+01  0.99320138176E+01  0.51100000000E-03 0. -1.
        -11    1    3    3    0    0  0.91330846902E+00  0.22158882808E+01 -0.15159004457E+02  0.15347303008E+02  0.51100000000E-03 0.  1.
        -12    1    3    3    0    0 -0.76782064301E+01 -0.19508868008E+02 -0.14070846574E+02  0.25249544713E+02  0.00000000000E+00 0.  1.
</event>
<event>
 7    1  0.7381696E-013  0.5052886E+02  0.7816164E-02  0.1300439E+00
        -11   -1    0    0    0    0  0.00000000000E+00  0.00000000000E+00  0.45593999997E+02  0.45594000000E+02  0.51100000000E-03 0. -1.
         11   -1    0    0    0    0 -0.00000000000E+00 -0.00000000000E+00 -0.45593999997E+02  0.45594000000E+02  0.51100000000E-03 0.  1.
    9900012    2    1    2    0    0 -0.76797237310E+01 -0.48149710435E+00 -0.39924376139E+02  0.50528858271E+02  0.29999995201E+02 0.  0.
         12    1    1    2    0    0  0.76797237310E+01  0.48149710435E+00  0.39924376139E+02  0.40659141729E+02  0.00000000000E+00 0. -1.
         11    1    3    3    0    0 -0.10511799739E+02 -0.33381912552E+01 -0.52760281824E+01  0.12226116646E+02  0.51100000000E-03 0.  1.
        -11    1    3    3    0    0  0.25245587125E+01  0.16370333462E+00  0.87441920492E+00  0.26767152784E+01  0.51100000000E-03 0. -1.
        -12    1    3    3    0    0  0.30751729544E+00  0.26929908163E+01 -0.35522767162E+02  0.35626026346E+02  0.00000000000E+00 0.  1.
</event>
<event>
 7    1  0.5902966E-013  0.5052886E+02  0.7816164E-02  0.1300439E+00
        -11   -1    0    0    0    0  0.00000000000E+00  0.00000000000E+00  0.45593999997E+02  0.45594000000E+02  0.51100000000E-03 0.  1.
         11   -1    0    0    0    0 -0.00000000000E+00 -0.00000000000E+00 -0.45593999997E+02  0.45594000000E+02  0.51100000000E-03 0. -1.
    9900012    2    1    2    0    0  0.32638664207E+02  0.17195608374E+02  0.17093682108E+02  0.50528864291E+02  0.30000013499E+02 0.  0.
         12    1    1    2    0    0 -0.32638664207E+02 -0.17195608374E+02 -0.17093682108E+02  0.40659135709E+02  0.00000000000E+00 0. -1.
         11    1    3    3    0    0  0.17169124414E+02  0.58005375697E+01  0.31675474014E+01  0.18397239631E+02  0.51100000000E-03 0. -1.
        -11    1    3    3    0    0  0.12682757409E+02 -0.14762600517E+01  0.14018414705E+02  0.18961741226E+02  0.51100000000E-03 0.  1.
         12    1    3    3    0    0  0.27867823846E+01  0.12871330856E+02 -0.92279998591E-01  0.13169883434E+02  0.00000000000E+00 0. -1.
</event>
<event>
 7    1  0.5902966E-013  0.5052885E+02  0.7816164E-02  0.1300439E+00
        -11   -1    0    0    0    0  0.00000000000E+00  0.00000000000E+00  0.45593999997E+02  0.45594000000E+02  0.51100000000E-03 0.  1.
         11   -1    0    0    0    0 -0.00000000000E+00 -0.00000000000E+00 -0.45593999997E+02  0.45594000000E+02  0.51100000000E-03 0. -1.
    9900012    2    1    2    0    0 -0.12717333912E+02 -0.30816420982E+02  0.23276254456E+02  0.50528850901E+02  0.29999972798E+02 0.  0.
         12    1    1    2    0    0  0.12717333912E+02  0.30816420982E+02 -0.23276254456E+02  0.40659149099E+02  0.00000000000E+00 0. -1.
         11    1    3    3    0    0 -0.15467763005E+02 -0.17944466343E+02  0.69635933313E+01  0.24693059694E+02  0.51100000000E-03 0. -1.
        -11    1    3    3    0    0 -0.43745900116E+01  0.93626731346E+00  0.41709488237E+01  0.61164081455E+01  0.51100000000E-03 0.  1.
         12    1    3    3    0    0  0.71250191041E+01 -0.13808221952E+02  0.12141712301E+02  0.19719383061E+02  0.00000000000E+00 0. -1.
</event>
<event>
 7    1  0.5902966E-013  0.5052882E+02  0.7816164E-02  0.1300439E+00
        -11   -1    0    0    0    0  0.00000000000E+00  0.00000000000E+00  0.45593999997E+02  0.45594000000E+02  0.51100000000E-03 0.  1.
         11   -1    0    0    0    0 -0.00000000000E+00 -0.00000000000E+00 -0.45593999997E+02  0.45594000000E+02  0.51100000000E-03 0. -1.
    9900012    2    1    2    0    0  0.39545071472E+02 -0.38205563569E+00  0.94451117433E+01  0.50528821699E+02  0.29999884037E+02 0.  0.
         12    1    1    2    0    0 -0.39545071472E+02  0.38205563569E+00 -0.94451117433E+01  0.40659178301E+02  0.00000000000E+00 0. -1.
         11    1    3    3    0    0  0.26233067667E+02  0.56311865777E+01  0.84319139686E+01  0.28124389325E+02  0.51100000000E-03 0. -1.
        -11    1    3    3    0    0  0.17413417172E+02 -0.43014159816E+01  0.86418909795E+00  0.17957619556E+02  0.51100000000E-03 0.  1.
        -12    1    3    3    0    0 -0.41014133668E+01 -0.17118262317E+01  0.14900867669E+00  0.44468128180E+01  0.00000000000E+00 0.  1.
</event>
<event>
 7    1  0.5902966E-013  0.5052899E+02  0.7816164E-02  0.1300438E+00
        -11   -1    0    0    0    0  0.00000000000E+00  0.00000000000E+00  0.45593999997E+02  0.45594000000E+02  0.51100000000E-03 0.  1.
         11   -1    0    0    0    0 -0.00000000000E+00 -0.00000000000E+00 -0.45593999997E+02  0.45594000000E+02  0.51100000000E-03 0. -1.
    9900012    2    1    2    0    0 -0.31083023656E+02  0.10647700490E+02  0.23950509454E+02  0.50528993760E+02  0.30000407029E+02 0.  0.
         12    1    1    2    0    0  0.31083023656E+02 -0.10647700490E+02 -0.23950509454E+02  0.40659006240E+02  0.00000000000E+00 0. -1.
         11    1    3    3    0    0 -0.14216055017E+02  0.11216976421E+02  0.65992444363E+00  0.18120493393E+02  0.51100000000E-03 0.  1.
        -11    1    3    3    0    0  0.17757130199E+01 -0.20280096146E+01  0.21040130811E+00  0.27037471586E+01  0.51100000000E-03 0. -1.
         12    1    3    3    0    0 -0.18642681659E+02  0.14587336833E+01  0.23080183702E+02  0.29704753208E+02  0.00000000000E+00 0. -1.
</event>
<event>
 7    1  0.5902966E-013  0.5052886E+02  0.7816164E-02  0.1300439E+00
        -11   -1    0    0    0    0  0.00000000000E+00  0.00000000000E+00  0.45593999997E+02  0.45594000000E+02  0.51100000000E-03 0. -1.
         11   -1    0    0    0    0 -0.00000000000E+00 -0.00000000000E+00 -0.45593999997E+02  0.45594000000E+02  0.51100000000E-03 0.  1.
    9900012    2    1    2    0    0 -0.15758369945E+02  0.25096565406E+02 -0.27838851580E+02  0.50528862334E+02  0.30000007550E+02 0.  0.
         12    1    1    2    0    0  0.15758369945E+02 -0.25096565406E+02  0.27838851580E+02  0.40659137666E+02  0.00000000000E+00 0. -1.
         11    1    3    3    0    0 -0.27543023868E+01  0.15910734091E+02 -0.91623190624E+01  0.18565713878E+02  0.51100000000E-03 0. -1.
        -11    1    3    3    0    0 -0.74583920078E+01  0.95463191760E+01 -0.22265357833E+02  0.25347701687E+02  0.51100000000E-03 0.  1.
        -12    1    3    3    0    0 -0.55456755499E+01 -0.36048786079E+00  0.35888253153E+01  0.66154467685E+01  0.00000000000E+00 0.  1.
</event>
<event>
 7    1  0.5902966E-013  0.5052886E+02  0.7816164E-02  0.1300439E+00
        -11   -1    0    0    0    0  0.00000000000E+00  0.00000000000E+00  0.45593999997E+02  0.45594000000E+02  0.51100000000E-03 0. -1.
         11   -1    0    0    0    0 -0.00000000000E+00 -0.00000000000E+00 -0.45593999997E+02  0.45594000000E+02  0.51100000000E-03 0.  1.
    9900012    2    1    2    0    0  0.16965693918E+02 -0.36714269450E+02  0.41705240299E+01  0.50528860535E+02  0.30000002083E+02 0.  0.
         12    1    1    2    0    0 -0.16965693918E+02  0.36714269450E+02 -0.41705240299E+01  0.40659139465E+02  0.00000000000E+00 0. -1.
         11    1    3    3    0    0 -0.65995203151E+01 -0.12922042087E+02 -0.28245709677E+01  0.14782118979E+02  0.51100000000E-03 0. -1.
        -11    1    3    3    0    0  0.48387464409E+01 -0.11558084130E+02  0.89879205997E+00  0.12562269035E+02  0.51100000000E-03 0.  1.
         12    1    3    3    0    0  0.18726467792E+02 -0.12234143233E+02  0.60963029376E+01  0.23184472522E+02  0.00000000000E+00 0. -1.
</event>
<event>
 7    1  0.5902966E-013  0.5052886E+02  0.7816164E-02  0.1300439E+00
        -11   -1    0    0    0    0  0.00000000000E+00  0.00000000000E+00  0.45593999997E+02  0.45594000000E+02  0.51100000000E-03 0. -1.
         11   -1    0    0    0    0 -0.00000000000E+00 -0.00000000000E+00 -0.45593999997E+02  0.45594000000E+02  0.51100000000E-03 0.  1.
    9900012    2    1    2    0    0 -0.19036910966E+02 -0.35604377576E+02 -0.48052295251E+01  0.50528856963E+02  0.29999991226E+02 0.  0.
         12    1    1    2    0    0  0.19036910966E+02  0.35604377576E+02  0.48052295251E+01  0.40659143037E+02  0.00000000000E+00 0. -1.
         11    1    3    3    0    0 -0.93836940556E+01 -0.26768698533E+01  0.58972459072E+01  0.11401616372E+02  0.51100000000E-03 0. -1.
        -11    1    3    3    0    0  0.22483659919E+00 -0.11209844433E+02  0.30095945228E+01  0.11608997509E+02  0.51100000000E-03 0.  1.
        -12    1    3    3    0    0 -0.98780535101E+01 -0.21717663289E+02 -0.13712069955E+02  0.27518243082E+02  0.00000000000E+00 0.  1.
</event>
<event>
 7    1  0.5902966E-013  0.5052886E+02  0.7816164E-02  0.1300439E+00
        -11   -1    0    0    0    0  0.00000000000E+00  0.00000000000E+00  0.45593999997E+02  0.45594000000E+02  0.51100000000E-03 0. -1.
         11   -1    0    0    0    0 -0.00000000000E+00 -0.00000000000E+00 -0.45593999997E+02  0.45594000000E+02  0.51100000000E-03 0.  1.
    9900012    2    1    2    0    0  0.24006780926E+02  0.32425285006E+02  0.50439172939E+01  0.50528859086E+02  0.29999997679E+02 0.  0.
         12    1    1    2    0    0 -0.24006780926E+02 -0.32425285006E+02 -0.50439172939E+01  0.40659140914E+02  0.00000000000E+00 0. -1.
         11    1    3    3    0    0  0.18723099093E+02  0.44383916549E+01  0.10954302649E+01  0.19273134873E+02  0.51100000000E-03 0. -1.
        -11    1    3    3    0    0  0.86573324890E+01  0.20453454309E+02  0.25237268635E+00  0.22211638644E+02  0.51100000000E-03 0.  1.
        -12    1    3    3    0    0 -0.33736506558E+01  0.75334390422E+01  0.36961143426E+01  0.90440855693E+01  0.00000000000E+00 0.  1.
</event>
<event>
 7    1  0.5902966E-013  0.5052889E+02  0.7816164E-02  0.1300439E+00
        -11   -1    0    0    0    0  0.00000000000E+00  0.00000000000E+00  0.45593999997E+02  0.45594000000E+02  0.51100000000E-03 0. -1.
         11   -1    0    0    0    0 -0.00000000000E+00 -0.00000000000E+00 -0.45593999997E+02  0.45594000000E+02  0.51100000000E-03 0.  1.
    9900012    2    1    2    0    0 -0.36813827374E+02  0.12534696040E+02 -0.11865346401E+02  0.50528893566E+02  0.30000102484E+02 0.  0.
         12    1    1    2    0    0  0.36813827374E+02 -0.12534696040E+02  0.11865346401E+02  0.40659106434E+02  0.00000000000E+00 0. -1.
         11    1    3    3    0    0  0.24082207392E+01 -0.19939777505E+01  0.12151836168E+01  0.33544218401E+01  0.51100000000E-03 0. -1.
        -11    1    3    3    0    0 -0.68827274360E+01  0.24668567413E+01 -0.10185184921E+02  0.12537755432E+02  0.51100000000E-03 0.  1.
        -12    1    3    3    0    0 -0.32339320677E+02  0.12061817049E+02 -0.28953450968E+01  0.34636716294E+02  0.00000000000E+00 0.  1.
</event>
<event>
 7    1  0.5902966E-013  0.5052886E+02  0.7816164E-02  0.1300439E+00
        -11   -1    0    0    0    0  0.00000000000E+00  0.00000000000E+00  0.45593999997E+02  0.45594000000E+02  0.51100000000E-03 0. -1.
         11   -1    0    0    0    0 -0.00000000000E+00 -0.00000000000E+00 -0.45593999997E+02  0.45594000000E+02  0.51100000000E-03 0.  1.
    9900012    2    1    2    0    0 -0.19269039575E+02 -0.45181825668E+01 -0.35516982649E+02  0.50528856916E+02  0.29999991082E+02 0.  0.
         12    1    1    2    0    0  0.19269039575E+02  0.45181825668E+01  0.35516982649E+02  0.40659143084E+02  0.00000000000E+00 0. -1.
         11    1    3    3    0    0  0.17791400602E+01 -0.71020325334E+00 -0.17117891931E+02  0.17224748255E+02  0.51100000000E-03 0. -1.
        -11    1    3    3    0    0  0.17332733555E+01  0.14846804823E+01 -0.68493536772E+01  0.72195677652E+01  0.51100000000E-03 0.  1.
        -12    1    3    3    0    0 -0.22781452990E+02 -0.52926597957E+01 -0.11549737041E+02  0.26084540896E+02  0.00000000000E+00 0.  1.
</event>
<event>
 7    1  0.6579618E-013  0.5052886E+02  0.7816164E-02  0.1300439E+00
        -11   -1    0    0    0    0  0.00000000000E+00  0.00000000000E+00  0.45593999997E+02  0.45594000000E+02  0.51100000000E-03 0. -1.
         11   -1    0    0    0    0 -0.00000000000E+00 -0.00000000000E+00 -0.45593999997E+02  0.45594000000E+02  0.51100000000E-03 0.  1.
    9900012    2    1    2    0    0  0.17508803318E+02 -0.19419174302E+02 -0.31136841389E+02  0.50528863071E+02  0.30000009790E+02 0.  0.
         12    1    1    2    0    0 -0.17508803318E+02  0.19419174302E+02  0.31136841389E+02  0.40659136929E+02  0.00000000000E+00 0. -1.
         11    1    3    3    0    0  0.24566964082E+01 -0.74234240993E+00  0.33227983512E+01  0.41985019518E+01  0.51100000000E-03 0. -1.
        -11    1    3    3    0    0  0.16531367067E+02 -0.50846003391E+01 -0.19321292369E+02  0.25931671692E+02  0.51100000000E-03 0.  1.
         12    1    3    3    0    0 -0.14792601573E+01 -0.13592231553E+02 -0.15138347371E+02  0.20398689426E+02  0.00000000000E+00 0. -1.
</event>
<event>
 7    1  0.5902966E-013  0.5052894E+02  0.7816164E-02  0.1300439E+00
        -11   -1    0    0    0    0  0.00000000000E+00  0.00000000000E+00  0.45593999997E+02  0.45594000000E+02  0.51100000000E-03 0. -1.
         11   -1    0    0    0    0 -0.00000000000E+00 -0.00000000000E+00 -0.45593999997E+02  0.45594000000E+02  0.51100000000E-03 0.  1.
    9900012    2    1    2    0    0  0.18656032296E+02 -0.13018748669E+02 -0.33699017389E+02  0.50528940359E+02  0.30000244714E+02 0.  0.
         12    1    1    2    0    0 -0.18656032296E+02  0.13018748669E+02  0.33699017389E+02  0.40659059641E+02  0.00000000000E+00 0. -1.
         11    1    3    3    0    0  0.29450839321E+01 -0.11993266335E+02 -0.17391393574E+02  0.21330085032E+02  0.51100000000E-03 0. -1.
        -11    1    3    3    0    0  0.94167409032E+01 -0.29316359552E+01 -0.19527241976E+02  0.21876532588E+02  0.51100000000E-03 0.  1.
         12    1    3    3    0    0  0.62942074606E+01  0.19061536213E+01  0.32196181619E+01  0.73223227390E+01  0.00000000000E+00 0. -1.
</event>
<event>
 7    1  0.5902966E-013  0.5052887E+02  0.7816164E-02  0.1300439E+00
        -11   -1    0    0    0    0  0.00000000000E+00  0.00000000000E+00  0.45593999997E+02  0.45594000000E+02  0.51100000000E-03 0. -1.
         11   -1    0    0    0    0 -0.00000000000E+00 -0.00000000000E+00 -0.45593999997E+02  0.45594000000E+02  0.51100000000E-03 0.  1.
    9900012    2    1    2    0    0 -0.31236703817E+02  0.39927203622E+01  0.25719482126E+02  0.50528865208E+02  0.30000016285E+02 0.  0.
         12    1    1    2    0    0  0.31236703817E+02 -0.39927203622E+01 -0.25719482126E+02  0.40659134792E+02  0.00000000000E+00 0. -1.
         11    1    3    3    0    0 -0.27334510643E+02  0.66116382460E+01  0.24854526385E+02  0.37531809369E+02  0.51100000000E-03 0. -1.
        -11    1    3    3    0    0 -0.46534785373E+01  0.28981872269E+01 -0.29711057181E+01  0.62355289389E+01  0.51100000000E-03 0.  1.
        -12    1    3    3    0    0  0.75128536401E+00 -0.55171051107E+01  0.38360614587E+01  0.67615268997E+01  0.00000000000E+00 0.  1.
</event>
<event>
 7    1  0.5902966E-013  0.5052884E+02  0.7816164E-02  0.1300439E+00
        -11   -1    0    0    0    0  0.00000000000E+00  0.00000000000E+00  0.45593999997E+02  0.45594000000E+02  0.51100000000E-03 0.  1.
         11   -1    0    0    0    0 -0.00000000000E+00 -0.00000000000E+00 -0.45593999997E+02  0.45594000000E+02  0.51100000000E-03 0. -1.
    9900012    2    1    2    0    0  0.29154953960E+02 -0.27829402616E+01  0.28203033756E+02  0.50528841008E+02  0.29999942728E+02 0.  0.
         12    1    1    2    0    0 -0.29154953960E+02  0.27829402616E+01 -0.28203033756E+02  0.40659158992E+02  0.00000000000E+00 0. -1.
         11    1    3    3    0    0 -0.37693584822E+01  0.28319005803E+01  0.34483506268E+01  0.58411340140E+01  0.51100000000E-03 0.  1.
        -11    1    3    3    0    0  0.18728974840E+02 -0.64098743078E+01  0.51215981645E+01  0.20447292124E+02  0.51100000000E-03 0. -1.
        -12    1    3    3    0    0  0.14195337602E+02  0.79503346592E+00  0.19633084965E+02  0.24240414870E+02  0.00000000000E+00 0.  1.
</event>
<event>
 7    1  0.5902966E-013  0.5052886E+02  0.7816164E-02  0.1300439E+00
        -11   -1    0    0    0    0  0.00000000000E+00  0.00000000000E+00  0.45593999997E+02  0.45594000000E+02  0.51100000000E-03 0.  1.
         11   -1    0    0    0    0 -0.00000000000E+00 -0.00000000000E+00 -0.45593999997E+02  0.45594000000E+02  0.51100000000E-03 0. -1.
    9900012    2    1    2    0    0 -0.54250637317E+01 -0.34744680616E+02  0.20409354744E+02  0.50528857011E+02  0.29999991369E+02 0.  0.
         12    1    1    2    0    0  0.54250637317E+01  0.34744680616E+02 -0.20409354744E+02  0.40659142989E+02  0.00000000000E+00 0. -1.
         11    1    3    3    0    0 -0.40066814946E+01 -0.29205309355E+01  0.29731385471E+01  0.57812239730E+01  0.51100000000E-03 0. -1.
        -11    1    3    3    0    0  0.16966204736E+00 -0.23806095202E+02  0.24341078157E+02  0.34047717105E+02  0.51100000000E-03 0.  1.
         12    1    3    3    0    0 -0.15880442845E+01 -0.80180544781E+01 -0.69048619604E+01  0.10699915932E+02  0.00000000000E+00 0. -1.
</event>
<event>
 7    1  0.5902966E-013  0.5052885E+02  0.7816164E-02  0.1300439E+00
        -11   -1    0    0    0    0  0.00000000000E+00  0.00000000000E+00  0.45593999997E+02  0.45594000000E+02  0.51100000000E-03 0.  1.
         11   -1    0    0    0    0 -0.00000000000E+00 -0.00000000000E+00 -0.45593999997E+02  0.45594000000E+02  0.51100000000E-03 0. -1.
    9900012    2    1    2    0    0 -0.38571496268E+02 -0.72143363399E+01  0.10647035435E+02  0.50528851746E+02  0.29999975368E+02 0.  0.
         12    1    1    2    0    0  0.38571496268E+02  0.72143363399E+01 -0.10647035435E+02  0.40659148254E+02  0.00000000000E+00 0. -1.
         11    1    3    3    0    0 -0.12513245187E+02 -0.76272379277E+01  0.91364265136E+01  0.17269347215E+02  0.51100000000E-03 0. -1.
        -11    1    3    3    0    0 -0.16212933704E+02 -0.93136479803E+01  0.41935813725E+01  0.19162186279E+02  0.51100000000E-03 0.  1.
        -12    1    3    3    0    0 -0.98453173762E+01  0.97265495681E+01 -0.26829724507E+01  0.14097318252E+02  0.00000000000E+00 0.  1.
</event>
<event>
 7    1  0.5902966E-013  0.5052889E+02  0.7816164E-02  0.1300439E+00
        -11   -1    0    0    0    0  0.00000000000E+00  0.00000000000E+00  0.45593999997E+02  0.45594000000E+02  0.51100000000E-03 0.  1.
         11   -1    0    0    0    0 -0.00000000000E+00 -0.00000000000E+00 -0.45593999997E+02  0.45594000000E+02  0.51100000000E-03 0. -1.
    9900012    2    1    2    0    0 -0.94052305670E+01  0.33260508271E+02  0.21411300007E+02  0.50528886133E+02  0.30000079889E+02 0.  0.
         12    1    1    2    0    0  0.94052305670E+01 -0.33260508271E+02 -0.21411300007E+02  0.40659113867E+02  0.00000000000E+00 0. -1.
         11    1    3    3    0    0  0.38701060032E+01 -0.27346806479E+01  0.29826741288E+00  0.47481746422E+01  0.51100000000E-03 0. -1.
        -11    1    3    3    0    0 -0.58877920441E+01  0.26318837054E+01  0.32403125785E+01  0.72175156987E+01  0.51100000000E-03 0.  1.
        -12    1    3    3    0    0 -0.73875445261E+01  0.33363305214E+02  0.17872720016E+02  0.38563195792E+02  0.00000000000E+00 0.  1.
</event>
<event>
 7    1  0.5902966E-013  0.5052886E+02  0.7816164E-02  0.1300439E+00
        -11   -1    0    0    0    0  0.00000000000E+00  0.00000000000E+00  0.45593999997E+02  0.45594000000E+02  0.51100000000E-03 0.  1.
         11   -1    0    0    0    0 -0.00000000000E+00 -0.00000000000E+00 -0.45593999997E+02  0.45594000000E+02  0.51100000000E-03 0. -1.
    9900012    2    1    2    0    0 -0.74520155012E+01 -0.15376268631E+01  0.39940815877E+02  0.50528860752E+02  0.30000002743E+02 0.  0.
         12    1    1    2    0    0  0.74520155012E+01  0.15376268631E+01 -0.39940815877E+02  0.40659139248E+02  0.00000000000E+00 0. -1.
         11    1    3    3    0    0 -0.65575825448E+01 -0.45041418689E+01 -0.13523633778E+01  0.80695768027E+01  0.51100000000E-03 0. -1.
        -11    1    3    3    0    0 -0.23475952218E+01  0.59817454052E+01  0.24013371103E+02  0.24858287821E+02  0.51100000000E-03 0.  1.
        -12    1    3    3    0    0  0.14531622654E+01 -0.30152303993E+01  0.17279808152E+02  0.17600996128E+02  0.00000000000E+00 0.  1.
</event>
<event>
 7    1  0.5902966E-013  0.5052886E+02  0.7816164E-02  0.1300439E+00
        -11   -1    0    0    0    0  0.00000000000E+00  0.00000000000E+00  0.45593999997E+02  0.45594000000E+02  0.51100000000E-03 0.  1.
         11   -1    0    0    0    0 -0.00000000000E+00 -0.00000000000E+00 -0.45593999997E+02  0.45594000000E+02  0.51100000000E-03 0. -1.
    9900012    2    1    2    0    0  0.24350464172E+02 -0.19883393640E+02  0.25785095396E+02  0.50528860897E+02  0.30000003183E+02 0.  0.
         12    1    1    2    0    0 -0.24350464172E+02  0.19883393640E+02 -0.25785095396E+02  0.40659139103E+02  0.00000000000E+00 0. -1.
         11    1    3    3    0    0  0.44313503103E+01 -0.78157867638E+01 -0.22824908895E+01  0.92700136586E+01  0.51100000000E-03 0. -1.
        -11    1    3    3    0    0  0.14906811270E+01  0.43863000182E+01  0.87395612104E+01  0.98914957657E+01  0.51100000000E-03 0.  1.
         12    1    3    3    0    0  0.18428432734E+02 -0.16453906895E+02  0.19328025075E+02  0.31367351473E+02  0.00000000000E+00 0. -1.
</event>
<event>
 7    1  0.5902966E-013  0.5052886E+02  0.7816164E-02  0.1300439E+00
        -11   -1    0    0    0    0  0.00000000000E+00  0.00000000000E+00  0.45593999997E+02  0.45594000000E+02  0.51100000000E-03 0.  1.
         11   -1    0    0    0    0 -0.00000000000E+00 -0.00000000000E+00 -0.45593999997E+02  0.45594000000E+02  0.51100000000E-03 0. -1.
    9900012    2    1    2    0    0 -0.52349066332E+01  0.22856371171E+02  0.33216672328E+02  0.50528864850E+02  0.30000015199E+02 0.  0.
         12    1    1    2    0    0  0.52349066332E+01 -0.22856371171E+02 -0.33216672328E+02  0.40659135150E+02  0.00000000000E+00 0. -1.
         11    1    3    3    0    0  0.42547126915E+01 -0.26541961957E+01  0.29599017536E+01  0.58230881999E+01  0.51100000000E-03 0. -1.
        -11    1    3    3    0    0  0.32590265933E+01  0.10003429342E+02  0.18926676433E+02  0.21654305207E+02  0.51100000000E-03 0.  1.
         12    1    3    3    0    0 -0.12748645918E+02  0.15507138025E+02  0.11330094142E+02  0.23051471444E+02  0.00000000000E+00 0. -1.
</event>
<event>
 7    1  0.5902966E-013  0.5052886E+02  0.7816164E-02  0.1300439E+00
        -11   -1    0    0    0    0  0.00000000000E+00  0.00000000000E+00  0.45593999997E+02  0.45594000000E+02  0.51100000000E-03 0.  1.
         11   -1    0    0    0    0 -0.00000000000E+00 -0.00000000000E+00 -0.45593999997E+02  0.45594000000E+02  0.51100000000E-03 0. -1.
    9900012    2    1    2    0    0  0.30915944945E+02 -0.26352773697E+02 -0.17033343894E+01  0.50528859805E+02  0.29999999864E+02 0.  0.
         12    1    1    2    0    0 -0.30915944945E+02  0.26352773697E+02  0.17033343894E+01  0.40659140195E+02  0.00000000000E+00 0. -1.
         11    1    3    3    0    0  0.40705576562E+01  0.36149042947E+01 -0.73233862941E+01  0.91251827250E+01  0.51100000000E-03 0. -1.
        -11    1    3    3    0    0  0.64910528976E+01 -0.65158902215E+01  0.47198757632E+01  0.10337689325E+02  0.51100000000E-03 0.  1.
        -12    1    3    3    0    0  0.20354334391E+02 -0.23451787770E+02  0.90017614147E+00  0.31065987755E+02  0.00000000000E+00 0.  1.
</event>
<event>
 7    1  0.5902966E-013  0.5052885E+02  0.7816164E-02  0.1300439E+00
        -11   -1    0    0    0    0  0.00000000000E+00  0.00000000000E+00  0.45593999997E+02  0.45594000000E+02  0.51100000000E-03 0.  1.
         11   -1    0    0    0    0 -0.00000000000E+00 -0.00000000000E+00 -0.45593999997E+02  0.45594000000E+02  0.51100000000E-03 0. -1.
    9900012    2    1    2    0    0 -0.11102603796E+02  0.38688936649E+02  0.57501881234E+01  0.50528852277E+02  0.29999976983E+02 0.  0.
         12    1    1    2    0    0  0.11102603796E+02 -0.38688936649E+02 -0.57501881234E+01  0.40659147723E+02  0.00000000000E+00 0. -1.
         11    1    3    3    0    0  0.51945015728E+01  0.20518265309E+01  0.42123523501E+01  0.69954807759E+01  0.51100000000E-03 0. -1.
        -11    1    3    3    0    0 -0.21807811464E+01  0.58435474099E+01 -0.61907263708E+01  0.87879432179E+01  0.51100000000E-03 0.  1.
        -12    1    3    3    0    0 -0.14116324223E+02  0.30793562708E+02  0.77285621441E+01  0.34745428284E+02  0.00000000000E+00 0.  1.
</event>
<event>
 7    1  0.5902966E-013  0.5052886E+02  0.7816164E-02  0.1300439E+00
        -11   -1    0    0    0    0  0.00000000000E+00  0.00000000000E+00  0.45593999997E+02  0.45594000000E+02  0.51100000000E-03 0.  1.
         11   -1    0    0    0    0 -0.00000000000E+00 -0.00000000000E+00 -0.45593999997E+02  0.45594000000E+02  0.51100000000E-03 0. -1.
    9900012    2    1    2    0    0  0.22092680708E+02  0.30154553065E+02 -0.15993182495E+02  0.50528862063E+02  0.30000006728E+02 0.  0.
         12    1    1    2    0    0 -0.22092680708E+02 -0.30154553065E+02  0.15993182495E+02  0.40659137937E+02  0.00000000000E+00 0. -1.
         11    1    3    3    0    0 -0.11140806183E+01  0.14484993571E+02 -0.50336669372E+01  0.15375110324E+02  0.51100000000E-03 0. -1.
        -11    1    3    3    0    0  0.56337816130E+01  0.68486395029E+01 -0.12616557597E+02  0.15421442351E+02  0.51100000000E-03 0.  1.
        -12    1    3    3    0    0  0.17572979713E+02  0.88209199909E+01  0.16570420396E+01  0.19732309389E+02  0.00000000000E+00 0.  1.
</event>
<event>
 7    1  0.5902966E-013  0.5052887E+02  0.7816164E-02  0.1300439E+00
        -11   -1    0    0    0    0  0.00000000000E+00  0.00000000000E+00  0.45593999997E+02  0.45594000000E+02  0.51100000000E-03 0.  1.
         11   -1    0    0    0    0 -0.00000000000E+00 -0.00000000000E+00 -0.45593999997E+02  0.45594000000E+02  0.51100000000E-03 0. -1.
    9900012    2    1    2    0    0 -0.61758895603E+01 -0.16130815136E+02  0.36807878871E+02  0.50528871188E+02  0.30000034462E+02 0.  0.
         12    1    1    2    0    0  0.61758895603E+01  0.16130815136E+02 -0.36807878871E+02  0.40659128812E+02  0.00000000000E+00 0. -1.
         11    1    3    3    0    0 -0.92843129463E+01  0.10213513879E+01  0.32776679875E+01  0.98987238188E+01  0.51100000000E-03 0. -1.
        -11    1    3    3    0    0 -0.98646644975E+00 -0.22646865202E+00  0.15609094582E+02  0.15641874505E+02  0.51100000000E-03 0.  1.
        -12    1    3    3    0    0  0.40948898357E+01 -0.16925697872E+02  0.17921116301E+02  0.24988272864E+02  0.00000000000E+00 0.  1.
</event>
<event>
 7    1  0.5902966E-013  0.5052886E+02  0.7816164E-02  0.1300439E+00
        -11   -1    0    0    0    0  0.00000000000E+00  0.00000000000E+00  0.45593999997E+02  0.45594000000E+02  0.51100000000E-03 0.  1.
         11   -1    0    0    0    0 -0.00000000000E+00 -0.00000000000E+00 -0.45593999997E+02  0.45594000000E+02  0.51100000000E-03 0. -1.
    9900012    2    1    2    0    0  0.22817598666E+02 -0.21758097547E+02  0.25673100035E+02  0.50528859783E+02  0.29999999797E+02 0.  0.
         12    1    1    2    0    0 -0.22817598666E+02  0.21758097547E+02 -0.25673100035E+02  0.40659140217E+02  0.00000000000E+00 0. -1.
         11    1    3    3    0    0  0.56800102672E+01  0.19013452092E+01  0.30548789393E+01  0.67238319309E+01  0.51100000000E-03 0. -1.
        -11    1    3    3    0    0  0.22501603073E+02 -0.14717114634E+02  0.18269830152E+02  0.32506957687E+02  0.51100000000E-03 0.  1.
         12    1    3    3    0    0 -0.53640146742E+01 -0.89423281219E+01  0.43483909437E+01  0.11298070165E+02  0.00000000000E+00 0. -1.
</event>
<event>
 7    1  0.5902966E-013  0.5052880E+02  0.7816164E-02  0.1300439E+00
        -11   -1    0    0    0    0  0.00000000000E+00  0.00000000000E+00  0.45593999997E+02  0.45594000000E+02  0.51100000000E-03 0.  1.
         11   -1    0    0    0    0 -0.00000000000E+00 -0.00000000000E+00 -0.45593999997E+02  0.45594000000E+02  0.51100000000E-03 0. -1.
    9900012    2    1    2    0    0 -0.36506341150E+01  0.75729960045E+01  0.39780559869E+02  0.50528802499E+02  0.29999825677E+02 0.  0.
         12    1    1    2    0    0  0.36506341150E+01 -0.75729960045E+01 -0.39780559869E+02  0.40659197501E+02  0.00000000000E+00 0. -1.
         11    1    3    3    0    0  0.40267729055E+01 -0.30645289205E+01  0.83749092840E+01  0.97849549469E+01  0.51100000000E-03 0. -1.
        -11    1    3    3    0    0  0.92944361221E+00  0.71919412637E+01 -0.73868700479E+00  0.72892759120E+01  0.51100000000E-03 0.  1.
        -12    1    3    3    0    0 -0.86068506326E+01  0.34455836613E+01  0.32144337590E+02  0.33454571640E+02  0.00000000000E+00 0.  1.
</event>
<event>
 7    1  0.5902966E-013  0.5052897E+02  0.7816164E-02  0.1300438E+00
        -11   -1    0    0    0    0  0.00000000000E+00  0.00000000000E+00  0.45593999997E+02  0.45594000000E+02  0.51100000000E-03 0.  1.
         11   -1    0    0    0    0 -0.00000000000E+00 -0.00000000000E+00 -0.45593999997E+02  0.45594000000E+02  0.51100000000E-03 0. -1.
    9900012    2    1    2    0    0  0.84993349757E+01  0.21210643223E+02  0.33630740245E+02  0.50528969387E+02  0.30000332947E+02 0.  0.
         12    1    1    2    0    0 -0.84993349757E+01 -0.21210643223E+02 -0.33630740245E+02  0.40659030613E+02  0.00000000000E+00 0. -1.
         11    1    3    3    0    0  0.16336956103E+02  0.70161919661E+01  0.18779507999E+02  0.25861032566E+02  0.51100000000E-03 0. -1.
        -11    1    3    3    0    0 -0.32980633404E+00  0.90446777607E+01  0.26237842859E+01  0.94233333939E+01  0.51100000000E-03 0.  1.
        -12    1    3    3    0    0 -0.75078147937E+01  0.51497734958E+01  0.12227447960E+02  0.15244603427E+02  0.00000000000E+00 0.  1.
</event>
<event>
 7    1  0.5902966E-013  0.5052886E+02  0.7816164E-02  0.1300439E+00
        -11   -1    0    0    0    0  0.00000000000E+00  0.00000000000E+00  0.45593999997E+02  0.45594000000E+02  0.51100000000E-03 0. -1.
         11   -1    0    0    0    0 -0.00000000000E+00 -0.00000000000E+00 -0.45593999997E+02  0.45594000000E+02  0.51100000000E-03 0.  1.
    9900012    2    1    2    0    0 -0.14520508669E+02 -0.31300197772E+02 -0.21508556142E+02  0.50528861545E+02  0.30000005152E+02 0.  0.
         12    1    1    2    0    0  0.14520508669E+02  0.31300197772E+02  0.21508556142E+02  0.40659138455E+02  0.00000000000E+00 0. -1.
         11    1    3    3    0    0 -0.11274346501E+02 -0.80265169640E+01 -0.45975027060E+01  0.14583308781E+02  0.51100000000E-03 0. -1.
        -11    1    3    3    0    0 -0.96578812888E+01 -0.65465047612E+01 -0.54341572037E+00  0.11680183923E+02  0.51100000000E-03 0.  1.
         12    1    3    3    0    0  0.64117191205E+01 -0.16727176047E+02 -0.16367637716E+02  0.24265368841E+02  0.00000000000E+00 0. -1.
</event>
<event>
 7    1  0.5902966E-013  0.5052884E+02  0.7816164E-02  0.1300439E+00
        -11   -1    0    0    0    0  0.00000000000E+00  0.00000000000E+00  0.45593999997E+02  0.45594000000E+02  0.51100000000E-03 0.  1.
         11   -1    0    0    0    0 -0.00000000000E+00 -0.00000000000E+00 -0.45593999997E+02  0.45594000000E+02  0.51100000000E-03 0. -1.
    9900012    2    1    2    0    0  0.16806115052E+02 -0.23828614444E+02  0.28335828087E+02  0.50528837160E+02  0.29999931032E+02 0.  0.
         12    1    1    2    0    0 -0.16806115052E+02  0.23828614444E+02 -0.28335828087E+02  0.40659162840E+02  0.00000000000E+00 0. -1.
         11    1    3    3    0    0 -0.33873326289E+01  0.11596032479E+01 -0.37761545088E+00  0.36001799568E+01  0.51100000000E-03 0. -1.
        -11    1    3    3    0    0 -0.15468774581E+01  0.17837664838E+01  0.60468096672E+00  0.24372714399E+01  0.51100000000E-03 0.  1.
        -12    1    3    3    0    0  0.21740325139E+02 -0.26771984176E+02  0.28108762571E+02  0.44491385763E+02  0.00000000000E+00 0.  1.
</event>
<event>
 7    1  0.5902966E-013  0.5052886E+02  0.7816164E-02  0.1300439E+00
        -11   -1    0    0    0    0  0.00000000000E+00  0.00000000000E+00  0.45593999997E+02  0.45594000000E+02  0.51100000000E-03 0.  1.
         11   -1    0    0    0    0 -0.00000000000E+00 -0.00000000000E+00 -0.45593999997E+02  0.45594000000E+02  0.51100000000E-03 0. -1.
    9900012    2    1    2    0    0  0.25059131721E+02  0.15064656430E+02  0.28253520382E+02  0.50528863635E+02  0.30000011506E+02 0.  0.
         12    1    1    2    0    0 -0.25059131721E+02 -0.15064656430E+02 -0.28253520382E+02  0.40659136365E+02  0.00000000000E+00 0. -1.
         11    1    3    3    0    0 -0.50870610970E+00  0.78574182130E+01  0.39200385989E+00  0.78836203718E+01  0.51100000000E-03 0. -1.
        -11    1    3    3    0    0  0.17581769988E+02  0.13326575104E+02  0.21068435289E+02  0.30505658585E+02  0.51100000000E-03 0.  1.
         12    1    3    3    0    0  0.79860678425E+01 -0.61193368875E+01  0.67930812331E+01  0.12139584679E+02  0.00000000000E+00 0. -1.
</event>
<event>
 7    1  0.5902966E-013  0.5052887E+02  0.7816164E-02  0.1300439E+00
        -11   -1    0    0    0    0  0.00000000000E+00  0.00000000000E+00  0.45593999997E+02  0.45594000000E+02  0.51100000000E-03 0.  1.
         11   -1    0    0    0    0 -0.00000000000E+00 -0.00000000000E+00 -0.45593999997E+02  0.45594000000E+02  0.51100000000E-03 0. -1.
    9900012    2    1    2    0    0 -0.20811719570E+02  0.51194192473E+00  0.34925275418E+02  0.50528872870E+02  0.30000039575E+02 0.  0.
         12    1    1    2    0    0  0.20811719570E+02 -0.51194192473E+00 -0.34925275418E+02  0.40659127130E+02  0.00000000000E+00 0. -1.
         11    1    3    3    0    0 -0.10172645424E+02  0.66620064578E+01  0.18113848820E+01  0.12294151472E+02  0.51100000000E-03 0. -1.
        -11    1    3    3    0    0 -0.65981732268E+01  0.43196229414E+01  0.14126799364E+02  0.16179044868E+02  0.51100000000E-03 0.  1.
         12    1    3    3    0    0 -0.40409009196E+01 -0.10469687475E+02  0.18987091171E+02  0.22055676530E+02  0.00000000000E+00 0. -1.
</event>
<event>
 7    1  0.5902966E-013  0.5052887E+02  0.7816164E-02  0.1300439E+00
        -11   -1    0    0    0    0  0.00000000000E+00  0.00000000000E+00  0.45593999997E+02  0.45594000000E+02  0.51100000000E-03 0.  1.
         11   -1    0    0    0    0 -0.00000000000E+00 -0.00000000000E+00 -0.45593999997E+02  0.45594000000E+02  0.51100000000E-03 0. -1.
    9900012    2    1    2    0    0 -0.53387730104E+01 -0.21819018928E+02  0.33890898358E+02  0.50528867253E+02  0.30000022502E+02 0.  0.
         12    1    1    2    0    0  0.53387730104E+01  0.21819018928E+02 -0.33890898358E+02  0.40659132747E+02  0.00000000000E+00 0. -1.
         11    1    3    3    0    0  0.53397366471E+01 -0.93282575114E+01  0.49130459321E+01  0.11818087673E+02  0.51100000000E-03 0.  1.
        -11    1    3    3    0    0 -0.49479079910E+01  0.45773052544E+01  0.37383888136E+01  0.77077278145E+01  0.51100000000E-03 0. -1.
        -12    1    3    3    0    0 -0.57306016664E+01 -0.17068066670E+02  0.25239463612E+02  0.31003051765E+02  0.00000000000E+00 0.  1.
</event>
<event>
 7    1  0.5902966E-013  0.5052886E+02  0.7816164E-02  0.1300439E+00
        -11   -1    0    0    0    0  0.00000000000E+00  0.00000000000E+00  0.45593999997E+02  0.45594000000E+02  0.51100000000E-03 0.  1.
         11   -1    0    0    0    0 -0.00000000000E+00 -0.00000000000E+00 -0.45593999997E+02  0.45594000000E+02  0.51100000000E-03 0. -1.
    9900012    2    1    2    0    0 -0.56204749904E+01  0.35650997520E+02  0.18723850546E+02  0.50528856593E+02  0.29999990101E+02 0.  0.
         12    1    1    2    0    0  0.56204749904E+01 -0.35650997520E+02 -0.18723850546E+02  0.40659143407E+02  0.00000000000E+00 0. -1.
         11    1    3    3    0    0 -0.20428059108E+01  0.27408737606E+02 -0.87255627407E+00  0.27498605562E+02  0.51100000000E-03 0. -1.
        -11    1    3    3    0    0 -0.20383458333E+01  0.12006585425E+01  0.24293501692E+00  0.23781194998E+01  0.51100000000E-03 0.  1.
        -12    1    3    3    0    0 -0.15393232463E+01  0.70416013714E+01  0.19353471803E+02  0.20652131531E+02  0.00000000000E+00 0.  1.
</event>
<event>
 7    1  0.5902966E-013  0.5052883E+02  0.7816164E-02  0.1300439E+00
        -11   -1    0    0    0    0  0.00000000000E+00  0.00000000000E+00  0.45593999997E+02  0.45594000000E+02  0.51100000000E-03 0. -1.
         11   -1    0    0    0    0 -0.00000000000E+00 -0.00000000000E+00 -0.45593999997E+02  0.45594000000E+02  0.51100000000E-03 0.  1.
    9900012    2    1    2    0    0 -0.36933378630E+02  0.15336601169E+02 -0.73404331335E+01  0.50528834354E+02  0.29999922503E+02 0.  0.
         12    1    1    2    0    0  0.36933378630E+02 -0.15336601169E+02  0.73404331335E+01  0.40659165646E+02  0.00000000000E+00 0. -1.
         11    1    3    3    0    0 -0.35322597083E+01  0.90235706129E+01  0.40534140720E-01  0.96903729820E+01  0.51100000000E-03 0. -1.
        -11    1    3    3    0    0 -0.19347843691E+02  0.68270064919E+01  0.60520377975E+01  0.21390984898E+02  0.51100000000E-03 0.  1.
        -12    1    3    3    0    0 -0.14053275230E+02 -0.51397593610E+00 -0.13433005072E+02  0.19447476474E+02  0.00000000000E+00 0.  1.
</event>
<event>
 7    1  0.9456532E-013  0.5052887E+02  0.7816164E-02  0.1300439E+00
        -11   -1    0    0    0    0  0.00000000000E+00  0.00000000000E+00  0.45593999997E+02  0.45594000000E+02  0.51100000000E-03 0. -1.
         11   -1    0    0    0    0 -0.00000000000E+00 -0.00000000000E+00 -0.45593999997E+02  0.45594000000E+02  0.51100000000E-03 0.  1.
    9900012    2    1    2    0    0  0.26813464615E+02 -0.11421070647E+02 -0.28350705719E+02  0.50528865059E+02  0.30000015833E+02 0.  0.
         12    1    1    2    0    0 -0.26813464615E+02  0.11421070647E+02  0.28350705719E+02  0.40659134941E+02  0.00000000000E+00 0. -1.
         11    1    3    3    0    0  0.48369232292E+00  0.35028231810E+01  0.58781712948E+00  0.35845861323E+01  0.51100000000E-03 0. -1.
        -11    1    3    3    0    0  0.71790812341E+00 -0.10873346131E+02 -0.10448566909E+02  0.15096940050E+02  0.51100000000E-03 0.  1.
        -12    1    3    3    0    0  0.25611864169E+02 -0.40505476963E+01 -0.18489955939E+02  0.31847338876E+02  0.00000000000E+00 0.  1.
</event>
<event>
 7    1  0.5902966E-013  0.5052886E+02  0.7816164E-02  0.1300439E+00
        -11   -1    0    0    0    0  0.00000000000E+00  0.00000000000E+00  0.45593999997E+02  0.45594000000E+02  0.51100000000E-03 0. -1.
         11   -1    0    0    0    0 -0.00000000000E+00 -0.00000000000E+00 -0.45593999997E+02  0.45594000000E+02  0.51100000000E-03 0.  1.
    9900012    2    1    2    0    0 -0.13317757931E+02  0.36038999020E+02 -0.13303902659E+02  0.50528856469E+02  0.29999989724E+02 0.  0.
         12    1    1    2    0    0  0.13317757931E+02 -0.36038999020E+02  0.13303902659E+02  0.40659143531E+02  0.00000000000E+00 0. -1.
         11    1    3    3    0    0 -0.14361540751E+02  0.27823689802E+02 -0.25655879079E+01  0.31416457607E+02  0.51100000000E-03 0.  1.
        -11    1    3    3    0    0  0.61106024102E+01  0.84520133673E+01 -0.53852213348E+01  0.11737827774E+02  0.51100000000E-03 0. -1.
        -12    1    3    3    0    0 -0.50668195903E+01 -0.23670414945E+00 -0.53530934160E+01  0.73745710882E+01  0.00000000000E+00 0.  1.
</event>
<event>
 7    1  0.6683144E-013  0.5052885E+02  0.7816164E-02  0.1300439E+00
        -11   -1    0    0    0    0  0.00000000000E+00  0.00000000000E+00  0.45593999997E+02  0.45594000000E+02  0.51100000000E-03 0.  1.
         11   -1    0    0    0    0 -0.00000000000E+00 -0.00000000000E+00 -0.45593999997E+02  0.45594000000E+02  0.51100000000E-03 0. -1.
    9900012    2    1    2    0    0  0.18414416234E+02 -0.14547156774E+02  0.33203256788E+02  0.50528846580E+02  0.29999959666E+02 0.  0.
         12    1    1    2    0    0 -0.18414416234E+02  0.14547156774E+02 -0.33203256788E+02  0.40659153420E+02  0.00000000000E+00 0. -1.
         11    1    3    3    0    0  0.51472085217E+01  0.10079653115E+01 -0.12596216079E+01  0.53941075714E+01  0.51100000000E-03 0. -1.
        -11    1    3    3    0    0  0.12402068051E+01 -0.10303977211E+02  0.26352376928E+01  0.10707685896E+02  0.51100000000E-03 0.  1.
        -12    1    3    3    0    0  0.12027000907E+02 -0.52511448743E+01  0.31827640703E+02  0.34427053113E+02  0.00000000000E+00 0.  1.
</event>
<event>
 7    1  0.5902966E-013  0.5052885E+02  0.7816164E-02  0.1300439E+00
        -11   -1    0    0    0    0  0.00000000000E+00  0.00000000000E+00  0.45593999997E+02  0.45594000000E+02  0.51100000000E-03 0.  1.
         11   -1    0    0    0    0 -0.00000000000E+00 -0.00000000000E+00 -0.45593999997E+02  0.45594000000E+02  0.51100000000E-03 0. -1.
    9900012    2    1    2    0    0  0.60840099161E+01 -0.19649053970E+02  0.35072295338E+02  0.50528850982E+02  0.29999973045E+02 0.  0.
         12    1    1    2    0    0 -0.60840099161E+01  0.19649053970E+02 -0.35072295338E+02  0.40659149018E+02  0.00000000000E+00 0. -1.
         11    1    3    3    0    0  0.99102202420E+00 -0.32468962864E+01  0.12160354944E+01  0.36059953871E+01  0.51100000000E-03 0. -1.
        -11    1    3    3    0    0  0.81823825576E+01  0.28693846625E+01  0.23019921586E+02  0.24598811816E+02  0.51100000000E-03 0.  1.
        -12    1    3    3    0    0 -0.30893946657E+01 -0.19271542346E+02  0.10836338258E+02  0.22324043779E+02  0.00000000000E+00 0.  1.
</event>
<event>
 7    1  0.5902966E-013  0.5052886E+02  0.7816164E-02  0.1300439E+00
        -11   -1    0    0    0    0  0.00000000000E+00  0.00000000000E+00  0.45593999997E+02  0.45594000000E+02  0.51100000000E-03 0.  1.
         11   -1    0    0    0    0 -0.00000000000E+00 -0.00000000000E+00 -0.45593999997E+02  0.45594000000E+02  0.51100000000E-03 0. -1.
    9900012    2    1    2    0    0 -0.14340022590E+02  0.24713929866E+02  0.28926654318E+02  0.50528857026E+02  0.29999991417E+02 0.  0.
         12    1    1    2    0    0  0.14340022590E+02 -0.24713929866E+02 -0.28926654318E+02  0.40659142974E+02  0.00000000000E+00 0. -1.
         11    1    3    3    0    0 -0.35018531749E+01  0.10686767884E+02  0.12205211445E+02  0.16596299893E+02  0.51100000000E-03 0. -1.
        -11    1    3    3    0    0 -0.37484679187E+01 -0.38039605803E+01  0.13443875364E+02  0.14465784213E+02  0.51100000000E-03 0.  1.
         12    1    3    3    0    0 -0.70897014967E+01  0.17831122562E+02  0.32775675094E+01  0.19466772920E+02  0.00000000000E+00 0. -1.
</event>
<event>
 7    1  0.5902966E-013  0.5052886E+02  0.7816164E-02  0.1300439E+00
        -11   -1    0    0    0    0  0.00000000000E+00  0.00000000000E+00  0.45593999997E+02  0.45594000000E+02  0.51100000000E-03 0.  1.
         11   -1    0    0    0    0 -0.00000000000E+00 -0.00000000000E+00 -0.45593999997E+02  0.45594000000E+02  0.51100000000E-03 0. -1.
    9900012    2    1    2    0    0  0.72086651479E+01  0.29069674826E+02  0.27498272940E+02  0.50528857579E+02  0.29999993097E+02 0.  0.
         12    1    1    2    0    0 -0.72086651479E+01 -0.29069674826E+02 -0.27498272940E+02  0.40659142421E+02  0.00000000000E+00 0. -1.
         11    1    3    3    0    0  0.35605895653E+01  0.13741289380E+02  0.45212092391E+01  0.14897723488E+02  0.51100000000E-03 0. -1.
        -11    1    3    3    0    0 -0.49271094244E+01  0.17003361207E+02  0.19190297276E+02  0.26108584976E+02  0.51100000000E-03 0.  1.
         12    1    3    3    0    0  0.85751850070E+01 -0.16749757608E+01  0.37867664254E+01  0.95225491159E+01  0.00000000000E+00 0. -1.
</event>
<event>
 7    1  0.5902966E-013  0.5052886E+02  0.7816164E-02  0.1300439E+00
        -11   -1    0    0    0    0  0.00000000000E+00  0.00000000000E+00  0.45593999997E+02  0.45594000000E+02  0.51100000000E-03 0.  1.
         11   -1    0    0    0    0 -0.00000000000E+00 -0.00000000000E+00 -0.45593999997E+02  0.45594000000E+02  0.51100000000E-03 0. -1.
    9900012    2    1    2    0    0  0.25233702072E+02 -0.59700612541E+01  0.31317476428E+02  0.50528859804E+02  0.29999999860E+02 0.  0.
         12    1    1    2    0    0 -0.25233702072E+02  0.59700612541E+01 -0.31317476428E+02  0.40659140196E+02  0.00000000000E+00 0. -1.
         11    1    3    3    0    0  0.18021958757E+01 -0.71101162452E+01  0.48817570895E+01  0.88109713163E+01  0.51100000000E-03 0. -1.
        -11    1    3    3    0    0  0.24372769771E+00  0.98048828745E+00  0.16433147775E+02  0.16464176461E+02  0.51100000000E-03 0.  1.
         12    1    3    3    0    0  0.23187778499E+02  0.15956670365E+00  0.10002571564E+02  0.25253712027E+02  0.00000000000E+00 0. -1.
</event>
<event>
 7    1  0.5902966E-013  0.5052887E+02  0.7816164E-02  0.1300439E+00
        -11   -1    0    0    0    0  0.00000000000E+00  0.00000000000E+00  0.45593999997E+02  0.45594000000E+02  0.51100000000E-03 0.  1.
         11   -1    0    0    0    0 -0.00000000000E+00 -0.00000000000E+00 -0.45593999997E+02  0.45594000000E+02  0.51100000000E-03 0. -1.
    9900012    2    1    2    0    0  0.89607165348E+00 -0.21472529241E+02  0.34515109300E+02  0.50528865400E+02  0.30000016871E+02 0.  0.
         12    1    1    2    0    0 -0.89607165348E+00  0.21472529241E+02 -0.34515109300E+02  0.40659134600E+02  0.00000000000E+00 0. -1.
         11    1    3    3    0    0  0.25124031872E+01 -0.78172394454E+01  0.90654523258E+01  0.12231264385E+02  0.51100000000E-03 0. -1.
        -11    1    3    3    0    0 -0.36730394683E+01 -0.15605493116E+02  0.38169926431E+01  0.16480050590E+02  0.51100000000E-03 0.  1.
         12    1    3    3    0    0  0.20567079346E+01  0.19502033208E+01  0.21632664331E+02  0.21817550426E+02  0.00000000000E+00 0. -1.
</event>
<event>
 7    1  0.5902966E-013  0.5052885E+02  0.7816164E-02  0.1300439E+00
        -11   -1    0    0    0    0  0.00000000000E+00  0.00000000000E+00  0.45593999997E+02  0.45594000000E+02  0.51100000000E-03 0.  1.
         11   -1    0    0    0    0 -0.00000000000E+00 -0.00000000000E+00 -0.45593999997E+02  0.45594000000E+02  0.51100000000E-03 0. -1.
    9900012    2    1    2    0    0 -0.53657722100E+00  0.25334453187E+02  0.31796919122E+02  0.50528849750E+02  0.29999969299E+02 0.  0.
         12    1    1    2    0    0  0.53657722100E+00 -0.25334453187E+02 -0.31796919122E+02  0.40659150250E+02  0.00000000000E+00 0. -1.
         11    1    3    3    0    0 -0.45715079171E+01  0.46259315712E+01  0.16915080141E+02  0.18122302943E+02  0.51100000000E-03 0. -1.
        -11    1    3    3    0    0 -0.48506416014E+01  0.16449219108E+02  0.14642226196E+02  0.22549951695E+02  0.51100000000E-03 0.  1.
         12    1    3    3    0    0  0.88855722975E+01  0.42593025079E+01  0.23961278586E+00  0.98565951117E+01  0.00000000000E+00 0. -1.
</event>
<event>
 7    1  0.5902966E-013  0.5052886E+02  0.7816164E-02  0.1300439E+00
        -11   -1    0    0    0    0  0.00000000000E+00  0.00000000000E+00  0.45593999997E+02  0.45594000000E+02  0.51100000000E-03 0.  1.
         11   -1    0    0    0    0 -0.00000000000E+00 -0.00000000000E+00 -0.45593999997E+02  0.45594000000E+02  0.51100000000E-03 0. -1.
    9900012    2    1    2    0    0  0.19922282618E+02 -0.71965709613E+01  0.34705580488E+02  0.50528864552E+02  0.30000014293E+02 0.  0.
         12    1    1    2    0    0 -0.19922282618E+02  0.71965709613E+01 -0.34705580488E+02  0.40659135448E+02  0.00000000000E+00 0. -1.
         11    1    3    3    0    0  0.16160902041E+02 -0.48037064212E+01  0.10607436821E+02  0.19919037786E+02  0.51100000000E-03 0. -1.
        -11    1    3    3    0    0  0.42087963795E+01 -0.93604461188E+01  0.78371114538E+01  0.12913258098E+02  0.51100000000E-03 0.  1.
         12    1    3    3    0    0 -0.44741580207E+00  0.69675815788E+01  0.16261032214E+02  0.17696568668E+02  0.00000000000E+00 0. -1.
</event>
<event>
 7    1  0.5902966E-013  0.5052886E+02  0.7816164E-02  0.1300439E+00
        -11   -1    0    0    0    0  0.00000000000E+00  0.00000000000E+00  0.45593999997E+02  0.45594000000E+02  0.51100000000E-03 0.  1.
         11   -1    0    0    0    0 -0.00000000000E+00 -0.00000000000E+00 -0.45593999997E+02  0.45594000000E+02  0.51100000000E-03 0. -1.
    9900012    2    1    2    0    0  0.28597347011E+02 -0.27348607553E+02 -0.93493923096E+01  0.50528859235E+02  0.29999998131E+02 0.  0.
         12    1    1    2    0    0 -0.28597347011E+02  0.27348607553E+02  0.93493923096E+01  0.40659140765E+02  0.00000000000E+00 0. -1.
         11    1    3    3    0    0  0.10327118278E+02 -0.32083548876E+01 -0.11919294949E+02  0.16093865457E+02  0.51100000000E-03 0. -1.
        -11    1    3    3    0    0  0.83566569047E+01 -0.19375633600E+02 -0.42063439497E+01  0.21516092157E+02  0.51100000000E-03 0.  1.
         12    1    3    3    0    0  0.99135718287E+01 -0.47646190657E+01  0.67762465894E+01  0.12918901621E+02  0.00000000000E+00 0. -1.
</event>
<event>
 7    1  0.6581145E-013  0.5052885E+02  0.7816164E-02  0.1300439E+00
        -11   -1    0    0    0    0  0.00000000000E+00  0.00000000000E+00  0.45593999997E+02  0.45594000000E+02  0.51100000000E-03 0. -1.
         11   -1    0    0    0    0 -0.00000000000E+00 -0.00000000000E+00 -0.45593999997E+02  0.45594000000E+02  0.51100000000E-03 0.  1.
    9900012    2    1    2    0    0  0.21100695377E+02  0.22198540620E+02 -0.26742326610E+02  0.50528848710E+02  0.29999966139E+02 0.  0.
         12    1    1    2    0    0 -0.21100695377E+02 -0.22198540620E+02  0.26742326610E+02  0.40659151290E+02  0.00000000000E+00 0. -1.
         11    1    3    3    0    0  0.10003481391E+02  0.19238398246E+02 -0.13084079315E+02  0.25325456339E+02  0.51100000000E-03 0.  1.
        -11    1    3    3    0    0  0.13658271594E+02  0.61832538703E+01 -0.14657422735E+02  0.20967142220E+02  0.51100000000E-03 0. -1.
         12    1    3    3    0    0 -0.25610576079E+01 -0.32231114956E+01  0.99917544001E+00  0.42362501512E+01  0.00000000000E+00 0. -1.
</event>
<event>
 7    1  0.5902966E-013  0.5052886E+02  0.7816164E-02  0.1300439E+00
        -11   -1    0    0    0    0  0.00000000000E+00  0.00000000000E+00  0.45593999997E+02  0.45594000000E+02  0.51100000000E-03 0.  1.
         11   -1    0    0    0    0 -0.00000000000E+00 -0.00000000000E+00 -0.45593999997E+02  0.45594000000E+02  0.51100000000E-03 0. -1.
    9900012    2    1    2    0    0 -0.12573556731E+02 -0.30800246342E+02  0.23375544763E+02  0.50528860849E+02  0.30000003036E+02 0.  0.
         12    1    1    2    0    0  0.12573556731E+02  0.30800246342E+02 -0.23375544763E+02  0.40659139151E+02  0.00000000000E+00 0. -1.
         11    1    3    3    0    0 -0.32656466907E+01  0.20424547083E+01  0.62897667554E+01  0.73754481656E+01  0.51100000000E-03 0. -1.
        -11    1    3    3    0    0 -0.63788629802E+01 -0.19306274818E+02  0.20516528960E+02  0.28885119025E+02  0.51100000000E-03 0.  1.
         12    1    3    3    0    0 -0.29290470597E+01 -0.13536426232E+02 -0.34307509527E+01  0.14268293658E+02  0.00000000000E+00 0. -1.
</event>
<event>
 7    1  0.5902966E-013  0.5052887E+02  0.7816164E-02  0.1300439E+00
        -11   -1    0    0    0    0  0.00000000000E+00  0.00000000000E+00  0.45593999997E+02  0.45594000000E+02  0.51100000000E-03 0. -1.
         11   -1    0    0    0    0 -0.00000000000E+00 -0.00000000000E+00 -0.45593999997E+02  0.45594000000E+02  0.51100000000E-03 0.  1.
    9900012    2    1    2    0    0 -0.36595406393E+02  0.10249387361E+02 -0.14453067896E+02  0.50528869635E+02  0.30000029744E+02 0.  0.
         12    1    1    2    0    0  0.36595406393E+02 -0.10249387361E+02  0.14453067896E+02  0.40659130365E+02  0.00000000000E+00 0. -1.
         11    1    3    3    0    0 -0.11619931043E+02 -0.73446137364E+01 -0.65277619092E+01  0.15217681301E+02  0.51100000000E-03 0. -1.
        -11    1    3    3    0    0 -0.14969258370E+01  0.93579194918E+01 -0.30606525217E+01  0.99588673199E+01  0.51100000000E-03 0.  1.
        -12    1    3    3    0    0 -0.23478549514E+02  0.82360816060E+01 -0.48646534654E+01  0.25352321015E+02  0.00000000000E+00 0.  1.
</event>
<event>
 7    1  0.5902966E-013  0.5052888E+02  0.7816164E-02  0.1300439E+00
        -11   -1    0    0    0    0  0.00000000000E+00  0.00000000000E+00  0.45593999997E+02  0.45594000000E+02  0.51100000000E-03 0.  1.
         11   -1    0    0    0    0 -0.00000000000E+00 -0.00000000000E+00 -0.45593999997E+02  0.45594000000E+02  0.51100000000E-03 0. -1.
    9900012    2    1    2    0    0 -0.85649928016E+01  0.29965083176E+01  0.39633648973E+02  0.50528876858E+02  0.30000051697E+02 0.  0.
         12    1    1    2    0    0  0.85649928016E+01 -0.29965083176E+01 -0.39633648973E+02  0.40659123142E+02  0.00000000000E+00 0. -1.
         11    1    3    3    0    0 -0.23425722897E+01  0.58890164480E+01 -0.13601513063E+01  0.64821425080E+01  0.51100000000E-03 0. -1.
        -11    1    3    3    0    0  0.15444283977E+01 -0.47418477749E+01  0.45902997904E+01  0.67779961510E+01  0.51100000000E-03 0.  1.
        -12    1    3    3    0    0 -0.77668489096E+01  0.18493396445E+01  0.36403500489E+02  0.37268738199E+02  0.00000000000E+00 0.  1.
</event>
<event>
 7    1  0.5902966E-013  0.5052885E+02  0.7816164E-02  0.1300439E+00
        -11   -1    0    0    0    0  0.00000000000E+00  0.00000000000E+00  0.45593999997E+02  0.45594000000E+02  0.51100000000E-03 0. -1.
         11   -1    0    0    0    0 -0.00000000000E+00 -0.00000000000E+00 -0.45593999997E+02  0.45594000000E+02  0.51100000000E-03 0.  1.
    9900012    2    1    2    0    0  0.37910594567E+02  0.59715628299E+01  0.13427353850E+02  0.50528848822E+02  0.29999966480E+02 0.  0.
         12    1    1    2    0    0 -0.37910594567E+02 -0.59715628299E+01 -0.13427353850E+02  0.40659151178E+02  0.00000000000E+00 0. -1.
         11    1    3    3    0    0  0.34128549759E+01  0.54542350089E+01  0.63891639112E+01  0.90673962285E+01  0.51100000000E-03 0. -1.
        -11    1    3    3    0    0  0.14299219035E+02 -0.10565529907E+02  0.21429825016E+01  0.17907832406E+02  0.51100000000E-03 0.  1.
         12    1    3    3    0    0  0.20198520557E+02  0.11082857728E+02  0.48952074367E+01  0.23553620188E+02  0.00000000000E+00 0. -1.
</event>
<event>
 7    1  0.5902966E-013  0.5052887E+02  0.7816164E-02  0.1300439E+00
        -11   -1    0    0    0    0  0.00000000000E+00  0.00000000000E+00  0.45593999997E+02  0.45594000000E+02  0.51100000000E-03 0.  1.
         11   -1    0    0    0    0 -0.00000000000E+00 -0.00000000000E+00 -0.45593999997E+02  0.45594000000E+02  0.51100000000E-03 0. -1.
    9900012    2    1    2    0    0  0.24169781087E+02  0.20233561736E+02  0.25682482646E+02  0.50528865071E+02  0.30000015870E+02 0.  0.
         12    1    1    2    0    0 -0.24169781087E+02 -0.20233561736E+02 -0.25682482646E+02  0.40659134929E+02  0.00000000000E+00 0. -1.
         11    1    3    3    0    0  0.10394642759E+01  0.44024957739E+01 -0.37078912858E+01  0.58490095801E+01  0.51100000000E-03 0. -1.
        -11    1    3    3    0    0  0.24172122340E+02  0.18302066770E+02  0.24033872402E+02  0.38689587350E+02  0.51100000000E-03 0.  1.
         12    1    3    3    0    0 -0.10418055291E+01 -0.24710008080E+01  0.53565015301E+01  0.59902681405E+01  0.00000000000E+00 0. -1.
</event>
<event>
 7    1  0.5902966E-013  0.5052893E+02  0.7816164E-02  0.1300439E+00
        -11   -1    0    0    0    0  0.00000000000E+00  0.00000000000E+00  0.45593999997E+02  0.45594000000E+02  0.51100000000E-03 0.  1.
         11   -1    0    0    0    0 -0.00000000000E+00 -0.00000000000E+00 -0.45593999997E+02  0.45594000000E+02  0.51100000000E-03 0. -1.
    9900012    2    1    2    0    0 -0.19820520770E+02  0.35497827137E+02 -0.45918454435E+00  0.50528934277E+02  0.30000226226E+02 0.  0.
         12    1    1    2    0    0  0.19820520770E+02 -0.35497827137E+02  0.45918454435E+00  0.40659065723E+02  0.00000000000E+00 0. -1.
         11    1    3    3    0    0 -0.18841019922E+02  0.12414660257E+02 -0.34927086292E+01  0.22832144771E+02  0.51100000000E-03 0. -1.
        -11    1    3    3    0    0 -0.51817671979E+00  0.52013090376E+01  0.76105521469E+01  0.92326933806E+01  0.51100000000E-03 0.  1.
         12    1    3    3    0    0 -0.46132412818E+00  0.17881857842E+02 -0.45770280621E+01  0.18464096125E+02  0.00000000000E+00 0. -1.
</event>
<event>
 7    1  0.5902966E-013  0.5052893E+02  0.7816164E-02  0.1300439E+00
        -11   -1    0    0    0    0  0.00000000000E+00  0.00000000000E+00  0.45593999997E+02  0.45594000000E+02  0.51100000000E-03 0.  1.
         11   -1    0    0    0    0 -0.00000000000E+00 -0.00000000000E+00 -0.45593999997E+02  0.45594000000E+02  0.51100000000E-03 0. -1.
    9900012    2    1    2    0    0 -0.23303538706E+02  0.33316149666E+02 -0.37330982616E+00  0.50528928380E+02  0.30000208303E+02 0.  0.
         12    1    1    2    0    0  0.23303538706E+02 -0.33316149666E+02  0.37330982616E+00  0.40659071620E+02  0.00000000000E+00 0. -1.
         11    1    3    3    0    0  0.11842376500E+01 -0.18207512400E+01  0.66138679752E+00  0.22704595673E+01  0.51100000000E-03 0. -1.
        -11    1    3    3    0    0 -0.98025714271E+01  0.27310774175E+02  0.68959038971E+01  0.29824860158E+02  0.51100000000E-03 0.  1.
         12    1    3    3    0    0 -0.14685204929E+02  0.78261267306E+01 -0.79306005208E+01  0.18433608654E+02  0.00000000000E+00 0. -1.
</event>
<event>
 7    1  0.5902966E-013  0.5052885E+02  0.7816164E-02  0.1300439E+00
        -11   -1    0    0    0    0  0.00000000000E+00  0.00000000000E+00  0.45593999997E+02  0.45594000000E+02  0.51100000000E-03 0. -1.
         11   -1    0    0    0    0 -0.00000000000E+00 -0.00000000000E+00 -0.45593999997E+02  0.45594000000E+02  0.51100000000E-03 0.  1.
    9900012    2    1    2    0    0  0.36449254441E+02  0.75026823564E+01 -0.16380730955E+02  0.50528846806E+02  0.29999960350E+02 0.  0.
         12    1    1    2    0    0 -0.36449254441E+02 -0.75026823564E+01  0.16380730955E+02  0.40659153194E+02  0.00000000000E+00 0. -1.
         11    1    3    3    0    0  0.16089174913E+02  0.30386538139E+01  0.30023234495E+01  0.16646588622E+02  0.51100000000E-03 0. -1.
        -11    1    3    3    0    0  0.20675321319E+02  0.85860977907E+01 -0.11950267419E+02  0.25377132985E+02  0.51100000000E-03 0.  1.
        -12    1    3    3    0    0 -0.31524179047E+00 -0.41220692481E+01 -0.74327869854E+01  0.85051251985E+01  0.00000000000E+00 0.  1.
</event>
<event>
 7    1  0.5902966E-013  0.5052891E+02  0.7816164E-02  0.1300439E+00
        -11   -1    0    0    0    0  0.00000000000E+00  0.00000000000E+00  0.45593999997E+02  0.45594000000E+02  0.51100000000E-03 0.  1.
         11   -1    0    0    0    0 -0.00000000000E+00 -0.00000000000E+00 -0.45593999997E+02  0.45594000000E+02  0.51100000000E-03 0. -1.
    9900012    2    1    2    0    0  0.54974380952E+01  0.28341171639E+02  0.28630716591E+02  0.50528907930E+02  0.30000146143E+02 0.  0.
         12    1    1    2    0    0 -0.54974380952E+01 -0.28341171639E+02 -0.28630716591E+02  0.40659092070E+02  0.00000000000E+00 0. -1.
         11    1    3    3    0    0  0.92470565554E+01  0.42496147603E+01  0.47534478273E+00  0.10187896420E+02  0.51100000000E-03 0. -1.
        -11    1    3    3    0    0  0.58694397497E+01  0.11629965265E+02  0.10921782229E+02  0.16999757126E+02  0.51100000000E-03 0.  1.
        -12    1    3    3    0    0 -0.96190582099E+01  0.12461591614E+02  0.17233589579E+02  0.23341254383E+02  0.00000000000E+00 0.  1.
</event>
<event>
 7    1  0.5902966E-013  0.5052888E+02  0.7816164E-02  0.1300439E+00
        -11   -1    0    0    0    0  0.00000000000E+00  0.00000000000E+00  0.45593999997E+02  0.45594000000E+02  0.51100000000E-03 0. -1.
         11   -1    0    0    0    0 -0.00000000000E+00 -0.00000000000E+00 -0.45593999997E+02  0.45594000000E+02  0.51100000000E-03 0.  1.
    9900012    2    1    2    0    0 -0.34219260365E+02 -0.21920447044E+02 -0.13040806509E+01  0.50528875502E+02  0.30000047577E+02 0.  0.
         12    1    1    2    0    0  0.34219260365E+02  0.21920447044E+02  0.13040806509E+01  0.40659124498E+02  0.00000000000E+00 0. -1.
         11    1    3    3    0    0 -0.11917457459E+01  0.13866395384E+01 -0.66555540851E+01  0.69021321034E+01  0.51100000000E-03 0. -1.
        -11    1    3    3    0    0 -0.62631635617E+01 -0.26287163047E+01 -0.47963857958E+01  0.83152080055E+01  0.51100000000E-03 0.  1.
        -12    1    3    3    0    0 -0.26764351058E+02 -0.20678370278E+02  0.10147859230E+02  0.35311535393E+02  0.00000000000E+00 0.  1.
</event>
<event>
 7    1  0.5902966E-013  0.5052886E+02  0.7816164E-02  0.1300439E+00
        -11   -1    0    0    0    0  0.00000000000E+00  0.00000000000E+00  0.45593999997E+02  0.45594000000E+02  0.51100000000E-03 0.  1.
         11   -1    0    0    0    0 -0.00000000000E+00 -0.00000000000E+00 -0.45593999997E+02  0.45594000000E+02  0.51100000000E-03 0. -1.
    9900012    2    1    2    0    0 -0.29442881874E+01  0.40395396380E+02  0.35649580176E+01  0.50528858257E+02  0.29999995157E+02 0.  0.
         12    1    1    2    0    0  0.29442881874E+01 -0.40395396380E+02 -0.35649580176E+01  0.40659141743E+02  0.00000000000E+00 0. -1.
         11    1    3    3    0    0 -0.45493170911E+00  0.12750597215E+02  0.75301306738E+01  0.14815112568E+02  0.51100000000E-03 0. -1.
        -11    1    3    3    0    0 -0.15797400033E+01 -0.33099755858E+01  0.19982415592E+01  0.41766597236E+01  0.51100000000E-03 0.  1.
         12    1    3    3    0    0 -0.90961647496E+00  0.30954774751E+02 -0.59634142155E+01  0.31537085965E+02  0.00000000000E+00 0. -1.
</event>
<event>
 7    1  0.5902966E-013  0.5052887E+02  0.7816164E-02  0.1300439E+00
        -11   -1    0    0    0    0  0.00000000000E+00  0.00000000000E+00  0.45593999997E+02  0.45594000000E+02  0.51100000000E-03 0.  1.
         11   -1    0    0    0    0 -0.00000000000E+00 -0.00000000000E+00 -0.45593999997E+02  0.45594000000E+02  0.51100000000E-03 0. -1.
    9900012    2    1    2    0    0  0.94947093368E+01  0.46670243492E+01  0.39258560966E+02  0.50528865346E+02  0.30000016707E+02 0.  0.
         12    1    1    2    0    0 -0.94947093368E+01 -0.46670243492E+01 -0.39258560966E+02  0.40659134654E+02  0.00000000000E+00 0. -1.
         11    1    3    3    0    0  0.89090549873E+01  0.14475494585E+02  0.19370914893E+02  0.25770982680E+02  0.51100000000E-03 0. -1.
        -11    1    3    3    0    0 -0.14985699501E+01 -0.14377658192E+01 -0.89097021799E+00  0.22598032297E+01  0.51100000000E-03 0.  1.
        -12    1    3    3    0    0  0.20842242997E+01 -0.83707044169E+01  0.20778616291E+02  0.22498079437E+02  0.00000000000E+00 0.  1.
</event>
<event>
 7    1  0.5902966E-013  0.5052889E+02  0.7816164E-02  0.1300439E+00
        -11   -1    0    0    0    0  0.00000000000E+00  0.00000000000E+00  0.45593999997E+02  0.45594000000E+02  0.51100000000E-03 0. -1.
         11   -1    0    0    0    0 -0.00000000000E+00 -0.00000000000E+00 -0.45593999997E+02  0.45594000000E+02  0.51100000000E-03 0.  1.
    9900012    2    1    2    0    0 -0.18131421765E+02  0.32929609828E+02 -0.15493734325E+02  0.50528887098E+02  0.30000082823E+02 0.  0.
         12    1    1    2    0    0  0.18131421765E+02 -0.32929609828E+02  0.15493734325E+02  0.40659112902E+02  0.00000000000E+00 0. -1.
         11    1    3    3    0    0 -0.91910382375E+00  0.75943731604E+01  0.29021573276E+01  0.81817952158E+01  0.51100000000E-03 0. -1.
        -11    1    3    3    0    0 -0.21701922645E+02  0.25153700701E+02 -0.18128034307E+02  0.37845841694E+02  0.51100000000E-03 0.  1.
         12    1    3    3    0    0  0.44896047033E+01  0.18153596700E+00 -0.26785734522E+00  0.45012501882E+01  0.00000000000E+00 0. -1.
</event>
<event>
 7    1  0.5902966E-013  0.5052887E+02  0.7816164E-02  0.1300439E+00
        -11   -1    0    0    0    0  0.00000000000E+00  0.00000000000E+00  0.45593999997E+02  0.45594000000E+02  0.51100000000E-03 0.  1.
         11   -1    0    0    0    0 -0.00000000000E+00 -0.00000000000E+00 -0.45593999997E+02  0.45594000000E+02  0.51100000000E-03 0. -1.
    9900012    2    1    2    0    0 -0.33250061177E+02  0.11047177503E+01  0.23374728051E+02  0.50528869647E+02  0.30000029781E+02 0.  0.
         12    1    1    2    0    0  0.33250061177E+02 -0.11047177503E+01 -0.23374728051E+02  0.40659130353E+02  0.00000000000E+00 0. -1.
         11    1    3    3    0    0 -0.90887973882E+01 -0.54533566491E+01  0.12637880182E+00  0.10600061725E+02  0.51100000000E-03 0. -1.
        -11    1    3    3    0    0 -0.16588673590E+02 -0.10752634393E+01  0.28443251763E+01  0.16865066525E+02  0.51100000000E-03 0.  1.
        -12    1    3    3    0    0 -0.75725901987E+01  0.76333378387E+01  0.20404024073E+02  0.23063741398E+02  0.00000000000E+00 0.  1.
</event>
<event>
 7    1  0.7180320E-013  0.5052886E+02  0.7816164E-02  0.1300439E+00
        -11   -1    0    0    0    0  0.00000000000E+00  0.00000000000E+00  0.45593999997E+02  0.45594000000E+02  0.51100000000E-03 0. -1.
         11   -1    0    0    0    0 -0.00000000000E+00 -0.00000000000E+00 -0.45593999997E+02  0.45594000000E+02  0.51100000000E-03 0.  1.
    9900012    2    1    2    0    0  0.67985790193E+01 -0.31338972380E+02 -0.24996274881E+02  0.50528860505E+02  0.30000001991E+02 0.  0.
         12    1    1    2    0    0 -0.67985790193E+01  0.31338972380E+02  0.24996274881E+02  0.40659139495E+02  0.00000000000E+00 0. -1.
         11    1    3    3    0    0  0.15575757925E+02 -0.12266191101E+02 -0.11932806596E+02  0.23139912545E+02  0.51100000000E-03 0. -1.
        -11    1    3    3    0    0 -0.57397977301E+01 -0.31252025317E+01 -0.81104526757E+01  0.10415930670E+02  0.51100000000E-03 0.  1.
        -12    1    3    3    0    0 -0.30373811755E+01 -0.15947578748E+02 -0.49530156089E+01  0.16973017291E+02  0.00000000000E+00 0.  1.
</event>
<event>
 7    1  0.5902966E-013  0.5052886E+02  0.7816164E-02  0.1300439E+00
        -11   -1    0    0    0    0  0.00000000000E+00  0.00000000000E+00  0.45593999997E+02  0.45594000000E+02  0.51100000000E-03 0.  1.
         11   -1    0    0    0    0 -0.00000000000E+00 -0.00000000000E+00 -0.45593999997E+02  0.45594000000E+02  0.51100000000E-03 0. -1.
    9900012    2    1    2    0    0 -0.15336092455E+02 -0.31854488262E+02  0.20081369966E+02  0.50528861127E+02  0.30000003881E+02 0.  0.
         12    1    1    2    0    0  0.15336092455E+02  0.31854488262E+02 -0.20081369966E+02  0.40659138873E+02  0.00000000000E+00 0. -1.
         11    1    3    3    0    0  0.34272241746E+01 -0.15622578550E+01  0.57654012562E+01  0.68866804089E+01  0.51100000000E-03 0. -1.
        -11    1    3    3    0    0 -0.15553651462E+02 -0.82324083173E+01  0.11846164235E+02  0.21213680205E+02  0.51100000000E-03 0.  1.
        -12    1    3    3    0    0 -0.32096651672E+01 -0.22059822089E+02  0.24698044747E+01  0.22428500513E+02  0.00000000000E+00 0.  1.
</event>
<event>
 7    1  0.5902966E-013  0.5052887E+02  0.7816164E-02  0.1300439E+00
        -11   -1    0    0    0    0  0.00000000000E+00  0.00000000000E+00  0.45593999997E+02  0.45594000000E+02  0.51100000000E-03 0. -1.
         11   -1    0    0    0    0 -0.00000000000E+00 -0.00000000000E+00 -0.45593999997E+02  0.45594000000E+02  0.51100000000E-03 0.  1.
    9900012    2    1    2    0    0  0.61272989468E+00  0.36578428933E+02 -0.17742830157E+02  0.50528869130E+02  0.30000028207E+02 0.  0.
         12    1    1    2    0    0 -0.61272989468E+00 -0.36578428933E+02  0.17742830157E+02  0.40659130870E+02  0.00000000000E+00 0. -1.
         11    1    3    3    0    0 -0.50561417039E+01 -0.22201494657E+01  0.10158049010E+01  0.56147566677E+01  0.51100000000E-03 0. -1.
        -11    1    3    3    0    0 -0.12142432549E+01  0.27773472558E+02 -0.12275450641E+02  0.30389584619E+02  0.51100000000E-03 0.  1.
        -12    1    3    3    0    0  0.68831148535E+01  0.11025105841E+02 -0.64831844175E+01  0.14524527844E+02  0.00000000000E+00 0.  1.
</event>
<event>
 7    1  0.5902966E-013  0.5052886E+02  0.7816164E-02  0.1300439E+00
        -11   -1    0    0    0    0  0.00000000000E+00  0.00000000000E+00  0.45593999997E+02  0.45594000000E+02  0.51100000000E-03 0.  1.
         11   -1    0    0    0    0 -0.00000000000E+00 -0.00000000000E+00 -0.45593999997E+02  0.45594000000E+02  0.51100000000E-03 0. -1.
    9900012    2    1    2    0    0 -0.24497855167E+02 -0.31094249057E+02  0.92826797064E+01  0.50528863576E+02  0.30000011326E+02 0.  0.
         12    1    1    2    0    0  0.24497855167E+02  0.31094249057E+02 -0.92826797064E+01  0.40659136424E+02  0.00000000000E+00 0. -1.
         11    1    3    3    0    0 -0.21683040946E+02 -0.14003780818E+02 -0.19645756000E+00  0.25812763077E+02  0.51100000000E-03 0.  1.
        -11    1    3    3    0    0  0.33655444896E+01 -0.19806548185E+01 -0.23484341576E+01  0.45568658611E+01  0.51100000000E-03 0. -1.
        -12    1    3    3    0    0 -0.61803587113E+01 -0.15109813421E+02  0.11827571424E+02  0.20159234638E+02  0.00000000000E+00 0.  1.
</event>
<event>
 7    1  0.5902966E-013  0.5052886E+02  0.7816164E-02  0.1300439E+00
        -11   -1    0    0    0    0  0.00000000000E+00  0.00000000000E+00  0.45593999997E+02  0.45594000000E+02  0.51100000000E-03 0.  1.
         11   -1    0    0    0    0 -0.00000000000E+00 -0.00000000000E+00 -0.45593999997E+02  0.45594000000E+02  0.51100000000E-03 0. -1.
    9900012    2    1    2    0    0 -0.35494477130E+02 -0.19820871033E+02  0.66394902264E+00  0.50528860024E+02  0.30000000530E+02 0.  0.
         12    1    1    2    0    0  0.35494477130E+02  0.19820871033E+02 -0.66394902264E+00  0.40659139976E+02  0.00000000000E+00 0. -1.
         11    1    3    3    0    0 -0.17993617450E+01  0.25916730384E+00 -0.38089974447E+01  0.42205843405E+01  0.51100000000E-03 0. -1.
        -11    1    3    3    0    0 -0.34760510148E+02 -0.14495797187E+02 -0.19729851396E+01  0.37713576765E+02  0.51100000000E-03 0.  1.
         12    1    3    3    0    0  0.10653947625E+01 -0.55842411502E+01  0.64459316069E+01  0.85946989187E+01  0.00000000000E+00 0. -1.
</event>
<event>
 7    1  0.5902966E-013  0.5052886E+02  0.7816164E-02  0.1300439E+00
        -11   -1    0    0    0    0  0.00000000000E+00  0.00000000000E+00  0.45593999997E+02  0.45594000000E+02  0.51100000000E-03 0.  1.
         11   -1    0    0    0    0 -0.00000000000E+00 -0.00000000000E+00 -0.45593999997E+02  0.45594000000E+02  0.51100000000E-03 0. -1.
    9900012    2    1    2    0    0  0.12464801650E+02  0.54143506884E+01  0.38320744521E+02  0.50528856697E+02  0.29999990415E+02 0.  0.
         12    1    1    2    0    0 -0.12464801650E+02 -0.54143506884E+01 -0.38320744521E+02  0.40659143303E+02  0.00000000000E+00 0. -1.
         11    1    3    3    0    0  0.10951591280E+02 -0.10599138797E+01  0.35436814652E+01  0.11559344600E+02  0.51100000000E-03 0. -1.
        -11    1    3    3    0    0 -0.61595375558E+01  0.16250325690E+01  0.58393488898E+01  0.86416797829E+01  0.51100000000E-03 0.  1.
        -12    1    3    3    0    0  0.76727479262E+01  0.48492319991E+01  0.28937714166E+02  0.30327832314E+02  0.00000000000E+00 0.  1.
</event>
<event>
 7    1  0.5902966E-013  0.5052885E+02  0.7816164E-02  0.1300439E+00
        -11   -1    0    0    0    0  0.00000000000E+00  0.00000000000E+00  0.45593999997E+02  0.45594000000E+02  0.51100000000E-03 0. -1.
         11   -1    0    0    0    0 -0.00000000000E+00 -0.00000000000E+00 -0.45593999997E+02  0.45594000000E+02  0.51100000000E-03 0.  1.
    9900012    2    1    2    0    0 -0.10437428465E+02 -0.31688783985E+02 -0.23238919955E+02  0.50528851655E+02  0.29999975091E+02 0.  0.
         12    1    1    2    0    0  0.10437428465E+02  0.31688783985E+02  0.23238919955E+02  0.40659148345E+02  0.00000000000E+00 0. -1.
         11    1    3    3    0    0 -0.16703071774E+00 -0.18683991634E+02 -0.98380221645E+00  0.18710620239E+02  0.51100000000E-03 0. -1.
        -11    1    3    3    0    0 -0.11310501513E+02 -0.15932150445E+02 -0.18132306178E+02  0.26655982253E+02  0.51100000000E-03 0.  1.
         12    1    3    3    0    0  0.10401037654E+01  0.29273580946E+01 -0.41228115609E+01  0.51622491632E+01  0.00000000000E+00 0. -1.
</event>
<event>
 7    1  0.5902966E-013  0.5052886E+02  0.7816164E-02  0.1300439E+00
        -11   -1    0    0    0    0  0.00000000000E+00  0.00000000000E+00  0.45593999997E+02  0.45594000000E+02  0.51100000000E-03 0.  1.
         11   -1    0    0    0    0 -0.00000000000E+00 -0.00000000000E+00 -0.45593999997E+02  0.45594000000E+02  0.51100000000E-03 0. -1.
    9900012    2    1    2    0    0  0.22790401572E+02  0.17045693857E+02  0.29038035752E+02  0.50528860767E+02  0.30000002786E+02 0.  0.
         12    1    1    2    0    0 -0.22790401572E+02 -0.17045693857E+02 -0.29038035752E+02  0.40659139233E+02  0.00000000000E+00 0. -1.
         11    1    3    3    0    0  0.28988709622E+01 -0.72974564145E+00 -0.16661340693E+01  0.34222776852E+01  0.51100000000E-03 0. -1.
        -11    1    3    3    0    0 -0.46318361806E+01  0.72020968393E+01  0.44219368028E+01  0.96373041166E+01  0.51100000000E-03 0.  1.
        -12    1    3    3    0    0  0.24523366791E+02  0.10573342659E+02  0.26282233018E+02  0.37469278965E+02  0.00000000000E+00 0.  1.
</event>
<event>
 7    1  0.5902966E-013  0.5052887E+02  0.7816164E-02  0.1300439E+00
        -11   -1    0    0    0    0  0.00000000000E+00  0.00000000000E+00  0.45593999997E+02  0.45594000000E+02  0.51100000000E-03 0.  1.
         11   -1    0    0    0    0 -0.00000000000E+00 -0.00000000000E+00 -0.45593999997E+02  0.45594000000E+02  0.51100000000E-03 0. -1.
    9900012    2    1    2    0    0  0.24242530569E+02  0.25306608591E+02  0.20616508384E+02  0.50528866405E+02  0.30000019923E+02 0.  0.
         12    1    1    2    0    0 -0.24242530569E+02 -0.25306608591E+02 -0.20616508384E+02  0.40659133595E+02  0.00000000000E+00 0. -1.
         11    1    3    3    0    0  0.50270917580E+01 -0.25730504240E+01  0.40414492764E+01  0.69444620053E+01  0.51100000000E-03 0. -1.
        -11    1    3    3    0    0  0.84091547725E+01  0.30437490978E+01  0.13681745020E+02  0.16345287994E+02  0.51100000000E-03 0.  1.
         12    1    3    3    0    0  0.10806284039E+02  0.24835909917E+02  0.28933140879E+01  0.27239116406E+02  0.00000000000E+00 0. -1.
</event>
<event>
 7    1  0.5902966E-013  0.5052887E+02  0.7816164E-02  0.1300439E+00
        -11   -1    0    0    0    0  0.00000000000E+00  0.00000000000E+00  0.45593999997E+02  0.45594000000E+02  0.51100000000E-03 0. -1.
         11   -1    0    0    0    0 -0.00000000000E+00 -0.00000000000E+00 -0.45593999997E+02  0.45594000000E+02  0.51100000000E-03 0.  1.
    9900012    2    1    2    0    0 -0.17685706993E+02 -0.32634336979E+02 -0.16594609391E+02  0.50528865199E+02  0.30000016260E+02 0.  0.
         12    1    1    2    0    0  0.17685706993E+02  0.32634336979E+02  0.16594609391E+02  0.40659134801E+02  0.00000000000E+00 0. -1.
         11    1    3    3    0    0 -0.66555219760E+01 -0.77060685941E+01 -0.78552002723E-01  0.10182614430E+02  0.51100000000E-03 0. -1.
        -11    1    3    3    0    0 -0.17932206946E+02 -0.13474773168E+02 -0.14778519742E+02  0.26861463175E+02  0.51100000000E-03 0.  1.
         12    1    3    3    0    0  0.69020219288E+01 -0.11453495217E+02 -0.17375376460E+01  0.13484787594E+02  0.00000000000E+00 0. -1.
</event>
<event>
 7    1  0.5902966E-013  0.5052886E+02  0.7816164E-02  0.1300439E+00
        -11   -1    0    0    0    0  0.00000000000E+00  0.00000000000E+00  0.45593999997E+02  0.45594000000E+02  0.51100000000E-03 0.  1.
         11   -1    0    0    0    0 -0.00000000000E+00 -0.00000000000E+00 -0.45593999997E+02  0.45594000000E+02  0.51100000000E-03 0. -1.
    9900012    2    1    2    0    0  0.80892580682E+01 -0.34184126595E+02  0.20473772592E+02  0.50528856240E+02  0.29999989028E+02 0.  0.
         12    1    1    2    0    0 -0.80892580682E+01  0.34184126595E+02 -0.20473772592E+02  0.40659143760E+02  0.00000000000E+00 0. -1.
         11    1    3    3    0    0 -0.18627524135E+01 -0.19518843057E+02  0.39866831085E+00  0.19611578659E+02  0.51100000000E-03 0. -1.
        -11    1    3    3    0    0  0.67808700352E+01 -0.82386301493E+01  0.12122458642E+01  0.10738936887E+02  0.51100000000E-03 0.  1.
        -12    1    3    3    0    0  0.31711404465E+01 -0.64266533888E+01  0.18862858417E+02  0.20178340694E+02  0.00000000000E+00 0.  1.
</event>
<event>
 7    1  0.5902966E-013  0.5052886E+02  0.7816164E-02  0.1300439E+00
        -11   -1    0    0    0    0  0.00000000000E+00  0.00000000000E+00  0.45593999997E+02  0.45594000000E+02  0.51100000000E-03 0.  1.
         11   -1    0    0    0    0 -0.00000000000E+00 -0.00000000000E+00 -0.45593999997E+02  0.45594000000E+02  0.51100000000E-03 0. -1.
    9900012    2    1    2    0    0 -0.35619362570E+02  0.80611546948E+01  0.17873011158E+02  0.50528859174E+02  0.29999997945E+02 0.  0.
         12    1    1    2    0    0  0.35619362570E+02 -0.80611546948E+01 -0.17873011158E+02  0.40659140826E+02  0.00000000000E+00 0. -1.
         11    1    3    3    0    0  0.51299140029E+00 -0.29559697673E+01 -0.29228091469E+01  0.41885237271E+01  0.51100000000E-03 0. -1.
        -11    1    3    3    0    0 -0.10840275685E+02  0.16926096595E+01  0.15303804835E+02  0.18830372993E+02  0.51100000000E-03 0.  1.
         12    1    3    3    0    0 -0.25292078285E+02  0.93245148026E+01  0.54920154699E+01  0.27509962454E+02  0.00000000000E+00 0. -1.
</event>
<event>
 7    1  0.5902966E-013  0.5052882E+02  0.7816164E-02  0.1300439E+00
        -11   -1    0    0    0    0  0.00000000000E+00  0.00000000000E+00  0.45593999997E+02  0.45594000000E+02  0.51100000000E-03 0. -1.
         11   -1    0    0    0    0 -0.00000000000E+00 -0.00000000000E+00 -0.45593999997E+02  0.45594000000E+02  0.51100000000E-03 0.  1.
    9900012    2    1    2    0    0 -0.25801204133E+02  0.22727290912E+01 -0.31341686776E+02  0.50528821919E+02  0.29999884704E+02 0.  0.
         12    1    1    2    0    0  0.25801204133E+02 -0.22727290912E+01  0.31341686776E+02  0.40659178081E+02  0.00000000000E+00 0. -1.
         11    1    3    3    0    0 -0.44694488525E+01 -0.98093845428E+01 -0.19171445069E+01  0.10948764381E+02  0.51100000000E-03 0. -1.
        -11    1    3    3    0    0 -0.79174244956E+01  0.23222254736E+01 -0.38708342717E+01  0.91138191783E+01  0.51100000000E-03 0.  1.
        -12    1    3    3    0    0 -0.13414330785E+02  0.97598881604E+01 -0.25553707998E+02  0.30466238359E+02  0.00000000000E+00 0.  1.
</event>
<event>
 7    1  0.5902966E-013  0.5052886E+02  0.7816164E-02  0.1300439E+00
        -11   -1    0    0    0    0  0.00000000000E+00  0.00000000000E+00  0.45593999997E+02  0.45594000000E+02  0.51100000000E-03 0.  1.
         11   -1    0    0    0    0 -0.00000000000E+00 -0.00000000000E+00 -0.45593999997E+02  0.45594000000E+02  0.51100000000E-03 0. -1.
    9900012    2    1    2    0    0  0.32921867227E+02  0.23785284059E+02  0.18911312978E+01  0.50528862563E+02  0.30000008248E+02 0.  0.
         12    1    1    2    0    0 -0.32921867227E+02 -0.23785284059E+02 -0.18911312978E+01  0.40659137437E+02  0.00000000000E+00 0. -1.
         11    1    3    3    0    0  0.16228768493E+02  0.20107434983E+02  0.35281785549E+01  0.26079300461E+02  0.51100000000E-03 0. -1.
        -11    1    3    3    0    0  0.19758321801E+02  0.34549362689E+00 -0.22150807590E+01  0.19885100686E+02  0.51100000000E-03 0.  1.
         12    1    3    3    0    0 -0.30652230669E+01  0.33323554497E+01  0.57803350177E+00  0.45644614164E+01  0.00000000000E+00 0. -1.
</event>
<event>
 7    1  0.5902966E-013  0.5052886E+02  0.7816164E-02  0.1300439E+00
        -11   -1    0    0    0    0  0.00000000000E+00  0.00000000000E+00  0.45593999997E+02  0.45594000000E+02  0.51100000000E-03 0.  1.
         11   -1    0    0    0    0 -0.00000000000E+00 -0.00000000000E+00 -0.45593999997E+02  0.45594000000E+02  0.51100000000E-03 0. -1.
    9900012    2    1    2    0    0  0.67616081362E+01  0.37116442742E+02  0.15159689153E+02  0.50528857834E+02  0.29999993874E+02 0.  0.
         12    1    1    2    0    0 -0.67616081362E+01 -0.37116442742E+02 -0.15159689153E+02  0.40659142166E+02  0.00000000000E+00 0. -1.
         11    1    3    3    0    0 -0.42065098978E+01  0.18942012428E+01 -0.55332805898E+01  0.72041597855E+01  0.51100000000E-03 0. -1.
        -11    1    3    3    0    0  0.39988791475E+01  0.26481283584E+02  0.16027184830E+02  0.31210896631E+02  0.51100000000E-03 0.  1.
        -12    1    3    3    0    0  0.69692388864E+01  0.87409579157E+01  0.46657849120E+01  0.12113801418E+02  0.00000000000E+00 0.  1.
</event>
<event>
 7    1  0.5902966E-013  0.5052885E+02  0.7816164E-02  0.1300439E+00
        -11   -1    0    0    0    0  0.00000000000E+00  0.00000000000E+00  0.45593999997E+02  0.45594000000E+02  0.51100000000E-03 0.  1.
         11   -1    0    0    0    0 -0.00000000000E+00 -0.00000000000E+00 -0.45593999997E+02  0.45594000000E+02  0.51100000000E-03 0. -1.
    9900012    2    1    2    0    0  0.10075606003E+02 -0.61390790925E+01  0.38909641643E+02  0.50528851691E+02  0.29999975200E+02 0.  0.
         12    1    1    2    0    0 -0.10075606003E+02  0.61390790925E+01 -0.38909641643E+02  0.40659148309E+02  0.00000000000E+00 0. -1.
         11    1    3    3    0    0 -0.74770771324E+01 -0.40049070981E+01  0.47242146988E+01  0.97089735858E+01  0.51100000000E-03 0. -1.
        -11    1    3    3    0    0  0.36413238357E+01 -0.67211176362E+01  0.12444426067E+02  0.14604670553E+02  0.51100000000E-03 0.  1.
         12    1    3    3    0    0  0.13911359300E+02  0.45869456417E+01  0.21741000877E+02  0.26215207552E+02  0.00000000000E+00 0. -1.
</event>
<event>
 7    1  0.5902966E-013  0.5052883E+02  0.7816164E-02  0.1300439E+00
        -11   -1    0    0    0    0  0.00000000000E+00  0.00000000000E+00  0.45593999997E+02  0.45594000000E+02  0.51100000000E-03 0.  1.
         11   -1    0    0    0    0 -0.00000000000E+00 -0.00000000000E+00 -0.45593999997E+02  0.45594000000E+02  0.51100000000E-03 0. -1.
    9900012    2    1    2    0    0  0.74950307640E+01 -0.63261124126E+01  0.39458497382E+02  0.50528828832E+02  0.29999905719E+02 0.  0.
         12    1    1    2    0    0 -0.74950307640E+01  0.63261124126E+01 -0.39458497382E+02  0.40659171168E+02  0.00000000000E+00 0. -1.
         11    1    3    3    0    0  0.13528736177E+02  0.25380569339E+00  0.24081914903E+02  0.27622993059E+02  0.51100000000E-03 0. -1.
        -11    1    3    3    0    0  0.21002233763E+01 -0.69312778127E+01  0.24817546436E+01  0.76558903283E+01  0.51100000000E-03 0.  1.
         12    1    3    3    0    0 -0.81339287891E+01  0.35135970668E+00  0.12894827835E+02  0.15249945446E+02  0.00000000000E+00 0. -1.
</event>
<event>
 7    1  0.5902966E-013  0.5052890E+02  0.7816164E-02  0.1300439E+00
        -11   -1    0    0    0    0  0.00000000000E+00  0.00000000000E+00  0.45593999997E+02  0.45594000000E+02  0.51100000000E-03 0. -1.
         11   -1    0    0    0    0 -0.00000000000E+00 -0.00000000000E+00 -0.45593999997E+02  0.45594000000E+02  0.51100000000E-03 0.  1.
    9900012    2    1    2    0    0 -0.10564411043E+02  0.30047491473E+02 -0.25272586254E+02  0.50528903349E+02  0.30000132219E+02 0.  0.
         12    1    1    2    0    0  0.10564411043E+02 -0.30047491473E+02  0.25272586254E+02  0.40659096651E+02  0.00000000000E+00 0. -1.
         11    1    3    3    0    0 -0.14381513960E+02  0.22599975437E+02 -0.23985666789E+02  0.35956905388E+02  0.51100000000E-03 0. -1.
        -11    1    3    3    0    0 -0.92474029364E+00 -0.20980538372E+01 -0.30009415644E+01  0.37765890759E+01  0.51100000000E-03 0.  1.
         12    1    3    3    0    0  0.47418432102E+01  0.95455698730E+01  0.17140220994E+01  0.10795408885E+02  0.00000000000E+00 0. -1.
</event>
<event>
 7    1  0.5902966E-013  0.5052885E+02  0.7816164E-02  0.1300439E+00
        -11   -1    0    0    0    0  0.00000000000E+00  0.00000000000E+00  0.45593999997E+02  0.45594000000E+02  0.51100000000E-03 0. -1.
         11   -1    0    0    0    0 -0.00000000000E+00 -0.00000000000E+00 -0.45593999997E+02  0.45594000000E+02  0.51100000000E-03 0.  1.
    9900012    2    1    2    0    0 -0.10723204785E+02  0.35222205280E+02 -0.17250370529E+02  0.50528854055E+02  0.29999982384E+02 0.  0.
         12    1    1    2    0    0  0.10723204785E+02 -0.35222205280E+02  0.17250370529E+02  0.40659145945E+02  0.00000000000E+00 0. -1.
         11    1    3    3    0    0 -0.48630225138E+01  0.37263680708E+00  0.93946724326E+00  0.49669351840E+01  0.51100000000E-03 0. -1.
        -11    1    3    3    0    0 -0.48048566783E+01  0.16892334543E+02  0.29458717340E+01  0.17807744791E+02  0.51100000000E-03 0.  1.
        -12    1    3    3    0    0 -0.10553255926E+01  0.17957233930E+02 -0.21135709506E+02  0.27754174079E+02  0.00000000000E+00 0.  1.
</event>
<event>
 7    1  0.5902966E-013  0.5052886E+02  0.7816164E-02  0.1300439E+00
        -11   -1    0    0    0    0  0.00000000000E+00  0.00000000000E+00  0.45593999997E+02  0.45594000000E+02  0.51100000000E-03 0.  1.
         11   -1    0    0    0    0 -0.00000000000E+00 -0.00000000000E+00 -0.45593999997E+02  0.45594000000E+02  0.51100000000E-03 0. -1.
    9900012    2    1    2    0    0 -0.67822453242E+01 -0.19990277412E+02  0.34749901226E+02  0.50528859849E+02  0.29999999996E+02 0.  0.
         12    1    1    2    0    0  0.67822453242E+01  0.19990277412E+02 -0.34749901226E+02  0.40659140151E+02  0.00000000000E+00 0. -1.
         11    1    3    3    0    0  0.65645685180E+00 -0.19294525829E+02  0.14940651521E+02  0.24411733463E+02  0.51100000000E-03 0.  1.
        -11    1    3    3    0    0  0.26723997476E+01  0.28045936590E+01  0.12682833545E+02  0.13261287003E+02  0.51100000000E-03 0. -1.
        -12    1    3    3    0    0 -0.10111101924E+02 -0.35003452422E+01  0.71264161602E+01  0.12855839382E+02  0.00000000000E+00 0.  1.
</event>
<event>
 7    1  0.5902966E-013  0.5052886E+02  0.7816164E-02  0.1300439E+00
        -11   -1    0    0    0    0  0.00000000000E+00  0.00000000000E+00  0.45593999997E+02  0.45594000000E+02  0.51100000000E-03 0. -1.
         11   -1    0    0    0    0 -0.00000000000E+00 -0.00000000000E+00 -0.45593999997E+02  0.45594000000E+02  0.51100000000E-03 0.  1.
    9900012    2    1    2    0    0 -0.77675855878E+01  0.10128671430E+02 -0.38603634394E+02  0.50528856388E+02  0.29999989478E+02 0.  0.
         12    1    1    2    0    0  0.77675855878E+01 -0.10128671430E+02  0.38603634394E+02  0.40659143612E+02  0.00000000000E+00 0. -1.
         11    1    3    3    0    0 -0.55787325503E+01  0.11773626749E+02 -0.10241706914E+02  0.16572057943E+02  0.51100000000E-03 0. -1.
        -11    1    3    3    0    0  0.62752179932E+01  0.20394321440E+01 -0.35703063162E+01  0.75023150950E+01  0.51100000000E-03 0.  1.
        -12    1    3    3    0    0 -0.84640710307E+01 -0.36843874631E+01 -0.24791621164E+02  0.26454483350E+02  0.00000000000E+00 0.  1.
</event>
<event>
 7    1  0.5902966E-013  0.5052886E+02  0.7816164E-02  0.1300439E+00
        -11   -1    0    0    0    0  0.00000000000E+00  0.00000000000E+00  0.45593999997E+02  0.45594000000E+02  0.51100000000E-03 0. -1.
         11   -1    0    0    0    0 -0.00000000000E+00 -0.00000000000E+00 -0.45593999997E+02  0.45594000000E+02  0.51100000000E-03 0.  1.
    9900012    2    1    2    0    0  0.20320559333E+02 -0.31640147341E+02 -0.15464199432E+02  0.50528861797E+02  0.30000005917E+02 0.  0.
         12    1    1    2    0    0 -0.20320559333E+02  0.31640147341E+02  0.15464199432E+02  0.40659138203E+02  0.00000000000E+00 0. -1.
         11    1    3    3    0    0 -0.41405304217E+00 -0.35410641371E+01 -0.13387248042E+02  0.13853843711E+02  0.51100000000E-03 0. -1.
        -11    1    3    3    0    0 -0.92393631994E+00 -0.27617879898E+01 -0.16340317251E+01  0.33393399293E+01  0.51100000000E-03 0.  1.
         12    1    3    3    0    0  0.21658548695E+02 -0.25337295214E+02 -0.44291966482E+00  0.33335678157E+02  0.00000000000E+00 0. -1.
</event>
<event>
 7    1  0.5902966E-013  0.5052887E+02  0.7816164E-02  0.1300439E+00
        -11   -1    0    0    0    0  0.00000000000E+00  0.00000000000E+00  0.45593999997E+02  0.45594000000E+02  0.51100000000E-03 0.  1.
         11   -1    0    0    0    0 -0.00000000000E+00 -0.00000000000E+00 -0.45593999997E+02  0.45594000000E+02  0.51100000000E-03 0. -1.
    9900012    2    1    2    0    0  0.35173065541E+02 -0.19763462360E+02 -0.50424344269E+01  0.50528866598E+02  0.30000020513E+02 0.  0.
         12    1    1    2    0    0 -0.35173065541E+02  0.19763462360E+02  0.50424344269E+01  0.40659133402E+02  0.00000000000E+00 0. -1.
         11    1    3    3    0    0  0.82199645078E+01  0.24015935127E+01 -0.85984996571E+01  0.12135471335E+02  0.51100000000E-03 0. -1.
        -11    1    3    3    0    0  0.23112118768E+01 -0.72513691346E+01 -0.40241396354E+01  0.86091669012E+01  0.51100000000E-03 0.  1.
        -12    1    3    3    0    0  0.24641889157E+02 -0.14913686738E+02  0.75802048656E+01  0.29784228362E+02  0.00000000000E+00 0.  1.
</event>
<event>
 7    1  0.5902966E-013  0.5052886E+02  0.7816164E-02  0.1300439E+00
        -11   -1    0    0    0    0  0.00000000000E+00  0.00000000000E+00  0.45593999997E+02  0.45594000000E+02  0.51100000000E-03 0.  1.
         11   -1    0    0    0    0 -0.00000000000E+00 -0.00000000000E+00 -0.45593999997E+02  0.45594000000E+02  0.51100000000E-03 0. -1.
    9900012    2    1    2    0    0  0.39921355494E+02  0.23209302319E+01 -0.73528678036E+01  0.50528855806E+02  0.29999987708E+02 0.  0.
         12    1    1    2    0    0 -0.39921355494E+02 -0.23209302319E+01  0.73528678036E+01  0.40659144194E+02  0.00000000000E+00 0. -1.
         11    1    3    3    0    0 -0.14492586218E+00 -0.59415010432E+01  0.22127457993E+00  0.59473860521E+01  0.51100000000E-03 0. -1.
        -11    1    3    3    0    0  0.20363199926E+02 -0.39533816941E+01 -0.39810497981E+01  0.21121976607E+02  0.51100000000E-03 0.  1.
         12    1    3    3    0    0  0.19703081431E+02  0.12215812969E+02 -0.35930925855E+01  0.23459493147E+02  0.00000000000E+00 0. -1.
</event>
<event>
 7    1  0.5902966E-013  0.5052885E+02  0.7816164E-02  0.1300439E+00
        -11   -1    0    0    0    0  0.00000000000E+00  0.00000000000E+00  0.45593999997E+02  0.45594000000E+02  0.51100000000E-03 0.  1.
         11   -1    0    0    0    0 -0.00000000000E+00 -0.00000000000E+00 -0.45593999997E+02  0.45594000000E+02  0.51100000000E-03 0. -1.
    9900012    2    1    2    0    0  0.39638822339E+02 -0.39990630565E+01  0.81201846484E+01  0.50528854159E+02  0.29999982702E+02 0.  0.
         12    1    1    2    0    0 -0.39638822339E+02  0.39990630565E+01 -0.81201846484E+01  0.40659145841E+02  0.00000000000E+00 0. -1.
         11    1    3    3    0    0 -0.26154417904E+01  0.43031166247E+00  0.40836951985E+01  0.48684977787E+01  0.51100000000E-03 0. -1.
        -11    1    3    3    0    0  0.60033607087E+00 -0.31718957592E+01  0.22767645802E+01  0.39503143318E+01  0.51100000000E-03 0.  1.
         12    1    3    3    0    0  0.41653928059E+02 -0.12574789598E+01  0.17597248697E+01  0.41710042049E+02  0.00000000000E+00 0. -1.
</event>
<event>
 7    1  0.5902966E-013  0.5052886E+02  0.7816164E-02  0.1300439E+00
        -11   -1    0    0    0    0  0.00000000000E+00  0.00000000000E+00  0.45593999997E+02  0.45594000000E+02  0.51100000000E-03 0.  1.
         11   -1    0    0    0    0 -0.00000000000E+00 -0.00000000000E+00 -0.45593999997E+02  0.45594000000E+02  0.51100000000E-03 0. -1.
    9900012    2    1    2    0    0 -0.25259417461E+02  0.20592273710E+02  0.24312260897E+02  0.50528856662E+02  0.29999990310E+02 0.  0.
         12    1    1    2    0    0  0.25259417461E+02 -0.20592273710E+02 -0.24312260897E+02  0.40659143338E+02  0.00000000000E+00 0. -1.
         11    1    3    3    0    0  0.13457344422E+01 -0.45757621602E+01  0.26976641308E+01  0.54795978465E+01  0.51100000000E-03 0. -1.
        -11    1    3    3    0    0 -0.57389405120E+01  0.14939163337E+02  0.11489147437E+02  0.19700623049E+02  0.51100000000E-03 0.  1.
        -12    1    3    3    0    0 -0.20866211391E+02  0.10228872533E+02  0.10125449329E+02  0.25348635767E+02  0.00000000000E+00 0.  1.
</event>
<event>
 7    1  0.5902966E-013  0.5052886E+02  0.7816164E-02  0.1300439E+00
        -11   -1    0    0    0    0  0.00000000000E+00  0.00000000000E+00  0.45593999997E+02  0.45594000000E+02  0.51100000000E-03 0.  1.
         11   -1    0    0    0    0 -0.00000000000E+00 -0.00000000000E+00 -0.45593999997E+02  0.45594000000E+02  0.51100000000E-03 0. -1.
    9900012    2    1    2    0    0 -0.91448801920E+01  0.38002292887E+02 -0.11196525853E+02  0.50528864623E+02  0.30000014509E+02 0.  0.
         12    1    1    2    0    0  0.91448801920E+01 -0.38002292887E+02  0.11196525853E+02  0.40659135377E+02  0.00000000000E+00 0. -1.
         11    1    3    3    0    0 -0.26356118304E+01  0.18521750662E+02 -0.10352153473E+01  0.18736951950E+02  0.51100000000E-03 0. -1.
        -11    1    3    3    0    0 -0.12250935828E+02  0.11645103091E+02  0.10776211166E+01  0.16936797874E+02  0.51100000000E-03 0.  1.
         12    1    3    3    0    0  0.57416674666E+01  0.78354391342E+01 -0.11238931622E+02  0.14855114800E+02  0.00000000000E+00 0. -1.
</event>
<event>
 7    1  0.5902966E-013  0.5052886E+02  0.7816164E-02  0.1300439E+00
        -11   -1    0    0    0    0  0.00000000000E+00  0.00000000000E+00  0.45593999997E+02  0.45594000000E+02  0.51100000000E-03 0.  1.
         11   -1    0    0    0    0 -0.00000000000E+00 -0.00000000000E+00 -0.45593999997E+02  0.45594000000E+02  0.51100000000E-03 0. -1.
    9900012    2    1    2    0    0  0.14467314980E+02 -0.37039000478E+02  0.84838221708E+01  0.50528855915E+02  0.29999988038E+02 0.  0.
         12    1    1    2    0    0 -0.14467314980E+02  0.37039000478E+02 -0.84838221708E+01  0.40659144085E+02  0.00000000000E+00 0. -1.
         11    1    3    3    0    0 -0.49160454938E+01 -0.12647830053E+02 -0.50958703346E+01  0.14494930254E+02  0.51100000000E-03 0. -1.
        -11    1    3    3    0    0  0.91366490181E+01 -0.14456949899E+02  0.12052868041E+01  0.17144517264E+02  0.51100000000E-03 0.  1.
        -12    1    3    3    0    0  0.10246711455E+02 -0.99342205257E+01  0.12374405701E+02  0.18889408396E+02  0.00000000000E+00 0.  1.
</event>
<event>
 7    1  0.5902966E-013  0.5052887E+02  0.7816164E-02  0.1300439E+00
        -11   -1    0    0    0    0  0.00000000000E+00  0.00000000000E+00  0.45593999997E+02  0.45594000000E+02  0.51100000000E-03 0.  1.
         11   -1    0    0    0    0 -0.00000000000E+00 -0.00000000000E+00 -0.45593999997E+02  0.45594000000E+02  0.51100000000E-03 0. -1.
    9900012    2    1    2    0    0  0.79266965952E+01  0.26632961770E+02  0.29681942856E+02  0.50528869374E+02  0.30000028949E+02 0.  0.
         12    1    1    2    0    0 -0.79266965952E+01 -0.26632961770E+02 -0.29681942856E+02  0.40659130626E+02  0.00000000000E+00 0. -1.
         11    1    3    3    0    0 -0.17192637999E+01 -0.52980744267E+00  0.64942315363E+01  0.67388135045E+01  0.51100000000E-03 0. -1.
        -11    1    3    3    0    0 -0.71173193447E+01  0.86644092256E+01  0.12032387103E+02  0.16447083679E+02  0.51100000000E-03 0.  1.
         12    1    3    3    0    0  0.16763279740E+02  0.18498359987E+02  0.11155324217E+02  0.27342972191E+02  0.00000000000E+00 0. -1.
</event>
<event>
 7    1  0.5902966E-013  0.5052887E+02  0.7816164E-02  0.1300439E+00
        -11   -1    0    0    0    0  0.00000000000E+00  0.00000000000E+00  0.45593999997E+02  0.45594000000E+02  0.51100000000E-03 0.  1.
         11   -1    0    0    0    0 -0.00000000000E+00 -0.00000000000E+00 -0.45593999997E+02  0.45594000000E+02  0.51100000000E-03 0. -1.
    9900012    2    1    2    0    0  0.63384174469E-01  0.78124354656E+01  0.39901460592E+02  0.50528871592E+02  0.30000035692E+02 0.  0.
         12    1    1    2    0    0 -0.63384174469E-01 -0.78124354656E+01 -0.39901460592E+02  0.40659128408E+02  0.00000000000E+00 0. -1.
         11    1    3    3    0    0  0.43244547810E+00 -0.19392692980E+01  0.20247726968E+02  0.20344980269E+02  0.51100000000E-03 0.  1.
        -11    1    3    3    0    0 -0.39476694042E+01  0.14115429062E+02  0.19682485706E+02  0.24540368277E+02  0.51100000000E-03 0. -1.
         12    1    3    3    0    0  0.35786081006E+01 -0.43637242989E+01 -0.28752081988E-01  0.56435230465E+01  0.00000000000E+00 0. -1.
</event>
<event>
 7    1  0.5902966E-013  0.5052887E+02  0.7816164E-02  0.1300439E+00
        -11   -1    0    0    0    0  0.00000000000E+00  0.00000000000E+00  0.45593999997E+02  0.45594000000E+02  0.51100000000E-03 0.  1.
         11   -1    0    0    0    0 -0.00000000000E+00 -0.00000000000E+00 -0.45593999997E+02  0.45594000000E+02  0.51100000000E-03 0. -1.
    9900012    2    1    2    0    0  0.38371805170E+01  0.26981653044E+02  0.30173360142E+02  0.50528865509E+02  0.30000017201E+02 0.  0.
         12    1    1    2    0    0 -0.38371805170E+01 -0.26981653044E+02 -0.30173360142E+02  0.40659134491E+02  0.00000000000E+00 0. -1.
         11    1    3    3    0    0  0.63333009067E+01 -0.15737132179E+01 -0.84291984643E+00  0.65801054547E+01  0.51100000000E-03 0. -1.
        -11    1    3    3    0    0  0.22818649829E+01  0.28244025248E+01  0.91541065817E+01  0.98479350624E+01  0.51100000000E-03 0.  1.
        -12    1    3    3    0    0 -0.47779853726E+01  0.25730963737E+02  0.21862173407E+02  0.34100824992E+02  0.00000000000E+00 0.  1.
</event>
<event>
 7    1  0.5902966E-013  0.5052885E+02  0.7816164E-02  0.1300439E+00
        -11   -1    0    0    0    0  0.00000000000E+00  0.00000000000E+00  0.45593999997E+02  0.45594000000E+02  0.51100000000E-03 0.  1.
         11   -1    0    0    0    0 -0.00000000000E+00 -0.00000000000E+00 -0.45593999997E+02  0.45594000000E+02  0.51100000000E-03 0. -1.
    9900012    2    1    2    0    0 -0.38195290160E+02 -0.10584541827E+02 -0.90693763115E+01  0.50528852164E+02  0.29999976637E+02 0.  0.
         12    1    1    2    0    0  0.38195290160E+02  0.10584541827E+02  0.90693763115E+01  0.40659147836E+02  0.00000000000E+00 0. -1.
         11    1    3    3    0    0 -0.21239650490E+02  0.38752481125E+01 -0.22214950896E+01  0.21704270123E+02  0.51100000000E-03 0. -1.
        -11    1    3    3    0    0 -0.18963863488E+02 -0.74384742660E+01 -0.69425414882E+01  0.21521103605E+02  0.51100000000E-03 0.  1.
         12    1    3    3    0    0  0.20082238185E+01 -0.70213156733E+01  0.94660266304E-01  0.73034784353E+01  0.00000000000E+00 0. -1.
</event>
<event>
 7    1  0.5902966E-013  0.5052886E+02  0.7816164E-02  0.1300439E+00
        -11   -1    0    0    0    0  0.00000000000E+00  0.00000000000E+00  0.45593999997E+02  0.45594000000E+02  0.51100000000E-03 0. -1.
         11   -1    0    0    0    0 -0.00000000000E+00 -0.00000000000E+00 -0.45593999997E+02  0.45594000000E+02  0.51100000000E-03 0.  1.
    9900012    2    1    2    0    0 -0.25776786472E+02  0.83965228182E+01 -0.30302166247E+02  0.50528860861E+02  0.30000003072E+02 0.  0.
         12    1    1    2    0    0  0.25776786472E+02 -0.83965228182E+01  0.30302166247E+02  0.40659139139E+02  0.00000000000E+00 0. -1.
         11    1    3    3    0    0 -0.17316186311E+01  0.96707699927E+01 -0.55093556562E+01  0.11263893436E+02  0.51100000000E-03 0. -1.
        -11    1    3    3    0    0 -0.60906605580E+01  0.64847684135E+01 -0.17973774548E+01  0.90762841177E+01  0.51100000000E-03 0.  1.
        -12    1    3    3    0    0 -0.17954507283E+02 -0.77590155880E+01 -0.22995433136E+02  0.30188683307E+02  0.00000000000E+00 0.  1.
</event>
<event>
 7    1  0.5902966E-013  0.5052885E+02  0.7816164E-02  0.1300439E+00
        -11   -1    0    0    0    0  0.00000000000E+00  0.00000000000E+00  0.45593999997E+02  0.45594000000E+02  0.51100000000E-03 0.  1.
         11   -1    0    0    0    0 -0.00000000000E+00 -0.00000000000E+00 -0.45593999997E+02  0.45594000000E+02  0.51100000000E-03 0. -1.
    9900012    2    1    2    0    0  0.18178842799E+02 -0.11714444045E+02  0.34430620564E+02  0.50528853954E+02  0.29999982077E+02 0.  0.
         12    1    1    2    0    0 -0.18178842799E+02  0.11714444045E+02 -0.34430620564E+02  0.40659146046E+02  0.00000000000E+00 0. -1.
         11    1    3    3    0    0  0.10787777591E+02  0.45110139932E+01  0.13187538853E+02  0.17624885073E+02  0.51100000000E-03 0.  1.
        -11    1    3    3    0    0  0.78573868457E+01 -0.78139151742E+01  0.11800411645E+01  0.11143980250E+02  0.51100000000E-03 0. -1.
         12    1    3    3    0    0 -0.46632163751E+00 -0.84115428637E+01  0.20063040547E+02  0.21759988631E+02  0.00000000000E+00 0. -1.
</event>
<event>
 7    1  0.5902966E-013  0.5052883E+02  0.7816164E-02  0.1300439E+00
        -11   -1    0    0    0    0  0.00000000000E+00  0.00000000000E+00  0.45593999997E+02  0.45594000000E+02  0.51100000000E-03 0. -1.
         11   -1    0    0    0    0 -0.00000000000E+00 -0.00000000000E+00 -0.45593999997E+02  0.45594000000E+02  0.51100000000E-03 0.  1.
    9900012    2    1    2    0    0  0.98369163460E+01 -0.39320424073E+02  0.32104991112E+01  0.50528831575E+02  0.29999914055E+02 0.  0.
         12    1    1    2    0    0 -0.98369163460E+01  0.39320424073E+02 -0.32104991112E+01  0.40659168425E+02  0.00000000000E+00 0. -1.
         11    1    3    3    0    0 -0.57517632155E+01 -0.13128401262E+02  0.37226297260E+00  0.14337931502E+02  0.51100000000E-03 0. -1.
        -11    1    3    3    0    0 -0.38850108199E+01 -0.19666757456E+01 -0.18979829628E+01  0.47501012775E+01  0.51100000000E-03 0.  1.
        -12    1    3    3    0    0  0.19473690381E+02 -0.24225347065E+02  0.47362191014E+01  0.31440798795E+02  0.00000000000E+00 0.  1.
</event>
<event>
 7    1  0.5902966E-013  0.5052875E+02  0.7816164E-02  0.1300439E+00
        -11   -1    0    0    0    0  0.00000000000E+00  0.00000000000E+00  0.45593999997E+02  0.45594000000E+02  0.51100000000E-03 0.  1.
         11   -1    0    0    0    0 -0.00000000000E+00 -0.00000000000E+00 -0.45593999997E+02  0.45594000000E+02  0.51100000000E-03 0. -1.
    9900012    2    1    2    0    0 -0.34720247044E+02  0.14503908555E+02  0.15405053200E+02  0.50528750348E+02  0.29999667157E+02 0.  0.
         12    1    1    2    0    0  0.34720247044E+02 -0.14503908555E+02 -0.15405053200E+02  0.40659249652E+02  0.00000000000E+00 0. -1.
         11    1    3    3    0    0 -0.18642658328E+02  0.14484018489E+02 -0.99711883065E+00  0.23629002251E+02  0.51100000000E-03 0. -1.
        -11    1    3    3    0    0 -0.14543538351E+02  0.55588404517E+01  0.11765896926E+02  0.19515418152E+02  0.51100000000E-03 0.  1.
        -12    1    3    3    0    0 -0.15340503651E+01 -0.55389503859E+01  0.46362751047E+01  0.73843299456E+01  0.00000000000E+00 0.  1.
</event>
<event>
 7    1  0.5902966E-013  0.5052887E+02  0.7816164E-02  0.1300439E+00
        -11   -1    0    0    0    0  0.00000000000E+00  0.00000000000E+00  0.45593999997E+02  0.45594000000E+02  0.51100000000E-03 0.  1.
         11   -1    0    0    0    0 -0.00000000000E+00 -0.00000000000E+00 -0.45593999997E+02  0.45594000000E+02  0.51100000000E-03 0. -1.
    9900012    2    1    2    0    0  0.15720411566E+01 -0.17078030424E+02  0.36865088444E+02  0.50528865939E+02  0.30000018508E+02 0.  0.
         12    1    1    2    0    0 -0.15720411566E+01  0.17078030424E+02 -0.36865088444E+02  0.40659134061E+02  0.00000000000E+00 0. -1.
         11    1    3    3    0    0 -0.21705854747E+01  0.49254613466E+01  0.44161196798E+01  0.69623073810E+01  0.51100000000E-03 0. -1.
        -11    1    3    3    0    0  0.66391908116E+01 -0.98617731500E+00  0.32069209134E+01  0.74387997913E+01  0.51100000000E-03 0.  1.
        -12    1    3    3    0    0 -0.28965641802E+01 -0.21017314456E+02  0.29242047851E+02  0.36127758767E+02  0.00000000000E+00 0.  1.
</event>
<event>
 7    1  0.5902966E-013  0.5052887E+02  0.7816164E-02  0.1300439E+00
        -11   -1    0    0    0    0  0.00000000000E+00  0.00000000000E+00  0.45593999997E+02  0.45594000000E+02  0.51100000000E-03 0. -1.
         11   -1    0    0    0    0 -0.00000000000E+00 -0.00000000000E+00 -0.45593999997E+02  0.45594000000E+02  0.51100000000E-03 0.  1.
    9900012    2    1    2    0    0  0.33419211977E+02  0.22159515652E+02 -0.67288470024E+01  0.50528865171E+02  0.30000016174E+02 0.  0.
         12    1    1    2    0    0 -0.33419211977E+02 -0.22159515652E+02  0.67288470024E+01  0.40659134829E+02  0.00000000000E+00 0. -1.
         11    1    3    3    0    0  0.10250375753E+02  0.70446246061E+01  0.81089196944E+01  0.14847609834E+02  0.51100000000E-03 0. -1.
        -11    1    3    3    0    0  0.51271553512E+01  0.71320040252E+01  0.27984828218E+01  0.92187151912E+01  0.51100000000E-03 0.  1.
         12    1    3    3    0    0  0.18041680872E+02  0.79828870202E+01 -0.17636249519E+02  0.26462540145E+02  0.00000000000E+00 0. -1.
</event>
<event>
 7    1  0.5902966E-013  0.5052885E+02  0.7816164E-02  0.1300439E+00
        -11   -1    0    0    0    0  0.00000000000E+00  0.00000000000E+00  0.45593999997E+02  0.45594000000E+02  0.51100000000E-03 0.  1.
         11   -1    0    0    0    0 -0.00000000000E+00 -0.00000000000E+00 -0.45593999997E+02  0.45594000000E+02  0.51100000000E-03 0. -1.
    9900012    2    1    2    0    0  0.14673129291E+02 -0.34195334780E+02  0.16387337397E+02  0.50528850096E+02  0.29999970352E+02 0.  0.
         12    1    1    2    0    0 -0.14673129291E+02  0.34195334780E+02 -0.16387337397E+02  0.40659149904E+02  0.00000000000E+00 0. -1.
         11    1    3    3    0    0 -0.89009945128E+01 -0.10027283245E+02  0.42584416547E+01  0.14067993396E+02  0.51100000000E-03 0. -1.
        -11    1    3    3    0    0  0.36177406194E+01 -0.34211829624E+01 -0.54205041174E+00  0.50086284511E+01  0.51100000000E-03 0.  1.
         12    1    3    3    0    0  0.19956383185E+02 -0.20746868573E+02  0.12670946155E+02  0.31452228249E+02  0.00000000000E+00 0. -1.
</event>
<event>
 7    1  0.5902966E-013  0.5052887E+02  0.7816164E-02  0.1300439E+00
        -11   -1    0    0    0    0  0.00000000000E+00  0.00000000000E+00  0.45593999997E+02  0.45594000000E+02  0.51100000000E-03 0. -1.
         11   -1    0    0    0    0 -0.00000000000E+00 -0.00000000000E+00 -0.45593999997E+02  0.45594000000E+02  0.51100000000E-03 0.  1.
    9900012    2    1    2    0    0 -0.20436031692E+01 -0.38073847387E+02  0.14119875025E+02  0.50528867699E+02  0.30000023859E+02 0.  0.
         12    1    1    2    0    0  0.20436031692E+01  0.38073847387E+02 -0.14119875025E+02  0.40659132301E+02  0.00000000000E+00 0. -1.
         11    1    3    3    0    0  0.71930666728E+01 -0.16782971006E+02  0.74483460314E+01  0.19720197332E+02  0.51100000000E-03 0. -1.
        -11    1    3    3    0    0  0.28158007027E+01 -0.10043615732E+02  0.94690058497E+01  0.14087761448E+02  0.51100000000E-03 0.  1.
        -12    1    3    3    0    0 -0.12052470545E+02 -0.11247260649E+02 -0.27974768566E+01  0.16720908920E+02  0.00000000000E+00 0.  1.
</event>
<event>
 7    1  0.5902966E-013  0.5052887E+02  0.7816164E-02  0.1300439E+00
        -11   -1    0    0    0    0  0.00000000000E+00  0.00000000000E+00  0.45593999997E+02  0.45594000000E+02  0.51100000000E-03 0.  1.
         11   -1    0    0    0    0 -0.00000000000E+00 -0.00000000000E+00 -0.45593999997E+02  0.45594000000E+02  0.51100000000E-03 0. -1.
    9900012    2    1    2    0    0 -0.22088754593E+02  0.34051406257E+02  0.23986255149E+01  0.50528871235E+02  0.30000034607E+02 0.  0.
         12    1    1    2    0    0  0.22088754593E+02 -0.34051406257E+02 -0.23986255149E+01  0.40659128765E+02  0.00000000000E+00 0. -1.
         11    1    3    3    0    0 -0.10888118400E+02  0.59403226012E+01 -0.48482341395E+01  0.13317054082E+02  0.51100000000E-03 0. -1.
        -11    1    3    3    0    0 -0.47726300316E+01  0.43281738229E+00  0.73766841924E+01  0.87966356206E+01  0.51100000000E-03 0.  1.
        -12    1    3    3    0    0 -0.64280061607E+01  0.27678266274E+02 -0.12982453802E+00  0.28415181532E+02  0.00000000000E+00 0.  1.
</event>
<event>
 7    1  0.5902966E-013  0.5052890E+02  0.7816164E-02  0.1300439E+00
        -11   -1    0    0    0    0  0.00000000000E+00  0.00000000000E+00  0.45593999997E+02  0.45594000000E+02  0.51100000000E-03 0.  1.
         11   -1    0    0    0    0 -0.00000000000E+00 -0.00000000000E+00 -0.45593999997E+02  0.45594000000E+02  0.51100000000E-03 0. -1.
    9900012    2    1    2    0    0 -0.27412719345E+02  0.23104338652E+02  0.19180578960E+02  0.50528901932E+02  0.30000127913E+02 0.  0.
         12    1    1    2    0    0  0.27412719345E+02 -0.23104338652E+02 -0.19180578960E+02  0.40659098068E+02  0.00000000000E+00 0. -1.
         11    1    3    3    0    0 -0.59008645690E+01  0.47251436706E+01  0.46916586111E+01  0.88971257243E+01  0.51100000000E-03 0. -1.
        -11    1    3    3    0    0 -0.25788736555E+02  0.19556185712E+02  0.72901352167E+01  0.33176036600E+02  0.51100000000E-03 0.  1.
         12    1    3    3    0    0  0.42768817797E+01 -0.11769907301E+01  0.71987851325E+01  0.84557396081E+01  0.00000000000E+00 0. -1.
</event>
<event>
 7    1  0.5902966E-013  0.5052886E+02  0.7816164E-02  0.1300439E+00
        -11   -1    0    0    0    0  0.00000000000E+00  0.00000000000E+00  0.45593999997E+02  0.45594000000E+02  0.51100000000E-03 0. -1.
         11   -1    0    0    0    0 -0.00000000000E+00 -0.00000000000E+00 -0.45593999997E+02  0.45594000000E+02  0.51100000000E-03 0.  1.
    9900012    2    1    2    0    0 -0.21332999321E+02  0.27324813588E+02  0.21246720547E+02  0.50528862876E+02  0.30000009199E+02 0.  0.
         12    1    1    2    0    0  0.21332999321E+02 -0.27324813588E+02 -0.21246720547E+02  0.40659137124E+02  0.00000000000E+00 0. -1.
         11    1    3    3    0    0  0.30819996177E+01  0.18619928410E+02  0.94573229542E+01  0.21110220590E+02  0.51100000000E-03 0. -1.
        -11    1    3    3    0    0 -0.10635840427E+02  0.77033539830E+01  0.54613287635E+01  0.14222829406E+02  0.51100000000E-03 0.  1.
        -12    1    3    3    0    0 -0.13779158511E+02  0.10015311954E+01  0.63280688291E+01  0.15195812881E+02  0.00000000000E+00 0.  1.
</event>
<event>
 7    1  0.5902966E-013  0.5052885E+02  0.7816164E-02  0.1300439E+00
        -11   -1    0    0    0    0  0.00000000000E+00  0.00000000000E+00  0.45593999997E+02  0.45594000000E+02  0.51100000000E-03 0.  1.
         11   -1    0    0    0    0 -0.00000000000E+00 -0.00000000000E+00 -0.45593999997E+02  0.45594000000E+02  0.51100000000E-03 0. -1.
    9900012    2    1    2    0    0 -0.20607412719E+02 -0.32017486199E+02  0.14261201706E+02  0.50528846596E+02  0.29999959713E+02 0.  0.
         12    1    1    2    0    0  0.20607412719E+02  0.32017486199E+02 -0.14261201706E+02  0.40659153404E+02  0.00000000000E+00 0. -1.
         11    1    3    3    0    0  0.21143357975E+01  0.98498021306E+00  0.24446423801E+01  0.33788871707E+01  0.51100000000E-03 0. -1.
        -11    1    3    3    0    0 -0.38543733122E+01 -0.21328070816E+02 -0.68266065115E+00  0.21684299024E+02  0.51100000000E-03 0.  1.
         12    1    3    3    0    0 -0.18867375204E+02 -0.11674395596E+02  0.12499219977E+02  0.25465660401E+02  0.00000000000E+00 0. -1.
</event>
<event>
 7    1  0.9263731E-013  0.5052886E+02  0.7816164E-02  0.1300439E+00
        -11   -1    0    0    0    0  0.00000000000E+00  0.00000000000E+00  0.45593999997E+02  0.45594000000E+02  0.51100000000E-03 0. -1.
         11   -1    0    0    0    0 -0.00000000000E+00 -0.00000000000E+00 -0.45593999997E+02  0.45594000000E+02  0.51100000000E-03 0.  1.
    9900012    2    1    2    0    0  0.18779638171E+02 -0.14919534274E+02 -0.32831358938E+02  0.50528862743E+02  0.30000008794E+02 0.  0.
         12    1    1    2    0    0 -0.18779638171E+02  0.14919534274E+02  0.32831358938E+02  0.40659137257E+02  0.00000000000E+00 0. -1.
         11    1    3    3    0    0  0.42133081375E-02  0.61231701458E+01 -0.21788974456E+01  0.64992941714E+01  0.51100000000E-03 0. -1.
        -11    1    3    3    0    0  0.22175099234E+00 -0.84559579526E+01 -0.44968409202E+01  0.95798735337E+01  0.51100000000E-03 0.  1.
        -12    1    3    3    0    0  0.18553673870E+02 -0.12586746467E+02 -0.26155620572E+02  0.34449695038E+02  0.00000000000E+00 0.  1.
</event>
<event>
 7    1  0.5902966E-013  0.5052885E+02  0.7816164E-02  0.1300439E+00
        -11   -1    0    0    0    0  0.00000000000E+00  0.00000000000E+00  0.45593999997E+02  0.45594000000E+02  0.51100000000E-03 0.  1.
         11   -1    0    0    0    0 -0.00000000000E+00 -0.00000000000E+00 -0.45593999997E+02  0.45594000000E+02  0.51100000000E-03 0. -1.
    9900012    2    1    2    0    0 -0.17712093187E+02 -0.81843032032E+01  0.35671629564E+02  0.50528853185E+02  0.29999979740E+02 0.  0.
         12    1    1    2    0    0  0.17712093187E+02  0.81843032032E+01 -0.35671629564E+02  0.40659146815E+02  0.00000000000E+00 0. -1.
         11    1    3    3    0    0  0.86380767651E+00  0.50721049549E+01 -0.95544485735E+00  0.52330954044E+01  0.51100000000E-03 0. -1.
        -11    1    3    3    0    0  0.17622854252E+01 -0.27220040446E+01  0.80085209745E+01  0.86401021058E+01  0.51100000000E-03 0.  1.
         12    1    3    3    0    0 -0.20338186288E+02 -0.10534404113E+02  0.28618553447E+02  0.36655655675E+02  0.00000000000E+00 0. -1.
</event>
<event>
 7    1  0.5902966E-013  0.5052884E+02  0.7816164E-02  0.1300439E+00
        -11   -1    0    0    0    0  0.00000000000E+00  0.00000000000E+00  0.45593999997E+02  0.45594000000E+02  0.51100000000E-03 0. -1.
         11   -1    0    0    0    0 -0.00000000000E+00 -0.00000000000E+00 -0.45593999997E+02  0.45594000000E+02  0.51100000000E-03 0.  1.
    9900012    2    1    2    0    0  0.36174022288E+02  0.18561848162E+02  0.25524126782E+00  0.50528840592E+02  0.29999941463E+02 0.  0.
         12    1    1    2    0    0 -0.36174022288E+02 -0.18561848162E+02 -0.25524126782E+00  0.40659159408E+02  0.00000000000E+00 0. -1.
         11    1    3    3    0    0  0.21252125675E+02  0.15708054283E+02  0.27336954063E+01  0.26568193501E+02  0.51100000000E-03 0.  1.
        -11    1    3    3    0    0  0.97788774283E+00 -0.16636837764E+01  0.64941947404E+01  0.67748559935E+01  0.51100000000E-03 0. -1.
         12    1    3    3    0    0  0.13944008870E+02  0.45174776554E+01 -0.89726488789E+01  0.17185791097E+02  0.00000000000E+00 0. -1.
</event>
<event>
 7    1  0.5902966E-013  0.5052886E+02  0.7816164E-02  0.1300439E+00
        -11   -1    0    0    0    0  0.00000000000E+00  0.00000000000E+00  0.45593999997E+02  0.45594000000E+02  0.51100000000E-03 0.  1.
         11   -1    0    0    0    0 -0.00000000000E+00 -0.00000000000E+00 -0.45593999997E+02  0.45594000000E+02  0.51100000000E-03 0. -1.
    9900012    2    1    2    0    0  0.31607648688E+01 -0.22903824101E+02  0.33445328302E+02  0.50528861073E+02  0.30000003719E+02 0.  0.
         12    1    1    2    0    0 -0.31607648688E+01  0.22903824101E+02 -0.33445328302E+02  0.40659138927E+02  0.00000000000E+00 0. -1.
         11    1    3    3    0    0  0.30993566461E+01  0.11866631600E+01  0.45516226354E+00  0.33498289541E+01  0.51100000000E-03 0. -1.
        -11    1    3    3    0    0 -0.32099528651E+00 -0.29498527280E+01  0.24033757940E+02  0.24216238148E+02  0.51100000000E-03 0.  1.
        -12    1    3    3    0    0  0.38240350926E+00 -0.21140634533E+02  0.89564080988E+01  0.22962793971E+02  0.00000000000E+00 0.  1.
</event>
<event>
 7    1  0.5902966E-013  0.5052886E+02  0.7816164E-02  0.1300439E+00
        -11   -1    0    0    0    0  0.00000000000E+00  0.00000000000E+00  0.45593999997E+02  0.45594000000E+02  0.51100000000E-03 0.  1.
         11   -1    0    0    0    0 -0.00000000000E+00 -0.00000000000E+00 -0.45593999997E+02  0.45594000000E+02  0.51100000000E-03 0. -1.
    9900012    2    1    2    0    0 -0.21040327758E+02 -0.33894807036E+02  0.78493428529E+01  0.50528861797E+02  0.30000005919E+02 0.  0.
         12    1    1    2    0    0  0.21040327758E+02  0.33894807036E+02 -0.78493428529E+01  0.40659138203E+02  0.00000000000E+00 0. -1.
         11    1    3    3    0    0 -0.16364536173E+02 -0.14649800933E+02  0.32198230787E+01  0.22198693035E+02  0.51100000000E-03 0. -1.
        -11    1    3    3    0    0 -0.57534027962E+01 -0.22159698238E+02  0.75082687196E+01  0.24094148028E+02  0.51100000000E-03 0.  1.
         12    1    3    3    0    0  0.10776112114E+01  0.29146921360E+01 -0.28787489454E+01  0.42360207343E+01  0.00000000000E+00 0. -1.
</event>
<event>
 7    1  0.5902966E-013  0.5052886E+02  0.7816164E-02  0.1300439E+00
        -11   -1    0    0    0    0  0.00000000000E+00  0.00000000000E+00  0.45593999997E+02  0.45594000000E+02  0.51100000000E-03 0.  1.
         11   -1    0    0    0    0 -0.00000000000E+00 -0.00000000000E+00 -0.45593999997E+02  0.45594000000E+02  0.51100000000E-03 0. -1.
    9900012    2    1    2    0    0  0.32750092792E+02 -0.20995056273E+02  0.11823895749E+02  0.50528862324E+02  0.30000007521E+02 0.  0.
         12    1    1    2    0    0 -0.32750092792E+02  0.20995056273E+02 -0.11823895749E+02  0.40659137676E+02  0.00000000000E+00 0. -1.
         11    1    3    3    0    0  0.19164548991E+02 -0.96923543919E+01  0.59597459092E+01  0.22287670207E+02  0.51100000000E-03 0. -1.
        -11    1    3    3    0    0  0.26035710546E+00 -0.64556025582E+01  0.11331721920E+02  0.13044175411E+02  0.51100000000E-03 0.  1.
         12    1    3    3    0    0  0.13325186696E+02 -0.48470993230E+01 -0.54675720802E+01  0.15197016706E+02  0.00000000000E+00 0. -1.
</event>
<event>
 7    1  0.5902966E-013  0.5052893E+02  0.7816164E-02  0.1300439E+00
        -11   -1    0    0    0    0  0.00000000000E+00  0.00000000000E+00  0.45593999997E+02  0.45594000000E+02  0.51100000000E-03 0. -1.
         11   -1    0    0    0    0 -0.00000000000E+00 -0.00000000000E+00 -0.45593999997E+02  0.45594000000E+02  0.51100000000E-03 0.  1.
    9900012    2    1    2    0    0 -0.65301418640E+01 -0.38238358982E+02  0.12179688210E+02  0.50528933911E+02  0.30000225114E+02 0.  0.
         12    1    1    2    0    0  0.65301418640E+01  0.38238358982E+02 -0.12179688210E+02  0.40659066089E+02  0.00000000000E+00 0. -1.
         11    1    3    3    0    0  0.36221693908E+01 -0.16396681762E+02  0.21143804656E+01  0.16924594203E+02  0.51100000000E-03 0.  1.
        -11    1    3    3    0    0  0.14304080174E+01  0.40025993011E-01  0.86910132844E+01  0.88080293680E+01  0.51100000000E-03 0. -1.
         12    1    3    3    0    0 -0.11582719272E+02 -0.21881703212E+02  0.13742944602E+01  0.24796310340E+02  0.00000000000E+00 0. -1.
</event>
<event>
 7    1  0.5902966E-013  0.5052886E+02  0.7816164E-02  0.1300439E+00
        -11   -1    0    0    0    0  0.00000000000E+00  0.00000000000E+00  0.45593999997E+02  0.45594000000E+02  0.51100000000E-03 0.  1.
         11   -1    0    0    0    0 -0.00000000000E+00 -0.00000000000E+00 -0.45593999997E+02  0.45594000000E+02  0.51100000000E-03 0. -1.
    9900012    2    1    2    0    0  0.13124189456E+02  0.38479284969E+02  0.51569584711E+00  0.50528860034E+02  0.30000000559E+02 0.  0.
         12    1    1    2    0    0 -0.13124189456E+02 -0.38479284969E+02 -0.51569584711E+00  0.40659139966E+02  0.00000000000E+00 0. -1.
         11    1    3    3    0    0 -0.14133029325E+01  0.44639410419E+01 -0.83532048551E+01  0.95760235180E+01  0.51100000000E-03 0. -1.
        -11    1    3    3    0    0  0.10343674823E+02  0.12746303345E+02 -0.22843829922E+01  0.16573420399E+02  0.51100000000E-03 0.  1.
        -12    1    3    3    0    0  0.41938175655E+01  0.21269040582E+02  0.11153283694E+02  0.24379416117E+02  0.00000000000E+00 0.  1.
</event>
<event>
 7    1  0.5902966E-013  0.5052887E+02  0.7816164E-02  0.1300439E+00
        -11   -1    0    0    0    0  0.00000000000E+00  0.00000000000E+00  0.45593999997E+02  0.45594000000E+02  0.51100000000E-03 0.  1.
         11   -1    0    0    0    0 -0.00000000000E+00 -0.00000000000E+00 -0.45593999997E+02  0.45594000000E+02  0.51100000000E-03 0. -1.
    9900012    2    1    2    0    0  0.26387902991E+02  0.29525539795E+02  0.92242096003E+01  0.50528868588E+02  0.30000026559E+02 0.  0.
         12    1    1    2    0    0 -0.26387902991E+02 -0.29525539795E+02 -0.92242096003E+01  0.40659131412E+02  0.00000000000E+00 0. -1.
         11    1    3    3    0    0  0.25501826834E+02  0.24900981254E+02  0.73942451725E+01  0.36401605750E+02  0.51100000000E-03 0.  1.
        -11    1    3    3    0    0  0.53058984645E+01  0.58424089765E+01 -0.20132800253E+01  0.81449123928E+01  0.51100000000E-03 0. -1.
        -12    1    3    3    0    0 -0.44198223075E+01 -0.12178504351E+01  0.38432444531E+01  0.59823504443E+01  0.00000000000E+00 0.  1.
</event>
<event>
 7    1  0.5902966E-013  0.5052886E+02  0.7816164E-02  0.1300439E+00
        -11   -1    0    0    0    0  0.00000000000E+00  0.00000000000E+00  0.45593999997E+02  0.45594000000E+02  0.51100000000E-03 0.  1.
         11   -1    0    0    0    0 -0.00000000000E+00 -0.00000000000E+00 -0.45593999997E+02  0.45594000000E+02  0.51100000000E-03 0. -1.
    9900012    2    1    2    0    0  0.15164683759E+02 -0.24424121066E+02  0.28751705502E+02  0.50528857208E+02  0.29999991969E+02 0.  0.
         12    1    1    2    0    0 -0.15164683759E+02  0.24424121066E+02 -0.28751705502E+02  0.40659142792E+02  0.00000000000E+00 0. -1.
         11    1    3    3    0    0  0.82249347935E+00  0.59371178410E+00 -0.16571433254E+01  0.19429651227E+01  0.51100000000E-03 0. -1.
        -11    1    3    3    0    0 -0.62107811749E+01 -0.86802850418E+01  0.14075685881E+02  0.17664826194E+02  0.51100000000E-03 0.  1.
        -12    1    3    3    0    0  0.20552971454E+02 -0.16337547808E+02  0.16333162946E+02  0.30921065891E+02  0.00000000000E+00 0.  1.
</event>
<event>
 7    1  0.5902966E-013  0.5052887E+02  0.7816164E-02  0.1300439E+00
        -11   -1    0    0    0    0  0.00000000000E+00  0.00000000000E+00  0.45593999997E+02  0.45594000000E+02  0.51100000000E-03 0.  1.
         11   -1    0    0    0    0 -0.00000000000E+00 -0.00000000000E+00 -0.45593999997E+02  0.45594000000E+02  0.51100000000E-03 0. -1.
    9900012    2    1    2    0    0 -0.24367058593E+02 -0.18159984122E+02  0.27011593166E+02  0.50528871466E+02  0.30000035307E+02 0.  0.
         12    1    1    2    0    0  0.24367058593E+02  0.18159984122E+02 -0.27011593166E+02  0.40659128534E+02  0.00000000000E+00 0. -1.
         11    1    3    3    0    0  0.49367923696E+01 -0.63906611388E+01  0.71809978447E+01  0.10806442477E+02  0.51100000000E-03 0. -1.
        -11    1    3    3    0    0 -0.59259230066E+01 -0.25838144445E+00  0.10470978138E+02  0.12034313769E+02  0.51100000000E-03 0.  1.
        -12    1    3    3    0    0 -0.23377927956E+02 -0.11510941539E+02  0.93596171829E+01  0.27688115220E+02  0.00000000000E+00 0.  1.
</event>
<event>
 7    1  0.5902966E-013  0.5052886E+02  0.7816164E-02  0.1300439E+00
        -11   -1    0    0    0    0  0.00000000000E+00  0.00000000000E+00  0.45593999997E+02  0.45594000000E+02  0.51100000000E-03 0.  1.
         11   -1    0    0    0    0 -0.00000000000E+00 -0.00000000000E+00 -0.45593999997E+02  0.45594000000E+02  0.51100000000E-03 0. -1.
    9900012    2    1    2    0    0 -0.40147426899E+02  0.55494853113E+01  0.32485269334E+01  0.50528860793E+02  0.30000002865E+02 0.  0.
         12    1    1    2    0    0  0.40147426899E+02 -0.55494853113E+01 -0.32485269334E+01  0.40659139207E+02  0.00000000000E+00 0. -1.
         11    1    3    3    0    0 -0.22696263543E+01 -0.81859284802E+01 -0.14212847136E+01  0.86128206395E+01  0.51100000000E-03 0. -1.
        -11    1    3    3    0    0 -0.14127957537E+02  0.54231425451E+00  0.41802432453E+01  0.14743395903E+02  0.51100000000E-03 0.  1.
        -12    1    3    3    0    0 -0.23749843008E+02  0.13193099537E+02  0.48956840165E+00  0.27172644250E+02  0.00000000000E+00 0.  1.
</event>
<event>
 7    1  0.5902966E-013  0.5052887E+02  0.7816164E-02  0.1300439E+00
        -11   -1    0    0    0    0  0.00000000000E+00  0.00000000000E+00  0.45593999997E+02  0.45594000000E+02  0.51100000000E-03 0.  1.
         11   -1    0    0    0    0 -0.00000000000E+00 -0.00000000000E+00 -0.45593999997E+02  0.45594000000E+02  0.51100000000E-03 0. -1.
    9900012    2    1    2    0    0 -0.26870293638E+02 -0.25460097323E+02  0.16820699871E+02  0.50528865970E+02  0.30000018602E+02 0.  0.
         12    1    1    2    0    0  0.26870293638E+02  0.25460097323E+02 -0.16820699871E+02  0.40659134030E+02  0.00000000000E+00 0. -1.
         11    1    3    3    0    0 -0.14621998810E+01 -0.11386789338E+02  0.13369545312E+02  0.17622194587E+02  0.51100000000E-03 0. -1.
        -11    1    3    3    0    0 -0.59349537984E+01 -0.34792638588E+01 -0.56897976693E+01  0.89276397422E+01  0.51100000000E-03 0.  1.
        -12    1    3    3    0    0 -0.19473139959E+02 -0.10594044126E+02  0.91409522281E+01  0.23979031641E+02  0.00000000000E+00 0.  1.
</event>
<event>
 7    1  0.5902966E-013  0.5052886E+02  0.7816164E-02  0.1300439E+00
        -11   -1    0    0    0    0  0.00000000000E+00  0.00000000000E+00  0.45593999997E+02  0.45594000000E+02  0.51100000000E-03 0.  1.
         11   -1    0    0    0    0 -0.00000000000E+00 -0.00000000000E+00 -0.45593999997E+02  0.45594000000E+02  0.51100000000E-03 0. -1.
    9900012    2    1    2    0    0 -0.82447733827E+01 -0.51609126307E+01  0.39478534363E+02  0.50528856099E+02  0.29999988598E+02 0.  0.
         12    1    1    2    0    0  0.82447733827E+01  0.51609126307E+01 -0.39478534363E+02  0.40659143901E+02  0.00000000000E+00 0. -1.
         11    1    3    3    0    0  0.15779472777E+01 -0.22471406579E+01  0.50223546784E+01  0.57239501679E+01  0.51100000000E-03 0. -1.
        -11    1    3    3    0    0 -0.71248386069E+01 -0.17356566492E+01 -0.24878860054E+01  0.77437333512E+01  0.51100000000E-03 0.  1.
        -12    1    3    3    0    0 -0.26978820535E+01 -0.11781153235E+01  0.36944065690E+02  0.37061172580E+02  0.00000000000E+00 0.  1.
</event>
<event>
 7    1  0.5902966E-013  0.5052886E+02  0.7816164E-02  0.1300439E+00
        -11   -1    0    0    0    0  0.00000000000E+00  0.00000000000E+00  0.45593999997E+02  0.45594000000E+02  0.51100000000E-03 0.  1.
         11   -1    0    0    0    0 -0.00000000000E+00 -0.00000000000E+00 -0.45593999997E+02  0.45594000000E+02  0.51100000000E-03 0. -1.
    9900012    2    1    2    0    0  0.25147332586E+02 -0.68353541585E+01  0.31209864101E+02  0.50528855643E+02  0.29999987212E+02 0.  0.
         12    1    1    2    0    0 -0.25147332586E+02  0.68353541585E+01 -0.31209864101E+02  0.40659144357E+02  0.00000000000E+00 0. -1.
         11    1    3    3    0    0  0.92725508867E+01 -0.10571137988E+02  0.10171867140E+02  0.17355000423E+02  0.51100000000E-03 0. -1.
        -11    1    3    3    0    0  0.17342437390E+02 -0.34002917954E+01  0.18162058656E+02  0.25341319891E+02  0.51100000000E-03 0.  1.
         12    1    3    3    0    0 -0.14676556902E+01  0.71360756250E+01  0.28759383048E+01  0.78325353292E+01  0.00000000000E+00 0. -1.
</event>
<event>
 7    1  0.5902966E-013  0.5052885E+02  0.7816164E-02  0.1300439E+00
        -11   -1    0    0    0    0  0.00000000000E+00  0.00000000000E+00  0.45593999997E+02  0.45594000000E+02  0.51100000000E-03 0.  1.
         11   -1    0    0    0    0 -0.00000000000E+00 -0.00000000000E+00 -0.45593999997E+02  0.45594000000E+02  0.51100000000E-03 0. -1.
    9900012    2    1    2    0    0 -0.42474760439E+01 -0.14942715394E+02  0.37574464702E+02  0.50528853505E+02  0.29999980714E+02 0.  0.
         12    1    1    2    0    0  0.42474760439E+01  0.14942715394E+02 -0.37574464702E+02  0.40659146495E+02  0.00000000000E+00 0. -1.
         11    1    3    3    0    0 -0.92075180078E+01 -0.86797595093E+01  0.10349049061E+02  0.16346847700E+02  0.51100000000E-03 0. -1.
        -11    1    3    3    0    0  0.85158295630E+00 -0.12796844189E+02  0.18775259788E+02  0.22737519546E+02  0.51100000000E-03 0.  1.
        -12    1    3    3    0    0  0.41084590076E+01  0.65338883051E+01  0.84501558527E+01  0.11444486259E+02  0.00000000000E+00 0.  1.
</event>
<event>
 7    1  0.5902966E-013  0.5052886E+02  0.7816164E-02  0.1300439E+00
        -11   -1    0    0    0    0  0.00000000000E+00  0.00000000000E+00  0.45593999997E+02  0.45594000000E+02  0.51100000000E-03 0.  1.
         11   -1    0    0    0    0 -0.00000000000E+00 -0.00000000000E+00 -0.45593999997E+02  0.45594000000E+02  0.51100000000E-03 0. -1.
    9900012    2    1    2    0    0 -0.24243474467E+02  0.26650004836E+02  0.18846667534E+02  0.50528859710E+02  0.29999999575E+02 0.  0.
         12    1    1    2    0    0  0.24243474467E+02 -0.26650004836E+02 -0.18846667534E+02  0.40659140290E+02  0.00000000000E+00 0. -1.
         11    1    3    3    0    0  0.29260383750E+01  0.33553531977E+01 -0.50208346192E+00  0.44801990712E+01  0.51100000000E-03 0. -1.
        -11    1    3    3    0    0  0.16044409975E+01  0.37866045570E+01 -0.26657000860E+01  0.49008736155E+01  0.51100000000E-03 0.  1.
        -12    1    3    3    0    0 -0.28773953839E+02  0.19508047081E+02  0.22014451082E+02  0.41147787023E+02  0.00000000000E+00 0.  1.
</event>
<event>
 7    1  0.5902966E-013  0.5052888E+02  0.7816164E-02  0.1300439E+00
        -11   -1    0    0    0    0  0.00000000000E+00  0.00000000000E+00  0.45593999997E+02  0.45594000000E+02  0.51100000000E-03 0. -1.
         11   -1    0    0    0    0 -0.00000000000E+00 -0.00000000000E+00 -0.45593999997E+02  0.45594000000E+02  0.51100000000E-03 0.  1.
    9900012    2    1    2    0    0  0.27947691632E+02  0.29025583854E+02  0.54411756128E+01  0.50528875837E+02  0.30000048594E+02 0.  0.
         12    1    1    2    0    0 -0.27947691632E+02 -0.29025583854E+02 -0.54411756128E+01  0.40659124163E+02  0.00000000000E+00 0. -1.
         11    1    3    3    0    0 -0.23321731385E+00 -0.31461312269E+01 -0.11449207003E+01  0.33560953031E+01  0.51100000000E-03 0. -1.
        -11    1    3    3    0    0  0.10075654926E+02  0.10654815195E+02 -0.66392033430E+01  0.16097295745E+02  0.51100000000E-03 0.  1.
        -12    1    3    3    0    0  0.18105254020E+02  0.21516899887E+02  0.13225299656E+02  0.31075484789E+02  0.00000000000E+00 0.  1.
</event>
<event>
 7    1  0.5902966E-013  0.5052886E+02  0.7816164E-02  0.1300439E+00
        -11   -1    0    0    0    0  0.00000000000E+00  0.00000000000E+00  0.45593999997E+02  0.45594000000E+02  0.51100000000E-03 0.  1.
         11   -1    0    0    0    0 -0.00000000000E+00 -0.00000000000E+00 -0.45593999997E+02  0.45594000000E+02  0.51100000000E-03 0. -1.
    9900012    2    1    2    0    0 -0.11433708919E+02 -0.30224323289E+02  0.24676433967E+02  0.50528858208E+02  0.29999995010E+02 0.  0.
         12    1    1    2    0    0  0.11433708919E+02  0.30224323289E+02 -0.24676433967E+02  0.40659141792E+02  0.00000000000E+00 0. -1.
         11    1    3    3    0    0  0.19043242385E+01  0.15675759232E+01  0.77746853342E+01  0.81565603895E+01  0.51100000000E-03 0. -1.
        -11    1    3    3    0    0 -0.58657030122E+01 -0.21318709827E+02  0.19223259518E+02  0.29298934576E+02  0.51100000000E-03 0.  1.
        -12    1    3    3    0    0 -0.74723301456E+01 -0.10473189385E+02 -0.23215108855E+01  0.13073363243E+02  0.00000000000E+00 0.  1.
</event>
<event>
 7    1  0.5902966E-013  0.5052886E+02  0.7816164E-02  0.1300439E+00
        -11   -1    0    0    0    0  0.00000000000E+00  0.00000000000E+00  0.45593999997E+02  0.45594000000E+02  0.51100000000E-03 0.  1.
         11   -1    0    0    0    0 -0.00000000000E+00 -0.00000000000E+00 -0.45593999997E+02  0.45594000000E+02  0.51100000000E-03 0. -1.
    9900012    2    1    2    0    0  0.36864205925E+02  0.15055182707E+02  0.82181232767E+01  0.50528858899E+02  0.29999997110E+02 0.  0.
         12    1    1    2    0    0 -0.36864205925E+02 -0.15055182707E+02 -0.82181232767E+01  0.40659141101E+02  0.00000000000E+00 0. -1.
         11    1    3    3    0    0  0.84190213365E+00  0.41118481294E+01  0.66168426309E+01  0.78357323145E+01  0.51100000000E-03 0. -1.
        -11    1    3    3    0    0 -0.11777863952E+01  0.20553251436E+01  0.36945362846E+01  0.43887516287E+01  0.51100000000E-03 0.  1.
         12    1    3    3    0    0  0.37200090187E+02  0.88880094344E+01 -0.20932556388E+01  0.38304374956E+02  0.00000000000E+00 0. -1.
</event>
<event>
 7    1  0.5902966E-013  0.5052883E+02  0.7816164E-02  0.1300439E+00
        -11   -1    0    0    0    0  0.00000000000E+00  0.00000000000E+00  0.45593999997E+02  0.45594000000E+02  0.51100000000E-03 0.  1.
         11   -1    0    0    0    0 -0.00000000000E+00 -0.00000000000E+00 -0.45593999997E+02  0.45594000000E+02  0.51100000000E-03 0. -1.
    9900012    2    1    2    0    0  0.34943482236E+02 -0.12226651627E+02  0.16811610734E+02  0.50528828633E+02  0.29999905113E+02 0.  0.
         12    1    1    2    0    0 -0.34943482236E+02  0.12226651627E+02 -0.16811610734E+02  0.40659171367E+02  0.00000000000E+00 0. -1.
         11    1    3    3    0    0 -0.26481567595E+01 -0.46327208109E+01  0.82156348903E+00  0.53990557658E+01  0.51100000000E-03 0. -1.
        -11    1    3    3    0    0  0.85752769549E+01 -0.67261933367E+01  0.11344050598E+02  0.15731005559E+02  0.51100000000E-03 0.  1.
        -12    1    3    3    0    0  0.29016362041E+02 -0.86773747977E+00  0.46459966463E+01  0.29398767308E+02  0.00000000000E+00 0.  1.
</event>
<event>
 7    1  0.5902966E-013  0.5052886E+02  0.7816164E-02  0.1300439E+00
        -11   -1    0    0    0    0  0.00000000000E+00  0.00000000000E+00  0.45593999997E+02  0.45594000000E+02  0.51100000000E-03 0. -1.
         11   -1    0    0    0    0 -0.00000000000E+00 -0.00000000000E+00 -0.45593999997E+02  0.45594000000E+02  0.51100000000E-03 0.  1.
    9900012    2    1    2    0    0 -0.33936005021E+02  0.38894324873E+01 -0.22054148467E+02  0.50528860973E+02  0.30000003413E+02 0.  0.
         12    1    1    2    0    0  0.33936005021E+02 -0.38894324873E+01  0.22054148467E+02  0.40659139027E+02  0.00000000000E+00 0. -1.
         11    1    3    3    0    0 -0.15616661099E+02 -0.19766748983E+01 -0.57319049176E+01  0.16752375407E+02  0.51100000000E-03 0. -1.
        -11    1    3    3    0    0  0.35838081705E+00 -0.20140971279E+01 -0.13089404597E+02  0.13248303175E+02  0.51100000000E-03 0.  1.
         12    1    3    3    0    0 -0.18677724739E+02  0.78802045135E+01 -0.32328389523E+01  0.20528182391E+02  0.00000000000E+00 0. -1.
</event>
<event>
 7    1  0.5902966E-013  0.5052886E+02  0.7816164E-02  0.1300439E+00
        -11   -1    0    0    0    0  0.00000000000E+00  0.00000000000E+00  0.45593999997E+02  0.45594000000E+02  0.51100000000E-03 0.  1.
         11   -1    0    0    0    0 -0.00000000000E+00 -0.00000000000E+00 -0.45593999997E+02  0.45594000000E+02  0.51100000000E-03 0. -1.
    9900012    2    1    2    0    0 -0.38157055497E+02 -0.10790878303E+02 -0.89867454433E+01  0.50528861638E+02  0.30000005434E+02 0.  0.
         12    1    1    2    0    0  0.38157055497E+02  0.10790878303E+02  0.89867454433E+01  0.40659138362E+02  0.00000000000E+00 0. -1.
         11    1    3    3    0    0 -0.12246916179E+01 -0.60009310889E+00 -0.46037713988E+01  0.48015302407E+01  0.51100000000E-03 0. -1.
        -11    1    3    3    0    0  0.18304375903E+01  0.28116354626E+01 -0.34772481547E+01  0.48318785930E+01  0.51100000000E-03 0.  1.
        -12    1    3    3    0    0 -0.38762801469E+02 -0.13002420657E+02 -0.90572588977E+00  0.40895452804E+02  0.00000000000E+00 0.  1.
</event>
<event>
 7    1  0.5902966E-013  0.5052886E+02  0.7816164E-02  0.1300439E+00
        -11   -1    0    0    0    0  0.00000000000E+00  0.00000000000E+00  0.45593999997E+02  0.45594000000E+02  0.51100000000E-03 0.  1.
         11   -1    0    0    0    0 -0.00000000000E+00 -0.00000000000E+00 -0.45593999997E+02  0.45594000000E+02  0.51100000000E-03 0. -1.
    9900012    2    1    2    0    0  0.24282615415E+02 -0.21843086055E+02  0.24215697556E+02  0.50528858004E+02  0.29999994388E+02 0.  0.
         12    1    1    2    0    0 -0.24282615415E+02  0.21843086055E+02 -0.24215697556E+02  0.40659141996E+02  0.00000000000E+00 0. -1.
         11    1    3    3    0    0  0.13288690644E+02 -0.79945431902E+01  0.24163565363E+02  0.28712016843E+02  0.51100000000E-03 0.  1.
        -11    1    3    3    0    0  0.54744569554E+01 -0.17596387046E+01 -0.49796923516E+01  0.76067958764E+01  0.51100000000E-03 0. -1.
        -12    1    3    3    0    0  0.55194678150E+01 -0.12088904160E+02  0.50318245445E+01  0.14210045285E+02  0.00000000000E+00 0.  1.
</event>
<event>
 7    1  0.5902966E-013  0.5052886E+02  0.7816164E-02  0.1300439E+00
        -11   -1    0    0    0    0  0.00000000000E+00  0.00000000000E+00  0.45593999997E+02  0.45594000000E+02  0.51100000000E-03 0. -1.
         11   -1    0    0    0    0 -0.00000000000E+00 -0.00000000000E+00 -0.45593999997E+02  0.45594000000E+02  0.51100000000E-03 0.  1.
    9900012    2    1    2    0    0  0.22253006214E+02  0.85661709142E+01 -0.32933114329E+02  0.50528860940E+02  0.30000003314E+02 0.  0.
         12    1    1    2    0    0 -0.22253006214E+02 -0.85661709142E+01  0.32933114329E+02  0.40659139060E+02  0.00000000000E+00 0. -1.
         11    1    3    3    0    0  0.31398621780E+01  0.48022066761E+01  0.41845341081E+01  0.71014258723E+01  0.51100000000E-03 0. -1.
        -11    1    3    3    0    0 -0.74426918444E+00  0.13319712383E+00 -0.77743325574E+01  0.78110130628E+01  0.51100000000E-03 0.  1.
        -12    1    3    3    0    0  0.19857413220E+02  0.36307671143E+01 -0.29343315880E+02  0.35616422005E+02  0.00000000000E+00 0.  1.
</event>
<event>
 7    1  0.5902966E-013  0.5052886E+02  0.7816164E-02  0.1300439E+00
        -11   -1    0    0    0    0  0.00000000000E+00  0.00000000000E+00  0.45593999997E+02  0.45594000000E+02  0.51100000000E-03 0.  1.
         11   -1    0    0    0    0 -0.00000000000E+00 -0.00000000000E+00 -0.45593999997E+02  0.45594000000E+02  0.51100000000E-03 0. -1.
    9900012    2    1    2    0    0 -0.18239539552E+02  0.35400021143E+02  0.82050839520E+01  0.50528859543E+02  0.29999999068E+02 0.  0.
         12    1    1    2    0    0  0.18239539552E+02 -0.35400021143E+02 -0.82050839520E+01  0.40659140457E+02  0.00000000000E+00 0. -1.
         11    1    3    3    0    0 -0.17715790320E+02  0.11430439628E+02  0.37978441940E+01  0.21422600158E+02  0.51100000000E-03 0. -1.
        -11    1    3    3    0    0 -0.73001244593E+01  0.56543762839E+01  0.17401862895E+01  0.93963842442E+01  0.51100000000E-03 0.  1.
         12    1    3    3    0    0  0.67763752270E+01  0.18315205231E+02  0.26670534685E+01  0.19709875141E+02  0.00000000000E+00 0. -1.
</event>
<event>
 7    1  0.5902966E-013  0.5052886E+02  0.7816164E-02  0.1300439E+00
        -11   -1    0    0    0    0  0.00000000000E+00  0.00000000000E+00  0.45593999997E+02  0.45594000000E+02  0.51100000000E-03 0. -1.
         11   -1    0    0    0    0 -0.00000000000E+00 -0.00000000000E+00 -0.45593999997E+02  0.45594000000E+02  0.51100000000E-03 0.  1.
    9900012    2    1    2    0    0 -0.38459647696E+02 -0.14927604353E+01 -0.13106969743E+02  0.50528862153E+02  0.30000006999E+02 0.  0.
         12    1    1    2    0    0  0.38459647696E+02  0.14927604353E+01  0.13106969743E+02  0.40659137847E+02  0.00000000000E+00 0. -1.
         11    1    3    3    0    0 -0.35750066397E+01  0.48089391991E+01  0.50288127267E+01  0.78227569562E+01  0.51100000000E-03 0. -1.
        -11    1    3    3    0    0 -0.13402226551E+02  0.20371110736E+01 -0.13633975128E+02  0.19226408300E+02  0.51100000000E-03 0.  1.
        -12    1    3    3    0    0 -0.21482414506E+02 -0.83388107080E+01 -0.45018073414E+01  0.23479696897E+02  0.00000000000E+00 0.  1.
</event>
<event>
 7    1  0.5902966E-013  0.5052887E+02  0.7816164E-02  0.1300439E+00
        -11   -1    0    0    0    0  0.00000000000E+00  0.00000000000E+00  0.45593999997E+02  0.45594000000E+02  0.51100000000E-03 0.  1.
         11   -1    0    0    0    0 -0.00000000000E+00 -0.00000000000E+00 -0.45593999997E+02  0.45594000000E+02  0.51100000000E-03 0. -1.
    9900012    2    1    2    0    0  0.36657139956E+00 -0.21746873712E+02  0.34352646455E+02  0.50528865610E+02  0.30000017509E+02 0.  0.
         12    1    1    2    0    0 -0.36657139956E+00  0.21746873712E+02 -0.34352646455E+02  0.40659134390E+02  0.00000000000E+00 0. -1.
         11    1    3    3    0    0 -0.26589163511E+01 -0.10248211920E+02  0.14923169619E+02  0.18297449971E+02  0.51100000000E-03 0. -1.
        -11    1    3    3    0    0  0.96919163537E+01 -0.63098816710E+01  0.20677545562E+02  0.23691955176E+02  0.51100000000E-03 0.  1.
         12    1    3    3    0    0 -0.66664286031E+01 -0.51887801211E+01 -0.12480687252E+01  0.85394604635E+01  0.00000000000E+00 0. -1.
</event>
<event>
 7    1  0.5902966E-013  0.5052889E+02  0.7816164E-02  0.1300439E+00
        -11   -1    0    0    0    0  0.00000000000E+00  0.00000000000E+00  0.45593999997E+02  0.45594000000E+02  0.51100000000E-03 0.  1.
         11   -1    0    0    0    0 -0.00000000000E+00 -0.00000000000E+00 -0.45593999997E+02  0.45594000000E+02  0.51100000000E-03 0. -1.
    9900012    2    1    2    0    0 -0.27498756967E+01 -0.19887850618E+02  0.35356396731E+02  0.50528890217E+02  0.30000092305E+02 0.  0.
         12    1    1    2    0    0  0.27498756967E+01  0.19887850618E+02 -0.35356396731E+02  0.40659109783E+02  0.00000000000E+00 0. -1.
         11    1    3    3    0    0  0.75910016146E+01 -0.10200171822E+02  0.23039412224E+02  0.26315039931E+02  0.51100000000E-03 0. -1.
        -11    1    3    3    0    0 -0.18751497615E+01 -0.11405103355E+02  0.99658792726E+01  0.15261432407E+02  0.51100000000E-03 0.  1.
        -12    1    3    3    0    0 -0.84657275499E+01  0.17174245593E+01  0.23511052346E+01  0.89524178795E+01  0.00000000000E+00 0.  1.
</event>
<event>
 7    1  0.5902966E-013  0.5052886E+02  0.7816164E-02  0.1300439E+00
        -11   -1    0    0    0    0  0.00000000000E+00  0.00000000000E+00  0.45593999997E+02  0.45594000000E+02  0.51100000000E-03 0.  1.
         11   -1    0    0    0    0 -0.00000000000E+00 -0.00000000000E+00 -0.45593999997E+02  0.45594000000E+02  0.51100000000E-03 0. -1.
    9900012    2    1    2    0    0 -0.96958040208E+01  0.23858526719E+02  0.31463111070E+02  0.50528864852E+02  0.30000015204E+02 0.  0.
         12    1    1    2    0    0  0.96958040208E+01 -0.23858526719E+02 -0.31463111070E+02  0.40659135148E+02  0.00000000000E+00 0. -1.
         11    1    3    3    0    0  0.50963913764E+01  0.52449558405E+01 -0.69252950982E+00  0.73459079911E+01  0.51100000000E-03 0. -1.
        -11    1    3    3    0    0 -0.10783009276E+02  0.15397291967E+02  0.11813561574E+02  0.22201579365E+02  0.51100000000E-03 0.  1.
         12    1    3    3    0    0 -0.40091861207E+01  0.32162789114E+01  0.20342079005E+02  0.20981377496E+02  0.00000000000E+00 0. -1.
</event>
<event>
 7    1  0.5902966E-013  0.5052888E+02  0.7816164E-02  0.1300439E+00
        -11   -1    0    0    0    0  0.00000000000E+00  0.00000000000E+00  0.45593999997E+02  0.45594000000E+02  0.51100000000E-03 0.  1.
         11   -1    0    0    0    0 -0.00000000000E+00 -0.00000000000E+00 -0.45593999997E+02  0.45594000000E+02  0.51100000000E-03 0. -1.
    9900012    2    1    2    0    0  0.45619837328E+01  0.38693555870E+02  0.11625870868E+02  0.50528882513E+02  0.30000068885E+02 0.  0.
         12    1    1    2    0    0 -0.45619837328E+01 -0.38693555870E+02 -0.11625870868E+02  0.40659117487E+02  0.00000000000E+00 0. -1.
         11    1    3    3    0    0  0.96961727642E+00 -0.29123031339E+01 -0.33856868744E+01  0.45699609494E+01  0.51100000000E-03 0. -1.
        -11    1    3    3    0    0 -0.31064969444E+01  0.11665008610E+02  0.66661885098E+00  0.12089959888E+02  0.51100000000E-03 0.  1.
         12    1    3    3    0    0  0.66988634007E+01  0.29940850393E+02  0.14344938892E+02  0.33868961675E+02  0.00000000000E+00 0. -1.
</event>
<event>
 7    1  0.5902966E-013  0.5052886E+02  0.7816164E-02  0.1300439E+00
        -11   -1    0    0    0    0  0.00000000000E+00  0.00000000000E+00  0.45593999997E+02  0.45594000000E+02  0.51100000000E-03 0.  1.
         11   -1    0    0    0    0 -0.00000000000E+00 -0.00000000000E+00 -0.45593999997E+02  0.45594000000E+02  0.51100000000E-03 0. -1.
    9900012    2    1    2    0    0  0.35970930777E+02  0.18090419198E+02 -0.56563936110E+01  0.50528856915E+02  0.29999991079E+02 0.  0.
         12    1    1    2    0    0 -0.35970930777E+02 -0.18090419198E+02  0.56563936110E+01  0.40659143085E+02  0.00000000000E+00 0. -1.
         11    1    3    3    0    0  0.95958585519E+01  0.67076806736E+01 -0.71749221013E+01  0.13731459820E+02  0.51100000000E-03 0. -1.
        -11    1    3    3    0    0  0.15013655466E+01  0.10365756762E+02  0.50948433069E+01  0.11647336191E+02  0.51100000000E-03 0.  1.
         12    1    3    3    0    0  0.24873706678E+02  0.10169817620E+01 -0.35763148167E+01  0.25150060904E+02  0.00000000000E+00 0. -1.
</event>
<event>
 7    1  0.5902966E-013  0.5052887E+02  0.7816164E-02  0.1300439E+00
        -11   -1    0    0    0    0  0.00000000000E+00  0.00000000000E+00  0.45593999997E+02  0.45594000000E+02  0.51100000000E-03 0.  1.
         11   -1    0    0    0    0 -0.00000000000E+00 -0.00000000000E+00 -0.45593999997E+02  0.45594000000E+02  0.51100000000E-03 0. -1.
    9900012    2    1    2    0    0 -0.53880793606E+01 -0.40022353934E+02  0.47270011170E+01  0.50528871220E+02  0.30000034560E+02 0.  0.
         12    1    1    2    0    0  0.53880793606E+01  0.40022353934E+02 -0.47270011170E+01  0.40659128780E+02  0.00000000000E+00 0. -1.
         11    1    3    3    0    0  0.98648305295E+00 -0.90725576943E+01 -0.39701115058E+01  0.99521976247E+01  0.51100000000E-03 0. -1.
        -11    1    3    3    0    0 -0.10771418426E+02 -0.36995285195E+01 -0.72002155878E+00  0.11411765747E+02  0.51100000000E-03 0.  1.
         12    1    3    3    0    0  0.43968560120E+01 -0.27250267720E+02  0.94171341816E+01  0.29164907848E+02  0.00000000000E+00 0. -1.
</event>
<event>
 7    1  0.5902966E-013  0.5052887E+02  0.7816164E-02  0.1300439E+00
        -11   -1    0    0    0    0  0.00000000000E+00  0.00000000000E+00  0.45593999997E+02  0.45594000000E+02  0.51100000000E-03 0.  1.
         11   -1    0    0    0    0 -0.00000000000E+00 -0.00000000000E+00 -0.45593999997E+02  0.45594000000E+02  0.51100000000E-03 0. -1.
    9900012    2    1    2    0    0 -0.15489262190E+02  0.19277329541E+02  0.32274329768E+02  0.50528867700E+02  0.30000023860E+02 0.  0.
         12    1    1    2    0    0  0.15489262190E+02 -0.19277329541E+02 -0.32274329768E+02  0.40659132300E+02  0.00000000000E+00 0. -1.
         11    1    3    3    0    0 -0.40794290525E+01  0.14875820138E+02  0.91532416550E+01  0.17936376424E+02  0.51100000000E-03 0. -1.
        -11    1    3    3    0    0  0.29196584232E+01  0.16140826614E+01 -0.17397906982E+01  0.37625177848E+01  0.51100000000E-03 0.  1.
         12    1    3    3    0    0 -0.14329491561E+02  0.27874267419E+01  0.24860878811E+02  0.28829973491E+02  0.00000000000E+00 0. -1.
</event>
<event>
 7    1  0.5902966E-013  0.5052886E+02  0.7816164E-02  0.1300439E+00
        -11   -1    0    0    0    0  0.00000000000E+00  0.00000000000E+00  0.45593999997E+02  0.45594000000E+02  0.51100000000E-03 0.  1.
         11   -1    0    0    0    0 -0.00000000000E+00 -0.00000000000E+00 -0.45593999997E+02  0.45594000000E+02  0.51100000000E-03 0. -1.
    9900012    2    1    2    0    0 -0.22452347441E+02 -0.22336267987E+02  0.25498010242E+02  0.50528864501E+02  0.30000014139E+02 0.  0.
         12    1    1    2    0    0  0.22452347441E+02  0.22336267987E+02 -0.25498010242E+02  0.40659135499E+02  0.00000000000E+00 0. -1.
         11    1    3    3    0    0 -0.21151318105E+02 -0.95275464214E+01  0.75965161439E+01  0.24410232612E+02  0.51100000000E-03 0. -1.
        -11    1    3    3    0    0  0.19183553261E+01  0.12021054666E+00 -0.15995220040E+01  0.25006016547E+01  0.51100000000E-03 0.  1.
        -12    1    3    3    0    0 -0.32193846623E+01 -0.12928932112E+02  0.19501016102E+02  0.23618030235E+02  0.00000000000E+00 0.  1.
</event>
<event>
 7    1  0.5902966E-013  0.5052886E+02  0.7816164E-02  0.1300439E+00
        -11   -1    0    0    0    0  0.00000000000E+00  0.00000000000E+00  0.45593999997E+02  0.45594000000E+02  0.51100000000E-03 0. -1.
         11   -1    0    0    0    0 -0.00000000000E+00 -0.00000000000E+00 -0.45593999997E+02  0.45594000000E+02  0.51100000000E-03 0.  1.
    9900012    2    1    2    0    0  0.34458543659E+02 -0.21401266824E+02 -0.27857680107E+01  0.50528856425E+02  0.29999989590E+02 0.  0.
         12    1    1    2    0    0 -0.34458543659E+02  0.21401266824E+02  0.27857680107E+01  0.40659143575E+02  0.00000000000E+00 0. -1.
         11    1    3    3    0    0 -0.16863258331E+01 -0.27046846431E+01 -0.36179648217E+01  0.48216888686E+01  0.51100000000E-03 0.  1.
        -11    1    3    3    0    0  0.84509927462E+01  0.38664062055E+01 -0.30356556036E+01  0.97766855604E+01  0.51100000000E-03 0. -1.
        -12    1    3    3    0    0  0.27693876746E+02 -0.22562988387E+02  0.38678524146E+01  0.35930481996E+02  0.00000000000E+00 0.  1.
</event>
<event>
 7    1  0.5902966E-013  0.5052882E+02  0.7816164E-02  0.1300439E+00
        -11   -1    0    0    0    0  0.00000000000E+00  0.00000000000E+00  0.45593999997E+02  0.45594000000E+02  0.51100000000E-03 0.  1.
         11   -1    0    0    0    0 -0.00000000000E+00 -0.00000000000E+00 -0.45593999997E+02  0.45594000000E+02  0.51100000000E-03 0. -1.
    9900012    2    1    2    0    0  0.12237766307E+02 -0.11647636558E+02  0.36982952227E+02  0.50528817557E+02  0.29999871445E+02 0.  0.
         12    1    1    2    0    0 -0.12237766307E+02  0.11647636558E+02 -0.36982952227E+02  0.40659182443E+02  0.00000000000E+00 0. -1.
         11    1    3    3    0    0  0.52539605441E+01 -0.20304911916E+02  0.28082584927E+02  0.35050322762E+02  0.51100000000E-03 0. -1.
        -11    1    3    3    0    0  0.51439932092E+01  0.28505158205E+01  0.18584724806E+01  0.61676597508E+01  0.51100000000E-03 0.  1.
        -12    1    3    3    0    0  0.18398125533E+01  0.58067595378E+01  0.70418948193E+01  0.93108350435E+01  0.00000000000E+00 0.  1.
</event>
<event>
 7    1  0.5902966E-013  0.5052886E+02  0.7816164E-02  0.1300439E+00
        -11   -1    0    0    0    0  0.00000000000E+00  0.00000000000E+00  0.45593999997E+02  0.45594000000E+02  0.51100000000E-03 0.  1.
         11   -1    0    0    0    0 -0.00000000000E+00 -0.00000000000E+00 -0.45593999997E+02  0.45594000000E+02  0.51100000000E-03 0. -1.
    9900012    2    1    2    0    0  0.14337746776E+02 -0.37910752258E+02  0.32202357625E+01  0.50528855423E+02  0.29999986545E+02 0.  0.
         12    1    1    2    0    0 -0.14337746776E+02  0.37910752258E+02 -0.32202357625E+01  0.40659144577E+02  0.00000000000E+00 0. -1.
         11    1    3    3    0    0  0.69734832456E+01 -0.91754862384E+00  0.31474063177E+00  0.70406268173E+01  0.51100000000E-03 0. -1.
        -11    1    3    3    0    0  0.99450943360E+01 -0.29321557186E+02 -0.59091734446E+01  0.31521055633E+02  0.51100000000E-03 0.  1.
        -12    1    3    3    0    0 -0.25808308060E+01 -0.76716464478E+01  0.88146685754E+01  0.11967172973E+02  0.00000000000E+00 0.  1.
</event>
<event>
 7    1  0.5902966E-013  0.5052886E+02  0.7816164E-02  0.1300439E+00
        -11   -1    0    0    0    0  0.00000000000E+00  0.00000000000E+00  0.45593999997E+02  0.45594000000E+02  0.51100000000E-03 0. -1.
         11   -1    0    0    0    0 -0.00000000000E+00 -0.00000000000E+00 -0.45593999997E+02  0.45594000000E+02  0.51100000000E-03 0.  1.
    9900012    2    1    2    0    0 -0.18812937403E+02  0.14850309444E+02 -0.32843679689E+02  0.50528860808E+02  0.30000002913E+02 0.  0.
         12    1    1    2    0    0  0.18812937403E+02 -0.14850309444E+02  0.32843679689E+02  0.40659139192E+02  0.00000000000E+00 0. -1.
         11    1    3    3    0    0 -0.49226765634E+01  0.11414277513E+02 -0.80925721831E+01  0.14832673410E+02  0.51100000000E-03 0. -1.
        -11    1    3    3    0    0 -0.81196331208E+01  0.91877503951E+01 -0.24669049475E+02  0.27548234092E+02  0.51100000000E-03 0.  1.
         12    1    3    3    0    0 -0.57706277184E+01 -0.57517184640E+01 -0.82058030993E-01  0.81479533058E+01  0.00000000000E+00 0. -1.
</event>
<event>
 7    1  0.5902966E-013  0.5052886E+02  0.7816164E-02  0.1300439E+00
        -11   -1    0    0    0    0  0.00000000000E+00  0.00000000000E+00  0.45593999997E+02  0.45594000000E+02  0.51100000000E-03 0.  1.
         11   -1    0    0    0    0 -0.00000000000E+00 -0.00000000000E+00 -0.45593999997E+02  0.45594000000E+02  0.51100000000E-03 0. -1.
    9900012    2    1    2    0    0 -0.23507405952E+02 -0.45160234453E+01  0.32865989824E+02  0.50528857246E+02  0.29999992085E+02 0.  0.
         12    1    1    2    0    0  0.23507405952E+02  0.45160234453E+01 -0.32865989824E+02  0.40659142754E+02  0.00000000000E+00 0. -1.
         11    1    3    3    0    0 -0.89874703587E+01 -0.31744520291E+01 -0.25720005305E+01  0.98725354456E+01  0.51100000000E-03 0. -1.
        -11    1    3    3    0    0 -0.22874052499E+01 -0.62501226529E+01  0.10111461435E+02  0.12105284324E+02  0.51100000000E-03 0.  1.
        -12    1    3    3    0    0 -0.12232530344E+02  0.49085512367E+01  0.25326528920E+02  0.28551037476E+02  0.00000000000E+00 0.  1.
</event>
<event>
 7    1  0.5902966E-013  0.5052889E+02  0.7816164E-02  0.1300439E+00
        -11   -1    0    0    0    0  0.00000000000E+00  0.00000000000E+00  0.45593999997E+02  0.45594000000E+02  0.51100000000E-03 0. -1.
         11   -1    0    0    0    0 -0.00000000000E+00 -0.00000000000E+00 -0.45593999997E+02  0.45594000000E+02  0.51100000000E-03 0.  1.
    9900012    2    1    2    0    0  0.35349613119E+02 -0.11405749101E+02 -0.16537143374E+02  0.50528888214E+02  0.30000086217E+02 0.  0.
         12    1    1    2    0    0 -0.35349613119E+02  0.11405749101E+02  0.16537143374E+02  0.40659111786E+02  0.00000000000E+00 0. -1.
         11    1    3    3    0    0 -0.30005800941E+00 -0.38762644400E+01  0.32822956379E+01  0.50881161282E+01  0.51100000000E-03 0. -1.
        -11    1    3    3    0    0  0.12089324392E+02 -0.57701035916E+00 -0.16778919852E+02  0.20688568265E+02  0.51100000000E-03 0.  1.
         12    1    3    3    0    0  0.23560346736E+02 -0.69524743019E+01 -0.30405191608E+01  0.24752203821E+02  0.00000000000E+00 0. -1.
</event>
<event>
 7    1  0.5902966E-013  0.5052886E+02  0.7816164E-02  0.1300439E+00
        -11   -1    0    0    0    0  0.00000000000E+00  0.00000000000E+00  0.45593999997E+02  0.45594000000E+02  0.51100000000E-03 0.  1.
         11   -1    0    0    0    0 -0.00000000000E+00 -0.00000000000E+00 -0.45593999997E+02  0.45594000000E+02  0.51100000000E-03 0. -1.
    9900012    2    1    2    0    0 -0.28122703818E+02  0.26827980031E+02  0.11938942143E+02  0.50528864223E+02  0.30000013294E+02 0.  0.
         12    1    1    2    0    0  0.28122703818E+02 -0.26827980031E+02 -0.11938942143E+02  0.40659135777E+02  0.00000000000E+00 0. -1.
         11    1    3    3    0    0 -0.77775868107E+01  0.58044878296E+01  0.14549364421E+02  0.17489052029E+02  0.51100000000E-03 0. -1.
        -11    1    3    3    0    0  0.24943993520E+01  0.16971811816E+01 -0.18950303919E+00  0.30229726684E+01  0.51100000000E-03 0.  1.
         12    1    3    3    0    0 -0.22839516360E+02  0.19326311020E+02 -0.24209192384E+01  0.30016839526E+02  0.00000000000E+00 0. -1.
</event>
<event>
 7    1  0.5902966E-013  0.5052886E+02  0.7816164E-02  0.1300439E+00
        -11   -1    0    0    0    0  0.00000000000E+00  0.00000000000E+00  0.45593999997E+02  0.45594000000E+02  0.51100000000E-03 0.  1.
         11   -1    0    0    0    0 -0.00000000000E+00 -0.00000000000E+00 -0.45593999997E+02  0.45594000000E+02  0.51100000000E-03 0. -1.
    9900012    2    1    2    0    0 -0.40015376869E+02 -0.53732159830E+01  0.48024943978E+01  0.50528858489E+02  0.29999995862E+02 0.  0.
         12    1    1    2    0    0  0.40015376869E+02  0.53732159830E+01 -0.48024943978E+01  0.40659141511E+02  0.00000000000E+00 0. -1.
         11    1    3    3    0    0 -0.57263635265E+01  0.15599697258E+01  0.17363656579E+01  0.61838265453E+01  0.51100000000E-03 0. -1.
        -11    1    3    3    0    0 -0.10805889942E+02 -0.63725788111E+01  0.13686390728E+02  0.18565944887E+02  0.51100000000E-03 0.  1.
        -12    1    3    3    0    0 -0.23483123401E+02 -0.56060689767E+00 -0.10620261988E+02  0.25779087056E+02  0.00000000000E+00 0.  1.
</event>
<event>
 7    1  0.5902966E-013  0.5052884E+02  0.7816164E-02  0.1300439E+00
        -11   -1    0    0    0    0  0.00000000000E+00  0.00000000000E+00  0.45593999997E+02  0.45594000000E+02  0.51100000000E-03 0.  1.
         11   -1    0    0    0    0 -0.00000000000E+00 -0.00000000000E+00 -0.45593999997E+02  0.45594000000E+02  0.51100000000E-03 0. -1.
    9900012    2    1    2    0    0 -0.30948679010E+02 -0.20307300151E+02  0.16821421595E+02  0.50528838715E+02  0.29999935759E+02 0.  0.
         12    1    1    2    0    0  0.30948679010E+02  0.20307300151E+02 -0.16821421595E+02  0.40659161285E+02  0.00000000000E+00 0. -1.
         11    1    3    3    0    0 -0.11145437811E+02  0.36488583482E+01  0.59454704040E+01  0.13148519682E+02  0.51100000000E-03 0. -1.
        -11    1    3    3    0    0 -0.93798063658E+00 -0.70148242797E+01  0.96869391444E+01  0.11996847819E+02  0.51100000000E-03 0.  1.
         12    1    3    3    0    0 -0.18865260563E+02 -0.16941334219E+02  0.11890120462E+01  0.25383471214E+02  0.00000000000E+00 0. -1.
</event>
<event>
 7    1  0.5902966E-013  0.5052886E+02  0.7816164E-02  0.1300439E+00
        -11   -1    0    0    0    0  0.00000000000E+00  0.00000000000E+00  0.45593999997E+02  0.45594000000E+02  0.51100000000E-03 0.  1.
         11   -1    0    0    0    0 -0.00000000000E+00 -0.00000000000E+00 -0.45593999997E+02  0.45594000000E+02  0.51100000000E-03 0. -1.
    9900012    2    1    2    0    0  0.34836916605E+02  0.81251621631E+01  0.19327102133E+02  0.50528857171E+02  0.29999991857E+02 0.  0.
         12    1    1    2    0    0 -0.34836916605E+02 -0.81251621631E+01 -0.19327102133E+02  0.40659142829E+02  0.00000000000E+00 0. -1.
         11    1    3    3    0    0  0.53276744427E+01  0.54428579951E+01  0.17896144568E+02  0.19449442377E+02  0.51100000000E-03 0. -1.
        -11    1    3    3    0    0  0.10040707762E+02 -0.25513327416E+01  0.31986123837E+01  0.10842335199E+02  0.51100000000E-03 0.  1.
        -12    1    3    3    0    0  0.19468534400E+02  0.52336369096E+01 -0.17676548182E+01  0.20237079595E+02  0.00000000000E+00 0.  1.
</event>
<event>
 7    1  0.5902966E-013  0.5052887E+02  0.7816164E-02  0.1300439E+00
        -11   -1    0    0    0    0  0.00000000000E+00  0.00000000000E+00  0.45593999997E+02  0.45594000000E+02  0.51100000000E-03 0. -1.
         11   -1    0    0    0    0 -0.00000000000E+00 -0.00000000000E+00 -0.45593999997E+02  0.45594000000E+02  0.51100000000E-03 0.  1.
    9900012    2    1    2    0    0 -0.59250565801E+01  0.32014542777E+02 -0.24354204985E+02  0.50528873778E+02  0.30000042335E+02 0.  0.
         12    1    1    2    0    0  0.59250565801E+01 -0.32014542777E+02  0.24354204985E+02  0.40659126222E+02  0.00000000000E+00 0. -1.
         11    1    3    3    0    0 -0.72154719058E+01  0.85731182182E+01 -0.58266511067E+01  0.12629776490E+02  0.51100000000E-03 0. -1.
        -11    1    3    3    0    0 -0.47611006572E+01 -0.32013599042E+01 -0.30258816586E+01  0.64863506517E+01  0.51100000000E-03 0.  1.
        -12    1    3    3    0    0  0.60515159829E+01  0.26642784463E+02 -0.15501672220E+02  0.31412746636E+02  0.00000000000E+00 0.  1.
</event>
<event>
 7    1  0.5902966E-013  0.5052886E+02  0.7816164E-02  0.1300439E+00
        -11   -1    0    0    0    0  0.00000000000E+00  0.00000000000E+00  0.45593999997E+02  0.45594000000E+02  0.51100000000E-03 0.  1.
         11   -1    0    0    0    0 -0.00000000000E+00 -0.00000000000E+00 -0.45593999997E+02  0.45594000000E+02  0.51100000000E-03 0. -1.
    9900012    2    1    2    0    0  0.33138433512E+02  0.15436776867E+02  0.17796510009E+02  0.50528860509E+02  0.30000002003E+02 0.  0.
         12    1    1    2    0    0 -0.33138433512E+02 -0.15436776867E+02 -0.17796510009E+02  0.40659139491E+02  0.00000000000E+00 0. -1.
         11    1    3    3    0    0  0.12374239969E+02 -0.14483555434E+01 -0.24436443990E+01  0.12696099669E+02  0.51100000000E-03 0. -1.
        -11    1    3    3    0    0  0.19415885682E+02  0.10666292182E+02  0.71503046533E+01  0.23278171376E+02  0.51100000000E-03 0.  1.
         12    1    3    3    0    0  0.13483078610E+01  0.62188402283E+01  0.13089849754E+02  0.14554589464E+02  0.00000000000E+00 0. -1.
</event>
<event>
 7    1  0.5902966E-013  0.5052886E+02  0.7816164E-02  0.1300439E+00
        -11   -1    0    0    0    0  0.00000000000E+00  0.00000000000E+00  0.45593999997E+02  0.45594000000E+02  0.51100000000E-03 0. -1.
         11   -1    0    0    0    0 -0.00000000000E+00 -0.00000000000E+00 -0.45593999997E+02  0.45594000000E+02  0.51100000000E-03 0.  1.
    9900012    2    1    2    0    0  0.16681934101E+02  0.63110779051E+01 -0.36538317826E+02  0.50528864505E+02  0.30000014149E+02 0.  0.
         12    1    1    2    0    0 -0.16681934101E+02 -0.63110779051E+01  0.36538317826E+02  0.40659135495E+02  0.00000000000E+00 0. -1.
         11    1    3    3    0    0  0.10014135009E+02 -0.49487374393E+00 -0.29371340279E+02  0.31035518846E+02  0.51100000000E-03 0. -1.
        -11    1    3    3    0    0  0.52807018167E+01 -0.42231218870E+01 -0.43016440116E+01  0.80140321695E+01  0.51100000000E-03 0.  1.
        -12    1    3    3    0    0  0.13870972754E+01  0.11029073536E+02 -0.28653335349E+01  0.11479313489E+02  0.00000000000E+00 0.  1.
</event>
<event>
 7    1  0.5902966E-013  0.5052886E+02  0.7816164E-02  0.1300439E+00
        -11   -1    0    0    0    0  0.00000000000E+00  0.00000000000E+00  0.45593999997E+02  0.45594000000E+02  0.51100000000E-03 0.  1.
         11   -1    0    0    0    0 -0.00000000000E+00 -0.00000000000E+00 -0.45593999997E+02  0.45594000000E+02  0.51100000000E-03 0. -1.
    9900012    2    1    2    0    0  0.49133569652E+01 -0.37103847117E+02 -0.15884880144E+02  0.50528856321E+02  0.29999989273E+02 0.  0.
         12    1    1    2    0    0 -0.49133569652E+01  0.37103847117E+02  0.15884880144E+02  0.40659143679E+02  0.00000000000E+00 0. -1.
         11    1    3    3    0    0  0.19858864485E+01 -0.46881364849E+00 -0.81602165086E+01  0.84114603341E+01  0.51100000000E-03 0. -1.
        -11    1    3    3    0    0 -0.18642202677E+01 -0.15239099524E+02 -0.12356495181E+02  0.19707573288E+02  0.51100000000E-03 0.  1.
        -12    1    3    3    0    0  0.47916907844E+01 -0.21395933944E+02  0.46318315452E+01  0.22409822699E+02  0.00000000000E+00 0.  1.
</event>
<event>
 7    1  0.5902966E-013  0.5052879E+02  0.7816164E-02  0.1300439E+00
        -11   -1    0    0    0    0  0.00000000000E+00  0.00000000000E+00  0.45593999997E+02  0.45594000000E+02  0.51100000000E-03 0.  1.
         11   -1    0    0    0    0 -0.00000000000E+00 -0.00000000000E+00 -0.45593999997E+02  0.45594000000E+02  0.51100000000E-03 0. -1.
    9900012    2    1    2    0    0  0.18824865059E+02 -0.15667837479E+02  0.32454813167E+02  0.50528787349E+02  0.29999779624E+02 0.  0.
         12    1    1    2    0    0 -0.18824865059E+02  0.15667837479E+02 -0.32454813167E+02  0.40659212651E+02  0.00000000000E+00 0. -1.
         11    1    3    3    0    0 -0.22635249281E+01 -0.10619634316E+01  0.78455895507E+01  0.82343540784E+01  0.51100000000E-03 0. -1.
        -11    1    3    3    0    0  0.11217310633E+02 -0.10221805795E+02  0.27236028033E+02  0.31178752297E+02  0.51100000000E-03 0.  1.
         12    1    3    3    0    0  0.98710793532E+01 -0.43840682531E+01 -0.26268044171E+01  0.11115680973E+02  0.00000000000E+00 0. -1.
</event>
<event>
 7    1  0.5902966E-013  0.5052885E+02  0.7816164E-02  0.1300439E+00
        -11   -1    0    0    0    0  0.00000000000E+00  0.00000000000E+00  0.45593999997E+02  0.45594000000E+02  0.51100000000E-03 0. -1.
         11   -1    0    0    0    0 -0.00000000000E+00 -0.00000000000E+00 -0.45593999997E+02  0.45594000000E+02  0.51100000000E-03 0.  1.
    9900012    2    1    2    0    0 -0.32023055958E+01 -0.28970456436E+02 -0.28348269308E+02  0.50528849984E+02  0.29999970012E+02 0.  0.
         12    1    1    2    0    0  0.32023055958E+01  0.28970456436E+02  0.28348269308E+02  0.40659150016E+02  0.00000000000E+00 0. -1.
         11    1    3    3    0    0  0.33039140457E+01 -0.29630350176E+02 -0.12862585331E+02  0.32470287975E+02  0.51100000000E-03 0.  1.
        -11    1    3    3    0    0 -0.32844143034E+01 -0.81860544867E+00 -0.16305747273E+01  0.37571620140E+01  0.51100000000E-03 0. -1.
        -12    1    3    3    0    0 -0.32218053382E+01  0.14784991883E+01 -0.13855109250E+02  0.14301399995E+02  0.00000000000E+00 0.  1.
</event>
<event>
 7    1  0.5902966E-013  0.5052886E+02  0.7816164E-02  0.1300439E+00
        -11   -1    0    0    0    0  0.00000000000E+00  0.00000000000E+00  0.45593999997E+02  0.45594000000E+02  0.51100000000E-03 0. -1.
         11   -1    0    0    0    0 -0.00000000000E+00 -0.00000000000E+00 -0.45593999997E+02  0.45594000000E+02  0.51100000000E-03 0.  1.
    9900012    2    1    2    0    0  0.33551053930E+02  0.69081293341E+01 -0.21903651104E+02  0.50528863236E+02  0.30000010291E+02 0.  0.
         12    1    1    2    0    0 -0.33551053930E+02 -0.69081293341E+01  0.21903651104E+02  0.40659136764E+02  0.00000000000E+00 0. -1.
         11    1    3    3    0    0  0.31334807846E+02  0.45861368460E+01 -0.14298735884E+02  0.34747038464E+02  0.51100000000E-03 0. -1.
        -11    1    3    3    0    0  0.40997587115E+01  0.47925831648E+01 -0.10024926854E+02  0.11843818370E+02  0.51100000000E-03 0.  1.
         12    1    3    3    0    0 -0.18835126269E+01 -0.24705906767E+01  0.24200116345E+01  0.39380064015E+01  0.00000000000E+00 0. -1.
</event>
<event>
 7    1  0.5902966E-013  0.5052885E+02  0.7816164E-02  0.1300439E+00
        -11   -1    0    0    0    0  0.00000000000E+00  0.00000000000E+00  0.45593999997E+02  0.45594000000E+02  0.51100000000E-03 0.  1.
         11   -1    0    0    0    0 -0.00000000000E+00 -0.00000000000E+00 -0.45593999997E+02  0.45594000000E+02  0.51100000000E-03 0. -1.
    9900012    2    1    2    0    0  0.12757986522E+02  0.37513097648E+02  0.91196150771E+01  0.50528854726E+02  0.29999984427E+02 0.  0.
         12    1    1    2    0    0 -0.12757986522E+02 -0.37513097648E+02 -0.91196150771E+01  0.40659145274E+02  0.00000000000E+00 0. -1.
         11    1    3    3    0    0  0.96411813792E+01  0.12148450660E+02  0.80711476586E+00  0.15530250040E+02  0.51100000000E-03 0. -1.
        -11    1    3    3    0    0  0.26359264197E+01  0.21384064640E+02 -0.41193542108E+01  0.21936166666E+02  0.51100000000E-03 0.  1.
        -12    1    3    3    0    0  0.48087872329E+00  0.39805823482E+01  0.12431854522E+02  0.13062438020E+02  0.00000000000E+00 0.  1.
</event>
<event>
 7    1  0.5902966E-013  0.5052885E+02  0.7816164E-02  0.1300439E+00
        -11   -1    0    0    0    0  0.00000000000E+00  0.00000000000E+00  0.45593999997E+02  0.45594000000E+02  0.51100000000E-03 0.  1.
         11   -1    0    0    0    0 -0.00000000000E+00 -0.00000000000E+00 -0.45593999997E+02  0.45594000000E+02  0.51100000000E-03 0. -1.
    9900012    2    1    2    0    0  0.19149019736E+02  0.12801608348E+02  0.33505228441E+02  0.50528850156E+02  0.29999970534E+02 0.  0.
         12    1    1    2    0    0 -0.19149019736E+02 -0.12801608348E+02 -0.33505228441E+02  0.40659149844E+02  0.00000000000E+00 0. -1.
         11    1    3    3    0    0 -0.15971508406E+01 -0.30408603384E+00  0.14045373949E+02  0.14139161530E+02  0.51100000000E-03 0. -1.
        -11    1    3    3    0    0  0.16803789403E+02  0.17865727587E+00  0.13770462248E+02  0.21726133745E+02  0.51100000000E-03 0.  1.
         12    1    3    3    0    0  0.39423811739E+01  0.12927037106E+02  0.56893922441E+01  0.14663554882E+02  0.00000000000E+00 0. -1.
</event>
<event>
 7    1  0.5902966E-013  0.5052886E+02  0.7816164E-02  0.1300439E+00
        -11   -1    0    0    0    0  0.00000000000E+00  0.00000000000E+00  0.45593999997E+02  0.45594000000E+02  0.51100000000E-03 0.  1.
         11   -1    0    0    0    0 -0.00000000000E+00 -0.00000000000E+00 -0.45593999997E+02  0.45594000000E+02  0.51100000000E-03 0. -1.
    9900012    2    1    2    0    0 -0.30316189631E+02 -0.11488401684E+02  0.24537943943E+02  0.50528863020E+02  0.30000009635E+02 0.  0.
         12    1    1    2    0    0  0.30316189631E+02  0.11488401684E+02 -0.24537943943E+02  0.40659136980E+02  0.00000000000E+00 0. -1.
         11    1    3    3    0    0 -0.23881994262E-03 -0.71396382191E+01  0.23300922068E+01  0.75102439314E+01  0.51100000000E-03 0. -1.
        -11    1    3    3    0    0 -0.17018570698E+02 -0.68360844034E+00  0.23655839253E+02  0.29149576328E+02  0.51100000000E-03 0.  1.
         12    1    3    3    0    0 -0.13297380114E+02 -0.36651550245E+01 -0.14479875163E+01  0.13869042761E+02  0.00000000000E+00 0. -1.
</event>
<event>
 7    1  0.5902966E-013  0.5052887E+02  0.7816164E-02  0.1300439E+00
        -11   -1    0    0    0    0  0.00000000000E+00  0.00000000000E+00  0.45593999997E+02  0.45594000000E+02  0.51100000000E-03 0.  1.
         11   -1    0    0    0    0 -0.00000000000E+00 -0.00000000000E+00 -0.45593999997E+02  0.45594000000E+02  0.51100000000E-03 0. -1.
    9900012    2    1    2    0    0  0.36815639102E+02  0.16797408706E+01  0.17174175940E+02  0.50528866573E+02  0.30000020434E+02 0.  0.
         12    1    1    2    0    0 -0.36815639102E+02 -0.16797408706E+01 -0.17174175940E+02  0.40659133427E+02  0.00000000000E+00 0. -1.
         11    1    3    3    0    0  0.25478797431E+01 -0.16976253158E+01  0.64881754576E+01  0.71742626052E+01  0.51100000000E-03 0. -1.
        -11    1    3    3    0    0  0.24142522142E+02  0.71920391789E+01  0.17404264421E+02  0.30618543781E+02  0.51100000000E-03 0.  1.
         12    1    3    3    0    0  0.10125237216E+02 -0.38146729925E+01 -0.67182639390E+01  0.12736060187E+02  0.00000000000E+00 0. -1.
</event>
<event>
 7    1  0.5902966E-013  0.5052887E+02  0.7816164E-02  0.1300439E+00
        -11   -1    0    0    0    0  0.00000000000E+00  0.00000000000E+00  0.45593999997E+02  0.45594000000E+02  0.51100000000E-03 0. -1.
         11   -1    0    0    0    0 -0.00000000000E+00 -0.00000000000E+00 -0.45593999997E+02  0.45594000000E+02  0.51100000000E-03 0.  1.
    9900012    2    1    2    0    0 -0.22293349719E+02  0.32534222768E+02 -0.98841266536E+01  0.50528867539E+02  0.30000023372E+02 0.  0.
         12    1    1    2    0    0  0.22293349719E+02 -0.32534222768E+02  0.98841266536E+01  0.40659132461E+02  0.00000000000E+00 0. -1.
         11    1    3    3    0    0 -0.12938046107E+02  0.36053562897E+01 -0.23494853656E+01  0.13634944546E+02  0.51100000000E-03 0. -1.
        -11    1    3    3    0    0  0.45427993890E+01  0.75344038535E+01  0.29953708960E+01  0.92938966415E+01  0.51100000000E-03 0.  1.
         12    1    3    3    0    0 -0.13898103001E+02  0.21394462624E+02 -0.10530012184E+02  0.27600026352E+02  0.00000000000E+00 0. -1.
</event>
<event>
 7    1  0.5902966E-013  0.5052887E+02  0.7816164E-02  0.1300439E+00
        -11   -1    0    0    0    0  0.00000000000E+00  0.00000000000E+00  0.45593999997E+02  0.45594000000E+02  0.51100000000E-03 0.  1.
         11   -1    0    0    0    0 -0.00000000000E+00 -0.00000000000E+00 -0.45593999997E+02  0.45594000000E+02  0.51100000000E-03 0. -1.
    9900012    2    1    2    0    0 -0.39878981530E+02 -0.60302194952E+01 -0.51447338544E+01  0.50528868167E+02  0.30000025280E+02 0.  0.
         12    1    1    2    0    0  0.39878981530E+02  0.60302194952E+01  0.51447338544E+01  0.40659131833E+02  0.00000000000E+00 0. -1.
         11    1    3    3    0    0  0.64301233570E+00 -0.63348283084E+00 -0.17082387541E+01  0.19320572618E+01  0.51100000000E-03 0. -1.
        -11    1    3    3    0    0 -0.21919473286E+02 -0.15541151725E+02  0.12386753995E+01  0.26898420457E+02  0.51100000000E-03 0.  1.
        -12    1    3    3    0    0 -0.18602520580E+02  0.10144415061E+02 -0.46751704999E+01  0.21698390448E+02  0.00000000000E+00 0.  1.
</event>
<event>
 7    1  0.5902966E-013  0.5052885E+02  0.7816164E-02  0.1300439E+00
        -11   -1    0    0    0    0  0.00000000000E+00  0.00000000000E+00  0.45593999997E+02  0.45594000000E+02  0.51100000000E-03 0.  1.
         11   -1    0    0    0    0 -0.00000000000E+00 -0.00000000000E+00 -0.45593999997E+02  0.45594000000E+02  0.51100000000E-03 0. -1.
    9900012    2    1    2    0    0 -0.22346065902E+02 -0.10188748272E+01  0.33952635023E+02  0.50528853524E+02  0.29999980770E+02 0.  0.
         12    1    1    2    0    0  0.22346065902E+02  0.10188748272E+01 -0.33952635023E+02  0.40659146476E+02  0.00000000000E+00 0. -1.
         11    1    3    3    0    0 -0.12642393240E+02  0.10125429117E+02  0.46982318285E+01  0.16864987524E+02  0.51100000000E-03 0. -1.
        -11    1    3    3    0    0 -0.21790759280E+01  0.56446106540E+00  0.17967897601E+01  0.28801808793E+01  0.51100000000E-03 0.  1.
        -12    1    3    3    0    0 -0.75245967340E+01 -0.11708765009E+02  0.27457613434E+02  0.30783685120E+02  0.00000000000E+00 0.  1.
</event>
<event>
 7    1  0.5902966E-013  0.5052882E+02  0.7816164E-02  0.1300439E+00
        -11   -1    0    0    0    0  0.00000000000E+00  0.00000000000E+00  0.45593999997E+02  0.45594000000E+02  0.51100000000E-03 0.  1.
         11   -1    0    0    0    0 -0.00000000000E+00 -0.00000000000E+00 -0.45593999997E+02  0.45594000000E+02  0.51100000000E-03 0. -1.
    9900012    2    1    2    0    0 -0.20057804138E+02 -0.29325996794E+02  0.19769666341E+02  0.50528815280E+02  0.29999864525E+02 0.  0.
         12    1    1    2    0    0  0.20057804138E+02  0.29325996794E+02 -0.19769666341E+02  0.40659184720E+02  0.00000000000E+00 0. -1.
         11    1    3    3    0    0  0.83800525148E+00 -0.15678186017E+01 -0.14428561914E+01  0.22895724971E+01  0.51100000000E-03 0. -1.
        -11    1    3    3    0    0 -0.18285167874E+02 -0.32538005824E+02  0.20915927195E+02  0.42784871133E+02  0.51100000000E-03 0.  1.
         12    1    3    3    0    0 -0.26106415158E+01  0.47798276309E+01  0.29659533750E+00  0.54543716503E+01  0.00000000000E+00 0. -1.
</event>
<event>
 7    1  0.5902966E-013  0.5052886E+02  0.7816164E-02  0.1300439E+00
        -11   -1    0    0    0    0  0.00000000000E+00  0.00000000000E+00  0.45593999997E+02  0.45594000000E+02  0.51100000000E-03 0. -1.
         11   -1    0    0    0    0 -0.00000000000E+00 -0.00000000000E+00 -0.45593999997E+02  0.45594000000E+02  0.51100000000E-03 0.  1.
    9900012    2    1    2    0    0  0.34547873660E+01  0.39761545015E+02 -0.77620588196E+01  0.50528861116E+02  0.30000003847E+02 0.  0.
         12    1    1    2    0    0 -0.34547873660E+01 -0.39761545015E+02  0.77620588196E+01  0.40659138884E+02  0.00000000000E+00 0. -1.
         11    1    3    3    0    0  0.79651064161E+01  0.14128838936E+02 -0.75613019234E+01  0.17895259063E+02  0.51100000000E-03 0. -1.
        -11    1    3    3    0    0  0.19861719371E+01  0.17526538496E+02 -0.82684810388E+01  0.19480559786E+02  0.51100000000E-03 0.  1.
         12    1    3    3    0    0 -0.64964909873E+01  0.81061675831E+01  0.80677241425E+01  0.13153042267E+02  0.00000000000E+00 0. -1.
</event>
<event>
 7    1  0.5902966E-013  0.5052886E+02  0.7816164E-02  0.1300439E+00
        -11   -1    0    0    0    0  0.00000000000E+00  0.00000000000E+00  0.45593999997E+02  0.45594000000E+02  0.51100000000E-03 0. -1.
         11   -1    0    0    0    0 -0.00000000000E+00 -0.00000000000E+00 -0.45593999997E+02  0.45594000000E+02  0.51100000000E-03 0.  1.
    9900012    2    1    2    0    0  0.37053259135E+02  0.16739773472E+02 -0.45147745944E-01  0.50528855066E+02  0.29999985460E+02 0.  0.
         12    1    1    2    0    0 -0.37053259135E+02 -0.16739773472E+02  0.45147745944E-01  0.40659144934E+02  0.00000000000E+00 0. -1.
         11    1    3    3    0    0  0.11041907984E+02  0.99072646225E+01 -0.87279277175E+01  0.17212040748E+02  0.51100000000E-03 0.  1.
        -11    1    3    3    0    0  0.22781847137E+02 -0.17535640559E+01  0.75987832586E+01  0.24079639805E+02  0.51100000000E-03 0. -1.
         12    1    3    3    0    0  0.32295040147E+01  0.85860729053E+01  0.10839967129E+01  0.92371745133E+01  0.00000000000E+00 0. -1.
</event>
<event>
 7    1  0.5902966E-013  0.5052890E+02  0.7816164E-02  0.1300439E+00
        -11   -1    0    0    0    0  0.00000000000E+00  0.00000000000E+00  0.45593999997E+02  0.45594000000E+02  0.51100000000E-03 0. -1.
         11   -1    0    0    0    0 -0.00000000000E+00 -0.00000000000E+00 -0.45593999997E+02  0.45594000000E+02  0.51100000000E-03 0.  1.
    9900012    2    1    2    0    0 -0.36614565677E+01 -0.37549510942E+02  0.15158851025E+02  0.50528895232E+02  0.30000107546E+02 0.  0.
         12    1    1    2    0    0  0.36614565677E+01  0.37549510942E+02 -0.15158851025E+02  0.40659104768E+02  0.00000000000E+00 0. -1.
         11    1    3    3    0    0  0.96531045292E+01 -0.11778953428E+02  0.75414571673E+01  0.16994109196E+02  0.51100000000E-03 0. -1.
        -11    1    3    3    0    0 -0.61344339238E+01 -0.18476460364E+02  0.11473188656E+02  0.22597453957E+02  0.51100000000E-03 0.  1.
        -12    1    3    3    0    0 -0.71801271732E+01 -0.72940971494E+01 -0.38557947984E+01  0.10937332078E+02  0.00000000000E+00 0.  1.
</event>
<event>
 7    1  0.5902966E-013  0.5052887E+02  0.7816164E-02  0.1300439E+00
        -11   -1    0    0    0    0  0.00000000000E+00  0.00000000000E+00  0.45593999997E+02  0.45594000000E+02  0.51100000000E-03 0. -1.
         11   -1    0    0    0    0 -0.00000000000E+00 -0.00000000000E+00 -0.45593999997E+02  0.45594000000E+02  0.51100000000E-03 0.  1.
    9900012    2    1    2    0    0  0.51959681741E+01  0.68939574918E+01 -0.39732108434E+02  0.50528866023E+02  0.30000018762E+02 0.  0.
         12    1    1    2    0    0 -0.51959681741E+01 -0.68939574918E+01  0.39732108434E+02  0.40659133977E+02  0.00000000000E+00 0. -1.
         11    1    3    3    0    0  0.17604485913E+01 -0.71539787459E+01 -0.92666835718E+01  0.11838497194E+02  0.51100000000E-03 0. -1.
        -11    1    3    3    0    0  0.49152304028E+01  0.75297426202E+01 -0.16907753939E+01  0.91496030259E+01  0.51100000000E-03 0.  1.
        -12    1    3    3    0    0 -0.14797108199E+01  0.65181936175E+01 -0.28774649469E+02  0.29540765802E+02  0.00000000000E+00 0.  1.
</event>
<event>
 7    1  0.7526277E-013  0.5052886E+02  0.7816164E-02  0.1300439E+00
        -11   -1    0    0    0    0  0.00000000000E+00  0.00000000000E+00  0.45593999997E+02  0.45594000000E+02  0.51100000000E-03 0.  1.
         11   -1    0    0    0    0 -0.00000000000E+00 -0.00000000000E+00 -0.45593999997E+02  0.45594000000E+02  0.51100000000E-03 0. -1.
    9900012    2    1    2    0    0  0.29267393904E+02  0.49573203230E+01  0.27785067929E+02  0.50528863627E+02  0.30000011482E+02 0.  0.
         12    1    1    2    0    0 -0.29267393904E+02 -0.49573203230E+01 -0.27785067929E+02  0.40659136373E+02  0.00000000000E+00 0. -1.
         11    1    3    3    0    0  0.82661054773E+00 -0.14697418288E+01 -0.46151947899E+01  0.49135984015E+01  0.51100000000E-03 0. -1.
        -11    1    3    3    0    0  0.47386338883E+01  0.29133990246E+01  0.15012700227E+02  0.16010112846E+02  0.51100000000E-03 0.  1.
        -12    1    3    3    0    0  0.23702149468E+02  0.35136631272E+01  0.17387562493E+02  0.29605152380E+02  0.00000000000E+00 0.  1.
</event>
<event>
 7    1  0.5902966E-013  0.5052887E+02  0.7816164E-02  0.1300439E+00
        -11   -1    0    0    0    0  0.00000000000E+00  0.00000000000E+00  0.45593999997E+02  0.45594000000E+02  0.51100000000E-03 0. -1.
         11   -1    0    0    0    0 -0.00000000000E+00 -0.00000000000E+00 -0.45593999997E+02  0.45594000000E+02  0.51100000000E-03 0.  1.
    9900012    2    1    2    0    0  0.22848493012E+02  0.82611809219E+01 -0.32601601521E+02  0.50528866157E+02  0.30000019170E+02 0.  0.
         12    1    1    2    0    0 -0.22848493012E+02 -0.82611809219E+01  0.32601601521E+02  0.40659133843E+02  0.00000000000E+00 0. -1.
         11    1    3    3    0    0  0.79140022796E+01  0.12510869964E+02 -0.23784524026E+02  0.28015297299E+02  0.51100000000E-03 0. -1.
        -11    1    3    3    0    0  0.41847732003E+01 -0.16400181547E+01 -0.10408716303E+02  0.11337696487E+02  0.51100000000E-03 0.  1.
         12    1    3    3    0    0  0.10749717532E+02 -0.26096708870E+01  0.15916388083E+01  0.11175872371E+02  0.00000000000E+00 0. -1.
</event>
<event>
 7    1  0.5902966E-013  0.5052885E+02  0.7816164E-02  0.1300439E+00
        -11   -1    0    0    0    0  0.00000000000E+00  0.00000000000E+00  0.45593999997E+02  0.45594000000E+02  0.51100000000E-03 0. -1.
         11   -1    0    0    0    0 -0.00000000000E+00 -0.00000000000E+00 -0.45593999997E+02  0.45594000000E+02  0.51100000000E-03 0.  1.
    9900012    2    1    2    0    0  0.30353017445E+02 -0.16448352980E+02 -0.21478182544E+02  0.50528852085E+02  0.29999976399E+02 0.  0.
         12    1    1    2    0    0 -0.30353017445E+02  0.16448352980E+02  0.21478182544E+02  0.40659147915E+02  0.00000000000E+00 0. -1.
         11    1    3    3    0    0  0.67722256386E+01  0.57177194821E+00 -0.10450517849E+02  0.12466085466E+02  0.51100000000E-03 0. -1.
        -11    1    3    3    0    0  0.22010494365E+02 -0.21303515807E+02 -0.12759546094E+02  0.33182942376E+02  0.51100000000E-03 0.  1.
         12    1    3    3    0    0  0.15702974415E+01  0.42833908785E+01  0.17318813993E+01  0.48798242442E+01  0.00000000000E+00 0. -1.
</event>
<event>
 7    1  0.5902966E-013  0.5052884E+02  0.7816164E-02  0.1300439E+00
        -11   -1    0    0    0    0  0.00000000000E+00  0.00000000000E+00  0.45593999997E+02  0.45594000000E+02  0.51100000000E-03 0. -1.
         11   -1    0    0    0    0 -0.00000000000E+00 -0.00000000000E+00 -0.45593999997E+02  0.45594000000E+02  0.51100000000E-03 0.  1.
    9900012    2    1    2    0    0 -0.31905055728E+02  0.15576294352E+01 -0.25155690933E+02  0.50528836497E+02  0.29999929015E+02 0.  0.
         12    1    1    2    0    0  0.31905055728E+02 -0.15576294352E+01  0.25155690933E+02  0.40659163503E+02  0.00000000000E+00 0. -1.
         11    1    3    3    0    0 -0.28773978713E+02  0.66333920498E+01 -0.11993650100E+02  0.31871482301E+02  0.51100000000E-03 0. -1.
        -11    1    3    3    0    0 -0.49403773772E+01 -0.11032589410E+01 -0.29569052809E+00  0.50706944367E+01  0.51100000000E-03 0.  1.
        -12    1    3    3    0    0  0.18093003625E+01 -0.39725036737E+01 -0.12866350305E+02  0.13586659759E+02  0.00000000000E+00 0.  1.
</event>
<event>
 7    1  0.5902966E-013  0.5052886E+02  0.7816164E-02  0.1300439E+00
        -11   -1    0    0    0    0  0.00000000000E+00  0.00000000000E+00  0.45593999997E+02  0.45594000000E+02  0.51100000000E-03 0.  1.
         11   -1    0    0    0    0 -0.00000000000E+00 -0.00000000000E+00 -0.45593999997E+02  0.45594000000E+02  0.51100000000E-03 0. -1.
    9900012    2    1    2    0    0 -0.87056378277E+01  0.22701950114E+02  0.32588327034E+02  0.50528859233E+02  0.29999998126E+02 0.  0.
         12    1    1    2    0    0  0.87056378277E+01 -0.22701950114E+02 -0.32588327034E+02  0.40659140767E+02  0.00000000000E+00 0. -1.
         11    1    3    3    0    0 -0.24582620527E-01 -0.15410448344E+00 -0.11884964464E+00  0.19615808981E+00  0.51100000000E-03 0. -1.
        -11    1    3    3    0    0 -0.72455462310E+01 -0.42890193794E+01  0.16916514168E+02  0.18896086349E+02  0.51100000000E-03 0.  1.
        -12    1    3    3    0    0 -0.14355089761E+01  0.27145073977E+02  0.15790662511E+02  0.31436614795E+02  0.00000000000E+00 0.  1.
</event>
<event>
 7    1  0.5902966E-013  0.5052885E+02  0.7816164E-02  0.1300439E+00
        -11   -1    0    0    0    0  0.00000000000E+00  0.00000000000E+00  0.45593999997E+02  0.45594000000E+02  0.51100000000E-03 0. -1.
         11   -1    0    0    0    0 -0.00000000000E+00 -0.00000000000E+00 -0.45593999997E+02  0.45594000000E+02  0.51100000000E-03 0.  1.
    9900012    2    1    2    0    0  0.40331030393E+02 -0.85668266180E-01  0.51543001935E+01  0.50528853894E+02  0.29999981895E+02 0.  0.
         12    1    1    2    0    0 -0.40331030393E+02  0.85668266180E-01 -0.51543001935E+01  0.40659146106E+02  0.00000000000E+00 0. -1.
         11    1    3    3    0    0  0.20082906408E+02 -0.67462164532E+01  0.73366264241E+01  0.22420094865E+02  0.51100000000E-03 0. -1.
        -11    1    3    3    0    0  0.21598725181E+02  0.18878507665E+01  0.17889056016E+01  0.21754748757E+02  0.51100000000E-03 0.  1.
         12    1    3    3    0    0 -0.13506011965E+01  0.47726974205E+01 -0.39712318322E+01  0.63540102711E+01  0.00000000000E+00 0. -1.
</event>
<event>
 7    1  0.5902966E-013  0.5052885E+02  0.7816164E-02  0.1300439E+00
        -11   -1    0    0    0    0  0.00000000000E+00  0.00000000000E+00  0.45593999997E+02  0.45594000000E+02  0.51100000000E-03 0.  1.
         11   -1    0    0    0    0 -0.00000000000E+00 -0.00000000000E+00 -0.45593999997E+02  0.45594000000E+02  0.51100000000E-03 0. -1.
    9900012    2    1    2    0    0  0.34128367115E+02 -0.10061422100E+02  0.19677104909E+02  0.50528854483E+02  0.29999983687E+02 0.  0.
         12    1    1    2    0    0 -0.34128367115E+02  0.10061422100E+02 -0.19677104909E+02  0.40659145517E+02  0.00000000000E+00 0. -1.
         11    1    3    3    0    0  0.20920922669E+01 -0.78754322380E+01  0.29586941339E+00  0.81539451776E+01  0.51100000000E-03 0. -1.
        -11    1    3    3    0    0  0.44241166339E+01  0.46321446817E-01  0.13295151200E+02  0.14011994838E+02  0.51100000000E-03 0.  1.
        -12    1    3    3    0    0  0.27612158214E+02 -0.22323113083E+01  0.60860842959E+01  0.28362914467E+02  0.00000000000E+00 0.  1.
</event>
<event>
 7    1  0.5902966E-013  0.5052886E+02  0.7816164E-02  0.1300439E+00
        -11   -1    0    0    0    0  0.00000000000E+00  0.00000000000E+00  0.45593999997E+02  0.45594000000E+02  0.51100000000E-03 0.  1.
         11   -1    0    0    0    0 -0.00000000000E+00 -0.00000000000E+00 -0.45593999997E+02  0.45594000000E+02  0.51100000000E-03 0. -1.
    9900012    2    1    2    0    0 -0.29299762434E+02 -0.34441898767E+01  0.27979043388E+02  0.50528863370E+02  0.30000010699E+02 0.  0.
         12    1    1    2    0    0  0.29299762434E+02  0.34441898767E+01 -0.27979043388E+02  0.40659136630E+02  0.00000000000E+00 0. -1.
         11    1    3    3    0    0 -0.10082095773E+02 -0.22237452530E+01  0.14582598811E+01  0.10426898881E+02  0.51100000000E-03 0. -1.
        -11    1    3    3    0    0 -0.14382317909E+02  0.52950225867E+01  0.27937787403E+02  0.31865471876E+02  0.51100000000E-03 0.  1.
         12    1    3    3    0    0 -0.48353487521E+01 -0.65154672104E+01 -0.14170038960E+01  0.82364926131E+01  0.00000000000E+00 0. -1.
</event>
<event>
 7    1  0.5902966E-013  0.5052886E+02  0.7816164E-02  0.1300439E+00
        -11   -1    0    0    0    0  0.00000000000E+00  0.00000000000E+00  0.45593999997E+02  0.45594000000E+02  0.51100000000E-03 0.  1.
         11   -1    0    0    0    0 -0.00000000000E+00 -0.00000000000E+00 -0.45593999997E+02  0.45594000000E+02  0.51100000000E-03 0. -1.
    9900012    2    1    2    0    0  0.18447176092E+02 -0.25236436642E+02  0.25999805897E+02  0.50528856541E+02  0.29999989942E+02 0.  0.
         12    1    1    2    0    0 -0.18447176092E+02  0.25236436642E+02 -0.25999805897E+02  0.40659143459E+02  0.00000000000E+00 0. -1.
         11    1    3    3    0    0  0.27580650364E+01  0.17270712855E+00 -0.14060897324E+01  0.31006191469E+01  0.51100000000E-03 0. -1.
        -11    1    3    3    0    0  0.21259718727E+02 -0.21989929463E+02  0.16603848684E+02  0.34802592282E+02  0.51100000000E-03 0.  1.
         12    1    3    3    0    0 -0.55706076717E+01 -0.34192143082E+01  0.10802046944E+02  0.12625645113E+02  0.00000000000E+00 0. -1.
</event>
<event>
 7    1  0.5902966E-013  0.5052886E+02  0.7816164E-02  0.1300439E+00
        -11   -1    0    0    0    0  0.00000000000E+00  0.00000000000E+00  0.45593999997E+02  0.45594000000E+02  0.51100000000E-03 0. -1.
         11   -1    0    0    0    0 -0.00000000000E+00 -0.00000000000E+00 -0.45593999997E+02  0.45594000000E+02  0.51100000000E-03 0.  1.
    9900012    2    1    2    0    0  0.32068505824E+02 -0.18340433725E+02 -0.16982498994E+02  0.50528857767E+02  0.29999993669E+02 0.  0.
         12    1    1    2    0    0 -0.32068505824E+02  0.18340433725E+02  0.16982498994E+02  0.40659142233E+02  0.00000000000E+00 0. -1.
         11    1    3    3    0    0  0.87211455696E+00 -0.10837543428E+02  0.25158623794E+01  0.11159860892E+02  0.51100000000E-03 0. -1.
        -11    1    3    3    0    0  0.94469577074E+01 -0.64198587313E+01 -0.11394414839E+02  0.16133576350E+02  0.51100000000E-03 0.  1.
         12    1    3    3    0    0  0.21749433560E+02 -0.10830315655E+01 -0.81039465339E+01  0.23235420525E+02  0.00000000000E+00 0. -1.
</event>
<event>
 7    1  0.5902966E-013  0.5052886E+02  0.7816164E-02  0.1300439E+00
        -11   -1    0    0    0    0  0.00000000000E+00  0.00000000000E+00  0.45593999997E+02  0.45594000000E+02  0.51100000000E-03 0.  1.
         11   -1    0    0    0    0 -0.00000000000E+00 -0.00000000000E+00 -0.45593999997E+02  0.45594000000E+02  0.51100000000E-03 0. -1.
    9900012    2    1    2    0    0  0.12820604867E+02 -0.35921070840E+02  0.14088100399E+02  0.50528858195E+02  0.29999994971E+02 0.  0.
         12    1    1    2    0    0 -0.12820604867E+02  0.35921070840E+02 -0.14088100399E+02  0.40659141805E+02  0.00000000000E+00 0. -1.
         11    1    3    3    0    0  0.51005825384E+01  0.24473836571E+01  0.34029117919E+00  0.56675768494E+01  0.51100000000E-03 0.  1.
        -11    1    3    3    0    0 -0.43720774619E+01 -0.29583128502E+01  0.19503774323E+01  0.56276681354E+01  0.51100000000E-03 0. -1.
        -12    1    3    3    0    0  0.12092099791E+02 -0.35410141647E+02  0.11797431787E+02  0.39233613211E+02  0.00000000000E+00 0.  1.
</event>
<event>
 7    1  0.5902966E-013  0.5052883E+02  0.7816164E-02  0.1300439E+00
        -11   -1    0    0    0    0  0.00000000000E+00  0.00000000000E+00  0.45593999997E+02  0.45594000000E+02  0.51100000000E-03 0. -1.
         11   -1    0    0    0    0 -0.00000000000E+00 -0.00000000000E+00 -0.45593999997E+02  0.45594000000E+02  0.51100000000E-03 0.  1.
    9900012    2    1    2    0    0  0.34482018582E+02  0.17133031423E+02  0.13062063712E+02  0.50528832772E+02  0.29999917695E+02 0.  0.
         12    1    1    2    0    0 -0.34482018582E+02 -0.17133031423E+02 -0.13062063712E+02  0.40659167228E+02  0.00000000000E+00 0. -1.
         11    1    3    3    0    0  0.92605450551E+01  0.60678244660E+01  0.37064895118E+01  0.11675369511E+02  0.51100000000E-03 0. -1.
        -11    1    3    3    0    0  0.22228346353E+02 -0.14750133058E+01 -0.10258262752E+01  0.22300837779E+02  0.51100000000E-03 0.  1.
         12    1    3    3    0    0  0.29931271738E+01  0.12540220262E+02  0.10381400475E+02  0.16552625482E+02  0.00000000000E+00 0. -1.
</event>
<event>
 7    1  0.5902966E-013  0.5052884E+02  0.7816164E-02  0.1300439E+00
        -11   -1    0    0    0    0  0.00000000000E+00  0.00000000000E+00  0.45593999997E+02  0.45594000000E+02  0.51100000000E-03 0.  1.
         11   -1    0    0    0    0 -0.00000000000E+00 -0.00000000000E+00 -0.45593999997E+02  0.45594000000E+02  0.51100000000E-03 0. -1.
    9900012    2    1    2    0    0 -0.39758348222E+02 -0.84986747394E+01  0.46178261811E+00  0.50528843973E+02  0.29999951739E+02 0.  0.
         12    1    1    2    0    0  0.39758348222E+02  0.84986747394E+01 -0.46178261811E+00  0.40659156027E+02  0.00000000000E+00 0. -1.
         11    1    3    3    0    0 -0.82931555131E+00 -0.22869412714E+01  0.43570929539E+01  0.49902027947E+01  0.51100000000E-03 0.  1.
        -11    1    3    3    0    0 -0.19469714550E+02 -0.80850508122E+01 -0.12133938774E+02  0.24324273920E+02  0.51100000000E-03 0. -1.
         12    1    3    3    0    0 -0.19459318121E+02  0.18733173442E+01  0.82386284387E+01  0.21214367258E+02  0.00000000000E+00 0. -1.
</event>
<event>
 7    1  0.5902966E-013  0.5052886E+02  0.7816164E-02  0.1300439E+00
        -11   -1    0    0    0    0  0.00000000000E+00  0.00000000000E+00  0.45593999997E+02  0.45594000000E+02  0.51100000000E-03 0.  1.
         11   -1    0    0    0    0 -0.00000000000E+00 -0.00000000000E+00 -0.45593999997E+02  0.45594000000E+02  0.51100000000E-03 0. -1.
    9900012    2    1    2    0    0 -0.21852715315E+02  0.32555388356E+02  0.10759707156E+02  0.50528858645E+02  0.29999996336E+02 0.  0.
         12    1    1    2    0    0  0.21852715315E+02 -0.32555388356E+02 -0.10759707156E+02  0.40659141355E+02  0.00000000000E+00 0. -1.
         11    1    3    3    0    0 -0.76827254998E+01 -0.17923359992E+01 -0.17615071059E+01  0.80832943151E+01  0.51100000000E-03 0. -1.
        -11    1    3    3    0    0 -0.65929707742E+01  0.10111482791E+02 -0.33164935983E+01  0.12518325683E+02  0.51100000000E-03 0.  1.
        -12    1    3    3    0    0 -0.75770190408E+01  0.24236241564E+02  0.15837707861E+02  0.29927238646E+02  0.00000000000E+00 0.  1.
</event>
<event>
 7    1  0.5902966E-013  0.5052886E+02  0.7816164E-02  0.1300439E+00
        -11   -1    0    0    0    0  0.00000000000E+00  0.00000000000E+00  0.45593999997E+02  0.45594000000E+02  0.51100000000E-03 0.  1.
         11   -1    0    0    0    0 -0.00000000000E+00 -0.00000000000E+00 -0.45593999997E+02  0.45594000000E+02  0.51100000000E-03 0. -1.
    9900012    2    1    2    0    0 -0.25214802749E+02 -0.82864714473E+01  0.30801191129E+02  0.50528864966E+02  0.30000015551E+02 0.  0.
         12    1    1    2    0    0  0.25214802749E+02  0.82864714473E+01 -0.30801191129E+02  0.40659135034E+02  0.00000000000E+00 0. -1.
         11    1    3    3    0    0 -0.85560909392E+01 -0.42448082076E+00 -0.27418957319E+00  0.85710008931E+01  0.51100000000E-03 0. -1.
        -11    1    3    3    0    0  0.33681752008E+01 -0.72486751780E+01  0.69039456206E+01  0.10561835135E+02  0.51100000000E-03 0.  1.
        -12    1    3    3    0    0 -0.20026887011E+02 -0.61331544854E+00  0.24171435082E+02  0.31396028938E+02  0.00000000000E+00 0.  1.
</event>
<event>
 7    1  0.5902966E-013  0.5052886E+02  0.7816164E-02  0.1300439E+00
        -11   -1    0    0    0    0  0.00000000000E+00  0.00000000000E+00  0.45593999997E+02  0.45594000000E+02  0.51100000000E-03 0.  1.
         11   -1    0    0    0    0 -0.00000000000E+00 -0.00000000000E+00 -0.45593999997E+02  0.45594000000E+02  0.51100000000E-03 0. -1.
    9900012    2    1    2    0    0 -0.13333595459E+01  0.27546663383E+02  0.29875901398E+02  0.50528855942E+02  0.29999988120E+02 0.  0.
         12    1    1    2    0    0  0.13333595459E+01 -0.27546663383E+02 -0.29875901398E+02  0.40659144058E+02  0.00000000000E+00 0. -1.
         11    1    3    3    0    0 -0.37045135963E+00  0.12239850025E+02 -0.19091610160E+01  0.12393387708E+02  0.51100000000E-03 0. -1.
        -11    1    3    3    0    0  0.13527024254E+01 -0.26364026416E+01  0.39633514147E+01  0.49485934808E+01  0.51100000000E-03 0.  1.
        -12    1    3    3    0    0 -0.23156106117E+01  0.17943216000E+02  0.27821711000E+02  0.33186874753E+02  0.00000000000E+00 0.  1.
</event>
<event>
 7    1  0.5902966E-013  0.5052887E+02  0.7816164E-02  0.1300439E+00
        -11   -1    0    0    0    0  0.00000000000E+00  0.00000000000E+00  0.45593999997E+02  0.45594000000E+02  0.51100000000E-03 0. -1.
         11   -1    0    0    0    0 -0.00000000000E+00 -0.00000000000E+00 -0.45593999997E+02  0.45594000000E+02  0.51100000000E-03 0.  1.
    9900012    2    1    2    0    0 -0.19549294490E+02 -0.77408243681E+01 -0.34800429246E+02  0.50528866307E+02  0.30000019626E+02 0.  0.
         12    1    1    2    0    0  0.19549294490E+02  0.77408243681E+01  0.34800429246E+02  0.40659133693E+02  0.00000000000E+00 0. -1.
         11    1    3    3    0    0 -0.11372219320E+02  0.25940575094E+01 -0.31507066939E+02  0.33596901256E+02  0.51100000000E-03 0. -1.
        -11    1    3    3    0    0 -0.58612706502E+01 -0.40708289693E+01 -0.63821760788E+01  0.95738348583E+01  0.51100000000E-03 0.  1.
         12    1    3    3    0    0 -0.23158045207E+01 -0.62640529082E+01  0.30888137719E+01  0.73581301927E+01  0.00000000000E+00 0. -1.
</event>
<event>
 7    1  0.5902966E-013  0.5052885E+02  0.7816164E-02  0.1300439E+00
        -11   -1    0    0    0    0  0.00000000000E+00  0.00000000000E+00  0.45593999997E+02  0.45594000000E+02  0.51100000000E-03 0. -1.
         11   -1    0    0    0    0 -0.00000000000E+00 -0.00000000000E+00 -0.45593999997E+02  0.45594000000E+02  0.51100000000E-03 0.  1.
    9900012    2    1    2    0    0 -0.24986209601E+02 -0.23227326039E+02 -0.22121197675E+02  0.50528846888E+02  0.29999960602E+02 0.  0.
         12    1    1    2    0    0  0.24986209601E+02  0.23227326039E+02  0.22121197675E+02  0.40659153112E+02  0.00000000000E+00 0. -1.
         11    1    3    3    0    0 -0.23451848776E+02 -0.29215063982E+01 -0.10623971765E+02  0.25911255990E+02  0.51100000000E-03 0. -1.
        -11    1    3    3    0    0  0.12194835174E+00 -0.15019322360E+01  0.11501613701E+01  0.18956643375E+01  0.51100000000E-03 0.  1.
         12    1    3    3    0    0 -0.16563091768E+01 -0.18803887405E+02 -0.12647387280E+02  0.22721926561E+02  0.00000000000E+00 0. -1.
</event>
<event>
 7    1  0.5902966E-013  0.5052886E+02  0.7816164E-02  0.1300439E+00
        -11   -1    0    0    0    0  0.00000000000E+00  0.00000000000E+00  0.45593999997E+02  0.45594000000E+02  0.51100000000E-03 0.  1.
         11   -1    0    0    0    0 -0.00000000000E+00 -0.00000000000E+00 -0.45593999997E+02  0.45594000000E+02  0.51100000000E-03 0. -1.
    9900012    2    1    2    0    0 -0.18836523814E+02 -0.12624717715E+02  0.33748589105E+02  0.50528863348E+02  0.30000010631E+02 0.  0.
         12    1    1    2    0    0  0.18836523814E+02  0.12624717715E+02 -0.33748589105E+02  0.40659136652E+02  0.00000000000E+00 0. -1.
         11    1    3    3    0    0  0.22379205690E+01  0.35948601210E+01  0.83914006465E+00  0.43168812900E+01  0.51100000000E-03 0. -1.
        -11    1    3    3    0    0 -0.12277161017E+00 -0.56753484456E+01  0.16863244172E+02  0.17793078911E+02  0.51100000000E-03 0.  1.
        -12    1    3    3    0    0 -0.20951672773E+02 -0.10544229390E+02  0.16046204868E+02  0.28418903147E+02  0.00000000000E+00 0.  1.
</event>
<event>
 7    1  0.5902966E-013  0.5052886E+02  0.7816164E-02  0.1300439E+00
        -11   -1    0    0    0    0  0.00000000000E+00  0.00000000000E+00  0.45593999997E+02  0.45594000000E+02  0.51100000000E-03 0. -1.
         11   -1    0    0    0    0 -0.00000000000E+00 -0.00000000000E+00 -0.45593999997E+02  0.45594000000E+02  0.51100000000E-03 0.  1.
    9900012    2    1    2    0    0 -0.49518303385E+01  0.24320649442E+02 -0.32204833265E+02  0.50528857134E+02  0.29999991743E+02 0.  0.
         12    1    1    2    0    0  0.49518303385E+01 -0.24320649442E+02  0.32204833265E+02  0.40659142866E+02  0.00000000000E+00 0. -1.
         11    1    3    3    0    0  0.16092652234E+00 -0.24036782735E+01  0.50182908748E+00  0.24607720906E+01  0.51100000000E-03 0. -1.
        -11    1    3    3    0    0  0.51263161579E+01  0.24536649442E+01 -0.15740612038E+02  0.16735186183E+02  0.51100000000E-03 0.  1.
        -12    1    3    3    0    0 -0.10239073019E+02  0.24270662772E+02 -0.16966050315E+02  0.31332898860E+02  0.00000000000E+00 0.  1.
</event>
<event>
 7    1  0.5902966E-013  0.5052886E+02  0.7816164E-02  0.1300439E+00
        -11   -1    0    0    0    0  0.00000000000E+00  0.00000000000E+00  0.45593999997E+02  0.45594000000E+02  0.51100000000E-03 0.  1.
         11   -1    0    0    0    0 -0.00000000000E+00 -0.00000000000E+00 -0.45593999997E+02  0.45594000000E+02  0.51100000000E-03 0. -1.
    9900012    2    1    2    0    0 -0.42261603264E+01 -0.20113339379E+02  0.35082174200E+02  0.50528858363E+02  0.29999995479E+02 0.  0.
         12    1    1    2    0    0  0.42261603264E+01  0.20113339379E+02 -0.35082174200E+02  0.40659141637E+02  0.00000000000E+00 0. -1.
         11    1    3    3    0    0 -0.10930643708E+01  0.30713247544E+01  0.23038800223E+02  0.23268307662E+02  0.51100000000E-03 0. -1.
        -11    1    3    3    0    0 -0.41596462772E+01 -0.70502666131E+01  0.28832540436E+01  0.86788288731E+01  0.51100000000E-03 0.  1.
        -12    1    3    3    0    0  0.10265503216E+01 -0.16134397520E+02  0.91601199339E+01  0.18581721828E+02  0.00000000000E+00 0.  1.
</event>
<event>
 7    1  0.5902966E-013  0.5052886E+02  0.7816164E-02  0.1300439E+00
        -11   -1    0    0    0    0  0.00000000000E+00  0.00000000000E+00  0.45593999997E+02  0.45594000000E+02  0.51100000000E-03 0.  1.
         11   -1    0    0    0    0 -0.00000000000E+00 -0.00000000000E+00 -0.45593999997E+02  0.45594000000E+02  0.51100000000E-03 0. -1.
    9900012    2    1    2    0    0 -0.23511171835E+02 -0.10586155919E+01  0.33155235282E+02  0.50528862102E+02  0.30000006845E+02 0.  0.
         12    1    1    2    0    0  0.23511171835E+02  0.10586155919E+01 -0.33155235282E+02  0.40659137898E+02  0.00000000000E+00 0. -1.
         11    1    3    3    0    0  0.50205298944E+00 -0.19468849731E+01  0.99847830083E+01  0.10185200552E+02  0.51100000000E-03 0. -1.
        -11    1    3    3    0    0 -0.11227275992E+02 -0.98943720081E+01  0.53217813700E+01  0.15883062704E+02  0.51100000000E-03 0.  1.
        -12    1    3    3    0    0 -0.12785948832E+02  0.10782641389E+02  0.17848670904E+02  0.24460598846E+02  0.00000000000E+00 0.  1.
</event>
<event>
 7    1  0.5902966E-013  0.5052887E+02  0.7816164E-02  0.1300439E+00
        -11   -1    0    0    0    0  0.00000000000E+00  0.00000000000E+00  0.45593999997E+02  0.45594000000E+02  0.51100000000E-03 0.  1.
         11   -1    0    0    0    0 -0.00000000000E+00 -0.00000000000E+00 -0.45593999997E+02  0.45594000000E+02  0.51100000000E-03 0. -1.
    9900012    2    1    2    0    0  0.17219658578E+02 -0.28714714459E+02  0.23067591724E+02  0.50528865037E+02  0.30000015765E+02 0.  0.
         12    1    1    2    0    0 -0.17219658578E+02  0.28714714459E+02 -0.23067591724E+02  0.40659134963E+02  0.00000000000E+00 0. -1.
         11    1    3    3    0    0 -0.19369908417E+01 -0.25671236592E+01  0.46369117642E+01  0.56429609579E+01  0.51100000000E-03 0. -1.
        -11    1    3    3    0    0  0.59040173722E+01 -0.57197656528E+01  0.18815432464E+02  0.20532745538E+02  0.51100000000E-03 0.  1.
         12    1    3    3    0    0  0.13252632048E+02 -0.20427825147E+02 -0.38475250380E+00  0.24353158541E+02  0.00000000000E+00 0. -1.
</event>
<event>
 7    1  0.5902966E-013  0.5052886E+02  0.7816164E-02  0.1300439E+00
        -11   -1    0    0    0    0  0.00000000000E+00  0.00000000000E+00  0.45593999997E+02  0.45594000000E+02  0.51100000000E-03 0.  1.
         11   -1    0    0    0    0 -0.00000000000E+00 -0.00000000000E+00 -0.45593999997E+02  0.45594000000E+02  0.51100000000E-03 0. -1.
    9900012    2    1    2    0    0  0.33335469383E+02 -0.69220389117E+01  0.22226052450E+02  0.50528861431E+02  0.30000004805E+02 0.  0.
         12    1    1    2    0    0 -0.33335469383E+02  0.69220389117E+01 -0.22226052450E+02  0.40659138569E+02  0.00000000000E+00 0. -1.
         11    1    3    3    0    0 -0.32596002265E+01 -0.27932698444E+01  0.32195812262E+01  0.53659159137E+01  0.51100000000E-03 0. -1.
        -11    1    3    3    0    0  0.73597499342E+01  0.18611823753E+01  0.12491600281E+02  0.14617455208E+02  0.51100000000E-03 0.  1.
         12    1    3    3    0    0  0.29235319676E+02 -0.59899514426E+01  0.65148709429E+01  0.30545490309E+02  0.00000000000E+00 0. -1.
</event>
<event>
 7    1  0.5902966E-013  0.5052885E+02  0.7816164E-02  0.1300439E+00
        -11   -1    0    0    0    0  0.00000000000E+00  0.00000000000E+00  0.45593999997E+02  0.45594000000E+02  0.51100000000E-03 0. -1.
         11   -1    0    0    0    0 -0.00000000000E+00 -0.00000000000E+00 -0.45593999997E+02  0.45594000000E+02  0.51100000000E-03 0.  1.
    9900012    2    1    2    0    0  0.18263045483E+02 -0.35420663648E+02  0.80624953691E+01  0.50528854963E+02  0.29999985146E+02 0.  0.
         12    1    1    2    0    0 -0.18263045483E+02  0.35420663648E+02 -0.80624953691E+01  0.40659145037E+02  0.00000000000E+00 0. -1.
         11    1    3    3    0    0 -0.21167015952E+01 -0.16002101974E+02 -0.39990438742E+00  0.16146442859E+02  0.51100000000E-03 0. -1.
        -11    1    3    3    0    0  0.91993268563E+01 -0.20042033808E+02  0.66924833047E+01  0.23045608406E+02  0.51100000000E-03 0.  1.
         12    1    3    3    0    0  0.11180420221E+02  0.62347213401E+00  0.17699164518E+01  0.11336803698E+02  0.00000000000E+00 0. -1.
</event>
<event>
 7    1  0.5902966E-013  0.5052886E+02  0.7816164E-02  0.1300439E+00
        -11   -1    0    0    0    0  0.00000000000E+00  0.00000000000E+00  0.45593999997E+02  0.45594000000E+02  0.51100000000E-03 0.  1.
         11   -1    0    0    0    0 -0.00000000000E+00 -0.00000000000E+00 -0.45593999997E+02  0.45594000000E+02  0.51100000000E-03 0. -1.
    9900012    2    1    2    0    0  0.38404132499E+02  0.68746508861E+01  0.11446714307E+02  0.50528862205E+02  0.30000007158E+02 0.  0.
         12    1    1    2    0    0 -0.38404132499E+02 -0.68746508861E+01 -0.11446714307E+02  0.40659137795E+02  0.00000000000E+00 0. -1.
         11    1    3    3    0    0  0.30734520351E+01 -0.52640458516E+01  0.13418911247E+01  0.62415509444E+01  0.51100000000E-03 0. -1.
        -11    1    3    3    0    0  0.15851517161E+02 -0.31848860684E-01 -0.52045663156E+01  0.16684097861E+02  0.51100000000E-03 0.  1.
        -12    1    3    3    0    0  0.19479163304E+02  0.12170545598E+02  0.15309389498E+02  0.27603213399E+02  0.00000000000E+00 0.  1.
</event>
<event>
 7    1  0.5902966E-013  0.5052887E+02  0.7816164E-02  0.1300439E+00
        -11   -1    0    0    0    0  0.00000000000E+00  0.00000000000E+00  0.45593999997E+02  0.45594000000E+02  0.51100000000E-03 0.  1.
         11   -1    0    0    0    0 -0.00000000000E+00 -0.00000000000E+00 -0.45593999997E+02  0.45594000000E+02  0.51100000000E-03 0. -1.
    9900012    2    1    2    0    0 -0.32882855009E+01 -0.25299300269E+02  0.31659078877E+02  0.50528871985E+02  0.30000036886E+02 0.  0.
         12    1    1    2    0    0  0.32882855009E+01  0.25299300269E+02 -0.31659078877E+02  0.40659128015E+02  0.00000000000E+00 0. -1.
         11    1    3    3    0    0  0.10391579157E+01  0.19370086266E+01  0.12992220994E+01  0.25533957622E+01  0.51100000000E-03 0. -1.
        -11    1    3    3    0    0  0.20606526545E+01 -0.14435389634E+02  0.30347714280E+02  0.33669133127E+02  0.51100000000E-03 0.  1.
         12    1    3    3    0    0 -0.63880960711E+01 -0.12800919261E+02  0.12142497341E-01  0.14306343096E+02  0.00000000000E+00 0. -1.
</event>
<event>
 7    1  0.5902966E-013  0.5052886E+02  0.7816164E-02  0.1300439E+00
        -11   -1    0    0    0    0  0.00000000000E+00  0.00000000000E+00  0.45593999997E+02  0.45594000000E+02  0.51100000000E-03 0.  1.
         11   -1    0    0    0    0 -0.00000000000E+00 -0.00000000000E+00 -0.45593999997E+02  0.45594000000E+02  0.51100000000E-03 0. -1.
    9900012    2    1    2    0    0  0.36922270896E+02 -0.14273485185E+02 -0.92832808100E+01  0.50528858715E+02  0.29999996551E+02 0.  0.
         12    1    1    2    0    0 -0.36922270896E+02  0.14273485185E+02  0.92832808100E+01  0.40659141285E+02  0.00000000000E+00 0. -1.
         11    1    3    3    0    0  0.88528955459E+01 -0.12971552130E+02  0.76311595628E+01  0.17460513186E+02  0.51100000000E-03 0.  1.
        -11    1    3    3    0    0  0.63904989204E+01  0.51109650354E+00 -0.20899991132E+01  0.67429809908E+01  0.51100000000E-03 0. -1.
        -12    1    3    3    0    0  0.21678876429E+02 -0.18130295587E+01 -0.14824441260E+02  0.26325364538E+02  0.00000000000E+00 0.  1.
</event>
<event>
 7    1  0.5902966E-013  0.5052886E+02  0.7816164E-02  0.1300439E+00
        -11   -1    0    0    0    0  0.00000000000E+00  0.00000000000E+00  0.45593999997E+02  0.45594000000E+02  0.51100000000E-03 0.  1.
         11   -1    0    0    0    0 -0.00000000000E+00 -0.00000000000E+00 -0.45593999997E+02  0.45594000000E+02  0.51100000000E-03 0. -1.
    9900012    2    1    2    0    0  0.68280305584E+01  0.39729291332E+02 -0.53034903540E+01  0.50528860794E+02  0.30000002868E+02 0.  0.
         12    1    1    2    0    0 -0.68280305584E+01 -0.39729291332E+02  0.53034903540E+01  0.40659139206E+02  0.00000000000E+00 0. -1.
         11    1    3    3    0    0  0.88158363224E+01  0.57084246704E+00 -0.45786933791E+01  0.99503399191E+01  0.51100000000E-03 0. -1.
        -11    1    3    3    0    0  0.37679412198E+01  0.10506111892E+02 -0.19392334533E+01  0.11328565433E+02  0.51100000000E-03 0.  1.
        -12    1    3    3    0    0 -0.57557469838E+01  0.28652336974E+02  0.12144364784E+01  0.29249955442E+02  0.00000000000E+00 0.  1.
</event>
<event>
 7    1  0.5902966E-013  0.5052886E+02  0.7816164E-02  0.1300439E+00
        -11   -1    0    0    0    0  0.00000000000E+00  0.00000000000E+00  0.45593999997E+02  0.45594000000E+02  0.51100000000E-03 0. -1.
         11   -1    0    0    0    0 -0.00000000000E+00 -0.00000000000E+00 -0.45593999997E+02  0.45594000000E+02  0.51100000000E-03 0.  1.
    9900012    2    1    2    0    0  0.99029415096E+01  0.32132996757E+02  0.22859753696E+02  0.50528855025E+02  0.29999985333E+02 0.  0.
         12    1    1    2    0    0 -0.99029415096E+01 -0.32132996757E+02 -0.22859753696E+02  0.40659144975E+02  0.00000000000E+00 0. -1.
         11    1    3    3    0    0  0.15346272741E+01 -0.35126997385E+01  0.27689272895E+01  0.47287523639E+01  0.51100000000E-03 0. -1.
        -11    1    3    3    0    0 -0.33063185600E+01  0.79431333268E+01 -0.15717071927E+01  0.87461633433E+01  0.51100000000E-03 0.  1.
        -12    1    3    3    0    0  0.11674632795E+02  0.27702563168E+02  0.21662533599E+02  0.37053939317E+02  0.00000000000E+00 0.  1.
</event>
<event>
 7    1  0.5902966E-013  0.5052887E+02  0.7816164E-02  0.1300439E+00
        -11   -1    0    0    0    0  0.00000000000E+00  0.00000000000E+00  0.45593999997E+02  0.45594000000E+02  0.51100000000E-03 0.  1.
         11   -1    0    0    0    0 -0.00000000000E+00 -0.00000000000E+00 -0.45593999997E+02  0.45594000000E+02  0.51100000000E-03 0. -1.
    9900012    2    1    2    0    0  0.31863594571E+02 -0.22801595620E+02  0.10861080192E+02  0.50528874520E+02  0.30000044592E+02 0.  0.
         12    1    1    2    0    0 -0.31863594571E+02  0.22801595620E+02 -0.10861080192E+02  0.40659125480E+02  0.00000000000E+00 0. -1.
         11    1    3    3    0    0 -0.12697232481E+01  0.25360810413E+01 -0.12524401290E+01  0.31004049272E+01  0.51100000000E-03 0. -1.
        -11    1    3    3    0    0  0.14795461065E+02 -0.16835240933E+01  0.88472909660E+01  0.17320926049E+02  0.51100000000E-03 0.  1.
        -12    1    3    3    0    0  0.18337856754E+02 -0.23654152568E+02  0.32662293551E+01  0.30107543544E+02  0.00000000000E+00 0.  1.
</event>
<event>
 7    1  0.5902966E-013  0.5052885E+02  0.7816164E-02  0.1300439E+00
        -11   -1    0    0    0    0  0.00000000000E+00  0.00000000000E+00  0.45593999997E+02  0.45594000000E+02  0.51100000000E-03 0.  1.
         11   -1    0    0    0    0 -0.00000000000E+00 -0.00000000000E+00 -0.45593999997E+02  0.45594000000E+02  0.51100000000E-03 0. -1.
    9900012    2    1    2    0    0  0.40171999838E+02 -0.54547242112E+01 -0.31020432178E+01  0.50528852698E+02  0.29999978261E+02 0.  0.
         12    1    1    2    0    0 -0.40171999838E+02  0.54547242112E+01  0.31020432178E+01  0.40659147302E+02  0.00000000000E+00 0. -1.
         11    1    3    3    0    0 -0.14675815118E-01  0.51217707868E+01 -0.15482701767E+01  0.53506908127E+01  0.51100000000E-03 0. -1.
        -11    1    3    3    0    0  0.95273121021E+01  0.30281994085E+01 -0.54907747787E+01  0.11405624730E+02  0.51100000000E-03 0.  1.
        -12    1    3    3    0    0  0.30659363551E+02 -0.13604694407E+02  0.39370017376E+01  0.33772537155E+02  0.00000000000E+00 0.  1.
</event>
<event>
 7    1  0.5902966E-013  0.5052885E+02  0.7816164E-02  0.1300439E+00
        -11   -1    0    0    0    0  0.00000000000E+00  0.00000000000E+00  0.45593999997E+02  0.45594000000E+02  0.51100000000E-03 0.  1.
         11   -1    0    0    0    0 -0.00000000000E+00 -0.00000000000E+00 -0.45593999997E+02  0.45594000000E+02  0.51100000000E-03 0. -1.
    9900012    2    1    2    0    0  0.10155128392E+02  0.13943878004E+02  0.36818585031E+02  0.50528848876E+02  0.29999966645E+02 0.  0.
         12    1    1    2    0    0 -0.10155128392E+02 -0.13943878004E+02 -0.36818585031E+02  0.40659151124E+02  0.00000000000E+00 0. -1.
         11    1    3    3    0    0  0.52311867589E+01 -0.59735363654E+00 -0.14267911454E+01  0.54550783227E+01  0.51100000000E-03 0. -1.
        -11    1    3    3    0    0  0.30302183444E+01 -0.37989613217E+01  0.12464813918E+02  0.13378561829E+02  0.51100000000E-03 0.  1.
        -12    1    3    3    0    0  0.18937232886E+01  0.18340192962E+02  0.25780562258E+02  0.31695208725E+02  0.00000000000E+00 0.  1.
</event>
<event>
 7    1  0.5902966E-013  0.5052886E+02  0.7816164E-02  0.1300439E+00
        -11   -1    0    0    0    0  0.00000000000E+00  0.00000000000E+00  0.45593999997E+02  0.45594000000E+02  0.51100000000E-03 0. -1.
         11   -1    0    0    0    0 -0.00000000000E+00 -0.00000000000E+00 -0.45593999997E+02  0.45594000000E+02  0.51100000000E-03 0.  1.
    9900012    2    1    2    0    0 -0.27190352936E+02  0.16163542976E+02 -0.25545845607E+02  0.50528860288E+02  0.30000001332E+02 0.  0.
         12    1    1    2    0    0  0.27190352936E+02 -0.16163542976E+02  0.25545845607E+02  0.40659139712E+02  0.00000000000E+00 0. -1.
         11    1    3    3    0    0 -0.11816304812E+02  0.38824812121E+01  0.17154245714E+01  0.12555532704E+02  0.51100000000E-03 0. -1.
        -11    1    3    3    0    0 -0.87817980289E+00  0.80365221477E+01 -0.16670176810E+01  0.82544434220E+01  0.51100000000E-03 0.  1.
         12    1    3    3    0    0 -0.14495868322E+02  0.42445396164E+01 -0.25594252497E+02  0.29718884162E+02  0.00000000000E+00 0. -1.
</event>
<event>
 7    1  0.5902966E-013  0.5052886E+02  0.7816164E-02  0.1300439E+00
        -11   -1    0    0    0    0  0.00000000000E+00  0.00000000000E+00  0.45593999997E+02  0.45594000000E+02  0.51100000000E-03 0.  1.
         11   -1    0    0    0    0 -0.00000000000E+00 -0.00000000000E+00 -0.45593999997E+02  0.45594000000E+02  0.51100000000E-03 0. -1.
    9900012    2    1    2    0    0 -0.23631938172E+02 -0.58530573898E+01  0.32564379206E+02  0.50528861105E+02  0.30000003815E+02 0.  0.
         12    1    1    2    0    0  0.23631938172E+02  0.58530573898E+01 -0.32564379206E+02  0.40659138895E+02  0.00000000000E+00 0. -1.
         11    1    3    3    0    0 -0.18242507588E+02 -0.11396102616E+02  0.23785587489E+02  0.32068900985E+02  0.51100000000E-03 0. -1.
        -11    1    3    3    0    0 -0.97711854706E+01  0.20416314200E+01  0.80100300973E+01  0.12798629098E+02  0.51100000000E-03 0.  1.
         12    1    3    3    0    0  0.43817548859E+01  0.35014138061E+01  0.76876161991E+00  0.56613310228E+01  0.00000000000E+00 0. -1.
</event>
<event>
 7    1  0.5902966E-013  0.5052886E+02  0.7816164E-02  0.1300439E+00
        -11   -1    0    0    0    0  0.00000000000E+00  0.00000000000E+00  0.45593999997E+02  0.45594000000E+02  0.51100000000E-03 0.  1.
         11   -1    0    0    0    0 -0.00000000000E+00 -0.00000000000E+00 -0.45593999997E+02  0.45594000000E+02  0.51100000000E-03 0. -1.
    9900012    2    1    2    0    0  0.38431875272E+02  0.10416799670E+02  0.82247841540E+01  0.50528858019E+02  0.29999994433E+02 0.  0.
         12    1    1    2    0    0 -0.38431875272E+02 -0.10416799670E+02 -0.82247841540E+01  0.40659141981E+02  0.00000000000E+00 0. -1.
         11    1    3    3    0    0  0.52940243327E+01 -0.11319065850E+01  0.78879243487E+01  0.95669878721E+01  0.51100000000E-03 0. -1.
        -11    1    3    3    0    0  0.30963475616E+01  0.90024538998E+01 -0.43213212947E+01  0.10454920489E+02  0.51100000000E-03 0.  1.
        -12    1    3    3    0    0  0.30041503378E+02  0.25462523556E+01  0.46581810999E+01  0.30506949657E+02  0.00000000000E+00 0.  1.
</event>
<event>
 7    1  0.5902966E-013  0.5052886E+02  0.7816164E-02  0.1300439E+00
        -11   -1    0    0    0    0  0.00000000000E+00  0.00000000000E+00  0.45593999997E+02  0.45594000000E+02  0.51100000000E-03 0.  1.
         11   -1    0    0    0    0 -0.00000000000E+00 -0.00000000000E+00 -0.45593999997E+02  0.45594000000E+02  0.51100000000E-03 0. -1.
    9900012    2    1    2    0    0 -0.72931880365E+01  0.30535580134E+02  0.25837052160E+02  0.50528861911E+02  0.30000006263E+02 0.  0.
         12    1    1    2    0    0  0.72931880365E+01 -0.30535580134E+02 -0.25837052160E+02  0.40659138089E+02  0.00000000000E+00 0. -1.
         11    1    3    3    0    0 -0.29250247148E+01 -0.10536244635E+01  0.38057810265E+01  0.49142510696E+01  0.51100000000E-03 0. -1.
        -11    1    3    3    0    0 -0.91297072949E+01  0.17768097487E+02  0.99934629589E+00  0.20001388374E+02  0.51100000000E-03 0.  1.
        -12    1    3    3    0    0  0.47615439732E+01  0.13821107110E+02  0.21031924838E+02  0.25613222467E+02  0.00000000000E+00 0.  1.
</event>
<event>
 7    1  0.5902966E-013  0.5052886E+02  0.7816164E-02  0.1300439E+00
        -11   -1    0    0    0    0  0.00000000000E+00  0.00000000000E+00  0.45593999997E+02  0.45594000000E+02  0.51100000000E-03 0.  1.
         11   -1    0    0    0    0 -0.00000000000E+00 -0.00000000000E+00 -0.45593999997E+02  0.45594000000E+02  0.51100000000E-03 0. -1.
    9900012    2    1    2    0    0 -0.14529844812E+02  0.12187964595E+02  0.35965296888E+02  0.50528862632E+02  0.30000008456E+02 0.  0.
         12    1    1    2    0    0  0.14529844812E+02 -0.12187964595E+02 -0.35965296888E+02  0.40659137368E+02  0.00000000000E+00 0. -1.
         11    1    3    3    0    0 -0.10839763363E+02 -0.45516462518E+01  0.13115395129E+02  0.17613391014E+02  0.51100000000E-03 0. -1.
        -11    1    3    3    0    0 -0.31801452901E+01  0.11881572973E+02  0.24778881387E+02  0.27663659618E+02  0.51100000000E-03 0.  1.
        -12    1    3    3    0    0 -0.50993615967E+00  0.48580378746E+01 -0.19289796286E+01  0.52518120002E+01  0.00000000000E+00 0.  1.
</event>
<event>
 7    1  0.5902966E-013  0.5052883E+02  0.7816164E-02  0.1300439E+00
        -11   -1    0    0    0    0  0.00000000000E+00  0.00000000000E+00  0.45593999997E+02  0.45594000000E+02  0.51100000000E-03 0.  1.
         11   -1    0    0    0    0 -0.00000000000E+00 -0.00000000000E+00 -0.45593999997E+02  0.45594000000E+02  0.51100000000E-03 0. -1.
    9900012    2    1    2    0    0  0.14665678866E+02  0.49721769926E+01  0.37594724715E+02  0.50528831206E+02  0.29999912934E+02 0.  0.
         12    1    1    2    0    0 -0.14665678866E+02 -0.49721769926E+01 -0.37594724715E+02  0.40659168794E+02  0.00000000000E+00 0. -1.
         11    1    3    3    0    0  0.12696530370E+02 -0.19108567649E+01  0.12988504225E+02  0.18263474458E+02  0.51100000000E-03 0. -1.
        -11    1    3    3    0    0 -0.52271567650E+01  0.44710973155E+01  0.23632761667E+02  0.24613437454E+02  0.51100000000E-03 0.  1.
         12    1    3    3    0    0  0.71963052606E+01  0.24119364420E+01  0.97345882318E+00  0.76519192942E+01  0.00000000000E+00 0. -1.
</event>
<event>
 7    1  0.5902966E-013  0.5052886E+02  0.7816164E-02  0.1300439E+00
        -11   -1    0    0    0    0  0.00000000000E+00  0.00000000000E+00  0.45593999997E+02  0.45594000000E+02  0.51100000000E-03 0.  1.
         11   -1    0    0    0    0 -0.00000000000E+00 -0.00000000000E+00 -0.45593999997E+02  0.45594000000E+02  0.51100000000E-03 0. -1.
    9900012    2    1    2    0    0  0.72083755271E+01 -0.39645988535E+02  0.54222367424E+01  0.50528859134E+02  0.29999997825E+02 0.  0.
         12    1    1    2    0    0 -0.72083755271E+01  0.39645988535E+02 -0.54222367424E+01  0.40659140866E+02  0.00000000000E+00 0. -1.
         11    1    3    3    0    0  0.68319205504E+01 -0.97712874512E+01 -0.75015427978E+01  0.14086388518E+02  0.51100000000E-03 0. -1.
        -11    1    3    3    0    0  0.49346358887E+01 -0.22157434480E+02  0.27222655943E+01  0.22862923355E+02  0.51100000000E-03 0.  1.
         12    1    3    3    0    0 -0.45581809120E+01 -0.77172666032E+01  0.10201513946E+02  0.13579547262E+02  0.00000000000E+00 0. -1.
</event>
<event>
 7    1  0.5902966E-013  0.5052886E+02  0.7816164E-02  0.1300439E+00
        -11   -1    0    0    0    0  0.00000000000E+00  0.00000000000E+00  0.45593999997E+02  0.45594000000E+02  0.51100000000E-03 0.  1.
         11   -1    0    0    0    0 -0.00000000000E+00 -0.00000000000E+00 -0.45593999997E+02  0.45594000000E+02  0.51100000000E-03 0. -1.
    9900012    2    1    2    0    0  0.98280816691E+01 -0.28855281575E+02  0.26906264184E+02  0.50528861834E+02  0.30000006030E+02 0.  0.
         12    1    1    2    0    0 -0.98280816691E+01  0.28855281575E+02 -0.26906264184E+02  0.40659138166E+02  0.00000000000E+00 0. -1.
         11    1    3    3    0    0 -0.86887854334E+01 -0.52372982052E+01  0.37683247108E+01  0.10822409907E+02  0.51100000000E-03 0. -1.
        -11    1    3    3    0    0  0.90525284004E+01 -0.10437209000E+02  0.17989174073E+02  0.22682459880E+02  0.51100000000E-03 0.  1.
        -12    1    3    3    0    0  0.94643387021E+01 -0.13180774370E+02  0.51487654008E+01  0.17023992047E+02  0.00000000000E+00 0.  1.
</event>
<event>
 7    1  0.5902966E-013  0.5052885E+02  0.7816164E-02  0.1300439E+00
        -11   -1    0    0    0    0  0.00000000000E+00  0.00000000000E+00  0.45593999997E+02  0.45594000000E+02  0.51100000000E-03 0.  1.
         11   -1    0    0    0    0 -0.00000000000E+00 -0.00000000000E+00 -0.45593999997E+02  0.45594000000E+02  0.51100000000E-03 0. -1.
    9900012    2    1    2    0    0  0.66196759404E+01  0.21305870471E+01  0.40060038250E+02  0.50528853731E+02  0.29999981401E+02 0.  0.
         12    1    1    2    0    0 -0.66196759404E+01 -0.21305870471E+01 -0.40060038250E+02  0.40659146269E+02  0.00000000000E+00 0. -1.
         11    1    3    3    0    0  0.80363650163E+01  0.13579974924E+02  0.32440660014E+02  0.36074856950E+02  0.51100000000E-03 0.  1.
        -11    1    3    3    0    0 -0.27960144697E+01 -0.57465143028E+01  0.35140178630E+01  0.72930408850E+01  0.51100000000E-03 0. -1.
        -12    1    3    3    0    0  0.13793253939E+01 -0.57028735739E+01  0.41053603736E+01  0.71609558956E+01  0.00000000000E+00 0.  1.
</event>
<event>
 7    1  0.5902966E-013  0.5052886E+02  0.7816164E-02  0.1300439E+00
        -11   -1    0    0    0    0  0.00000000000E+00  0.00000000000E+00  0.45593999997E+02  0.45594000000E+02  0.51100000000E-03 0.  1.
         11   -1    0    0    0    0 -0.00000000000E+00 -0.00000000000E+00 -0.45593999997E+02  0.45594000000E+02  0.51100000000E-03 0. -1.
    9900012    2    1    2    0    0  0.30711194779E+02 -0.26344282904E+02 -0.39958293928E+01  0.50528863523E+02  0.30000011165E+02 0.  0.
         12    1    1    2    0    0 -0.30711194779E+02  0.26344282904E+02  0.39958293928E+01  0.40659136477E+02  0.00000000000E+00 0. -1.
         11    1    3    3    0    0  0.59801266749E+01 -0.22320985672E+02  0.68068376113E+00  0.23118210291E+02  0.51100000000E-03 0. -1.
        -11    1    3    3    0    0  0.17017571879E+02 -0.36391189316E+01  0.15764627173E+01  0.17473585042E+02  0.51100000000E-03 0.  1.
        -12    1    3    3    0    0  0.77134962251E+01 -0.38417830113E+00 -0.62529758712E+01  0.99370681908E+01  0.00000000000E+00 0.  1.
</event>
<event>
 7    1  0.5902966E-013  0.5052888E+02  0.7816164E-02  0.1300439E+00
        -11   -1    0    0    0    0  0.00000000000E+00  0.00000000000E+00  0.45593999997E+02  0.45594000000E+02  0.51100000000E-03 0. -1.
         11   -1    0    0    0    0 -0.00000000000E+00 -0.00000000000E+00 -0.45593999997E+02  0.45594000000E+02  0.51100000000E-03 0.  1.
    9900012    2    1    2    0    0 -0.29798299716E+01  0.33178606355E+02 -0.23312333514E+02  0.50528878020E+02  0.30000055228E+02 0.  0.
         12    1    1    2    0    0  0.29798299716E+01 -0.33178606355E+02  0.23312333514E+02  0.40659121980E+02  0.00000000000E+00 0. -1.
         11    1    3    3    0    0 -0.19550564544E+01 -0.23353008839E+01 -0.74129269953E+01  0.80141975804E+01  0.51100000000E-03 0. -1.
        -11    1    3    3    0    0  0.63399720334E+01  0.17737097965E+02 -0.13388475572E+02  0.23109547118E+02  0.51100000000E-03 0.  1.
         12    1    3    3    0    0 -0.73647455507E+01  0.17776809274E+02 -0.25109309472E+01  0.19405133321E+02  0.00000000000E+00 0. -1.
</event>
<event>
 7    1  0.5902966E-013  0.5052885E+02  0.7816164E-02  0.1300439E+00
        -11   -1    0    0    0    0  0.00000000000E+00  0.00000000000E+00  0.45593999997E+02  0.45594000000E+02  0.51100000000E-03 0. -1.
         11   -1    0    0    0    0 -0.00000000000E+00 -0.00000000000E+00 -0.45593999997E+02  0.45594000000E+02  0.51100000000E-03 0.  1.
    9900012    2    1    2    0    0  0.12635897277E+02 -0.32893355931E+02 -0.20286140517E+02  0.50528852671E+02  0.29999978179E+02 0.  0.
         12    1    1    2    0    0 -0.12635897277E+02  0.32893355931E+02  0.20286140517E+02  0.40659147329E+02  0.00000000000E+00 0. -1.
         11    1    3    3    0    0  0.51155008917E+01 -0.55824285622E+00 -0.15039338529E+01  0.53611381025E+01  0.51100000000E-03 0. -1.
        -11    1    3    3    0    0 -0.59883599730E+01 -0.14857275040E+01 -0.73643440002E+01  0.96073619791E+01  0.51100000000E-03 0.  1.
        -12    1    3    3    0    0  0.13508756359E+02 -0.30849385571E+02 -0.11417862664E+02  0.35560352589E+02  0.00000000000E+00 0.  1.
</event>
<event>
 7    1  0.5902966E-013  0.5052886E+02  0.7816164E-02  0.1300439E+00
        -11   -1    0    0    0    0  0.00000000000E+00  0.00000000000E+00  0.45593999997E+02  0.45594000000E+02  0.51100000000E-03 0.  1.
         11   -1    0    0    0    0 -0.00000000000E+00 -0.00000000000E+00 -0.45593999997E+02  0.45594000000E+02  0.51100000000E-03 0. -1.
    9900012    2    1    2    0    0  0.36253572294E+02 -0.14059884572E+02 -0.11881232592E+02  0.50528861468E+02  0.30000004918E+02 0.  0.
         12    1    1    2    0    0 -0.36253572294E+02  0.14059884572E+02  0.11881232592E+02  0.40659138532E+02  0.00000000000E+00 0. -1.
         11    1    3    3    0    0  0.44593344841E+01 -0.11857311530E+02 -0.71138380909E+01  0.14528874471E+02  0.51100000000E-03 0. -1.
        -11    1    3    3    0    0  0.14862674797E+02  0.16121623855E+01 -0.98644435089E+01  0.17911041725E+02  0.51100000000E-03 0.  1.
        -12    1    3    3    0    0  0.16931563013E+02 -0.38147354272E+01  0.50970490075E+01  0.18088945271E+02  0.00000000000E+00 0.  1.
</event>
<event>
 7    1  0.5902966E-013  0.5052887E+02  0.7816164E-02  0.1300439E+00
        -11   -1    0    0    0    0  0.00000000000E+00  0.00000000000E+00  0.45593999997E+02  0.45594000000E+02  0.51100000000E-03 0.  1.
         11   -1    0    0    0    0 -0.00000000000E+00 -0.00000000000E+00 -0.45593999997E+02  0.45594000000E+02  0.51100000000E-03 0. -1.
    9900012    2    1    2    0    0 -0.32568819930E+02  0.36542297908E+01  0.24064159115E+02  0.50528865960E+02  0.30000018572E+02 0.  0.
         12    1    1    2    0    0  0.32568819930E+02 -0.36542297908E+01 -0.24064159115E+02  0.40659134040E+02  0.00000000000E+00 0. -1.
         11    1    3    3    0    0 -0.23492676994E+02 -0.10036233689E+01  0.29381414228E+01  0.23696957769E+02  0.51100000000E-03 0. -1.
        -11    1    3    3    0    0  0.25104372461E+01  0.37889057837E+00  0.21814865947E+00  0.25482233685E+01  0.51100000000E-03 0.  1.
        -12    1    3    3    0    0 -0.11586580182E+02  0.42789625813E+01  0.20907869032E+02  0.24283684823E+02  0.00000000000E+00 0.  1.
</event>
<event>
 7    1  0.5902966E-013  0.5052886E+02  0.7816164E-02  0.1300439E+00
        -11   -1    0    0    0    0  0.00000000000E+00  0.00000000000E+00  0.45593999997E+02  0.45594000000E+02  0.51100000000E-03 0. -1.
         11   -1    0    0    0    0 -0.00000000000E+00 -0.00000000000E+00 -0.45593999997E+02  0.45594000000E+02  0.51100000000E-03 0.  1.
    9900012    2    1    2    0    0  0.17690488709E+02  0.49487553481E+01 -0.36272888623E+02  0.50528855650E+02  0.29999987233E+02 0.  0.
         12    1    1    2    0    0 -0.17690488709E+02 -0.49487553481E+01  0.36272888623E+02  0.40659144350E+02  0.00000000000E+00 0. -1.
         11    1    3    3    0    0 -0.21171618520E+01 -0.49491292071E+01 -0.29027342316E+01  0.61157273072E+01  0.51100000000E-03 0. -1.
        -11    1    3    3    0    0  0.12149414007E+02  0.26704292899E+01 -0.31300130844E+02  0.33681413931E+02  0.51100000000E-03 0.  1.
         12    1    3    3    0    0  0.76582365534E+01  0.72274552653E+01 -0.20700235472E+01  0.10731714411E+02  0.00000000000E+00 0. -1.
</event>
<event>
 7    1  0.5902966E-013  0.5052886E+02  0.7816164E-02  0.1300439E+00
        -11   -1    0    0    0    0  0.00000000000E+00  0.00000000000E+00  0.45593999997E+02  0.45594000000E+02  0.51100000000E-03 0.  1.
         11   -1    0    0    0    0 -0.00000000000E+00 -0.00000000000E+00 -0.45593999997E+02  0.45594000000E+02  0.51100000000E-03 0. -1.
    9900012    2    1    2    0    0 -0.19661159095E+02 -0.17488672089E+02  0.30995986442E+02  0.50528855840E+02  0.29999987810E+02 0.  0.
         12    1    1    2    0    0  0.19661159095E+02  0.17488672089E+02 -0.30995986442E+02  0.40659144160E+02  0.00000000000E+00 0. -1.
         11    1    3    3    0    0  0.33039252357E-01 -0.51934560293E+01  0.43151754155E+01  0.67523193236E+01  0.51100000000E-03 0. -1.
        -11    1    3    3    0    0 -0.22762048795E+02 -0.96021304411E+01  0.29749404652E+02  0.38669611477E+02  0.51100000000E-03 0.  1.
         12    1    3    3    0    0  0.30678504478E+01 -0.26930856182E+01 -0.30685936258E+01  0.51069250393E+01  0.00000000000E+00 0. -1.
</event>
<event>
 7    1  0.5902966E-013  0.5052888E+02  0.7816164E-02  0.1300439E+00
        -11   -1    0    0    0    0  0.00000000000E+00  0.00000000000E+00  0.45593999997E+02  0.45594000000E+02  0.51100000000E-03 0. -1.
         11   -1    0    0    0    0 -0.00000000000E+00 -0.00000000000E+00 -0.45593999997E+02  0.45594000000E+02  0.51100000000E-03 0.  1.
    9900012    2    1    2    0    0  0.39738257469E+02 -0.85134295532E+01  0.12474851041E+01  0.50528882837E+02  0.30000069871E+02 0.  0.
         12    1    1    2    0    0 -0.39738257469E+02  0.85134295532E+01 -0.12474851041E+01  0.40659117163E+02  0.00000000000E+00 0. -1.
         11    1    3    3    0    0  0.89990506813E+01 -0.53761746592E+01  0.57305626759E+01  0.11946778477E+02  0.51100000000E-03 0. -1.
        -11    1    3    3    0    0  0.25142091420E+02 -0.11926677840E+02 -0.21975462653E+01  0.27914147221E+02  0.51100000000E-03 0.  1.
         12    1    3    3    0    0  0.55971153677E+01  0.87894229458E+01 -0.22855313065E+01  0.10667957139E+02  0.00000000000E+00 0. -1.
</event>
<event>
 7    1  0.5902966E-013  0.5052886E+02  0.7816164E-02  0.1300439E+00
        -11   -1    0    0    0    0  0.00000000000E+00  0.00000000000E+00  0.45593999997E+02  0.45594000000E+02  0.51100000000E-03 0.  1.
         11   -1    0    0    0    0 -0.00000000000E+00 -0.00000000000E+00 -0.45593999997E+02  0.45594000000E+02  0.51100000000E-03 0. -1.
    9900012    2    1    2    0    0 -0.42585390052E+01  0.19185593776E+01  0.40389972348E+02  0.50528857230E+02  0.29999992035E+02 0.  0.
         12    1    1    2    0    0  0.42585390052E+01 -0.19185593776E+01 -0.40389972348E+02  0.40659142770E+02  0.00000000000E+00 0. -1.
         11    1    3    3    0    0 -0.26789355930E+01  0.57335383112E+01  0.41634513732E+01  0.75752547862E+01  0.51100000000E-03 0. -1.
        -11    1    3    3    0    0 -0.66584711933E+01 -0.83270015909E+01  0.65581041922E+01  0.12517305021E+02  0.51100000000E-03 0.  1.
         12    1    3    3    0    0  0.50788677811E+01  0.45120226573E+01  0.29668416783E+02  0.30436297423E+02  0.00000000000E+00 0. -1.
</event>
<event>
 7    1  0.5902966E-013  0.5052886E+02  0.7816164E-02  0.1300439E+00
        -11   -1    0    0    0    0  0.00000000000E+00  0.00000000000E+00  0.45593999997E+02  0.45594000000E+02  0.51100000000E-03 0.  1.
         11   -1    0    0    0    0 -0.00000000000E+00 -0.00000000000E+00 -0.45593999997E+02  0.45594000000E+02  0.51100000000E-03 0. -1.
    9900012    2    1    2    0    0  0.34091823439E+02  0.21675206330E+02 -0.45933309746E+01  0.50528859770E+02  0.29999999756E+02 0.  0.
         12    1    1    2    0    0 -0.34091823439E+02 -0.21675206330E+02  0.45933309746E+01  0.40659140230E+02  0.00000000000E+00 0. -1.
         11    1    3    3    0    0 -0.21278218120E+01 -0.52656852119E+00  0.17510099058E+01  0.28055188509E+01  0.51100000000E-03 0. -1.
        -11    1    3    3    0    0  0.13274267349E+02  0.14404264211E+02  0.60535228672E+01  0.20502052104E+02  0.51100000000E-03 0.  1.
        -12    1    3    3    0    0  0.22945377901E+02  0.77975106401E+01 -0.12397863748E+02  0.27221288815E+02  0.00000000000E+00 0.  1.
</event>
<event>
 7    1  0.5902966E-013  0.5052886E+02  0.7816164E-02  0.1300439E+00
        -11   -1    0    0    0    0  0.00000000000E+00  0.00000000000E+00  0.45593999997E+02  0.45594000000E+02  0.51100000000E-03 0. -1.
         11   -1    0    0    0    0 -0.00000000000E+00 -0.00000000000E+00 -0.45593999997E+02  0.45594000000E+02  0.51100000000E-03 0.  1.
    9900012    2    1    2    0    0 -0.39016616332E+02 -0.11429588576E+02  0.48342694201E+00  0.50528861462E+02  0.30000004900E+02 0.  0.
         12    1    1    2    0    0  0.39016616332E+02  0.11429588576E+02 -0.48342694201E+00  0.40659138538E+02  0.00000000000E+00 0. -1.
         11    1    3    3    0    0 -0.12097518533E+02  0.57918667157E+01 -0.80535425009E+01  0.15644654735E+02  0.51100000000E-03 0. -1.
        -11    1    3    3    0    0 -0.50817648230E+01 -0.92902769996E+01  0.28069082995E+01  0.10955013232E+02  0.51100000000E-03 0.  1.
        -12    1    3    3    0    0 -0.21837332976E+02 -0.79311782918E+01  0.57300611434E+01  0.23929193495E+02  0.00000000000E+00 0.  1.
</event>
<event>
 7    1  0.5902966E-013  0.5052886E+02  0.7816164E-02  0.1300439E+00
        -11   -1    0    0    0    0  0.00000000000E+00  0.00000000000E+00  0.45593999997E+02  0.45594000000E+02  0.51100000000E-03 0.  1.
         11   -1    0    0    0    0 -0.00000000000E+00 -0.00000000000E+00 -0.45593999997E+02  0.45594000000E+02  0.51100000000E-03 0. -1.
    9900012    2    1    2    0    0  0.71760875736E+01 -0.24699102804E+02  0.31490060821E+02  0.50528857821E+02  0.29999993834E+02 0.  0.
         12    1    1    2    0    0 -0.71760875736E+01  0.24699102804E+02 -0.31490060821E+02  0.40659142179E+02  0.00000000000E+00 0. -1.
         11    1    3    3    0    0 -0.54324537324E+00 -0.34796677062E+01  0.12058641090E+02  0.12562405346E+02  0.51100000000E-03 0. -1.
        -11    1    3    3    0    0 -0.57205034623E+01 -0.70394681284E+00  0.10286543312E+02  0.11791211750E+02  0.51100000000E-03 0.  1.
         12    1    3    3    0    0  0.13439836409E+02 -0.20515488285E+02  0.91448764189E+01  0.26175240725E+02  0.00000000000E+00 0. -1.
</event>
<event>
 7    1  0.5902966E-013  0.5052889E+02  0.7816164E-02  0.1300439E+00
        -11   -1    0    0    0    0  0.00000000000E+00  0.00000000000E+00  0.45593999997E+02  0.45594000000E+02  0.51100000000E-03 0.  1.
         11   -1    0    0    0    0 -0.00000000000E+00 -0.00000000000E+00 -0.45593999997E+02  0.45594000000E+02  0.51100000000E-03 0. -1.
    9900012    2    1    2    0    0 -0.37780522718E+02  0.10099128664E+02  0.11126680798E+02  0.50528888817E+02  0.30000088049E+02 0.  0.
         12    1    1    2    0    0  0.37780522718E+02 -0.10099128664E+02 -0.11126680798E+02  0.40659111183E+02  0.00000000000E+00 0. -1.
         11    1    3    3    0    0 -0.58993632809E+01  0.48761923465E+01  0.14411440589E+01  0.77882369879E+01  0.51100000000E-03 0. -1.
        -11    1    3    3    0    0 -0.25303253463E+02  0.13444915633E+02  0.33001270315E+00  0.28655353790E+02  0.51100000000E-03 0.  1.
        -12    1    3    3    0    0 -0.65779059735E+01 -0.82219793155E+01  0.93555240361E+01  0.14085298039E+02  0.00000000000E+00 0.  1.
</event>
<event>
 7    1  0.5902966E-013  0.5052885E+02  0.7816164E-02  0.1300439E+00
        -11   -1    0    0    0    0  0.00000000000E+00  0.00000000000E+00  0.45593999997E+02  0.45594000000E+02  0.51100000000E-03 0. -1.
         11   -1    0    0    0    0 -0.00000000000E+00 -0.00000000000E+00 -0.45593999997E+02  0.45594000000E+02  0.51100000000E-03 0.  1.
    9900012    2    1    2    0    0 -0.10238627001E+02  0.20862864601E+02 -0.33362819163E+02  0.50528852139E+02  0.29999976563E+02 0.  0.
         12    1    1    2    0    0  0.10238627001E+02 -0.20862864601E+02  0.33362819163E+02  0.40659147861E+02  0.00000000000E+00 0. -1.
         11    1    3    3    0    0 -0.70863770651E+01  0.41387150769E+00 -0.24266226685E+02  0.25283152243E+02  0.51100000000E-03 0. -1.
        -11    1    3    3    0    0 -0.10354002675E+01 -0.21675988033E+00  0.15701990522E+01  0.18932944526E+01  0.51100000000E-03 0.  1.
        -12    1    3    3    0    0 -0.21168496683E+01  0.20665752973E+02 -0.10666791531E+02  0.23352405444E+02  0.00000000000E+00 0.  1.
</event>
<event>
 7    1  0.5902966E-013  0.5052886E+02  0.7816164E-02  0.1300439E+00
        -11   -1    0    0    0    0  0.00000000000E+00  0.00000000000E+00  0.45593999997E+02  0.45594000000E+02  0.51100000000E-03 0.  1.
         11   -1    0    0    0    0 -0.00000000000E+00 -0.00000000000E+00 -0.45593999997E+02  0.45594000000E+02  0.51100000000E-03 0. -1.
    9900012    2    1    2    0    0 -0.69544238882E+01 -0.35826039063E+02  0.17924751490E+02  0.50528858315E+02  0.29999995335E+02 0.  0.
         12    1    1    2    0    0  0.69544238882E+01  0.35826039063E+02 -0.17924751490E+02  0.40659141685E+02  0.00000000000E+00 0. -1.
         11    1    3    3    0    0 -0.31142309300E+01 -0.27739326533E+02  0.13492162694E+02  0.31003340549E+02  0.51100000000E-03 0.  1.
        -11    1    3    3    0    0  0.35710871750E+01 -0.93600565714E+01 -0.12557384533E+01  0.10096544060E+02  0.51100000000E-03 0. -1.
         12    1    3    3    0    0 -0.74112801332E+01  0.12733440407E+01  0.56883272493E+01  0.94289737063E+01  0.00000000000E+00 0. -1.
</event>
<event>
 7    1  0.5902966E-013  0.5052887E+02  0.7816164E-02  0.1300439E+00
        -11   -1    0    0    0    0  0.00000000000E+00  0.00000000000E+00  0.45593999997E+02  0.45594000000E+02  0.51100000000E-03 0.  1.
         11   -1    0    0    0    0 -0.00000000000E+00 -0.00000000000E+00 -0.45593999997E+02  0.45594000000E+02  0.51100000000E-03 0. -1.
    9900012    2    1    2    0    0 -0.51914312651E+01 -0.16098766600E+02  0.36973556306E+02  0.50528866825E+02  0.30000021202E+02 0.  0.
         12    1    1    2    0    0  0.51914312651E+01  0.16098766600E+02 -0.36973556306E+02  0.40659133175E+02  0.00000000000E+00 0. -1.
         11    1    3    3    0    0 -0.20150170647E+01 -0.28023858321E+01  0.18554078727E+01  0.39186986051E+01  0.51100000000E-03 0. -1.
        -11    1    3    3    0    0 -0.10572064099E+02  0.32590213413E+01  0.68043509010E+01  0.12988031062E+02  0.51100000000E-03 0.  1.
         12    1    3    3    0    0  0.73956498984E+01 -0.16555402110E+02  0.28313797532E+02  0.33622137159E+02  0.00000000000E+00 0. -1.
</event>
<event>
 7    1  0.5902966E-013  0.5052887E+02  0.7816164E-02  0.1300439E+00
        -11   -1    0    0    0    0  0.00000000000E+00  0.00000000000E+00  0.45593999997E+02  0.45594000000E+02  0.51100000000E-03 0.  1.
         11   -1    0    0    0    0 -0.00000000000E+00 -0.00000000000E+00 -0.45593999997E+02  0.45594000000E+02  0.51100000000E-03 0. -1.
    9900012    2    1    2    0    0 -0.30701646224E+02  0.21679654888E+02  0.15510202413E+02  0.50528869465E+02  0.30000029227E+02 0.  0.
         12    1    1    2    0    0  0.30701646224E+02 -0.21679654888E+02 -0.15510202413E+02  0.40659130535E+02  0.00000000000E+00 0. -1.
         11    1    3    3    0    0 -0.11760770735E+02  0.59647304495E+01 -0.32096920343E+01  0.13571877572E+02  0.51100000000E-03 0. -1.
        -11    1    3    3    0    0 -0.21771192945E+02  0.17498519082E+02  0.14200998120E+02  0.31334507499E+02  0.51100000000E-03 0.  1.
         12    1    3    3    0    0  0.28303174565E+01 -0.17835946427E+01  0.45188963267E+01  0.56224843944E+01  0.00000000000E+00 0. -1.
</event>
<event>
 7    1  0.5902966E-013  0.5052884E+02  0.7816164E-02  0.1300439E+00
        -11   -1    0    0    0    0  0.00000000000E+00  0.00000000000E+00  0.45593999997E+02  0.45594000000E+02  0.51100000000E-03 0.  1.
         11   -1    0    0    0    0 -0.00000000000E+00 -0.00000000000E+00 -0.45593999997E+02  0.45594000000E+02  0.51100000000E-03 0. -1.
    9900012    2    1    2    0    0  0.34163679929E+02 -0.73507948880E+01  0.20784029720E+02  0.50528842320E+02  0.29999946717E+02 0.  0.
         12    1    1    2    0    0 -0.34163679929E+02  0.73507948880E+01 -0.20784029720E+02  0.40659157680E+02  0.00000000000E+00 0. -1.
         11    1    3    3    0    0  0.31301671670E+01  0.52653143561E+01  0.36047495356E+01  0.71074398511E+01  0.51100000000E-03 0. -1.
        -11    1    3    3    0    0  0.23671503756E+02 -0.93898531343E+01  0.11524683823E+01  0.25491912748E+02  0.51100000000E-03 0.  1.
         12    1    3    3    0    0  0.73620090065E+01 -0.32262561097E+01  0.16026811802E+02  0.17929489721E+02  0.00000000000E+00 0. -1.
</event>
<event>
 7    1  0.5902966E-013  0.5052885E+02  0.7816164E-02  0.1300439E+00
        -11   -1    0    0    0    0  0.00000000000E+00  0.00000000000E+00  0.45593999997E+02  0.45594000000E+02  0.51100000000E-03 0.  1.
         11   -1    0    0    0    0 -0.00000000000E+00 -0.00000000000E+00 -0.45593999997E+02  0.45594000000E+02  0.51100000000E-03 0. -1.
    9900012    2    1    2    0    0 -0.27677276569E+02  0.10897006078E+02  0.27719855764E+02  0.50528846255E+02  0.29999958675E+02 0.  0.
         12    1    1    2    0    0  0.27677276569E+02 -0.10897006078E+02 -0.27719855764E+02  0.40659153745E+02  0.00000000000E+00 0. -1.
         11    1    3    3    0    0 -0.67890327101E+01  0.78507757939E+01  0.92886297960E+01  0.13928542259E+02  0.51100000000E-03 0. -1.
        -11    1    3    3    0    0  0.42239817216E+01  0.32478254907E+01  0.75271042586E+01  0.92221304905E+01  0.51100000000E-03 0.  1.
        -12    1    3    3    0    0 -0.25112225581E+02 -0.20159520688E+00  0.10904121709E+02  0.27378173505E+02  0.00000000000E+00 0.  1.
</event>
<event>
 7    1  0.5902966E-013  0.5052885E+02  0.7816164E-02  0.1300439E+00
        -11   -1    0    0    0    0  0.00000000000E+00  0.00000000000E+00  0.45593999997E+02  0.45594000000E+02  0.51100000000E-03 0. -1.
         11   -1    0    0    0    0 -0.00000000000E+00 -0.00000000000E+00 -0.45593999997E+02  0.45594000000E+02  0.51100000000E-03 0.  1.
    9900012    2    1    2    0    0  0.16349914041E+02  0.13982676503E+02 -0.34501183153E+02  0.50528848874E+02  0.29999966638E+02 0.  0.
         12    1    1    2    0    0 -0.16349914041E+02 -0.13982676503E+02  0.34501183153E+02  0.40659151126E+02  0.00000000000E+00 0. -1.
         11    1    3    3    0    0 -0.44167355498E+01 -0.38718796399E+01 -0.13630090050E+02  0.14841777518E+02  0.51100000000E-03 0. -1.
        -11    1    3    3    0    0  0.27123771451E+01  0.22591672647E+01  0.61195856834E+00  0.35826414917E+01  0.51100000000E-03 0.  1.
        -12    1    3    3    0    0  0.18054272446E+02  0.15595388878E+02 -0.21483051671E+02  0.32104429864E+02  0.00000000000E+00 0.  1.
</event>
<event>
 7    1  0.5902966E-013  0.5052886E+02  0.7816164E-02  0.1300439E+00
        -11   -1    0    0    0    0  0.00000000000E+00  0.00000000000E+00  0.45593999997E+02  0.45594000000E+02  0.51100000000E-03 0.  1.
         11   -1    0    0    0    0 -0.00000000000E+00 -0.00000000000E+00 -0.45593999997E+02  0.45594000000E+02  0.51100000000E-03 0. -1.
    9900012    2    1    2    0    0 -0.53654766960E+01  0.18922256424E+02  0.35585472934E+02  0.50528855736E+02  0.29999987494E+02 0.  0.
         12    1    1    2    0    0  0.53654766960E+01 -0.18922256424E+02 -0.35585472934E+02  0.40659144264E+02  0.00000000000E+00 0. -1.
         11    1    3    3    0    0  0.15551177164E+01  0.61381566549E+01 -0.16282684311E+01  0.65380896734E+01  0.51100000000E-03 0. -1.
        -11    1    3    3    0    0  0.46635319208E+01 -0.12053979297E+01  0.11874406446E+02  0.12814173514E+02  0.51100000000E-03 0.  1.
        -12    1    3    3    0    0 -0.11584126333E+02  0.13989497698E+02  0.25339334920E+02  0.31176592548E+02  0.00000000000E+00 0.  1.
</event>
<event>
 7    1  0.5902966E-013  0.5052886E+02  0.7816164E-02  0.1300439E+00
        -11   -1    0    0    0    0  0.00000000000E+00  0.00000000000E+00  0.45593999997E+02  0.45594000000E+02  0.51100000000E-03 0.  1.
         11   -1    0    0    0    0 -0.00000000000E+00 -0.00000000000E+00 -0.45593999997E+02  0.45594000000E+02  0.51100000000E-03 0. -1.
    9900012    2    1    2    0    0  0.11461331334E+02  0.28607294923E+02  0.26522189960E+02  0.50528855899E+02  0.29999987991E+02 0.  0.
         12    1    1    2    0    0 -0.11461331334E+02 -0.28607294923E+02 -0.26522189960E+02  0.40659144101E+02  0.00000000000E+00 0. -1.
         11    1    3    3    0    0 -0.14462536436E+00  0.15040163787E+02  0.17370461752E+02  0.22977388559E+02  0.51100000000E-03 0.  1.
        -11    1    3    3    0    0  0.49944589824E+01 -0.17195710951E+00  0.11107018087E+02  0.12179492634E+02  0.51100000000E-03 0. -1.
         12    1    3    3    0    0  0.66114977158E+01  0.13739088245E+02 -0.19552898791E+01  0.15371974706E+02  0.00000000000E+00 0. -1.
</event>
<event>
 7    1  0.5902966E-013  0.5052886E+02  0.7816164E-02  0.1300439E+00
        -11   -1    0    0    0    0  0.00000000000E+00  0.00000000000E+00  0.45593999997E+02  0.45594000000E+02  0.51100000000E-03 0.  1.
         11   -1    0    0    0    0 -0.00000000000E+00 -0.00000000000E+00 -0.45593999997E+02  0.45594000000E+02  0.51100000000E-03 0. -1.
    9900012    2    1    2    0    0 -0.32274528314E+02  0.21694405101E+02  0.11869007307E+02  0.50528859269E+02  0.29999998233E+02 0.  0.
         12    1    1    2    0    0  0.32274528314E+02 -0.21694405101E+02 -0.11869007307E+02  0.40659140731E+02  0.00000000000E+00 0. -1.
         11    1    3    3    0    0 -0.58978548978E+01 -0.58219836764E+01  0.68871141744E+01  0.10775552340E+02  0.51100000000E-03 0. -1.
        -11    1    3    3    0    0 -0.88599664786E+00  0.54263165425E+01  0.21519823879E+01  0.59043145020E+01  0.51100000000E-03 0.  1.
        -12    1    3    3    0    0 -0.25490676768E+02  0.22090072235E+02  0.28299107442E+01  0.33848992426E+02  0.00000000000E+00 0.  1.
</event>
<event>
 7    1  0.5902966E-013  0.5052887E+02  0.7816164E-02  0.1300439E+00
        -11   -1    0    0    0    0  0.00000000000E+00  0.00000000000E+00  0.45593999997E+02  0.45594000000E+02  0.51100000000E-03 0.  1.
         11   -1    0    0    0    0 -0.00000000000E+00 -0.00000000000E+00 -0.45593999997E+02  0.45594000000E+02  0.51100000000E-03 0. -1.
    9900012    2    1    2    0    0 -0.21139494836E+02  0.18809065864E+02  0.29197704785E+02  0.50528866151E+02  0.30000019153E+02 0.  0.
         12    1    1    2    0    0  0.21139494836E+02 -0.18809065864E+02 -0.29197704785E+02  0.40659133849E+02  0.00000000000E+00 0. -1.
         11    1    3    3    0    0 -0.25335711594E+00 -0.57562245756E+01  0.56623522324E+01  0.80783998575E+01  0.51100000000E-03 0. -1.
        -11    1    3    3    0    0 -0.73231615443E+01  0.81256049920E+01  0.16896088586E+02  0.20127890134E+02  0.51100000000E-03 0.  1.
        -12    1    3    3    0    0 -0.13562976176E+02  0.16439685448E+02  0.66392639672E+01  0.22322576159E+02  0.00000000000E+00 0.  1.
</event>
<event>
 7    1  0.5902966E-013  0.5052886E+02  0.7816164E-02  0.1300439E+00
        -11   -1    0    0    0    0  0.00000000000E+00  0.00000000000E+00  0.45593999997E+02  0.45594000000E+02  0.51100000000E-03 0.  1.
         11   -1    0    0    0    0 -0.00000000000E+00 -0.00000000000E+00 -0.45593999997E+02  0.45594000000E+02  0.51100000000E-03 0. -1.
    9900012    2    1    2    0    0 -0.58690964046E+01 -0.16340690661E+02  0.36765487390E+02  0.50528861705E+02  0.30000005638E+02 0.  0.
         12    1    1    2    0    0  0.58690964046E+01  0.16340690661E+02 -0.36765487390E+02  0.40659138295E+02  0.00000000000E+00 0. -1.
         11    1    3    3    0    0 -0.10230843931E+02 -0.85660619415E+01  0.26972062178E+02  0.30092187078E+02  0.51100000000E-03 0. -1.
        -11    1    3    3    0    0 -0.26209966486E+01  0.35787210472E+01  0.37205481207E+01  0.57895894799E+01  0.51100000000E-03 0.  1.
        -12    1    3    3    0    0  0.69827441754E+01 -0.11353349766E+02  0.60728770916E+01  0.14647085147E+02  0.00000000000E+00 0.  1.
</event>
<event>
 7    1  0.5902966E-013  0.5052886E+02  0.7816164E-02  0.1300439E+00
        -11   -1    0    0    0    0  0.00000000000E+00  0.00000000000E+00  0.45593999997E+02  0.45594000000E+02  0.51100000000E-03 0. -1.
         11   -1    0    0    0    0 -0.00000000000E+00 -0.00000000000E+00 -0.45593999997E+02  0.45594000000E+02  0.51100000000E-03 0.  1.
    9900012    2    1    2    0    0 -0.38993387733E+02 -0.17787188340E+01 -0.11380588208E+02  0.50528856926E+02  0.29999991111E+02 0.  0.
         12    1    1    2    0    0  0.38993387733E+02  0.17787188340E+01  0.11380588208E+02  0.40659143074E+02  0.00000000000E+00 0. -1.
         11    1    3    3    0    0 -0.41362698207E+00 -0.44863416889E+01 -0.10995247534E+01  0.46375967886E+01  0.51100000000E-03 0.  1.
        -11    1    3    3    0    0 -0.73715542425E+01  0.75402686365E+01 -0.96664864875E+01  0.14305118816E+02  0.51100000000E-03 0. -1.
         12    1    3    3    0    0 -0.31208206508E+02 -0.48326457816E+01 -0.61457696760E+00  0.31586141321E+02  0.00000000000E+00 0. -1.
</event>
<event>
 7    1  0.5902966E-013  0.5052886E+02  0.7816164E-02  0.1300439E+00
        -11   -1    0    0    0    0  0.00000000000E+00  0.00000000000E+00  0.45593999997E+02  0.45594000000E+02  0.51100000000E-03 0.  1.
         11   -1    0    0    0    0 -0.00000000000E+00 -0.00000000000E+00 -0.45593999997E+02  0.45594000000E+02  0.51100000000E-03 0. -1.
    9900012    2    1    2    0    0 -0.20331939713E+02  0.35197755736E+02 -0.94647984756E+00  0.50528860739E+02  0.30000002703E+02 0.  0.
         12    1    1    2    0    0  0.20331939713E+02 -0.35197755736E+02  0.94647984756E+00  0.40659139261E+02  0.00000000000E+00 0. -1.
         11    1    3    3    0    0 -0.29266704751E+01  0.61861347766E+01  0.71188784964E+01  0.98748212567E+01  0.51100000000E-03 0. -1.
        -11    1    3    3    0    0 -0.25474176337E+01 -0.28946674641E+01  0.15692428995E+01  0.41630469451E+01  0.51100000000E-03 0.  1.
         12    1    3    3    0    0 -0.14857851604E+02  0.31906288423E+02 -0.96346012434E+01  0.36490992537E+02  0.00000000000E+00 0. -1.
</event>
<event>
 7    1  0.5902966E-013  0.5052885E+02  0.7816164E-02  0.1300439E+00
        -11   -1    0    0    0    0  0.00000000000E+00  0.00000000000E+00  0.45593999997E+02  0.45594000000E+02  0.51100000000E-03 0.  1.
         11   -1    0    0    0    0 -0.00000000000E+00 -0.00000000000E+00 -0.45593999997E+02  0.45594000000E+02  0.51100000000E-03 0. -1.
    9900012    2    1    2    0    0 -0.39579716445E+02 -0.74756735130E+01  0.55431448669E+01  0.50528854616E+02  0.29999984090E+02 0.  0.
         12    1    1    2    0    0  0.39579716445E+02  0.74756735130E+01 -0.55431448669E+01  0.40659145384E+02  0.00000000000E+00 0. -1.
         11    1    3    3    0    0 -0.16266547883E+02 -0.10771457347E+02  0.88127076215E+01  0.21407678279E+02  0.51100000000E-03 0. -1.
        -11    1    3    3    0    0 -0.22540044714E+02 -0.65235428704E+00  0.18324180843E+01  0.22623813518E+02  0.51100000000E-03 0.  1.
         12    1    3    3    0    0 -0.77312384828E+00  0.39481381213E+01 -0.51019808389E+01  0.64973628181E+01  0.00000000000E+00 0. -1.
</event>
<event>
 7    1  0.5902966E-013  0.5052887E+02  0.7816164E-02  0.1300439E+00
        -11   -1    0    0    0    0  0.00000000000E+00  0.00000000000E+00  0.45593999997E+02  0.45594000000E+02  0.51100000000E-03 0.  1.
         11   -1    0    0    0    0 -0.00000000000E+00 -0.00000000000E+00 -0.45593999997E+02  0.45594000000E+02  0.51100000000E-03 0. -1.
    9900012    2    1    2    0    0 -0.18505293795E+02  0.33618458904E+02 -0.13435715682E+02  0.50528866544E+02  0.30000020347E+02 0.  0.
         12    1    1    2    0    0  0.18505293795E+02 -0.33618458904E+02  0.13435715682E+02  0.40659133456E+02  0.00000000000E+00 0. -1.
         11    1    3    3    0    0  0.80970392424E+00 -0.56696847358E+00 -0.72769123778E+01  0.73437407164E+01  0.51100000000E-03 0. -1.
        -11    1    3    3    0    0 -0.11899317475E+02  0.54949982271E+01 -0.21463566234E+01  0.13281400864E+02  0.51100000000E-03 0.  1.
        -12    1    3    3    0    0 -0.74156802438E+01  0.28690429151E+02 -0.40124466805E+01  0.29903724963E+02  0.00000000000E+00 0.  1.
</event>
<event>
 7    1  0.1213174E-012  0.5052886E+02  0.7816164E-02  0.1300439E+00
        -11   -1    0    0    0    0  0.00000000000E+00  0.00000000000E+00  0.45593999997E+02  0.45594000000E+02  0.51100000000E-03 0. -1.
         11   -1    0    0    0    0 -0.00000000000E+00 -0.00000000000E+00 -0.45593999997E+02  0.45594000000E+02  0.51100000000E-03 0.  1.
    9900012    2    1    2    0    0  0.21257855934E+01 -0.54067224148E+01 -0.40241945309E+02  0.50528858668E+02  0.29999996407E+02 0.  0.
         12    1    1    2    0    0 -0.21257855934E+01  0.54067224148E+01  0.40241945309E+02  0.40659141332E+02  0.00000000000E+00 0. -1.
         11    1    3    3    0    0  0.31070153112E+01 -0.50958058334E+01  0.15831540964E+01  0.61747192965E+01  0.51100000000E-03 0. -1.
        -11    1    3    3    0    0 -0.34082360772E+01 -0.69239461851E+01 -0.21549513783E+02  0.22889706169E+02  0.51100000000E-03 0.  1.
        -12    1    3    3    0    0  0.24270063593E+01  0.66130296037E+01 -0.20275585621E+02  0.21464433202E+02  0.00000000000E+00 0.  1.
</event>
<event>
 7    1  0.5902966E-013  0.5052886E+02  0.7816164E-02  0.1300439E+00
        -11   -1    0    0    0    0  0.00000000000E+00  0.00000000000E+00  0.45593999997E+02  0.45594000000E+02  0.51100000000E-03 0. -1.
         11   -1    0    0    0    0 -0.00000000000E+00 -0.00000000000E+00 -0.45593999997E+02  0.45594000000E+02  0.51100000000E-03 0.  1.
    9900012    2    1    2    0    0 -0.24586197863E+02  0.25763245084E+02 -0.19619880208E+02  0.50528860535E+02  0.30000002084E+02 0.  0.
         12    1    1    2    0    0  0.24586197863E+02 -0.25763245084E+02  0.19619880208E+02  0.40659139465E+02  0.00000000000E+00 0. -1.
         11    1    3    3    0    0 -0.10698865803E+02  0.18027289439E+02 -0.12976205764E+02  0.24654224999E+02  0.51100000000E-03 0. -1.
        -11    1    3    3    0    0  0.12880758668E+01  0.39516973672E+01 -0.91361512323E+01  0.10037146563E+02  0.51100000000E-03 0.  1.
        -12    1    3    3    0    0 -0.15175407927E+02  0.37842582777E+01  0.24924767888E+01  0.15837488974E+02  0.00000000000E+00 0.  1.
</event>
<event>
 7    1  0.5902966E-013  0.5052886E+02  0.7816164E-02  0.1300439E+00
        -11   -1    0    0    0    0  0.00000000000E+00  0.00000000000E+00  0.45593999997E+02  0.45594000000E+02  0.51100000000E-03 0.  1.
         11   -1    0    0    0    0 -0.00000000000E+00 -0.00000000000E+00 -0.45593999997E+02  0.45594000000E+02  0.51100000000E-03 0. -1.
    9900012    2    1    2    0    0  0.76317015509E+01 -0.17573760579E+02  0.35862037336E+02  0.50528860175E+02  0.30000000986E+02 0.  0.
         12    1    1    2    0    0 -0.76317015509E+01  0.17573760579E+02 -0.35862037336E+02  0.40659139825E+02  0.00000000000E+00 0. -1.
         11    1    3    3    0    0  0.78344435922E+01 -0.66640536797E+01  0.48882859192E+01  0.11387864476E+02  0.51100000000E-03 0.  1.
        -11    1    3    3    0    0 -0.63622160582E+01  0.37920500620E+01  0.60859951696E+01  0.95862805253E+01  0.51100000000E-03 0. -1.
         12    1    3    3    0    0  0.61594740169E+01 -0.14701756962E+02  0.24887756247E+02  0.29554715173E+02  0.00000000000E+00 0. -1.
</event>
<event>
 7    1  0.5902966E-013  0.5052883E+02  0.7816164E-02  0.1300439E+00
        -11   -1    0    0    0    0  0.00000000000E+00  0.00000000000E+00  0.45593999997E+02  0.45594000000E+02  0.51100000000E-03 0. -1.
         11   -1    0    0    0    0 -0.00000000000E+00 -0.00000000000E+00 -0.45593999997E+02  0.45594000000E+02  0.51100000000E-03 0.  1.
    9900012    2    1    2    0    0  0.16407530199E+02  0.24473750318E+02  0.28017797047E+02  0.50528825719E+02  0.29999896255E+02 0.  0.
         12    1    1    2    0    0 -0.16407530199E+02 -0.24473750318E+02 -0.28017797047E+02  0.40659174281E+02  0.00000000000E+00 0. -1.
         11    1    3    3    0    0 -0.92299467433E+00  0.10768220695E+02  0.51393263938E+01  0.11967421283E+02  0.51100000000E-03 0. -1.
        -11    1    3    3    0    0 -0.30665111626E+01 -0.89719009047E+00 -0.15460511943E+01  0.35494669072E+01  0.51100000000E-03 0.  1.
        -12    1    3    3    0    0  0.20397036036E+02  0.14602719713E+02  0.24424521847E+02  0.35011937529E+02  0.00000000000E+00 0.  1.
</event>
<event>
 7    1  0.5902966E-013  0.5052886E+02  0.7816164E-02  0.1300439E+00
        -11   -1    0    0    0    0  0.00000000000E+00  0.00000000000E+00  0.45593999997E+02  0.45594000000E+02  0.51100000000E-03 0.  1.
         11   -1    0    0    0    0 -0.00000000000E+00 -0.00000000000E+00 -0.45593999997E+02  0.45594000000E+02  0.51100000000E-03 0. -1.
    9900012    2    1    2    0    0 -0.30487131794E+02  0.22991146980E+02  0.13968090896E+02  0.50528860711E+02  0.30000002617E+02 0.  0.
         12    1    1    2    0    0  0.30487131794E+02 -0.22991146980E+02 -0.13968090896E+02  0.40659139289E+02  0.00000000000E+00 0. -1.
         11    1    3    3    0    0 -0.73325570547E+01  0.71893601619E-01  0.27055663863E+01  0.78161148522E+01  0.51100000000E-03 0. -1.
        -11    1    3    3    0    0 -0.10382888539E+02 -0.35284623006E+00 -0.50539039910E+01  0.11552957227E+02  0.51100000000E-03 0.  1.
         12    1    3    3    0    0 -0.12771686200E+02  0.23272099608E+02  0.16316428500E+02  0.31159788631E+02  0.00000000000E+00 0. -1.
</event>
<event>
 7    1  0.5902966E-013  0.5052893E+02  0.7816164E-02  0.1300439E+00
        -11   -1    0    0    0    0  0.00000000000E+00  0.00000000000E+00  0.45593999997E+02  0.45594000000E+02  0.51100000000E-03 0. -1.
         11   -1    0    0    0    0 -0.00000000000E+00 -0.00000000000E+00 -0.45593999997E+02  0.45594000000E+02  0.51100000000E-03 0.  1.
    9900012    2    1    2    0    0  0.22520340710E+02 -0.33815486513E+02  0.15833810223E+01  0.50528930050E+02  0.30000213378E+02 0.  0.
         12    1    1    2    0    0 -0.22520340710E+02  0.33815486513E+02 -0.15833810223E+01  0.40659069950E+02  0.00000000000E+00 0. -1.
         11    1    3    3    0    0  0.45677467905E+01 -0.21735394441E+02 -0.97541626594E+01  0.24257686858E+02  0.51100000000E-03 0.  1.
        -11    1    3    3    0    0  0.10917869303E+02 -0.12106450779E+02  0.57472905287E+01  0.17285756254E+02  0.51100000000E-03 0. -1.
        -12    1    3    3    0    0  0.70347246160E+01  0.26358706506E-01  0.55902531530E+01  0.89854869384E+01  0.00000000000E+00 0.  1.
</event>
<event>
 7    1  0.5902966E-013  0.5052891E+02  0.7816164E-02  0.1300439E+00
        -11   -1    0    0    0    0  0.00000000000E+00  0.00000000000E+00  0.45593999997E+02  0.45594000000E+02  0.51100000000E-03 0.  1.
         11   -1    0    0    0    0 -0.00000000000E+00 -0.00000000000E+00 -0.45593999997E+02  0.45594000000E+02  0.51100000000E-03 0. -1.
    9900012    2    1    2    0    0  0.18644012895E+02 -0.90657234411E+01  0.34976773264E+02  0.50528914591E+02  0.30000166391E+02 0.  0.
         12    1    1    2    0    0 -0.18644012895E+02  0.90657234411E+01 -0.34976773264E+02  0.40659085409E+02  0.00000000000E+00 0. -1.
         11    1    3    3    0    0  0.24703877729E+01  0.80726227265E+01  0.18019332441E+02  0.19898904375E+02  0.51100000000E-03 0. -1.
        -11    1    3    3    0    0  0.37587781699E+01 -0.91759500019E+01  0.10759139936E+02  0.14631663070E+02  0.51100000000E-03 0.  1.
        -12    1    3    3    0    0  0.12414846952E+02 -0.79623961657E+01  0.61983008867E+01  0.15998347146E+02  0.00000000000E+00 0.  1.
</event>
<event>
 7    1  0.5902966E-013  0.5052886E+02  0.7816164E-02  0.1300439E+00
        -11   -1    0    0    0    0  0.00000000000E+00  0.00000000000E+00  0.45593999997E+02  0.45594000000E+02  0.51100000000E-03 0.  1.
         11   -1    0    0    0    0 -0.00000000000E+00 -0.00000000000E+00 -0.45593999997E+02  0.45594000000E+02  0.51100000000E-03 0. -1.
    9900012    2    1    2    0    0 -0.72185715375E+01  0.31985490095E+02  0.24041347463E+02  0.50528859090E+02  0.29999997691E+02 0.  0.
         12    1    1    2    0    0  0.72185715375E+01 -0.31985490095E+02 -0.24041347463E+02  0.40659140910E+02  0.00000000000E+00 0. -1.
         11    1    3    3    0    0  0.38846274030E+01  0.11267839762E+02 -0.31132399431E+00  0.11922728960E+02  0.51100000000E-03 0. -1.
        -11    1    3    3    0    0  0.47331140375E+00  0.15736189593E+02  0.19593251426E+02  0.25134581522E+02  0.51100000000E-03 0.  1.
         12    1    3    3    0    0 -0.11576510344E+02  0.49814607402E+01  0.47594200308E+01  0.13471548607E+02  0.00000000000E+00 0. -1.
</event>
<event>
 7    1  0.5902966E-013  0.5052884E+02  0.7816164E-02  0.1300439E+00
        -11   -1    0    0    0    0  0.00000000000E+00  0.00000000000E+00  0.45593999997E+02  0.45594000000E+02  0.51100000000E-03 0.  1.
         11   -1    0    0    0    0 -0.00000000000E+00 -0.00000000000E+00 -0.45593999997E+02  0.45594000000E+02  0.51100000000E-03 0. -1.
    9900012    2    1    2    0    0  0.15342096814E+02 -0.62576968364E+01  0.37129888952E+02  0.50528839188E+02  0.29999937196E+02 0.  0.
         12    1    1    2    0    0 -0.15342096814E+02  0.62576968364E+01 -0.37129888952E+02  0.40659160812E+02  0.00000000000E+00 0. -1.
         11    1    3    3    0    0  0.84902021034E+01 -0.60483621826E+01  0.16089717989E+02  0.19171469481E+02  0.51100000000E-03 0. -1.
        -11    1    3    3    0    0  0.66390380310E+01  0.23119796331E+01  0.25378976835E+02  0.26334664252E+02  0.51100000000E-03 0.  1.
         12    1    3    3    0    0  0.21285667972E+00 -0.25213142870E+01 -0.43388058715E+01  0.50227054553E+01  0.00000000000E+00 0. -1.
</event>
<event>
 7    1  0.5902966E-013  0.5052886E+02  0.7816164E-02  0.1300439E+00
        -11   -1    0    0    0    0  0.00000000000E+00  0.00000000000E+00  0.45593999997E+02  0.45594000000E+02  0.51100000000E-03 0.  1.
         11   -1    0    0    0    0 -0.00000000000E+00 -0.00000000000E+00 -0.45593999997E+02  0.45594000000E+02  0.51100000000E-03 0. -1.
    9900012    2    1    2    0    0 -0.21665594807E+02 -0.31637039845E+02  0.13522778568E+02  0.50528857994E+02  0.29999994359E+02 0.  0.
         12    1    1    2    0    0  0.21665594807E+02  0.31637039845E+02 -0.13522778568E+02  0.40659142006E+02  0.00000000000E+00 0. -1.
         11    1    3    3    0    0 -0.18348728099E+02 -0.12446505539E+02  0.60761127977E+01  0.22989355580E+02  0.51100000000E-03 0. -1.
        -11    1    3    3    0    0 -0.68188385958E+01 -0.21336134731E+02  0.60568304401E+01  0.23203715226E+02  0.51100000000E-03 0.  1.
        -12    1    3    3    0    0  0.35019718883E+01  0.21456004256E+01  0.13898353304E+01  0.43357871878E+01  0.00000000000E+00 0.  1.
</event>
<event>
 7    1  0.5902966E-013  0.5052886E+02  0.7816164E-02  0.1300439E+00
        -11   -1    0    0    0    0  0.00000000000E+00  0.00000000000E+00  0.45593999997E+02  0.45594000000E+02  0.51100000000E-03 0.  1.
         11   -1    0    0    0    0 -0.00000000000E+00 -0.00000000000E+00 -0.45593999997E+02  0.45594000000E+02  0.51100000000E-03 0. -1.
    9900012    2    1    2    0    0 -0.86720067574E+01  0.35427150010E+02  0.17968840631E+02  0.50528857207E+02  0.29999991967E+02 0.  0.
         12    1    1    2    0    0  0.86720067574E+01 -0.35427150010E+02 -0.17968840631E+02  0.40659142793E+02  0.00000000000E+00 0. -1.
         11    1    3    3    0    0 -0.79886866652E+01  0.25026251793E+00  0.15736039004E+00  0.79941546468E+01  0.51100000000E-03 0. -1.
        -11    1    3    3    0    0 -0.23183028322E+01  0.26917188379E+02  0.54230395983E+01  0.27555741997E+02  0.51100000000E-03 0.  1.
        -12    1    3    3    0    0  0.16349827401E+01  0.82596991127E+01  0.12388440643E+02  0.14978960563E+02  0.00000000000E+00 0.  1.
</event>
<event>
 7    1  0.5902966E-013  0.5052886E+02  0.7816164E-02  0.1300439E+00
        -11   -1    0    0    0    0  0.00000000000E+00  0.00000000000E+00  0.45593999997E+02  0.45594000000E+02  0.51100000000E-03 0.  1.
         11   -1    0    0    0    0 -0.00000000000E+00 -0.00000000000E+00 -0.45593999997E+02  0.45594000000E+02  0.51100000000E-03 0. -1.
    9900012    2    1    2    0    0  0.68445633654E+00  0.20407740085E+01  0.40602127401E+02  0.50528856028E+02  0.29999988384E+02 0.  0.
         12    1    1    2    0    0 -0.68445633654E+00 -0.20407740085E+01 -0.40602127401E+02  0.40659143972E+02  0.00000000000E+00 0. -1.
         11    1    3    3    0    0  0.22630692891E+01  0.21107526586E+01  0.14051802877E+01  0.33987190668E+01  0.51100000000E-03 0. -1.
        -11    1    3    3    0    0  0.70789859087E+01 -0.28179568107E+01  0.78584566516E+00  0.76596655118E+01  0.51100000000E-03 0.  1.
        -12    1    3    3    0    0 -0.86575988613E+01  0.27479781606E+01  0.38411101448E+02  0.39470471450E+02  0.00000000000E+00 0.  1.
</event>
<event>
 7    1  0.5902966E-013  0.5052886E+02  0.7816164E-02  0.1300439E+00
        -11   -1    0    0    0    0  0.00000000000E+00  0.00000000000E+00  0.45593999997E+02  0.45594000000E+02  0.51100000000E-03 0.  1.
         11   -1    0    0    0    0 -0.00000000000E+00 -0.00000000000E+00 -0.45593999997E+02  0.45594000000E+02  0.51100000000E-03 0. -1.
    9900012    2    1    2    0    0  0.13592868563E+02 -0.17161205817E+02  0.34262110622E+02  0.50528864678E+02  0.30000014675E+02 0.  0.
         12    1    1    2    0    0 -0.13592868563E+02  0.17161205817E+02 -0.34262110622E+02  0.40659135322E+02  0.00000000000E+00 0. -1.
         11    1    3    3    0    0  0.10252407409E+01 -0.13409387224E+02  0.12503522294E+02  0.18363029552E+02  0.51100000000E-03 0. -1.
        -11    1    3    3    0    0  0.12696082076E+02 -0.62432624550E+01  0.46741628878E+01  0.14900222318E+02  0.51100000000E-03 0.  1.
        -12    1    3    3    0    0 -0.12845425445E+00  0.24914438617E+01  0.17084425440E+02  0.17265612808E+02  0.00000000000E+00 0.  1.
</event>
<event>
 7    1  0.5902966E-013  0.5052900E+02  0.7816164E-02  0.1300438E+00
        -11   -1    0    0    0    0  0.00000000000E+00  0.00000000000E+00  0.45593999997E+02  0.45594000000E+02  0.51100000000E-03 0.  1.
         11   -1    0    0    0    0 -0.00000000000E+00 -0.00000000000E+00 -0.45593999997E+02  0.45594000000E+02  0.51100000000E-03 0. -1.
    9900012    2    1    2    0    0 -0.27382851775E+02  0.12510217455E+02  0.27328152470E+02  0.50529003093E+02  0.30000435397E+02 0.  0.
         12    1    1    2    0    0  0.27382851775E+02 -0.12510217455E+02 -0.27328152470E+02  0.40658996907E+02  0.00000000000E+00 0. -1.
         11    1    3    3    0    0 -0.23259171808E+02  0.44161696380E+01  0.21984444203E+02  0.32308008522E+02  0.51100000000E-03 0. -1.
        -11    1    3    3    0    0 -0.36956650480E+01 -0.27773258752E+01  0.56954615515E+01  0.73355137319E+01  0.51100000000E-03 0.  1.
         12    1    3    3    0    0 -0.42801491826E+00  0.10871373692E+02 -0.35175328434E+00  0.10885480839E+02  0.00000000000E+00 0. -1.
</event>
<event>
 7    1  0.5902966E-013  0.5052886E+02  0.7816164E-02  0.1300439E+00
        -11   -1    0    0    0    0  0.00000000000E+00  0.00000000000E+00  0.45593999997E+02  0.45594000000E+02  0.51100000000E-03 0. -1.
         11   -1    0    0    0    0 -0.00000000000E+00 -0.00000000000E+00 -0.45593999997E+02  0.45594000000E+02  0.51100000000E-03 0.  1.
    9900012    2    1    2    0    0 -0.20073531443E+02  0.35314202626E+02  0.17680759296E+01  0.50528860016E+02  0.30000000505E+02 0.  0.
         12    1    1    2    0    0  0.20073531443E+02 -0.35314202626E+02 -0.17680759296E+01  0.40659139984E+02  0.00000000000E+00 0. -1.
         11    1    3    3    0    0 -0.67169151341E+01  0.25457814087E+02  0.13648072256E+02  0.29656148158E+02  0.51100000000E-03 0.  1.
        -11    1    3    3    0    0 -0.11356398529E+01  0.54248397740E+00  0.26596462343E+00  0.12863530554E+01  0.51100000000E-03 0. -1.
        -12    1    3    3    0    0 -0.12220976456E+02  0.93139045616E+01 -0.12145960950E+02  0.19586358802E+02  0.00000000000E+00 0.  1.
</event>
<event>
 7    1  0.5902966E-013  0.5052885E+02  0.7816164E-02  0.1300439E+00
        -11   -1    0    0    0    0  0.00000000000E+00  0.00000000000E+00  0.45593999997E+02  0.45594000000E+02  0.51100000000E-03 0.  1.
         11   -1    0    0    0    0 -0.00000000000E+00 -0.00000000000E+00 -0.45593999997E+02  0.45594000000E+02  0.51100000000E-03 0. -1.
    9900012    2    1    2    0    0 -0.11157730145E+02 -0.99473448652E+01  0.37811662546E+02  0.50528850521E+02  0.29999971644E+02 0.  0.
         12    1    1    2    0    0  0.11157730145E+02  0.99473448652E+01 -0.37811662546E+02  0.40659149479E+02  0.00000000000E+00 0. -1.
         11    1    3    3    0    0 -0.18029528741E+00  0.48735737273E+01  0.15871713095E+02  0.16604080947E+02  0.51100000000E-03 0. -1.
        -11    1    3    3    0    0 -0.15366507741E+02 -0.14909408203E+02  0.19134309402E+02  0.28714836055E+02  0.51100000000E-03 0.  1.
         12    1    3    3    0    0  0.43890728832E+01  0.88489610568E-01  0.28056400485E+01  0.52099335185E+01  0.00000000000E+00 0. -1.
</event>
<event>
 7    1  0.5902966E-013  0.5052887E+02  0.7816164E-02  0.1300439E+00
        -11   -1    0    0    0    0  0.00000000000E+00  0.00000000000E+00  0.45593999997E+02  0.45594000000E+02  0.51100000000E-03 0.  1.
         11   -1    0    0    0    0 -0.00000000000E+00 -0.00000000000E+00 -0.45593999997E+02  0.45594000000E+02  0.51100000000E-03 0. -1.
    9900012    2    1    2    0    0 -0.15909661729E+02 -0.23346516234E+01  0.37344306073E+02  0.50528866578E+02  0.30000020450E+02 0.  0.
         12    1    1    2    0    0  0.15909661729E+02  0.23346516234E+01 -0.37344306073E+02  0.40659133422E+02  0.00000000000E+00 0. -1.
         11    1    3    3    0    0 -0.11030055653E+02  0.40183842791E+01  0.11191264834E+02  0.16218937967E+02  0.51100000000E-03 0. -1.
        -11    1    3    3    0    0 -0.56723388838E+01 -0.41249572353E+01 -0.97318985060E+00  0.70808049932E+01  0.51100000000E-03 0.  1.
        -12    1    3    3    0    0  0.79273280817E+00 -0.22280786672E+01  0.27126231090E+02  0.27229123618E+02  0.00000000000E+00 0.  1.
</event>
<event>
 7    1  0.5902966E-013  0.5052886E+02  0.7816164E-02  0.1300439E+00
        -11   -1    0    0    0    0  0.00000000000E+00  0.00000000000E+00  0.45593999997E+02  0.45594000000E+02  0.51100000000E-03 0.  1.
         11   -1    0    0    0    0 -0.00000000000E+00 -0.00000000000E+00 -0.45593999997E+02  0.45594000000E+02  0.51100000000E-03 0. -1.
    9900012    2    1    2    0    0  0.31470712275E+02  0.23709532449E+02  0.10030855651E+02  0.50528859267E+02  0.29999998228E+02 0.  0.
         12    1    1    2    0    0 -0.31470712275E+02 -0.23709532449E+02 -0.10030855651E+02  0.40659140733E+02  0.00000000000E+00 0. -1.
         11    1    3    3    0    0 -0.30370774812E+00 -0.18776734453E+01  0.13569076166E+01  0.23364705229E+01  0.51100000000E-03 0. -1.
        -11    1    3    3    0    0 -0.54507637446E+00  0.12087401371E+02 -0.37225850837E-01  0.12099742401E+02  0.51100000000E-03 0.  1.
         12    1    3    3    0    0  0.32319496398E+02  0.13499804523E+02  0.87111738855E+01  0.36092646343E+02  0.00000000000E+00 0. -1.
</event>
<event>
 7    1  0.5902966E-013  0.5052886E+02  0.7816164E-02  0.1300439E+00
        -11   -1    0    0    0    0  0.00000000000E+00  0.00000000000E+00  0.45593999997E+02  0.45594000000E+02  0.51100000000E-03 0. -1.
         11   -1    0    0    0    0 -0.00000000000E+00 -0.00000000000E+00 -0.45593999997E+02  0.45594000000E+02  0.51100000000E-03 0.  1.
    9900012    2    1    2    0    0  0.22167855327E+02 -0.33967760648E+02 -0.28184027987E+01  0.50528856286E+02  0.29999989167E+02 0.  0.
         12    1    1    2    0    0 -0.22167855327E+02  0.33967760648E+02  0.28184027987E+01  0.40659143714E+02  0.00000000000E+00 0. -1.
         11    1    3    3    0    0  0.68489050968E+01 -0.44568334462E+01  0.66634500610E+01  0.10543833855E+02  0.51100000000E-03 0. -1.
        -11    1    3    3    0    0  0.17982917806E+02 -0.16041424858E+02 -0.15950828283E+01  0.24150712904E+02  0.51100000000E-03 0.  1.
        -12    1    3    3    0    0 -0.26639675762E+01 -0.13469502344E+02 -0.78867700315E+01  0.15834309526E+02  0.00000000000E+00 0.  1.
</event>
<event>
 7    1  0.5902966E-013  0.5052886E+02  0.7816164E-02  0.1300439E+00
        -11   -1    0    0    0    0  0.00000000000E+00  0.00000000000E+00  0.45593999997E+02  0.45594000000E+02  0.51100000000E-03 0.  1.
         11   -1    0    0    0    0 -0.00000000000E+00 -0.00000000000E+00 -0.45593999997E+02  0.45594000000E+02  0.51100000000E-03 0. -1.
    9900012    2    1    2    0    0 -0.11709072429E+02  0.14815957265E+02  0.36007653005E+02  0.50528855374E+02  0.29999986395E+02 0.  0.
         12    1    1    2    0    0  0.11709072429E+02 -0.14815957265E+02 -0.36007653005E+02  0.40659144626E+02  0.00000000000E+00 0. -1.
         11    1    3    3    0    0 -0.13447367228E+02 -0.97694021041E+00  0.25425721783E+02  0.28779392384E+02  0.51100000000E-03 0. -1.
        -11    1    3    3    0    0  0.50720688013E+01  0.38092844868E+01  0.51751145629E+01  0.81864730639E+01  0.51100000000E-03 0.  1.
        -12    1    3    3    0    0 -0.33337740023E+01  0.11983612988E+02  0.54068166586E+01  0.13562989926E+02  0.00000000000E+00 0.  1.
</event>
<event>
 7    1  0.5902966E-013  0.5052887E+02  0.7816164E-02  0.1300439E+00
        -11   -1    0    0    0    0  0.00000000000E+00  0.00000000000E+00  0.45593999997E+02  0.45594000000E+02  0.51100000000E-03 0. -1.
         11   -1    0    0    0    0 -0.00000000000E+00 -0.00000000000E+00 -0.45593999997E+02  0.45594000000E+02  0.51100000000E-03 0.  1.
    9900012    2    1    2    0    0 -0.27506756721E+02 -0.23160476954E+02  0.18977229553E+02  0.50528873109E+02  0.30000040301E+02 0.  0.
         12    1    1    2    0    0  0.27506756721E+02  0.23160476954E+02 -0.18977229553E+02  0.40659126891E+02  0.00000000000E+00 0. -1.
         11    1    3    3    0    0 -0.13396760247E+02 -0.68103954658E+01  0.21475821132E+01  0.15181132392E+02  0.51100000000E-03 0.  1.
        -11    1    3    3    0    0 -0.17320109497E+02 -0.50745935371E+01  0.15029764800E+02  0.23486837224E+02  0.51100000000E-03 0. -1.
        -12    1    3    3    0    0  0.32101130230E+01 -0.11275487951E+02  0.17998826396E+01  0.11860903493E+02  0.00000000000E+00 0.  1.
</event>
<event>
 7    1  0.5902966E-013  0.5052876E+02  0.7816164E-02  0.1300439E+00
        -11   -1    0    0    0    0  0.00000000000E+00  0.00000000000E+00  0.45593999997E+02  0.45594000000E+02  0.51100000000E-03 0. -1.
         11   -1    0    0    0    0 -0.00000000000E+00 -0.00000000000E+00 -0.45593999997E+02  0.45594000000E+02  0.51100000000E-03 0.  1.
    9900012    2    1    2    0    0  0.98708887433E+00 -0.23898144017E+02 -0.32879756073E+02  0.50528757615E+02  0.29999689246E+02 0.  0.
         12    1    1    2    0    0 -0.98708887433E+00  0.23898144017E+02  0.32879756073E+02  0.40659242385E+02  0.00000000000E+00 0. -1.
         11    1    3    3    0    0  0.36966677933E+01  0.81609057868E+00 -0.18461528754E+02  0.18845673265E+02  0.51100000000E-03 0. -1.
        -11    1    3    3    0    0 -0.42805661068E+01 -0.99884027216E+01 -0.12791929678E+02  0.16784662650E+02  0.51100000000E-03 0.  1.
        -12    1    3    3    0    0  0.15709871878E+01 -0.14725831874E+02 -0.16262976399E+01  0.14898421700E+02  0.00000000000E+00 0.  1.
</event>
<event>
 7    1  0.5902966E-013  0.5052885E+02  0.7816164E-02  0.1300439E+00
        -11   -1    0    0    0    0  0.00000000000E+00  0.00000000000E+00  0.45593999997E+02  0.45594000000E+02  0.51100000000E-03 0.  1.
         11   -1    0    0    0    0 -0.00000000000E+00 -0.00000000000E+00 -0.45593999997E+02  0.45594000000E+02  0.51100000000E-03 0. -1.
    9900012    2    1    2    0    0 -0.28369436302E+02 -0.11372891619E+02 -0.26814147350E+02  0.50528854928E+02  0.29999985040E+02 0.  0.
         12    1    1    2    0    0  0.28369436302E+02  0.11372891619E+02  0.26814147350E+02  0.40659145072E+02  0.00000000000E+00 0. -1.
         11    1    3    3    0    0 -0.81044991779E+01 -0.23809711087E+01  0.11520769485E+01  0.85252103729E+01  0.51100000000E-03 0. -1.
        -11    1    3    3    0    0 -0.71288245134E+01 -0.13723369885E+02 -0.73950934741E+01  0.17141716008E+02  0.51100000000E-03 0.  1.
         12    1    3    3    0    0 -0.13136112610E+02  0.47314493749E+01 -0.20571130824E+02  0.24861928547E+02  0.00000000000E+00 0. -1.
</event>
<event>
 7    1  0.5902966E-013  0.5052887E+02  0.7816164E-02  0.1300439E+00
        -11   -1    0    0    0    0  0.00000000000E+00  0.00000000000E+00  0.45593999997E+02  0.45594000000E+02  0.51100000000E-03 0.  1.
         11   -1    0    0    0    0 -0.00000000000E+00 -0.00000000000E+00 -0.45593999997E+02  0.45594000000E+02  0.51100000000E-03 0. -1.
    9900012    2    1    2    0    0 -0.19208473740E+02 -0.31452828964E+02  0.17173215345E+02  0.50528865251E+02  0.30000016418E+02 0.  0.
         12    1    1    2    0    0  0.19208473740E+02  0.31452828964E+02 -0.17173215345E+02  0.40659134749E+02  0.00000000000E+00 0. -1.
         11    1    3    3    0    0 -0.14981037637E+02 -0.27742359740E+02  0.49505649499E+01  0.31915170472E+02  0.51100000000E-03 0. -1.
        -11    1    3    3    0    0 -0.53948111348E+01 -0.78999493759E+01  0.95041293887E+01  0.13484867927E+02  0.51100000000E-03 0.  1.
        -12    1    3    3    0    0  0.11673750324E+01  0.41894801526E+01  0.27185210066E+01  0.51288268521E+01  0.00000000000E+00 0.  1.
</event>
<event>
 7    1  0.5902966E-013  0.5052886E+02  0.7816164E-02  0.1300439E+00
        -11   -1    0    0    0    0  0.00000000000E+00  0.00000000000E+00  0.45593999997E+02  0.45594000000E+02  0.51100000000E-03 0. -1.
         11   -1    0    0    0    0 -0.00000000000E+00 -0.00000000000E+00 -0.45593999997E+02  0.45594000000E+02  0.51100000000E-03 0.  1.
    9900012    2    1    2    0    0 -0.49640909935E+01  0.38028909974E+02 -0.13502800335E+02  0.50528858223E+02  0.29999995054E+02 0.  0.
         12    1    1    2    0    0  0.49640909935E+01 -0.38028909974E+02  0.13502800335E+02  0.40659141777E+02  0.00000000000E+00 0. -1.
         11    1    3    3    0    0 -0.67144582863E+00 -0.15346495616E+01 -0.55454764835E+01  0.57929524828E+01  0.51100000000E-03 0. -1.
        -11    1    3    3    0    0  0.64061378476E+01  0.10949851380E+02 -0.62438507801E+01  0.14139431396E+02  0.51100000000E-03 0.  1.
         12    1    3    3    0    0 -0.10698783012E+02  0.28613708155E+02 -0.17134730715E+01  0.30596474344E+02  0.00000000000E+00 0. -1.
</event>
<event>
 7    1  0.5902966E-013  0.5052886E+02  0.7816164E-02  0.1300439E+00
        -11   -1    0    0    0    0  0.00000000000E+00  0.00000000000E+00  0.45593999997E+02  0.45594000000E+02  0.51100000000E-03 0.  1.
         11   -1    0    0    0    0 -0.00000000000E+00 -0.00000000000E+00 -0.45593999997E+02  0.45594000000E+02  0.51100000000E-03 0. -1.
    9900012    2    1    2    0    0 -0.11483337828E+02  0.30735300009E+02  0.24013328191E+02  0.50528860250E+02  0.30000001217E+02 0.  0.
         12    1    1    2    0    0  0.11483337828E+02 -0.30735300009E+02 -0.24013328191E+02  0.40659139750E+02  0.00000000000E+00 0. -1.
         11    1    3    3    0    0 -0.13781232130E+02  0.89851774545E+01  0.36899348077E+01  0.16860349702E+02  0.51100000000E-03 0.  1.
        -11    1    3    3    0    0  0.43370931006E+01  0.68573408341E+01 -0.33426911700E+00  0.81206672128E+01  0.51100000000E-03 0. -1.
        -12    1    3    3    0    0 -0.20391987982E+01  0.14892781721E+02  0.20657662501E+02  0.25547843336E+02  0.00000000000E+00 0.  1.
</event>
<event>
 7    1  0.5902966E-013  0.5052886E+02  0.7816164E-02  0.1300439E+00
        -11   -1    0    0    0    0  0.00000000000E+00  0.00000000000E+00  0.45593999997E+02  0.45594000000E+02  0.51100000000E-03 0.  1.
         11   -1    0    0    0    0 -0.00000000000E+00 -0.00000000000E+00 -0.45593999997E+02  0.45594000000E+02  0.51100000000E-03 0. -1.
    9900012    2    1    2    0    0 -0.24269390836E+01 -0.35334339989E+02  0.19968980812E+02  0.50528858218E+02  0.29999995039E+02 0.  0.
         12    1    1    2    0    0  0.24269390836E+01  0.35334339989E+02 -0.19968980812E+02  0.40659141782E+02  0.00000000000E+00 0. -1.
         11    1    3    3    0    0 -0.77265150415E+01 -0.83371902577E+00  0.14361052135E+01  0.79029437898E+01  0.51100000000E-03 0. -1.
        -11    1    3    3    0    0  0.14250002764E+01 -0.12387908936E+02 -0.14721999792E+01  0.12556205105E+02  0.51100000000E-03 0.  1.
        -12    1    3    3    0    0  0.38745756814E+01 -0.22112712027E+02  0.20005075577E+02  0.30069709323E+02  0.00000000000E+00 0.  1.
</event>
<event>
 7    1  0.5902966E-013  0.5052886E+02  0.7816164E-02  0.1300439E+00
        -11   -1    0    0    0    0  0.00000000000E+00  0.00000000000E+00  0.45593999997E+02  0.45594000000E+02  0.51100000000E-03 0.  1.
         11   -1    0    0    0    0 -0.00000000000E+00 -0.00000000000E+00 -0.45593999997E+02  0.45594000000E+02  0.51100000000E-03 0. -1.
    9900012    2    1    2    0    0 -0.33942266976E+02  0.18109472920E+02  0.13158070411E+02  0.50528864325E+02  0.30000013602E+02 0.  0.
         12    1    1    2    0    0  0.33942266976E+02 -0.18109472920E+02 -0.13158070411E+02  0.40659135675E+02  0.00000000000E+00 0. -1.
         11    1    3    3    0    0 -0.16410917028E+01  0.29005437574E+01 -0.10226862459E+01  0.34860039420E+01  0.51100000000E-03 0. -1.
        -11    1    3    3    0    0 -0.32188178942E+02  0.16823700576E+02  0.19681053799E+02  0.41309316667E+02  0.51100000000E-03 0.  1.
        -12    1    3    3    0    0 -0.11299633147E+00 -0.16147714131E+01 -0.55002971419E+01  0.57335437154E+01  0.00000000000E+00 0.  1.
</event>
<event>
 7    1  0.5902966E-013  0.5052886E+02  0.7816164E-02  0.1300439E+00
        -11   -1    0    0    0    0  0.00000000000E+00  0.00000000000E+00  0.45593999997E+02  0.45594000000E+02  0.51100000000E-03 0.  1.
         11   -1    0    0    0    0 -0.00000000000E+00 -0.00000000000E+00 -0.45593999997E+02  0.45594000000E+02  0.51100000000E-03 0. -1.
    9900012    2    1    2    0    0 -0.15492506945E+02 -0.10893509837E+02  0.35978869430E+02  0.50528863592E+02  0.30000011374E+02 0.  0.
         12    1    1    2    0    0  0.15492506945E+02  0.10893509837E+02 -0.35978869430E+02  0.40659136408E+02  0.00000000000E+00 0. -1.
         11    1    3    3    0    0 -0.27399131802E+01  0.50789529881E+01  0.15341531468E+02  0.16391018143E+02  0.51100000000E-03 0. -1.
        -11    1    3    3    0    0  0.21019485683E+01 -0.38308680464E+01 -0.17033430953E+01  0.46898950665E+01  0.51100000000E-03 0.  1.
        -12    1    3    3    0    0 -0.14854542333E+02 -0.12141594779E+02  0.22340681057E+02  0.29447950383E+02  0.00000000000E+00 0.  1.
</event>
<event>
 7    1  0.5902966E-013  0.5052886E+02  0.7816164E-02  0.1300439E+00
        -11   -1    0    0    0    0  0.00000000000E+00  0.00000000000E+00  0.45593999997E+02  0.45594000000E+02  0.51100000000E-03 0.  1.
         11   -1    0    0    0    0 -0.00000000000E+00 -0.00000000000E+00 -0.45593999997E+02  0.45594000000E+02  0.51100000000E-03 0. -1.
    9900012    2    1    2    0    0 -0.23675919741E+02  0.31910794142E+02  0.86207569571E+01  0.50528863156E+02  0.30000010048E+02 0.  0.
         12    1    1    2    0    0  0.23675919741E+02 -0.31910794142E+02 -0.86207569571E+01  0.40659136844E+02  0.00000000000E+00 0. -1.
         11    1    3    3    0    0 -0.11090242273E+02  0.19585620999E+02 -0.66549608603E+01  0.23470801604E+02  0.51100000000E-03 0. -1.
        -11    1    3    3    0    0 -0.78699501049E+01  0.26495984322E+01 -0.81522348720E-01  0.83044044133E+01  0.51100000000E-03 0.  1.
        -12    1    3    3    0    0 -0.47157273632E+01  0.96755747110E+01  0.15357240166E+02  0.18753657139E+02  0.00000000000E+00 0.  1.
</event>
<event>
 7    1  0.5902966E-013  0.5052885E+02  0.7816164E-02  0.1300439E+00
        -11   -1    0    0    0    0  0.00000000000E+00  0.00000000000E+00  0.45593999997E+02  0.45594000000E+02  0.51100000000E-03 0. -1.
         11   -1    0    0    0    0 -0.00000000000E+00 -0.00000000000E+00 -0.45593999997E+02  0.45594000000E+02  0.51100000000E-03 0.  1.
    9900012    2    1    2    0    0  0.31867107860E+02 -0.13303793249E+02 -0.21463055520E+02  0.50528853053E+02  0.29999979341E+02 0.  0.
         12    1    1    2    0    0 -0.31867107860E+02  0.13303793249E+02  0.21463055520E+02  0.40659146947E+02  0.00000000000E+00 0. -1.
         11    1    3    3    0    0  0.81629348063E+01 -0.35875512454E+01  0.44763204749E+01  0.99770473511E+01  0.51100000000E-03 0. -1.
        -11    1    3    3    0    0  0.20299006561E+02 -0.33696438327E+01 -0.96215444189E+01  0.22715155385E+02  0.51100000000E-03 0.  1.
        -12    1    3    3    0    0  0.34051664928E+01 -0.63465981708E+01 -0.16317831576E+02  0.17836650317E+02  0.00000000000E+00 0.  1.
</event>
<event>
 7    1  0.5902966E-013  0.5052887E+02  0.7816164E-02  0.1300439E+00
        -11   -1    0    0    0    0  0.00000000000E+00  0.00000000000E+00  0.45593999997E+02  0.45594000000E+02  0.51100000000E-03 0. -1.
         11   -1    0    0    0    0 -0.00000000000E+00 -0.00000000000E+00 -0.45593999997E+02  0.45594000000E+02  0.51100000000E-03 0.  1.
    9900012    2    1    2    0    0  0.10972497176E+02 -0.15576438326E+02 -0.35918567227E+02  0.50528873142E+02  0.30000040403E+02 0.  0.
         12    1    1    2    0    0 -0.10972497176E+02  0.15576438326E+02  0.35918567227E+02  0.40659126858E+02  0.00000000000E+00 0. -1.
         11    1    3    3    0    0  0.65440751403E+01  0.60323427824E+01 -0.13338675619E+02  0.16035409144E+02  0.51100000000E-03 0. -1.
        -11    1    3    3    0    0  0.28342790606E+01  0.12952035405E+01 -0.27436181758E+01  0.41518828211E+01  0.51100000000E-03 0.  1.
        -12    1    3    3    0    0  0.15941429756E+01 -0.22903984649E+02 -0.19836273432E+02  0.30341581177E+02  0.00000000000E+00 0.  1.
</event>
<event>
 7    1  0.5902966E-013  0.5052887E+02  0.7816164E-02  0.1300439E+00
        -11   -1    0    0    0    0  0.00000000000E+00  0.00000000000E+00  0.45593999997E+02  0.45594000000E+02  0.51100000000E-03 0. -1.
         11   -1    0    0    0    0 -0.00000000000E+00 -0.00000000000E+00 -0.45593999997E+02  0.45594000000E+02  0.51100000000E-03 0.  1.
    9900012    2    1    2    0    0  0.36612932263E+02 -0.93570527702E+01 -0.15003459071E+02  0.50528867821E+02  0.30000024230E+02 0.  0.
         12    1    1    2    0    0 -0.36612932263E+02  0.93570527702E+01  0.15003459071E+02  0.40659132179E+02  0.00000000000E+00 0. -1.
         11    1    3    3    0    0 -0.11304506214E+01 -0.23302992801E+01 -0.34260370398E+00  0.26125831855E+01  0.51100000000E-03 0. -1.
        -11    1    3    3    0    0  0.10693910026E+02 -0.96083913123E+01  0.40367152070E+01  0.14932379756E+02  0.51100000000E-03 0.  1.
        -12    1    3    3    0    0  0.27049472858E+02  0.25816378221E+01 -0.18697570574E+02  0.32983904880E+02  0.00000000000E+00 0.  1.
</event>
<event>
 7    1  0.5902966E-013  0.5052886E+02  0.7816164E-02  0.1300439E+00
        -11   -1    0    0    0    0  0.00000000000E+00  0.00000000000E+00  0.45593999997E+02  0.45594000000E+02  0.51100000000E-03 0.  1.
         11   -1    0    0    0    0 -0.00000000000E+00 -0.00000000000E+00 -0.45593999997E+02  0.45594000000E+02  0.51100000000E-03 0. -1.
    9900012    2    1    2    0    0 -0.16469722109E+02 -0.13255787129E+02  0.34730364531E+02  0.50528857619E+02  0.29999993218E+02 0.  0.
         12    1    1    2    0    0  0.16469722109E+02  0.13255787129E+02 -0.34730364531E+02  0.40659142381E+02  0.00000000000E+00 0. -1.
         11    1    3    3    0    0 -0.18902790845E+02 -0.11350810846E+02  0.19347926148E+02  0.29334257364E+02  0.51100000000E-03 0. -1.
        -11    1    3    3    0    0 -0.13004639434E+00 -0.79439423562E+01  0.94873999756E+01  0.12374727907E+02  0.51100000000E-03 0.  1.
         12    1    3    3    0    0  0.25631151308E+01  0.60389660735E+01  0.58950384068E+01  0.88198723476E+01  0.00000000000E+00 0. -1.
</event>
<event>
 7    1  0.5902966E-013  0.5052883E+02  0.7816164E-02  0.1300439E+00
        -11   -1    0    0    0    0  0.00000000000E+00  0.00000000000E+00  0.45593999997E+02  0.45594000000E+02  0.51100000000E-03 0. -1.
         11   -1    0    0    0    0 -0.00000000000E+00 -0.00000000000E+00 -0.45593999997E+02  0.45594000000E+02  0.51100000000E-03 0.  1.
    9900012    2    1    2    0    0  0.70553187546E+01 -0.16276792268E+02 -0.36584919597E+02  0.50528833369E+02  0.29999919507E+02 0.  0.
         12    1    1    2    0    0 -0.70553187546E+01  0.16276792268E+02  0.36584919597E+02  0.40659166631E+02  0.00000000000E+00 0. -1.
         11    1    3    3    0    0 -0.10171608999E+02 -0.39559560586E+01 -0.13559468777E+02  0.17406045264E+02  0.51100000000E-03 0.  1.
        -11    1    3    3    0    0  0.21004760790E+01  0.13657451206E+01 -0.61751135650E+01  0.66640293588E+01  0.51100000000E-03 0. -1.
        -12    1    3    3    0    0  0.15126451674E+02 -0.13686581330E+02 -0.16850337255E+02  0.26458758746E+02  0.00000000000E+00 0.  1.
</event>
<event>
 7    1  0.5902966E-013  0.5052885E+02  0.7816164E-02  0.1300439E+00
        -11   -1    0    0    0    0  0.00000000000E+00  0.00000000000E+00  0.45593999997E+02  0.45594000000E+02  0.51100000000E-03 0.  1.
         11   -1    0    0    0    0 -0.00000000000E+00 -0.00000000000E+00 -0.45593999997E+02  0.45594000000E+02  0.51100000000E-03 0. -1.
    9900012    2    1    2    0    0 -0.63698275915E+01 -0.13912498772E+02  0.37670072425E+02  0.50528847498E+02  0.29999962456E+02 0.  0.
         12    1    1    2    0    0  0.63698275915E+01  0.13912498772E+02 -0.37670072425E+02  0.40659152502E+02  0.00000000000E+00 0. -1.
         11    1    3    3    0    0  0.30707627037E+01  0.77233941720E+00  0.52364999091E+01  0.61193973001E+01  0.51100000000E-03 0.  1.
        -11    1    3    3    0    0 -0.12851753903E+02 -0.20044491898E+02  0.27427457081E+02  0.36320994425E+02  0.51100000000E-03 0. -1.
         12    1    3    3    0    0  0.34111636078E+01  0.53596537092E+01  0.50061154355E+01  0.80884557732E+01  0.00000000000E+00 0. -1.
</event>
<event>
 7    1  0.5902966E-013  0.5052886E+02  0.7816164E-02  0.1300439E+00
        -11   -1    0    0    0    0  0.00000000000E+00  0.00000000000E+00  0.45593999997E+02  0.45594000000E+02  0.51100000000E-03 0.  1.
         11   -1    0    0    0    0 -0.00000000000E+00 -0.00000000000E+00 -0.45593999997E+02  0.45594000000E+02  0.51100000000E-03 0. -1.
    9900012    2    1    2    0    0  0.11999244965E+02  0.19256901772E+02  0.33739526018E+02  0.50528858820E+02  0.29999996869E+02 0.  0.
         12    1    1    2    0    0 -0.11999244965E+02 -0.19256901772E+02 -0.33739526018E+02  0.40659141180E+02  0.00000000000E+00 0. -1.
         11    1    3    3    0    0 -0.14407557115E+01  0.13877063975E+02  0.10281436204E+02  0.17330799528E+02  0.51100000000E-03 0. -1.
        -11    1    3    3    0    0  0.11364284779E+02  0.57641680086E+01  0.26552721164E+02  0.29451988097E+02  0.51100000000E-03 0.  1.
         12    1    3    3    0    0  0.20757158981E+01 -0.38433021156E+00 -0.30946313510E+01  0.37460711952E+01  0.00000000000E+00 0. -1.
</event>
<event>
 7    1  0.5902966E-013  0.5052886E+02  0.7816164E-02  0.1300439E+00
        -11   -1    0    0    0    0  0.00000000000E+00  0.00000000000E+00  0.45593999997E+02  0.45594000000E+02  0.51100000000E-03 0.  1.
         11   -1    0    0    0    0 -0.00000000000E+00 -0.00000000000E+00 -0.45593999997E+02  0.45594000000E+02  0.51100000000E-03 0. -1.
    9900012    2    1    2    0    0 -0.17083738653E+02 -0.19071841644E+02  0.31584435445E+02  0.50528857948E+02  0.29999994218E+02 0.  0.
         12    1    1    2    0    0  0.17083738653E+02  0.19071841644E+02 -0.31584435445E+02  0.40659142052E+02  0.00000000000E+00 0. -1.
         11    1    3    3    0    0 -0.11298892751E+02 -0.16859996054E+02  0.14386351438E+02  0.24877531074E+02  0.51100000000E-03 0.  1.
        -11    1    3    3    0    0 -0.85776534739E+01  0.26455895365E+01  0.16530310865E+01  0.91273104005E+01  0.51100000000E-03 0. -1.
         12    1    3    3    0    0  0.27928075722E+01 -0.48574351259E+01  0.15545052920E+02  0.16524016474E+02  0.00000000000E+00 0. -1.
</event>
<event>
 7    1  0.5902966E-013  0.5052885E+02  0.7816164E-02  0.1300439E+00
        -11   -1    0    0    0    0  0.00000000000E+00  0.00000000000E+00  0.45593999997E+02  0.45594000000E+02  0.51100000000E-03 0.  1.
         11   -1    0    0    0    0 -0.00000000000E+00 -0.00000000000E+00 -0.45593999997E+02  0.45594000000E+02  0.51100000000E-03 0. -1.
    9900012    2    1    2    0    0 -0.13681290969E+02 -0.23889618840E+02  0.29921139420E+02  0.50528853488E+02  0.29999980662E+02 0.  0.
         12    1    1    2    0    0  0.13681290969E+02  0.23889618840E+02 -0.29921139420E+02  0.40659146512E+02  0.00000000000E+00 0. -1.
         11    1    3    3    0    0  0.76031369528E+01 -0.17725783361E+01  0.17368291134E+01  0.79978935421E+01  0.51100000000E-03 0. -1.
        -11    1    3    3    0    0 -0.80766733541E+01 -0.31850447307E+01  0.63464747244E+01  0.10754297006E+02  0.51100000000E-03 0.  1.
        -12    1    3    3    0    0 -0.13207754567E+02 -0.18931995773E+02  0.21837835582E+02  0.31776662940E+02  0.00000000000E+00 0.  1.
</event>
<event>
 7    1  0.5902966E-013  0.5052885E+02  0.7816164E-02  0.1300439E+00
        -11   -1    0    0    0    0  0.00000000000E+00  0.00000000000E+00  0.45593999997E+02  0.45594000000E+02  0.51100000000E-03 0.  1.
         11   -1    0    0    0    0 -0.00000000000E+00 -0.00000000000E+00 -0.45593999997E+02  0.45594000000E+02  0.51100000000E-03 0. -1.
    9900012    2    1    2    0    0  0.22583092933E+02  0.33253099847E+02  0.61156726190E+01  0.50528853581E+02  0.29999980946E+02 0.  0.
         12    1    1    2    0    0 -0.22583092933E+02 -0.33253099847E+02 -0.61156726190E+01  0.40659146419E+02  0.00000000000E+00 0. -1.
         11    1    3    3    0    0  0.18644436245E+02  0.24991249538E+02  0.11931318100E+01  0.31202581946E+02  0.51100000000E-03 0. -1.
        -11    1    3    3    0    0 -0.19337280170E+01  0.11716912912E+02  0.31060656543E+01  0.12274892925E+02  0.51100000000E-03 0.  1.
         12    1    3    3    0    0  0.58723847059E+01 -0.34550626021E+01  0.18164751547E+01  0.70513787096E+01  0.00000000000E+00 0. -1.
</event>
<event>
 7    1  0.5902966E-013  0.5052886E+02  0.7816164E-02  0.1300439E+00
        -11   -1    0    0    0    0  0.00000000000E+00  0.00000000000E+00  0.45593999997E+02  0.45594000000E+02  0.51100000000E-03 0.  1.
         11   -1    0    0    0    0 -0.00000000000E+00 -0.00000000000E+00 -0.45593999997E+02  0.45594000000E+02  0.51100000000E-03 0. -1.
    9900012    2    1    2    0    0 -0.38393907420E+02  0.11895826652E+02  0.61288249453E+01  0.50528864324E+02  0.30000013600E+02 0.  0.
         12    1    1    2    0    0  0.38393907420E+02 -0.11895826652E+02 -0.61288249453E+01  0.40659135676E+02  0.00000000000E+00 0. -1.
         11    1    3    3    0    0 -0.23820969592E+02 -0.40149479193E+01  0.26394772964E+01  0.24300725088E+02  0.51100000000E-03 0. -1.
        -11    1    3    3    0    0 -0.69736016947E+00  0.14391710955E+01  0.58278628698E+01  0.60433029494E+01  0.51100000000E-03 0.  1.
        -12    1    3    3    0    0 -0.13875577658E+02  0.14471603476E+02 -0.23385152210E+01  0.20184836287E+02  0.00000000000E+00 0.  1.
</event>
<event>
 7    1  0.5902966E-013  0.5052887E+02  0.7816164E-02  0.1300439E+00
        -11   -1    0    0    0    0  0.00000000000E+00  0.00000000000E+00  0.45593999997E+02  0.45594000000E+02  0.51100000000E-03 0. -1.
         11   -1    0    0    0    0 -0.00000000000E+00 -0.00000000000E+00 -0.45593999997E+02  0.45594000000E+02  0.51100000000E-03 0.  1.
    9900012    2    1    2    0    0  0.45300432614E+01  0.32960978644E+02 -0.23371302990E+02  0.50528865620E+02  0.30000017539E+02 0.  0.
         12    1    1    2    0    0 -0.45300432614E+01 -0.32960978644E+02  0.23371302990E+02  0.40659134380E+02  0.00000000000E+00 0. -1.
         11    1    3    3    0    0 -0.84450086284E+01  0.68090351970E+01 -0.83691143765E+01  0.13701211872E+02  0.51100000000E-03 0.  1.
        -11    1    3    3    0    0  0.34689136781E+00  0.14183162092E+02 -0.13125659076E+02  0.19327838652E+02  0.51100000000E-03 0. -1.
         12    1    3    3    0    0  0.12628160522E+02  0.11968781355E+02 -0.18765295374E+01  0.17499815096E+02  0.00000000000E+00 0. -1.
</event>
<event>
 7    1  0.5902966E-013  0.5052884E+02  0.7816164E-02  0.1300439E+00
        -11   -1    0    0    0    0  0.00000000000E+00  0.00000000000E+00  0.45593999997E+02  0.45594000000E+02  0.51100000000E-03 0.  1.
         11   -1    0    0    0    0 -0.00000000000E+00 -0.00000000000E+00 -0.45593999997E+02  0.45594000000E+02  0.51100000000E-03 0. -1.
    9900012    2    1    2    0    0  0.35734603042E+02 -0.13136020688E+02  0.14270627321E+02  0.50528835003E+02  0.29999924475E+02 0.  0.
         12    1    1    2    0    0 -0.35734603042E+02  0.13136020688E+02 -0.14270627321E+02  0.40659164997E+02  0.00000000000E+00 0. -1.
         11    1    3    3    0    0  0.96497279838E+01  0.12804526279E+01  0.12307094636E+02  0.15691443137E+02  0.51100000000E-03 0. -1.
        -11    1    3    3    0    0  0.85045237842E+01 -0.14787277296E+02  0.25242264541E+01  0.17244193634E+02  0.51100000000E-03 0.  1.
         12    1    3    3    0    0  0.17580351274E+02  0.37080398021E+00 -0.56069376836E+00  0.17593198232E+02  0.00000000000E+00 0. -1.
</event>
<event>
 7    1  0.5902966E-013  0.5052886E+02  0.7816164E-02  0.1300439E+00
        -11   -1    0    0    0    0  0.00000000000E+00  0.00000000000E+00  0.45593999997E+02  0.45594000000E+02  0.51100000000E-03 0.  1.
         11   -1    0    0    0    0 -0.00000000000E+00 -0.00000000000E+00 -0.45593999997E+02  0.45594000000E+02  0.51100000000E-03 0. -1.
    9900012    2    1    2    0    0  0.20520406570E+02  0.26317900130E+02  0.23225998721E+02  0.50528856260E+02  0.29999989089E+02 0.  0.
         12    1    1    2    0    0 -0.20520406570E+02 -0.26317900130E+02 -0.23225998721E+02  0.40659143740E+02  0.00000000000E+00 0. -1.
         11    1    3    3    0    0  0.77800184055E+01  0.13719666953E+01  0.12963911873E+02  0.15181369843E+02  0.51100000000E-03 0. -1.
        -11    1    3    3    0    0  0.75384788742E+01  0.52877217322E+01 -0.44712112806E+01  0.10236229551E+02  0.51100000000E-03 0.  1.
        -12    1    3    3    0    0  0.52019092904E+01  0.19658211703E+02  0.14733298128E+02  0.25111256865E+02  0.00000000000E+00 0.  1.
</event>
<event>
 7    1  0.5902966E-013  0.5052885E+02  0.7816164E-02  0.1300439E+00
        -11   -1    0    0    0    0  0.00000000000E+00  0.00000000000E+00  0.45593999997E+02  0.45594000000E+02  0.51100000000E-03 0. -1.
         11   -1    0    0    0    0 -0.00000000000E+00 -0.00000000000E+00 -0.45593999997E+02  0.45594000000E+02  0.51100000000E-03 0.  1.
    9900012    2    1    2    0    0  0.18292015126E+02 -0.10990186500E+02 -0.34609018055E+02  0.50528854074E+02  0.29999982443E+02 0.  0.
         12    1    1    2    0    0 -0.18292015126E+02  0.10990186500E+02  0.34609018055E+02  0.40659145926E+02  0.00000000000E+00 0. -1.
         11    1    3    3    0    0 -0.41135908095E+01 -0.39054649870E+01 -0.19243948013E+02  0.20062497888E+02  0.51100000000E-03 0. -1.
        -11    1    3    3    0    0  0.30470867495E+01  0.16681020023E+01  0.10380622241E+01  0.36255862135E+01  0.51100000000E-03 0.  1.
        -12    1    3    3    0    0  0.19358519186E+02 -0.87528235156E+01 -0.16403132266E+02  0.26840769973E+02  0.00000000000E+00 0.  1.
</event>
<event>
 7    1  0.5902966E-013  0.5052887E+02  0.7816164E-02  0.1300439E+00
        -11   -1    0    0    0    0  0.00000000000E+00  0.00000000000E+00  0.45593999997E+02  0.45594000000E+02  0.51100000000E-03 0. -1.
         11   -1    0    0    0    0 -0.00000000000E+00 -0.00000000000E+00 -0.45593999997E+02  0.45594000000E+02  0.51100000000E-03 0.  1.
    9900012    2    1    2    0    0 -0.18229144125E+02  0.35369376790E+02 -0.83588651061E+01  0.50528866513E+02  0.30000020252E+02 0.  0.
         12    1    1    2    0    0  0.18229144125E+02 -0.35369376790E+02  0.83588651061E+01  0.40659133487E+02  0.00000000000E+00 0. -1.
         11    1    3    3    0    0 -0.96824551395E+01  0.21534241816E+02 -0.18845620595E+02  0.30209781926E+02  0.51100000000E-03 0.  1.
        -11    1    3    3    0    0 -0.25020183676E+01  0.57189746511E+01  0.75202017041E+01  0.97734436563E+01  0.51100000000E-03 0. -1.
        -12    1    3    3    0    0 -0.60446706183E+01  0.81161603228E+01  0.29665537851E+01  0.10545640930E+02  0.00000000000E+00 0.  1.
</event>
<event>
 7    1  0.5902966E-013  0.5052886E+02  0.7816164E-02  0.1300439E+00
        -11   -1    0    0    0    0  0.00000000000E+00  0.00000000000E+00  0.45593999997E+02  0.45594000000E+02  0.51100000000E-03 0.  1.
         11   -1    0    0    0    0 -0.00000000000E+00 -0.00000000000E+00 -0.45593999997E+02  0.45594000000E+02  0.51100000000E-03 0. -1.
    9900012    2    1    2    0    0 -0.62714484455E+01 -0.33437564030E+02  0.22265757468E+02  0.50528859460E+02  0.29999998815E+02 0.  0.
         12    1    1    2    0    0  0.62714484455E+01  0.33437564030E+02 -0.22265757468E+02  0.40659140540E+02  0.00000000000E+00 0. -1.
         11    1    3    3    0    0  0.22068591651E+01 -0.49929274068E+01  0.29572422301E+01  0.62084485448E+01  0.51100000000E-03 0. -1.
        -11    1    3    3    0    0 -0.43342472173E+01 -0.44965671926E+01  0.19015310678E+02  0.20014666021E+02  0.51100000000E-03 0.  1.
         12    1    3    3    0    0 -0.41440603933E+01 -0.23948069430E+02  0.29320455903E+00  0.24305744895E+02  0.00000000000E+00 0. -1.
</event>
<event>
 7    1  0.5902966E-013  0.5052884E+02  0.7816164E-02  0.1300439E+00
        -11   -1    0    0    0    0  0.00000000000E+00  0.00000000000E+00  0.45593999997E+02  0.45594000000E+02  0.51100000000E-03 0.  1.
         11   -1    0    0    0    0 -0.00000000000E+00 -0.00000000000E+00 -0.45593999997E+02  0.45594000000E+02  0.51100000000E-03 0. -1.
    9900012    2    1    2    0    0  0.39945365892E+02 -0.75554149646E+01 -0.67138320784E+00  0.50528839815E+02  0.29999939103E+02 0.  0.
         12    1    1    2    0    0 -0.39945365892E+02  0.75554149646E+01  0.67138320784E+00  0.40659160185E+02  0.00000000000E+00 0. -1.
         11    1    3    3    0    0  0.20706108158E+01 -0.23454138040E+01  0.46038185857E+01  0.55662860952E+01  0.51100000000E-03 0. -1.
        -11    1    3    3    0    0  0.31671381784E+02 -0.11752946910E+02  0.12947213406E+01  0.33806574638E+02  0.51100000000E-03 0.  1.
         12    1    3    3    0    0  0.62033732920E+01  0.65429457497E+01 -0.65699231342E+01  0.11155979082E+02  0.00000000000E+00 0. -1.
</event>
<event>
 7    1  0.5902966E-013  0.5052886E+02  0.7816164E-02  0.1300439E+00
        -11   -1    0    0    0    0  0.00000000000E+00  0.00000000000E+00  0.45593999997E+02  0.45594000000E+02  0.51100000000E-03 0.  1.
         11   -1    0    0    0    0 -0.00000000000E+00 -0.00000000000E+00 -0.45593999997E+02  0.45594000000E+02  0.51100000000E-03 0. -1.
    9900012    2    1    2    0    0 -0.55894544598E+01 -0.89315422325E+01  0.39270229892E+02  0.50528863222E+02  0.30000010249E+02 0.  0.
         12    1    1    2    0    0  0.55894544598E+01  0.89315422325E+01 -0.39270229892E+02  0.40659136778E+02  0.00000000000E+00 0. -1.
         11    1    3    3    0    0  0.16352430110E+00 -0.78414447859E+01  0.62111634170E+01  0.10004676296E+02  0.51100000000E-03 0.  1.
        -11    1    3    3    0    0 -0.52050480732E+01 -0.14206760303E+01 -0.17782947683E+01  0.56809487210E+01  0.51100000000E-03 0. -1.
        -12    1    3    3    0    0 -0.54793068773E+00  0.33057858373E+00  0.34837361243E+02  0.34843238205E+02  0.00000000000E+00 0.  1.
</event>
<event>
 7    1  0.5902966E-013  0.5052884E+02  0.7816164E-02  0.1300439E+00
        -11   -1    0    0    0    0  0.00000000000E+00  0.00000000000E+00  0.45593999997E+02  0.45594000000E+02  0.51100000000E-03 0.  1.
         11   -1    0    0    0    0 -0.00000000000E+00 -0.00000000000E+00 -0.45593999997E+02  0.45594000000E+02  0.51100000000E-03 0. -1.
    9900012    2    1    2    0    0  0.21845198609E+02 -0.22218883320E+02  0.26120404295E+02  0.50528843605E+02  0.29999950621E+02 0.  0.
         12    1    1    2    0    0 -0.21845198609E+02  0.22218883320E+02 -0.26120404295E+02  0.40659156395E+02  0.00000000000E+00 0. -1.
         11    1    3    3    0    0  0.11389185767E+02 -0.91191761936E+01  0.14350671179E+02  0.20464962507E+02  0.51100000000E-03 0.  1.
        -11    1    3    3    0    0  0.74836940842E-01 -0.12305167248E+02  0.14774136139E+02  0.19227528195E+02  0.51100000000E-03 0. -1.
        -12    1    3    3    0    0  0.10381175901E+02 -0.79453987863E+00 -0.30044030230E+01  0.10836352903E+02  0.00000000000E+00 0.  1.
</event>
<event>
 7    1  0.5902966E-013  0.5052886E+02  0.7816164E-02  0.1300439E+00
        -11   -1    0    0    0    0  0.00000000000E+00  0.00000000000E+00  0.45593999997E+02  0.45594000000E+02  0.51100000000E-03 0.  1.
         11   -1    0    0    0    0 -0.00000000000E+00 -0.00000000000E+00 -0.45593999997E+02  0.45594000000E+02  0.51100000000E-03 0. -1.
    9900012    2    1    2    0    0  0.32244012490E+02 -0.11852982905E+02  0.21748469579E+02  0.50528862352E+02  0.30000007605E+02 0.  0.
         12    1    1    2    0    0 -0.32244012490E+02  0.11852982905E+02 -0.21748469579E+02  0.40659137648E+02  0.00000000000E+00 0. -1.
         11    1    3    3    0    0 -0.12139579441E+01  0.24804872619E+01  0.48890710109E+01  0.56151158988E+01  0.51100000000E-03 0. -1.
        -11    1    3    3    0    0  0.43251310542E+01  0.50336360405E+01  0.30486741318E+01  0.73033324344E+01  0.51100000000E-03 0.  1.
         12    1    3    3    0    0  0.29132839380E+02 -0.19367106207E+02  0.13810724437E+02  0.37610414019E+02  0.00000000000E+00 0. -1.
</event>
<event>
 7    1  0.5902966E-013  0.5052886E+02  0.7816164E-02  0.1300439E+00
        -11   -1    0    0    0    0  0.00000000000E+00  0.00000000000E+00  0.45593999997E+02  0.45594000000E+02  0.51100000000E-03 0.  1.
         11   -1    0    0    0    0 -0.00000000000E+00 -0.00000000000E+00 -0.45593999997E+02  0.45594000000E+02  0.51100000000E-03 0. -1.
    9900012    2    1    2    0    0 -0.13245177529E+02  0.30814964799E+02  0.22981926923E+02  0.50528858980E+02  0.29999997357E+02 0.  0.
         12    1    1    2    0    0  0.13245177529E+02 -0.30814964799E+02 -0.22981926923E+02  0.40659141020E+02  0.00000000000E+00 0. -1.
         11    1    3    3    0    0 -0.55076530127E+01  0.30242050296E+01  0.15831640320E+02  0.17032935545E+02  0.51100000000E-03 0.  1.
        -11    1    3    3    0    0 -0.50054728400E+01  0.18590304048E+02  0.12057671108E+02  0.22716548940E+02  0.51100000000E-03 0. -1.
         12    1    3    3    0    0 -0.27320516760E+01  0.92004557217E+01 -0.49073845047E+01  0.10779374496E+02  0.00000000000E+00 0. -1.
</event>
<event>
 7    1  0.5902966E-013  0.5052886E+02  0.7816164E-02  0.1300439E+00
        -11   -1    0    0    0    0  0.00000000000E+00  0.00000000000E+00  0.45593999997E+02  0.45594000000E+02  0.51100000000E-03 0.  1.
         11   -1    0    0    0    0 -0.00000000000E+00 -0.00000000000E+00 -0.45593999997E+02  0.45594000000E+02  0.51100000000E-03 0. -1.
    9900012    2    1    2    0    0 -0.38495071989E+02 -0.10952967799E+02  0.71643483179E+01  0.50528856405E+02  0.29999989529E+02 0.  0.
         12    1    1    2    0    0  0.38495071989E+02  0.10952967799E+02 -0.71643483179E+01  0.40659143595E+02  0.00000000000E+00 0. -1.
         11    1    3    3    0    0 -0.11568786127E+01 -0.79872547639E+01 -0.42818292167E+01  0.91361188964E+01  0.51100000000E-03 0. -1.
        -11    1    3    3    0    0 -0.14371701072E+02 -0.61575287969E+01  0.23410474137E+00  0.15636999645E+02  0.51100000000E-03 0.  1.
         12    1    3    3    0    0 -0.22966492304E+02  0.31918157619E+01  0.11212072793E+02  0.25755737864E+02  0.00000000000E+00 0. -1.
</event>
<event>
 7    1  0.5902966E-013  0.5052886E+02  0.7816164E-02  0.1300439E+00
        -11   -1    0    0    0    0  0.00000000000E+00  0.00000000000E+00  0.45593999997E+02  0.45594000000E+02  0.51100000000E-03 0. -1.
         11   -1    0    0    0    0 -0.00000000000E+00 -0.00000000000E+00 -0.45593999997E+02  0.45594000000E+02  0.51100000000E-03 0.  1.
    9900012    2    1    2    0    0  0.13822689955E+02  0.21992844804E+02 -0.31279610136E+02  0.50528856005E+02  0.29999988313E+02 0.  0.
         12    1    1    2    0    0 -0.13822689955E+02 -0.21992844804E+02  0.31279610136E+02  0.40659143995E+02  0.00000000000E+00 0. -1.
         11    1    3    3    0    0  0.79552516290E+01  0.35786480131E+01  0.23422291366E+01  0.90320976341E+01  0.51100000000E-03 0. -1.
        -11    1    3    3    0    0  0.45198184857E+01 -0.11030558617E+01 -0.80755374065E+01  0.93198603017E+01  0.51100000000E-03 0.  1.
         12    1    3    3    0    0  0.13476198402E+01  0.19517252652E+02 -0.25546301866E+02  0.32176898069E+02  0.00000000000E+00 0. -1.
</event>
<event>
 7    1  0.5902966E-013  0.5052888E+02  0.7816164E-02  0.1300439E+00
        -11   -1    0    0    0    0  0.00000000000E+00  0.00000000000E+00  0.45593999997E+02  0.45594000000E+02  0.51100000000E-03 0.  1.
         11   -1    0    0    0    0 -0.00000000000E+00 -0.00000000000E+00 -0.45593999997E+02  0.45594000000E+02  0.51100000000E-03 0. -1.
    9900012    2    1    2    0    0 -0.21970431180E+02 -0.21639242139E+02  0.26499202952E+02  0.50528875518E+02  0.30000047624E+02 0.  0.
         12    1    1    2    0    0  0.21970431180E+02  0.21639242139E+02 -0.26499202952E+02  0.40659124482E+02  0.00000000000E+00 0. -1.
         11    1    3    3    0    0 -0.61240982966E+01  0.47899564705E+00  0.50169811116E+01  0.79312115412E+01  0.51100000000E-03 0. -1.
        -11    1    3    3    0    0 -0.15746285020E+02 -0.11298929666E+01  0.87609609911E+01  0.18054821732E+02  0.51100000000E-03 0.  1.
        -12    1    3    3    0    0 -0.10004786337E+00 -0.20988344819E+02  0.12721260849E+02  0.24542842244E+02  0.00000000000E+00 0.  1.
</event>
<event>
 7    1  0.5902966E-013  0.5052885E+02  0.7816164E-02  0.1300439E+00
        -11   -1    0    0    0    0  0.00000000000E+00  0.00000000000E+00  0.45593999997E+02  0.45594000000E+02  0.51100000000E-03 0. -1.
         11   -1    0    0    0    0 -0.00000000000E+00 -0.00000000000E+00 -0.45593999997E+02  0.45594000000E+02  0.51100000000E-03 0.  1.
    9900012    2    1    2    0    0 -0.27626492448E+02  0.37250673022E+01 -0.29598430804E+02  0.50528851983E+02  0.29999976088E+02 0.  0.
         12    1    1    2    0    0  0.27626492448E+02 -0.37250673022E+01  0.29598430804E+02  0.40659148017E+02  0.00000000000E+00 0. -1.
         11    1    3    3    0    0 -0.13758853658E+02  0.91880647735E+01 -0.40329136260E+01  0.17029121552E+02  0.51100000000E-03 0. -1.
        -11    1    3    3    0    0 -0.13974539765E+02  0.14186219697E+01 -0.12832041407E+02  0.19025286775E+02  0.51100000000E-03 0.  1.
         12    1    3    3    0    0  0.10690097472E+00 -0.68816194410E+01 -0.12733475771E+02  0.14474443656E+02  0.00000000000E+00 0. -1.
</event>
<event>
 7    1  0.5902966E-013  0.5052886E+02  0.7816164E-02  0.1300439E+00
        -11   -1    0    0    0    0  0.00000000000E+00  0.00000000000E+00  0.45593999997E+02  0.45594000000E+02  0.51100000000E-03 0. -1.
         11   -1    0    0    0    0 -0.00000000000E+00 -0.00000000000E+00 -0.45593999997E+02  0.45594000000E+02  0.51100000000E-03 0.  1.
    9900012    2    1    2    0    0 -0.40176297288E+02  0.56422646293E+00 -0.62219179790E+01  0.50528862298E+02  0.30000007442E+02 0.  0.
         12    1    1    2    0    0  0.40176297288E+02 -0.56422646293E+00  0.62219179790E+01  0.40659137702E+02  0.00000000000E+00 0. -1.
         11    1    3    3    0    0 -0.78851977755E+01 -0.31659235203E+00  0.27437096679E+01  0.83549097948E+01  0.51100000000E-03 0. -1.
        -11    1    3    3    0    0 -0.25636310846E+02 -0.10570369027E+02 -0.81569231296E+01  0.28904818462E+02  0.51100000000E-03 0.  1.
        -12    1    3    3    0    0 -0.66547886673E+01  0.11451187842E+02 -0.80870451732E+00  0.13269134041E+02  0.00000000000E+00 0.  1.
</event>
<event>
 7    1  0.5902966E-013  0.5052886E+02  0.7816164E-02  0.1300439E+00
        -11   -1    0    0    0    0  0.00000000000E+00  0.00000000000E+00  0.45593999997E+02  0.45594000000E+02  0.51100000000E-03 0.  1.
         11   -1    0    0    0    0 -0.00000000000E+00 -0.00000000000E+00 -0.45593999997E+02  0.45594000000E+02  0.51100000000E-03 0. -1.
    9900012    2    1    2    0    0 -0.20429721145E+02  0.19078469345E+02  0.29526331117E+02  0.50528859234E+02  0.29999998126E+02 0.  0.
         12    1    1    2    0    0  0.20429721145E+02 -0.19078469345E+02 -0.29526331117E+02  0.40659140766E+02  0.00000000000E+00 0. -1.
         11    1    3    3    0    0 -0.79068059375E+01  0.12539500339E+02  0.14810737291E+02  0.20955061160E+02  0.51100000000E-03 0. -1.
        -11    1    3    3    0    0  0.34725019017E+01  0.42035527247E+01  0.12002255130E+02  0.13182649712E+02  0.51100000000E-03 0.  1.
         12    1    3    3    0    0 -0.15995417109E+02  0.23354162814E+01  0.27133386968E+01  0.16391148361E+02  0.00000000000E+00 0. -1.
</event>
<event>
 7    1  0.5902966E-013  0.5052886E+02  0.7816164E-02  0.1300439E+00
        -11   -1    0    0    0    0  0.00000000000E+00  0.00000000000E+00  0.45593999997E+02  0.45594000000E+02  0.51100000000E-03 0. -1.
         11   -1    0    0    0    0 -0.00000000000E+00 -0.00000000000E+00 -0.45593999997E+02  0.45594000000E+02  0.51100000000E-03 0.  1.
    9900012    2    1    2    0    0  0.23232806812E+02 -0.32841468831E+02  0.59025744025E+01  0.50528858692E+02  0.29999996480E+02 0.  0.
         12    1    1    2    0    0 -0.23232806812E+02  0.32841468831E+02 -0.59025744025E+01  0.40659141308E+02  0.00000000000E+00 0. -1.
         11    1    3    3    0    0  0.56538424096E+01 -0.14462057950E+02 -0.44378187754E+01  0.16149652934E+02  0.51100000000E-03 0. -1.
        -11    1    3    3    0    0  0.14217931057E+02 -0.21948886615E+02  0.12543444498E+02  0.29004158104E+02  0.51100000000E-03 0.  1.
        -12    1    3    3    0    0  0.33610333454E+01  0.35694757344E+01 -0.22030513198E+01  0.53750476542E+01  0.00000000000E+00 0.  1.
</event>
<event>
 7    1  0.5902966E-013  0.5052886E+02  0.7816164E-02  0.1300439E+00
        -11   -1    0    0    0    0  0.00000000000E+00  0.00000000000E+00  0.45593999997E+02  0.45594000000E+02  0.51100000000E-03 0.  1.
         11   -1    0    0    0    0 -0.00000000000E+00 -0.00000000000E+00 -0.45593999997E+02  0.45594000000E+02  0.51100000000E-03 0. -1.
    9900012    2    1    2    0    0 -0.38515566454E+01 -0.27006265097E+02  0.30149505062E+02  0.50528862053E+02  0.30000006696E+02 0.  0.
         12    1    1    2    0    0  0.38515566454E+01  0.27006265097E+02 -0.30149505062E+02  0.40659137947E+02  0.00000000000E+00 0. -1.
         11    1    3    3    0    0  0.66859059917E+00 -0.65092384597E+01  0.23961451131E+02  0.24838847382E+02  0.51100000000E-03 0. -1.
        -11    1    3    3    0    0 -0.72270450905E+01 -0.89859620281E+01  0.75552191442E+01  0.13786189861E+02  0.51100000000E-03 0.  1.
        -12    1    3    3    0    0  0.27068978459E+01 -0.11511064609E+02 -0.13671652124E+01  0.11903824810E+02  0.00000000000E+00 0.  1.
</event>
<event>
 7    1  0.5902966E-013  0.5052887E+02  0.7816164E-02  0.1300439E+00
        -11   -1    0    0    0    0  0.00000000000E+00  0.00000000000E+00  0.45593999997E+02  0.45594000000E+02  0.51100000000E-03 0.  1.
         11   -1    0    0    0    0 -0.00000000000E+00 -0.00000000000E+00 -0.45593999997E+02  0.45594000000E+02  0.51100000000E-03 0. -1.
    9900012    2    1    2    0    0 -0.62863372676E+01  0.10368948911E+02  0.38808917628E+02  0.50528865414E+02  0.30000016914E+02 0.  0.
         12    1    1    2    0    0  0.62863372676E+01 -0.10368948911E+02 -0.38808917628E+02  0.40659134586E+02  0.00000000000E+00 0. -1.
         11    1    3    3    0    0 -0.10074643130E+02  0.37731518452E+01  0.18744744261E+02  0.21612509033E+02  0.51100000000E-03 0.  1.
        -11    1    3    3    0    0  0.63462435048E+01  0.71464151563E+01  0.23046042227E+02  0.24949270907E+02  0.51100000000E-03 0. -1.
         12    1    3    3    0    0 -0.25579376426E+01 -0.55061808998E+00 -0.29818688595E+01  0.39670854742E+01  0.00000000000E+00 0. -1.
</event>
<event>
 7    1  0.5902966E-013  0.5052886E+02  0.7816164E-02  0.1300439E+00
        -11   -1    0    0    0    0  0.00000000000E+00  0.00000000000E+00  0.45593999997E+02  0.45594000000E+02  0.51100000000E-03 0.  1.
         11   -1    0    0    0    0 -0.00000000000E+00 -0.00000000000E+00 -0.45593999997E+02  0.45594000000E+02  0.51100000000E-03 0. -1.
    9900012    2    1    2    0    0 -0.26454858389E+02 -0.89446128026E+01  0.29551651209E+02  0.50528859334E+02  0.29999998431E+02 0.  0.
         12    1    1    2    0    0  0.26454858389E+02  0.89446128026E+01 -0.29551651209E+02  0.40659140666E+02  0.00000000000E+00 0. -1.
         11    1    3    3    0    0 -0.93847664204E+01 -0.18240816255E+01  0.15264361001E+01  0.96814834593E+01  0.51100000000E-03 0. -1.
        -11    1    3    3    0    0 -0.16375747958E+02  0.23276135605E+01  0.26519460261E+02  0.31254834488E+02  0.51100000000E-03 0.  1.
         12    1    3    3    0    0 -0.69434401045E+00 -0.94481447375E+01  0.15057548472E+01  0.95925413862E+01  0.00000000000E+00 0. -1.
</event>
<event>
 7    1  0.5902966E-013  0.5052888E+02  0.7816164E-02  0.1300439E+00
        -11   -1    0    0    0    0  0.00000000000E+00  0.00000000000E+00  0.45593999997E+02  0.45594000000E+02  0.51100000000E-03 0. -1.
         11   -1    0    0    0    0 -0.00000000000E+00 -0.00000000000E+00 -0.45593999997E+02  0.45594000000E+02  0.51100000000E-03 0.  1.
    9900012    2    1    2    0    0 -0.27096323716E+02  0.21009889154E+02 -0.21852636485E+02  0.50528881434E+02  0.30000065608E+02 0.  0.
         12    1    1    2    0    0  0.27096323716E+02 -0.21009889154E+02  0.21852636485E+02  0.40659118566E+02  0.00000000000E+00 0. -1.
         11    1    3    3    0    0 -0.32815908372E+01  0.96613495173E+01 -0.11939866696E+02  0.15705761042E+02  0.51100000000E-03 0. -1.
        -11    1    3    3    0    0 -0.14564864939E+02  0.17030310655E+02 -0.52944687049E+01  0.23026032459E+02  0.51100000000E-03 0.  1.
         12    1    3    3    0    0 -0.92498679400E+01 -0.56817710177E+01 -0.46183010838E+01  0.11797087933E+02  0.00000000000E+00 0. -1.
</event>
<event>
 7    1  0.5902966E-013  0.5052886E+02  0.7816164E-02  0.1300439E+00
        -11   -1    0    0    0    0  0.00000000000E+00  0.00000000000E+00  0.45593999997E+02  0.45594000000E+02  0.51100000000E-03 0. -1.
         11   -1    0    0    0    0 -0.00000000000E+00 -0.00000000000E+00 -0.45593999997E+02  0.45594000000E+02  0.51100000000E-03 0.  1.
    9900012    2    1    2    0    0  0.23714519358E+02 -0.20337875462E+02  0.26022264063E+02  0.50528857933E+02  0.29999994172E+02 0.  0.
         12    1    1    2    0    0 -0.23714519358E+02  0.20337875462E+02 -0.26022264063E+02  0.40659142067E+02  0.00000000000E+00 0. -1.
         11    1    3    3    0    0 -0.34278504360E+01 -0.27934475965E+00 -0.30833001356E+00  0.34530073508E+01  0.51100000000E-03 0. -1.
        -11    1    3    3    0    0  0.10586189870E+02 -0.16056306499E+01 -0.27396771771E+00  0.10710766747E+02  0.51100000000E-03 0.  1.
         12    1    3    3    0    0  0.16556179924E+02 -0.18452900053E+02  0.26604561794E+02  0.36365083835E+02  0.00000000000E+00 0. -1.
</event>
<event>
 7    1  0.5902966E-013  0.5052886E+02  0.7816164E-02  0.1300439E+00
        -11   -1    0    0    0    0  0.00000000000E+00  0.00000000000E+00  0.45593999997E+02  0.45594000000E+02  0.51100000000E-03 0.  1.
         11   -1    0    0    0    0 -0.00000000000E+00 -0.00000000000E+00 -0.45593999997E+02  0.45594000000E+02  0.51100000000E-03 0. -1.
    9900012    2    1    2    0    0  0.36074884045E+02 -0.12979044151E+02 -0.13539294238E+02  0.50528864072E+02  0.30000012833E+02 0.  0.
         12    1    1    2    0    0 -0.36074884045E+02  0.12979044151E+02  0.13539294238E+02  0.40659135928E+02  0.00000000000E+00 0. -1.
         11    1    3    3    0    0  0.25013975235E+02 -0.12265436420E+02 -0.15593325066E+02  0.31926347654E+02  0.51100000000E-03 0. -1.
        -11    1    3    3    0    0  0.13761336365E+02 -0.37426989429E+01  0.54062994798E+00  0.14271455950E+02  0.51100000000E-03 0.  1.
         12    1    3    3    0    0 -0.27004275552E+01  0.30290912117E+01  0.15134008807E+01  0.43310604677E+01  0.00000000000E+00 0. -1.
</event>
<event>
 7    1  0.5902966E-013  0.5052885E+02  0.7816164E-02  0.1300439E+00
        -11   -1    0    0    0    0  0.00000000000E+00  0.00000000000E+00  0.45593999997E+02  0.45594000000E+02  0.51100000000E-03 0. -1.
         11   -1    0    0    0    0 -0.00000000000E+00 -0.00000000000E+00 -0.45593999997E+02  0.45594000000E+02  0.51100000000E-03 0.  1.
    9900012    2    1    2    0    0 -0.10537890734E+02  0.37391267936E+02  0.12000508853E+02  0.50528852546E+02  0.29999977798E+02 0.  0.
         12    1    1    2    0    0  0.10537890734E+02 -0.37391267936E+02 -0.12000508853E+02  0.40659147454E+02  0.00000000000E+00 0. -1.
         11    1    3    3    0    0  0.67412391978E+01  0.18129569666E+02  0.84855613845E+01  0.21121798088E+02  0.51100000000E-03 0. -1.
        -11    1    3    3    0    0 -0.99284440181E+01  0.19278963087E+02  0.12754957552E+01  0.21722783155E+02  0.51100000000E-03 0.  1.
        -12    1    3    3    0    0 -0.73506859139E+01 -0.17264817175E-01  0.22394517134E+01  0.76842713028E+01  0.00000000000E+00 0.  1.
</event>
<event>
 7    1  0.5902966E-013  0.5052886E+02  0.7816164E-02  0.1300439E+00
        -11   -1    0    0    0    0  0.00000000000E+00  0.00000000000E+00  0.45593999997E+02  0.45594000000E+02  0.51100000000E-03 0.  1.
         11   -1    0    0    0    0 -0.00000000000E+00 -0.00000000000E+00 -0.45593999997E+02  0.45594000000E+02  0.51100000000E-03 0. -1.
    9900012    2    1    2    0    0 -0.34620334586E+02  0.14508173138E+02  0.15624044159E+02  0.50528863136E+02  0.30000009989E+02 0.  0.
         12    1    1    2    0    0  0.34620334586E+02 -0.14508173138E+02 -0.15624044159E+02  0.40659136864E+02  0.00000000000E+00 0. -1.
         11    1    3    3    0    0 -0.12198190490E+02  0.16375421580E+02  0.35476995652E+01  0.20725261292E+02  0.51100000000E-03 0. -1.
        -11    1    3    3    0    0 -0.58108437592E+01 -0.23658054581E+01  0.11588255515E+02  0.13177655588E+02  0.51100000000E-03 0.  1.
         12    1    3    3    0    0 -0.16611300337E+02  0.49855701590E+00  0.48808907926E+00  0.16625946256E+02  0.00000000000E+00 0. -1.
</event>
<event>
 7    1  0.5902966E-013  0.5052884E+02  0.7816164E-02  0.1300439E+00
        -11   -1    0    0    0    0  0.00000000000E+00  0.00000000000E+00  0.45593999997E+02  0.45594000000E+02  0.51100000000E-03 0.  1.
         11   -1    0    0    0    0 -0.00000000000E+00 -0.00000000000E+00 -0.45593999997E+02  0.45594000000E+02  0.51100000000E-03 0. -1.
    9900012    2    1    2    0    0 -0.26458594103E+02 -0.14187073000E+02  0.27419647781E+02  0.50528839573E+02  0.29999938366E+02 0.  0.
         12    1    1    2    0    0  0.26458594103E+02  0.14187073000E+02 -0.27419647781E+02  0.40659160427E+02  0.00000000000E+00 0. -1.
         11    1    3    3    0    0 -0.61905101453E+01 -0.15875277388E+01  0.17938322647E+02  0.19042743495E+02  0.51100000000E-03 0. -1.
        -11    1    3    3    0    0 -0.17409698315E+02 -0.16273067735E+01  0.99864413581E+01  0.20136403204E+02  0.51100000000E-03 0.  1.
         12    1    3    3    0    0 -0.28583856424E+01 -0.10972238488E+02 -0.50511622413E+00  0.11349692873E+02  0.00000000000E+00 0. -1.
</event>
<event>
 7    1  0.5902966E-013  0.5052890E+02  0.7816164E-02  0.1300439E+00
        -11   -1    0    0    0    0  0.00000000000E+00  0.00000000000E+00  0.45593999997E+02  0.45594000000E+02  0.51100000000E-03 0.  1.
         11   -1    0    0    0    0 -0.00000000000E+00 -0.00000000000E+00 -0.45593999997E+02  0.45594000000E+02  0.51100000000E-03 0. -1.
    9900012    2    1    2    0    0 -0.28304324443E+02 -0.49415645871E+01  0.28768181112E+02  0.50528904003E+02  0.30000134209E+02 0.  0.
         12    1    1    2    0    0  0.28304324443E+02  0.49415645871E+01 -0.28768181112E+02  0.40659095997E+02  0.00000000000E+00 0. -1.
         11    1    3    3    0    0 -0.17834843291E+00  0.41940020961E+01  0.11778817711E+02  0.12504479545E+02  0.51100000000E-03 0. -1.
        -11    1    3    3    0    0 -0.25778145307E+02 -0.13350325441E+02  0.15817375273E+02  0.33059542127E+02  0.51100000000E-03 0.  1.
         12    1    3    3    0    0 -0.23478307030E+01  0.42147587577E+01  0.11719881274E+01  0.49648823315E+01  0.00000000000E+00 0. -1.
</event>
<event>
 7    1  0.5902966E-013  0.5052886E+02  0.7816164E-02  0.1300439E+00
        -11   -1    0    0    0    0  0.00000000000E+00  0.00000000000E+00  0.45593999997E+02  0.45594000000E+02  0.51100000000E-03 0.  1.
         11   -1    0    0    0    0 -0.00000000000E+00 -0.00000000000E+00 -0.45593999997E+02  0.45594000000E+02  0.51100000000E-03 0. -1.
    9900012    2    1    2    0    0  0.37432527155E+02 -0.15402492961E+02 -0.38385942240E+01  0.50528859771E+02  0.29999999758E+02 0.  0.
         12    1    1    2    0    0 -0.37432527155E+02  0.15402492961E+02  0.38385942240E+01  0.40659140229E+02  0.00000000000E+00 0. -1.
         11    1    3    3    0    0  0.82426066244E+00 -0.11492256810E+01 -0.44156271736E+01  0.46365815967E+01  0.51100000000E-03 0. -1.
        -11    1    3    3    0    0  0.26185699173E+01 -0.51620836627E+00  0.80471938878E+01  0.84782491836E+01  0.51100000000E-03 0.  1.
         12    1    3    3    0    0  0.33989696575E+02 -0.13737058914E+02 -0.74701609383E+01  0.37414028990E+02  0.00000000000E+00 0. -1.
</event>
<event>
 7    1  0.5902966E-013  0.5052888E+02  0.7816164E-02  0.1300439E+00
        -11   -1    0    0    0    0  0.00000000000E+00  0.00000000000E+00  0.45593999997E+02  0.45594000000E+02  0.51100000000E-03 0.  1.
         11   -1    0    0    0    0 -0.00000000000E+00 -0.00000000000E+00 -0.45593999997E+02  0.45594000000E+02  0.51100000000E-03 0. -1.
    9900012    2    1    2    0    0  0.28219653037E+02 -0.28151170712E+02  0.80204229536E+01  0.50528875387E+02  0.30000047225E+02 0.  0.
         12    1    1    2    0    0 -0.28219653037E+02  0.28151170712E+02 -0.80204229536E+01  0.40659124613E+02  0.00000000000E+00 0. -1.
         11    1    3    3    0    0  0.20916990529E+02 -0.23983520851E+02 -0.12428324776E+01  0.31847674923E+02  0.51100000000E-03 0.  1.
        -11    1    3    3    0    0 -0.33751458106E+01 -0.32254471559E+01  0.24845367351E+00  0.46751308096E+01  0.51100000000E-03 0. -1.
        -12    1    3    3    0    0  0.10677808318E+02 -0.94220270545E+00  0.90148017577E+01  0.14006069654E+02  0.00000000000E+00 0.  1.
</event>
<event>
 7    1  0.5902966E-013  0.5052885E+02  0.7816164E-02  0.1300439E+00
        -11   -1    0    0    0    0  0.00000000000E+00  0.00000000000E+00  0.45593999997E+02  0.45594000000E+02  0.51100000000E-03 0. -1.
         11   -1    0    0    0    0 -0.00000000000E+00 -0.00000000000E+00 -0.45593999997E+02  0.45594000000E+02  0.51100000000E-03 0.  1.
    9900012    2    1    2    0    0  0.34991135381E+02 -0.96034934891E+01 -0.18345559471E+02  0.50528853493E+02  0.29999980676E+02 0.  0.
         12    1    1    2    0    0 -0.34991135381E+02  0.96034934891E+01  0.18345559471E+02  0.40659146507E+02  0.00000000000E+00 0. -1.
         11    1    3    3    0    0  0.20346884472E+02 -0.55785773749E+01 -0.28007297335E+01  0.21282864481E+02  0.51100000000E-03 0. -1.
        -11    1    3    3    0    0  0.18336472095E+02 -0.21156358896E+01 -0.16742585057E+02  0.24920198209E+02  0.51100000000E-03 0.  1.
         12    1    3    3    0    0 -0.36922211859E+01 -0.19092802246E+01  0.11977553200E+01  0.43257908027E+01  0.00000000000E+00 0. -1.
</event>
<event>
 7    1  0.5902966E-013  0.5052887E+02  0.7816164E-02  0.1300439E+00
        -11   -1    0    0    0    0  0.00000000000E+00  0.00000000000E+00  0.45593999997E+02  0.45594000000E+02  0.51100000000E-03 0. -1.
         11   -1    0    0    0    0 -0.00000000000E+00 -0.00000000000E+00 -0.45593999997E+02  0.45594000000E+02  0.51100000000E-03 0.  1.
    9900012    2    1    2    0    0  0.19910356943E+02 -0.32661563839E+02 -0.13782785574E+02  0.50528865181E+02  0.30000016205E+02 0.  0.
         12    1    1    2    0    0 -0.19910356943E+02  0.32661563839E+02  0.13782785574E+02  0.40659134819E+02  0.00000000000E+00 0. -1.
         11    1    3    3    0    0  0.17813680744E+02 -0.23850307586E+02 -0.17288067198E+02  0.34424434074E+02  0.51100000000E-03 0. -1.
        -11    1    3    3    0    0 -0.96262284302E+00 -0.79198059430E+01 -0.32660915698E+01  0.86207495798E+01  0.51100000000E-03 0.  1.
         12    1    3    3    0    0  0.30592990415E+01 -0.89145031001E+00  0.67713731936E+01  0.74836815277E+01  0.00000000000E+00 0. -1.
</event>
<event>
 7    1  0.5902966E-013  0.5052884E+02  0.7816164E-02  0.1300439E+00
        -11   -1    0    0    0    0  0.00000000000E+00  0.00000000000E+00  0.45593999997E+02  0.45594000000E+02  0.51100000000E-03 0. -1.
         11   -1    0    0    0    0 -0.00000000000E+00 -0.00000000000E+00 -0.45593999997E+02  0.45594000000E+02  0.51100000000E-03 0.  1.
    9900012    2    1    2    0    0  0.30063459355E+02 -0.15469841774E+02 -0.22584050647E+02  0.50528844370E+02  0.29999952948E+02 0.  0.
         12    1    1    2    0    0 -0.30063459355E+02  0.15469841774E+02  0.22584050647E+02  0.40659155630E+02  0.00000000000E+00 0. -1.
         11    1    3    3    0    0 -0.11069757368E+01  0.38805314986E-01 -0.18840545845E+00  0.11235648679E+01  0.51100000000E-03 0. -1.
        -11    1    3    3    0    0  0.24889546825E+02 -0.19230281367E+02 -0.26412897097E+02  0.41072306923E+02  0.51100000000E-03 0.  1.
         12    1    3    3    0    0  0.62808882667E+01  0.37216342782E+01  0.40172519087E+01  0.83329725799E+01  0.00000000000E+00 0. -1.
</event>
<event>
 7    1  0.5902966E-013  0.5052886E+02  0.7816164E-02  0.1300439E+00
        -11   -1    0    0    0    0  0.00000000000E+00  0.00000000000E+00  0.45593999997E+02  0.45594000000E+02  0.51100000000E-03 0.  1.
         11   -1    0    0    0    0 -0.00000000000E+00 -0.00000000000E+00 -0.45593999997E+02  0.45594000000E+02  0.51100000000E-03 0. -1.
    9900012    2    1    2    0    0  0.25150606790E+02 -0.25046268963E+02  0.19831717987E+02  0.50528860201E+02  0.30000001067E+02 0.  0.
         12    1    1    2    0    0 -0.25150606790E+02  0.25046268963E+02 -0.19831717987E+02  0.40659139799E+02  0.00000000000E+00 0. -1.
         11    1    3    3    0    0 -0.17869590216E+01 -0.73342705421E+01  0.11436997515E+02  0.13703636720E+02  0.51100000000E-03 0. -1.
        -11    1    3    3    0    0  0.22709486151E+02 -0.88567953143E+01  0.75163810605E+00  0.24387056907E+02  0.51100000000E-03 0.  1.
         12    1    3    3    0    0  0.42280796604E+01 -0.88552031072E+01  0.76430823658E+01  0.12438166574E+02  0.00000000000E+00 0. -1.
</event>
<event>
 7    1  0.5902966E-013  0.5052885E+02  0.7816164E-02  0.1300439E+00
        -11   -1    0    0    0    0  0.00000000000E+00  0.00000000000E+00  0.45593999997E+02  0.45594000000E+02  0.51100000000E-03 0. -1.
         11   -1    0    0    0    0 -0.00000000000E+00 -0.00000000000E+00 -0.45593999997E+02  0.45594000000E+02  0.51100000000E-03 0.  1.
    9900012    2    1    2    0    0  0.11817877105E+02 -0.17491915675E+01 -0.38864439801E+02  0.50528848859E+02  0.29999966593E+02 0.  0.
         12    1    1    2    0    0 -0.11817877105E+02  0.17491915675E+01  0.38864439801E+02  0.40659151141E+02  0.00000000000E+00 0. -1.
         11    1    3    3    0    0  0.13900465686E+01  0.15565295311E+01 -0.20864657252E+02  0.20968760959E+02  0.51100000000E-03 0. -1.
        -11    1    3    3    0    0  0.15413376792E+02  0.25511638735E+01 -0.10545371459E+02  0.18849018031E+02  0.51100000000E-03 0.  1.
         12    1    3    3    0    0 -0.49855462561E+01 -0.58568849721E+01 -0.74544110905E+01  0.10711069870E+02  0.00000000000E+00 0. -1.
</event>
<event>
 7    1  0.5902966E-013  0.5052887E+02  0.7816164E-02  0.1300439E+00
        -11   -1    0    0    0    0  0.00000000000E+00  0.00000000000E+00  0.45593999997E+02  0.45594000000E+02  0.51100000000E-03 0.  1.
         11   -1    0    0    0    0 -0.00000000000E+00 -0.00000000000E+00 -0.45593999997E+02  0.45594000000E+02  0.51100000000E-03 0. -1.
    9900012    2    1    2    0    0 -0.10267189509E+02 -0.34413346227E+02  0.19064923391E+02  0.50528869624E+02  0.30000029711E+02 0.  0.
         12    1    1    2    0    0  0.10267189509E+02  0.34413346227E+02 -0.19064923391E+02  0.40659130376E+02  0.00000000000E+00 0. -1.
         11    1    3    3    0    0 -0.62874941047E+01 -0.19977284991E+02  0.22160624751E+01  0.21060280884E+02  0.51100000000E-03 0. -1.
        -11    1    3    3    0    0 -0.10307290562E+02 -0.14526148653E+02  0.11702715504E+02  0.21312033780E+02  0.51100000000E-03 0.  1.
        -12    1    3    3    0    0  0.63275951580E+01  0.90087416606E-01  0.51461454124E+01  0.81565549610E+01  0.00000000000E+00 0.  1.
</event>
<event>
 7    1  0.5902966E-013  0.5052886E+02  0.7816164E-02  0.1300439E+00
        -11   -1    0    0    0    0  0.00000000000E+00  0.00000000000E+00  0.45593999997E+02  0.45594000000E+02  0.51100000000E-03 0.  1.
         11   -1    0    0    0    0 -0.00000000000E+00 -0.00000000000E+00 -0.45593999997E+02  0.45594000000E+02  0.51100000000E-03 0. -1.
    9900012    2    1    2    0    0  0.17262430428E+02  0.25060977585E+02  0.26965187654E+02  0.50528862687E+02  0.30000008623E+02 0.  0.
         12    1    1    2    0    0 -0.17262430428E+02 -0.25060977585E+02 -0.26965187654E+02  0.40659137313E+02  0.00000000000E+00 0. -1.
         11    1    3    3    0    0 -0.64864445192E+01  0.83142655912E+01  0.58099441005E+01  0.12039785112E+02  0.51100000000E-03 0. -1.
        -11    1    3    3    0    0 -0.17387482142E+01  0.34034423912E+00  0.62277314448E+00  0.18780112364E+01  0.51100000000E-03 0.  1.
        -12    1    3    3    0    0  0.25487623162E+02  0.16406367755E+02  0.20532470409E+02  0.36611066339E+02  0.00000000000E+00 0.  1.
</event>
<event>
 7    1  0.5902966E-013  0.5052888E+02  0.7816164E-02  0.1300439E+00
        -11   -1    0    0    0    0  0.00000000000E+00  0.00000000000E+00  0.45593999997E+02  0.45594000000E+02  0.51100000000E-03 0.  1.
         11   -1    0    0    0    0 -0.00000000000E+00 -0.00000000000E+00 -0.45593999997E+02  0.45594000000E+02  0.51100000000E-03 0. -1.
    9900012    2    1    2    0    0 -0.13878978399E+02 -0.30250167431E+01  0.38097080045E+02  0.50528877092E+02  0.30000052409E+02 0.  0.
         12    1    1    2    0    0  0.13878978399E+02  0.30250167431E+01 -0.38097080045E+02  0.40659122908E+02  0.00000000000E+00 0. -1.
         11    1    3    3    0    0 -0.41668486943E+01 -0.62350250701E+00  0.29821907449E+01  0.51618645195E+01  0.51100000000E-03 0. -1.
        -11    1    3    3    0    0  0.36992141847E+01 -0.11286357880E+02  0.20180172758E+02  0.23415922630E+02  0.51100000000E-03 0.  1.
         12    1    3    3    0    0 -0.13411343889E+02  0.88848436439E+01  0.14934716542E+02  0.21951089943E+02  0.00000000000E+00 0. -1.
</event>
<event>
 7    1  0.5902966E-013  0.5052886E+02  0.7816164E-02  0.1300439E+00
        -11   -1    0    0    0    0  0.00000000000E+00  0.00000000000E+00  0.45593999997E+02  0.45594000000E+02  0.51100000000E-03 0.  1.
         11   -1    0    0    0    0 -0.00000000000E+00 -0.00000000000E+00 -0.45593999997E+02  0.45594000000E+02  0.51100000000E-03 0. -1.
    9900012    2    1    2    0    0 -0.27879567084E+02  0.29378509554E+02  0.35774884856E+01  0.50528861934E+02  0.30000006334E+02 0.  0.
         12    1    1    2    0    0  0.27879567084E+02 -0.29378509554E+02 -0.35774884856E+01  0.40659138066E+02  0.00000000000E+00 0. -1.
         11    1    3    3    0    0  0.14706129244E+01 -0.54074834379E+00 -0.17413740092E+01  0.23425402549E+01  0.51100000000E-03 0. -1.
        -11    1    3    3    0    0 -0.18412306386E+02  0.41915306129E+01 -0.27650152903E+01  0.19084739064E+02  0.51100000000E-03 0.  1.
        -12    1    3    3    0    0 -0.10937873623E+02  0.25727727285E+02  0.80838777851E+01  0.29101582615E+02  0.00000000000E+00 0.  1.
</event>
<event>
 7    1  0.5902966E-013  0.5052885E+02  0.7816164E-02  0.1300439E+00
        -11   -1    0    0    0    0  0.00000000000E+00  0.00000000000E+00  0.45593999997E+02  0.45594000000E+02  0.51100000000E-03 0.  1.
         11   -1    0    0    0    0 -0.00000000000E+00 -0.00000000000E+00 -0.45593999997E+02  0.45594000000E+02  0.51100000000E-03 0. -1.
    9900012    2    1    2    0    0 -0.25060484902E+02 -0.31769645566E+02 -0.39784319661E+01  0.50528853381E+02  0.29999980336E+02 0.  0.
         12    1    1    2    0    0  0.25060484902E+02  0.31769645566E+02  0.39784319661E+01  0.40659146619E+02  0.00000000000E+00 0. -1.
         11    1    3    3    0    0 -0.18805650225E+01 -0.45771112238E+01  0.63505624837E+01  0.80508456748E+01  0.51100000000E-03 0. -1.
        -11    1    3    3    0    0  0.18709193752E+01  0.85399185125E+00 -0.37850000835E+01  0.43076521776E+01  0.51100000000E-03 0.  1.
        -12    1    3    3    0    0 -0.25050839254E+02 -0.28046526194E+02 -0.65439943663E+01  0.38170355528E+02  0.00000000000E+00 0.  1.
</event>
<event>
 7    1  0.5902966E-013  0.5052886E+02  0.7816164E-02  0.1300439E+00
        -11   -1    0    0    0    0  0.00000000000E+00  0.00000000000E+00  0.45593999997E+02  0.45594000000E+02  0.51100000000E-03 0. -1.
         11   -1    0    0    0    0 -0.00000000000E+00 -0.00000000000E+00 -0.45593999997E+02  0.45594000000E+02  0.51100000000E-03 0.  1.
    9900012    2    1    2    0    0 -0.18973698835E+02 -0.66682427339E+01 -0.35336933934E+02  0.50528860702E+02  0.30000002590E+02 0.  0.
         12    1    1    2    0    0  0.18973698835E+02  0.66682427339E+01  0.35336933934E+02  0.40659139298E+02  0.00000000000E+00 0. -1.
         11    1    3    3    0    0 -0.62092404370E+01 -0.73540571058E+01  0.45501744673E+00  0.96355520786E+01  0.51100000000E-03 0. -1.
        -11    1    3    3    0    0 -0.31708165591E+01  0.45857029890E+01 -0.26536315804E+01  0.61745048692E+01  0.51100000000E-03 0.  1.
         12    1    3    3    0    0 -0.95936418385E+01 -0.38998886171E+01 -0.33138319800E+02  0.34718803754E+02  0.00000000000E+00 0. -1.
</event>
<event>
 7    1  0.5902966E-013  0.5052886E+02  0.7816164E-02  0.1300439E+00
        -11   -1    0    0    0    0  0.00000000000E+00  0.00000000000E+00  0.45593999997E+02  0.45594000000E+02  0.51100000000E-03 0. -1.
         11   -1    0    0    0    0 -0.00000000000E+00 -0.00000000000E+00 -0.45593999997E+02  0.45594000000E+02  0.51100000000E-03 0.  1.
    9900012    2    1    2    0    0  0.15234758057E+02 -0.22878285870E+02 -0.29960839379E+02  0.50528859408E+02  0.29999998657E+02 0.  0.
         12    1    1    2    0    0 -0.15234758057E+02  0.22878285870E+02  0.29960839379E+02  0.40659140592E+02  0.00000000000E+00 0. -1.
         11    1    3    3    0    0  0.65159556010E+01  0.24804719810E+01 -0.46452192156E+01  0.83778565555E+01  0.51100000000E-03 0.  1.
        -11    1    3    3    0    0  0.58402419723E+01 -0.24842484569E+02 -0.11433090666E+02  0.27963780651E+02  0.51100000000E-03 0. -1.
         12    1    3    3    0    0  0.28785604834E+01 -0.51627328226E+00 -0.13882529497E+02  0.14187222202E+02  0.00000000000E+00 0. -1.
</event>
<event>
 7    1  0.5902966E-013  0.5052886E+02  0.7816164E-02  0.1300439E+00
        -11   -1    0    0    0    0  0.00000000000E+00  0.00000000000E+00  0.45593999997E+02  0.45594000000E+02  0.51100000000E-03 0. -1.
         11   -1    0    0    0    0 -0.00000000000E+00 -0.00000000000E+00 -0.45593999997E+02  0.45594000000E+02  0.51100000000E-03 0.  1.
    9900012    2    1    2    0    0 -0.12743603387E+02 -0.33203992851E+02 -0.19704335581E+02  0.50528863152E+02  0.30000010037E+02 0.  0.
         12    1    1    2    0    0  0.12743603387E+02  0.33203992851E+02  0.19704335581E+02  0.40659136848E+02  0.00000000000E+00 0. -1.
         11    1    3    3    0    0  0.11598584125E+01  0.66493264271E-02  0.22837559927E+01  0.25614170777E+01  0.51100000000E-03 0. -1.
        -11    1    3    3    0    0 -0.14283174286E+01 -0.25439384561E+02 -0.58556389580E+01  0.26143658607E+02  0.51100000000E-03 0.  1.
        -12    1    3    3    0    0 -0.12475144371E+02 -0.77712576165E+01 -0.16132452615E+02  0.21823787467E+02  0.00000000000E+00 0.  1.
</event>
<event>
 7    1  0.5902966E-013  0.5052885E+02  0.7816164E-02  0.1300439E+00
        -11   -1    0    0    0    0  0.00000000000E+00  0.00000000000E+00  0.45593999997E+02  0.45594000000E+02  0.51100000000E-03 0.  1.
         11   -1    0    0    0    0 -0.00000000000E+00 -0.00000000000E+00 -0.45593999997E+02  0.45594000000E+02  0.51100000000E-03 0. -1.
    9900012    2    1    2    0    0  0.19412503659E+02 -0.16414266075E+02  0.31731575408E+02  0.50528852112E+02  0.29999976480E+02 0.  0.
         12    1    1    2    0    0 -0.19412503659E+02  0.16414266075E+02 -0.31731575408E+02  0.40659147888E+02  0.00000000000E+00 0. -1.
         11    1    3    3    0    0  0.52989024784E+01 -0.13034110901E+02  0.11934108860E+02  0.18449644142E+02  0.51100000000E-03 0. -1.
        -11    1    3    3    0    0 -0.49515480588E+01 -0.27828871587E+01  0.74050887425E+01  0.93326110313E+01  0.51100000000E-03 0.  1.
         12    1    3    3    0    0  0.19065149239E+02 -0.59726801530E+00  0.12392377806E+02  0.22746596939E+02  0.00000000000E+00 0. -1.
</event>
<event>
 7    1  0.5902966E-013  0.5052886E+02  0.7816164E-02  0.1300439E+00
        -11   -1    0    0    0    0  0.00000000000E+00  0.00000000000E+00  0.45593999997E+02  0.45594000000E+02  0.51100000000E-03 0. -1.
         11   -1    0    0    0    0 -0.00000000000E+00 -0.00000000000E+00 -0.45593999997E+02  0.45594000000E+02  0.51100000000E-03 0.  1.
    9900012    2    1    2    0    0  0.25223779586E+02  0.20701817889E+02 -0.24256155622E+02  0.50528863191E+02  0.30000010156E+02 0.  0.
         12    1    1    2    0    0 -0.25223779586E+02 -0.20701817889E+02  0.24256155622E+02  0.40659136809E+02  0.00000000000E+00 0. -1.
         11    1    3    3    0    0  0.88426137534E+01  0.12648325677E+01 -0.18443831961E+02  0.20493085592E+02  0.51100000000E-03 0. -1.
        -11    1    3    3    0    0  0.24332580939E+01  0.86725268346E+01 -0.82925817075E+01  0.12243380999E+02  0.51100000000E-03 0.  1.
         12    1    3    3    0    0  0.13947907738E+02  0.10764458487E+02  0.24802580468E+01  0.17792396600E+02  0.00000000000E+00 0. -1.
</event>
<event>
 7    1  0.7502956E-013  0.5052886E+02  0.7816164E-02  0.1300439E+00
        -11   -1    0    0    0    0  0.00000000000E+00  0.00000000000E+00  0.45593999997E+02  0.45594000000E+02  0.51100000000E-03 0. -1.
         11   -1    0    0    0    0 -0.00000000000E+00 -0.00000000000E+00 -0.45593999997E+02  0.45594000000E+02  0.51100000000E-03 0.  1.
    9900012    2    1    2    0    0 -0.29404511905E+02 -0.70394656706E+01 -0.27184295561E+02  0.50528864219E+02  0.30000013280E+02 0.  0.
         12    1    1    2    0    0  0.29404511905E+02  0.70394656706E+01  0.27184295561E+02  0.40659135781E+02  0.00000000000E+00 0. -1.
         11    1    3    3    0    0 -0.14437353960E+02  0.44474467147E+01 -0.49166127043E+01  0.15886788611E+02  0.51100000000E-03 0. -1.
        -11    1    3    3    0    0 -0.17624262637E+02 -0.34471640488E+01 -0.16580529599E+02  0.24442003508E+02  0.51100000000E-03 0.  1.
         12    1    3    3    0    0  0.26571046912E+01 -0.80397483366E+01 -0.56871532578E+01  0.10200072099E+02  0.00000000000E+00 0. -1.
</event>
<event>
 7    1  0.5902966E-013  0.5052885E+02  0.7816164E-02  0.1300439E+00
        -11   -1    0    0    0    0  0.00000000000E+00  0.00000000000E+00  0.45593999997E+02  0.45594000000E+02  0.51100000000E-03 0.  1.
         11   -1    0    0    0    0 -0.00000000000E+00 -0.00000000000E+00 -0.45593999997E+02  0.45594000000E+02  0.51100000000E-03 0. -1.
    9900012    2    1    2    0    0 -0.56042914044E+01 -0.21516895724E+02  0.34040885058E+02  0.50528846796E+02  0.29999960321E+02 0.  0.
         12    1    1    2    0    0  0.56042914044E+01  0.21516895724E+02 -0.34040885058E+02  0.40659153204E+02  0.00000000000E+00 0. -1.
         11    1    3    3    0    0  0.22692719039E+01 -0.13538391739E+02  0.11573136321E+02  0.17954808003E+02  0.51100000000E-03 0. -1.
        -11    1    3    3    0    0  0.60815673940E+01 -0.34996620200E+00  0.12220362516E+02  0.13654493714E+02  0.51100000000E-03 0.  1.
        -12    1    3    3    0    0 -0.13955130702E+02 -0.76285377832E+01  0.10247386221E+02  0.18919545079E+02  0.00000000000E+00 0.  1.
</event>
<event>
 7    1  0.5902966E-013  0.5052886E+02  0.7816164E-02  0.1300439E+00
        -11   -1    0    0    0    0  0.00000000000E+00  0.00000000000E+00  0.45593999997E+02  0.45594000000E+02  0.51100000000E-03 0. -1.
         11   -1    0    0    0    0 -0.00000000000E+00 -0.00000000000E+00 -0.45593999997E+02  0.45594000000E+02  0.51100000000E-03 0.  1.
    9900012    2    1    2    0    0 -0.84863793681E+01 -0.38682919086E+02 -0.92075345067E+01  0.50528861353E+02  0.30000004569E+02 0.  0.
         12    1    1    2    0    0  0.84863793681E+01  0.38682919086E+02  0.92075345067E+01  0.40659138647E+02  0.00000000000E+00 0. -1.
         11    1    3    3    0    0 -0.60080610834E+01 -0.16696365181E+02 -0.64079601159E+00  0.17756013855E+02  0.51100000000E-03 0. -1.
        -11    1    3    3    0    0 -0.87317305239E+01 -0.23126200121E+02 -0.92194854024E+01  0.26383008951E+02  0.51100000000E-03 0.  1.
         12    1    3    3    0    0  0.62534122391E+01  0.11396462155E+01  0.65274690731E+00  0.63898385468E+01  0.00000000000E+00 0. -1.
</event>
<event>
 7    1  0.5902966E-013  0.5052885E+02  0.7816164E-02  0.1300439E+00
        -11   -1    0    0    0    0  0.00000000000E+00  0.00000000000E+00  0.45593999997E+02  0.45594000000E+02  0.51100000000E-03 0. -1.
         11   -1    0    0    0    0 -0.00000000000E+00 -0.00000000000E+00 -0.45593999997E+02  0.45594000000E+02  0.51100000000E-03 0.  1.
    9900012    2    1    2    0    0  0.31243081195E+02 -0.11678906253E+02 -0.23251653416E+02  0.50528851455E+02  0.29999974482E+02 0.  0.
         12    1    1    2    0    0 -0.31243081195E+02  0.11678906253E+02  0.23251653416E+02  0.40659148545E+02  0.00000000000E+00 0. -1.
         11    1    3    3    0    0  0.17494842308E+01 -0.83710947417E+01  0.36826385537E+01  0.93111626141E+01  0.51100000000E-03 0. -1.
        -11    1    3    3    0    0  0.59849952164E+01 -0.44944664652E+01 -0.84556359654E+01  0.11292394626E+02  0.51100000000E-03 0.  1.
        -12    1    3    3    0    0  0.23508601748E+02  0.11866549535E+01 -0.18478656004E+02  0.29925294215E+02  0.00000000000E+00 0.  1.
</event>
<event>
 7    1  0.5902966E-013  0.5052883E+02  0.7816164E-02  0.1300439E+00
        -11   -1    0    0    0    0  0.00000000000E+00  0.00000000000E+00  0.45593999997E+02  0.45594000000E+02  0.51100000000E-03 0.  1.
         11   -1    0    0    0    0 -0.00000000000E+00 -0.00000000000E+00 -0.45593999997E+02  0.45594000000E+02  0.51100000000E-03 0. -1.
    9900012    2    1    2    0    0  0.31798558747E+02 -0.24687461849E+02  0.57052066548E+01  0.50528825219E+02  0.29999894735E+02 0.  0.
         12    1    1    2    0    0 -0.31798558747E+02  0.24687461849E+02 -0.57052066548E+01  0.40659174781E+02  0.00000000000E+00 0. -1.
         11    1    3    3    0    0  0.40206604888E+00  0.83752272262E+00  0.10842560228E+01  0.14278350054E+01  0.51100000000E-03 0. -1.
        -11    1    3    3    0    0 -0.15988492968E+01 -0.21551372346E+01  0.80859612351E+01  0.85196070878E+01  0.51100000000E-03 0.  1.
        -12    1    3    3    0    0  0.32995341995E+02 -0.23369847337E+02 -0.34650106031E+01  0.40581383126E+02  0.00000000000E+00 0.  1.
</event>
<event>
 7    1  0.5902966E-013  0.5052886E+02  0.7816164E-02  0.1300439E+00
        -11   -1    0    0    0    0  0.00000000000E+00  0.00000000000E+00  0.45593999997E+02  0.45594000000E+02  0.51100000000E-03 0. -1.
         11   -1    0    0    0    0 -0.00000000000E+00 -0.00000000000E+00 -0.45593999997E+02  0.45594000000E+02  0.51100000000E-03 0.  1.
    9900012    2    1    2    0    0 -0.21737168478E+02 -0.99931412394E+01 -0.32875500115E+02  0.50528857448E+02  0.29999992698E+02 0.  0.
         12    1    1    2    0    0  0.21737168478E+02  0.99931412394E+01  0.32875500115E+02  0.40659142552E+02  0.00000000000E+00 0. -1.
         11    1    3    3    0    0  0.36910279088E+00 -0.39287242641E+01  0.93511068966E+00  0.40553105278E+01  0.51100000000E-03 0. -1.
        -11    1    3    3    0    0 -0.88201634803E+01 -0.13862930884E+02 -0.18721584531E+02  0.24909312799E+02  0.51100000000E-03 0.  1.
        -12    1    3    3    0    0 -0.13286107789E+02  0.77985139083E+01 -0.15089026274E+02  0.21564234121E+02  0.00000000000E+00 0.  1.
</event>
<event>
 7    1  0.5902966E-013  0.5052887E+02  0.7816164E-02  0.1300439E+00
        -11   -1    0    0    0    0  0.00000000000E+00  0.00000000000E+00  0.45593999997E+02  0.45594000000E+02  0.51100000000E-03 0.  1.
         11   -1    0    0    0    0 -0.00000000000E+00 -0.00000000000E+00 -0.45593999997E+02  0.45594000000E+02  0.51100000000E-03 0. -1.
    9900012    2    1    2    0    0 -0.37463463652E+02 -0.15768480316E+02  0.10043171774E+01  0.50528871465E+02  0.30000035304E+02 0.  0.
         12    1    1    2    0    0  0.37463463652E+02  0.15768480316E+02 -0.10043171774E+01  0.40659128535E+02  0.00000000000E+00 0. -1.
         11    1    3    3    0    0 -0.17212976819E+02 -0.71238445907E+01  0.11900082456E+02  0.22105377071E+02  0.51100000000E-03 0. -1.
        -11    1    3    3    0    0 -0.35527914456E+01 -0.87899668844E+01 -0.49728673404E+01  0.10705851425E+02  0.51100000000E-03 0.  1.
        -12    1    3    3    0    0 -0.16697695387E+02  0.14533115941E+00 -0.59228979379E+01  0.17717642969E+02  0.00000000000E+00 0.  1.
</event>
<event>
 7    1  0.5902966E-013  0.5052886E+02  0.7816164E-02  0.1300439E+00
        -11   -1    0    0    0    0  0.00000000000E+00  0.00000000000E+00  0.45593999997E+02  0.45594000000E+02  0.51100000000E-03 0.  1.
         11   -1    0    0    0    0 -0.00000000000E+00 -0.00000000000E+00 -0.45593999997E+02  0.45594000000E+02  0.51100000000E-03 0. -1.
    9900012    2    1    2    0    0  0.37548716305E+02 -0.16415434376E+01  0.15510149230E+02  0.50528862156E+02  0.30000007010E+02 0.  0.
         12    1    1    2    0    0 -0.37548716305E+02  0.16415434376E+01 -0.15510149230E+02  0.40659137844E+02  0.00000000000E+00 0. -1.
         11    1    3    3    0    0  0.42723535640E+01  0.28019337151E+01 -0.41112946973E+01  0.65579403679E+01  0.51100000000E-03 0. -1.
        -11    1    3    3    0    0 -0.54536998499E+00 -0.35959497126E+01  0.69487021734E+01  0.78430061144E+01  0.51100000000E-03 0.  1.
        -12    1    3    3    0    0  0.33821732726E+02 -0.84752744023E+00  0.12672741754E+02  0.36127915674E+02  0.00000000000E+00 0.  1.
</event>
<event>
 7    1  0.5902966E-013  0.5052886E+02  0.7816164E-02  0.1300439E+00
        -11   -1    0    0    0    0  0.00000000000E+00  0.00000000000E+00  0.45593999997E+02  0.45594000000E+02  0.51100000000E-03 0. -1.
         11   -1    0    0    0    0 -0.00000000000E+00 -0.00000000000E+00 -0.45593999997E+02  0.45594000000E+02  0.51100000000E-03 0.  1.
    9900012    2    1    2    0    0 -0.28549157394E+01 -0.38426680937E+02 -0.12977116781E+02  0.50528856974E+02  0.29999991257E+02 0.  0.
         12    1    1    2    0    0  0.28549157394E+01  0.38426680937E+02  0.12977116781E+02  0.40659143026E+02  0.00000000000E+00 0. -1.
         11    1    3    3    0    0  0.22123416523E+01 -0.25060489400E+02 -0.14052886653E+01  0.25197170894E+02  0.51100000000E-03 0. -1.
        -11    1    3    3    0    0 -0.48913003563E+01 -0.27942783924E+01  0.37125310066E+01  0.67465322682E+01  0.51100000000E-03 0.  1.
        -12    1    3    3    0    0 -0.17595703540E+00 -0.10571913144E+02 -0.15284359122E+02  0.18585153811E+02  0.00000000000E+00 0.  1.
</event>
<event>
 7    1  0.5902966E-013  0.5052886E+02  0.7816164E-02  0.1300439E+00
        -11   -1    0    0    0    0  0.00000000000E+00  0.00000000000E+00  0.45593999997E+02  0.45594000000E+02  0.51100000000E-03 0.  1.
         11   -1    0    0    0    0 -0.00000000000E+00 -0.00000000000E+00 -0.45593999997E+02  0.45594000000E+02  0.51100000000E-03 0. -1.
    9900012    2    1    2    0    0 -0.68226469585E+01  0.41952430808E+01  0.39862475065E+02  0.50528862106E+02  0.30000006856E+02 0.  0.
         12    1    1    2    0    0  0.68226469585E+01 -0.41952430808E+01 -0.39862475065E+02  0.40659137894E+02  0.00000000000E+00 0. -1.
         11    1    3    3    0    0 -0.14055292389E+01 -0.28874494658E+01  0.11715498522E+02  0.12147665732E+02  0.51100000000E-03 0. -1.
        -11    1    3    3    0    0 -0.84737989038E+01  0.14504114644E+02  0.24142387853E+02  0.29411383867E+02  0.51100000000E-03 0.  1.
         12    1    3    3    0    0  0.30566811842E+01 -0.74214220979E+01  0.40045886893E+01  0.89698125057E+01  0.00000000000E+00 0. -1.
</event>
<event>
 7    1  0.5902966E-013  0.5052886E+02  0.7816164E-02  0.1300439E+00
        -11   -1    0    0    0    0  0.00000000000E+00  0.00000000000E+00  0.45593999997E+02  0.45594000000E+02  0.51100000000E-03 0.  1.
         11   -1    0    0    0    0 -0.00000000000E+00 -0.00000000000E+00 -0.45593999997E+02  0.45594000000E+02  0.51100000000E-03 0. -1.
    9900012    2    1    2    0    0  0.15792250228E+02 -0.15587300906E+02  0.34070612478E+02  0.50528858944E+02  0.29999997246E+02 0.  0.
         12    1    1    2    0    0 -0.15792250228E+02  0.15587300906E+02 -0.34070612478E+02  0.40659141056E+02  0.00000000000E+00 0. -1.
         11    1    3    3    0    0  0.66428706966E+01  0.37309444643E+01  0.50886991010E+01  0.91620159620E+01  0.51100000000E-03 0. -1.
        -11    1    3    3    0    0  0.10676852222E+02 -0.23866439564E+01  0.51477731056E+01  0.12090939209E+02  0.51100000000E-03 0.  1.
         12    1    3    3    0    0 -0.15274726899E+01 -0.16931601414E+02  0.23834140271E+02  0.29275903773E+02  0.00000000000E+00 0. -1.
</event>
<event>
 7    1  0.6056375E-013  0.5052886E+02  0.7816164E-02  0.1300439E+00
        -11   -1    0    0    0    0  0.00000000000E+00  0.00000000000E+00  0.45593999997E+02  0.45594000000E+02  0.51100000000E-03 0.  1.
         11   -1    0    0    0    0 -0.00000000000E+00 -0.00000000000E+00 -0.45593999997E+02  0.45594000000E+02  0.51100000000E-03 0. -1.
    9900012    2    1    2    0    0  0.37107899468E+02  0.21990670760E+01  0.16472197447E+02  0.50528863417E+02  0.30000010842E+02 0.  0.
         12    1    1    2    0    0 -0.37107899468E+02 -0.21990670760E+01 -0.16472197447E+02  0.40659136583E+02  0.00000000000E+00 0. -1.
         11    1    3    3    0    0 -0.25835646887E+01 -0.12714617718E+01  0.57736238898E+01  0.64518334308E+01  0.51100000000E-03 0. -1.
        -11    1    3    3    0    0  0.11651727820E+02  0.82633582566E+01  0.43318366144E+01  0.14926843591E+02  0.51100000000E-03 0.  1.
        -12    1    3    3    0    0  0.28039736336E+02 -0.47928294088E+01  0.63667369431E+01  0.29150186395E+02  0.00000000000E+00 0.  1.
</event>
<event>
 7    1  0.5902966E-013  0.5052885E+02  0.7816164E-02  0.1300439E+00
        -11   -1    0    0    0    0  0.00000000000E+00  0.00000000000E+00  0.45593999997E+02  0.45594000000E+02  0.51100000000E-03 0.  1.
         11   -1    0    0    0    0 -0.00000000000E+00 -0.00000000000E+00 -0.45593999997E+02  0.45594000000E+02  0.51100000000E-03 0. -1.
    9900012    2    1    2    0    0 -0.13583051614E+02 -0.35312107156E+02  0.14890334346E+02  0.50528852691E+02  0.29999978241E+02 0.  0.
         12    1    1    2    0    0  0.13583051614E+02  0.35312107156E+02 -0.14890334346E+02  0.40659147309E+02  0.00000000000E+00 0. -1.
         11    1    3    3    0    0 -0.10152993827E+02 -0.57982404634E+01  0.26206180527E+01  0.11982091443E+02  0.51100000000E-03 0. -1.
        -11    1    3    3    0    0 -0.68919919852E+01 -0.19289094095E+02 -0.20814282015E+01  0.20588857379E+02  0.51100000000E-03 0.  1.
        -12    1    3    3    0    0  0.34619341985E+01 -0.10224772597E+02  0.14351144495E+02  0.17957903869E+02  0.00000000000E+00 0.  1.
</event>
<event>
 7    1  0.5902966E-013  0.5052885E+02  0.7816164E-02  0.1300439E+00
        -11   -1    0    0    0    0  0.00000000000E+00  0.00000000000E+00  0.45593999997E+02  0.45594000000E+02  0.51100000000E-03 0.  1.
         11   -1    0    0    0    0 -0.00000000000E+00 -0.00000000000E+00 -0.45593999997E+02  0.45594000000E+02  0.51100000000E-03 0. -1.
    9900012    2    1    2    0    0 -0.33687196788E+02  0.21153919818E+02  0.84172926402E+01  0.50528851380E+02  0.29999974255E+02 0.  0.
         12    1    1    2    0    0  0.33687196788E+02 -0.21153919818E+02 -0.84172926402E+01  0.40659148620E+02  0.00000000000E+00 0. -1.
         11    1    3    3    0    0 -0.18062055712E+01 -0.18107629775E+01  0.19496849655E+01  0.32159777443E+01  0.51100000000E-03 0. -1.
        -11    1    3    3    0    0 -0.30410953558E+02  0.13220495454E+02  0.12860032557E+02  0.35566670268E+02  0.51100000000E-03 0.  1.
        -12    1    3    3    0    0 -0.14700376593E+01  0.97441873419E+01 -0.63924248825E+01  0.11746203368E+02  0.00000000000E+00 0.  1.
</event>
<event>
 7    1  0.5902966E-013  0.5052887E+02  0.7816164E-02  0.1300439E+00
        -11   -1    0    0    0    0  0.00000000000E+00  0.00000000000E+00  0.45593999997E+02  0.45594000000E+02  0.51100000000E-03 0.  1.
         11   -1    0    0    0    0 -0.00000000000E+00 -0.00000000000E+00 -0.45593999997E+02  0.45594000000E+02  0.51100000000E-03 0. -1.
    9900012    2    1    2    0    0 -0.21506603215E+02 -0.11151549286E+02  0.32653845326E+02  0.50528872514E+02  0.30000038495E+02 0.  0.
         12    1    1    2    0    0  0.21506603215E+02  0.11151549286E+02 -0.32653845326E+02  0.40659127486E+02  0.00000000000E+00 0. -1.
         11    1    3    3    0    0  0.55142020066E+01  0.35392561828E+01  0.44424519515E+01  0.79163209699E+01  0.51100000000E-03 0.  1.
        -11    1    3    3    0    0 -0.96690418936E+01 -0.17657823226E+01  0.55797010719E+01  0.11302275110E+02  0.51100000000E-03 0. -1.
        -12    1    3    3    0    0 -0.17351763328E+02 -0.12925023146E+02  0.22631692303E+02  0.31310276434E+02  0.00000000000E+00 0.  1.
</event>
<event>
 7    1  0.5902966E-013  0.5052882E+02  0.7816164E-02  0.1300439E+00
        -11   -1    0    0    0    0  0.00000000000E+00  0.00000000000E+00  0.45593999997E+02  0.45594000000E+02  0.51100000000E-03 0.  1.
         11   -1    0    0    0    0 -0.00000000000E+00 -0.00000000000E+00 -0.45593999997E+02  0.45594000000E+02  0.51100000000E-03 0. -1.
    9900012    2    1    2    0    0 -0.10695625162E+02  0.38293805062E+02  0.85062760839E+01  0.50528823465E+02  0.29999889404E+02 0.  0.
         12    1    1    2    0    0  0.10695625162E+02 -0.38293805062E+02 -0.85062760839E+01  0.40659176535E+02  0.00000000000E+00 0. -1.
         11    1    3    3    0    0  0.43372108554E+01  0.18288164655E+02 -0.18606977570E+00  0.18796355675E+02  0.51100000000E-03 0. -1.
        -11    1    3    3    0    0 -0.53041729061E+01  0.19721943659E+02  0.81362054041E+01  0.21983792906E+02  0.51100000000E-03 0.  1.
        -12    1    3    3    0    0 -0.97286631112E+01  0.28369674780E+00  0.55614045550E+00  0.97486748834E+01  0.00000000000E+00 0.  1.
</event>
<event>
 7    1  0.5902966E-013  0.5052885E+02  0.7816164E-02  0.1300439E+00
        -11   -1    0    0    0    0  0.00000000000E+00  0.00000000000E+00  0.45593999997E+02  0.45594000000E+02  0.51100000000E-03 0. -1.
         11   -1    0    0    0    0 -0.00000000000E+00 -0.00000000000E+00 -0.45593999997E+02  0.45594000000E+02  0.51100000000E-03 0.  1.
    9900012    2    1    2    0    0 -0.36487699314E+02 -0.17796947050E+02 -0.22545655408E+01  0.50528848615E+02  0.29999965852E+02 0.  0.
         12    1    1    2    0    0  0.36487699314E+02  0.17796947050E+02  0.22545655408E+01  0.40659151385E+02  0.00000000000E+00 0. -1.
         11    1    3    3    0    0 -0.17002999405E+02 -0.65356902191E+01 -0.28714071336E+01  0.18440775867E+02  0.51100000000E-03 0.  1.
        -11    1    3    3    0    0 -0.23077742498E+01  0.58170118659E+00 -0.88590187192E+01  0.91731352975E+01  0.51100000000E-03 0. -1.
         12    1    3    3    0    0 -0.17176925659E+02 -0.11842958017E+02  0.94758603120E+01  0.22914937451E+02  0.00000000000E+00 0. -1.
</event>
<event>
 7    1  0.5902966E-013  0.5052886E+02  0.7816164E-02  0.1300439E+00
        -11   -1    0    0    0    0  0.00000000000E+00  0.00000000000E+00  0.45593999997E+02  0.45594000000E+02  0.51100000000E-03 0. -1.
         11   -1    0    0    0    0 -0.00000000000E+00 -0.00000000000E+00 -0.45593999997E+02  0.45594000000E+02  0.51100000000E-03 0.  1.
    9900012    2    1    2    0    0  0.23897835797E+02  0.32693140302E+02 -0.36356315773E+01  0.50528858401E+02  0.29999995596E+02 0.  0.
         12    1    1    2    0    0 -0.23897835797E+02 -0.32693140302E+02  0.36356315773E+01  0.40659141599E+02  0.00000000000E+00 0. -1.
         11    1    3    3    0    0  0.14226441269E+02  0.32277161374E+02 -0.92585535660E+01  0.36468172314E+02  0.51100000000E-03 0.  1.
        -11    1    3    3    0    0  0.63125081988E+01  0.29843600080E+01 -0.53369882027E-01  0.69826222168E+01  0.51100000000E-03 0. -1.
         12    1    3    3    0    0  0.33588863292E+01 -0.25683810804E+01  0.56762918707E+01  0.70780638700E+01  0.00000000000E+00 0. -1.
</event>
<event>
 7    1  0.5902966E-013  0.5052886E+02  0.7816164E-02  0.1300439E+00
        -11   -1    0    0    0    0  0.00000000000E+00  0.00000000000E+00  0.45593999997E+02  0.45594000000E+02  0.51100000000E-03 0. -1.
         11   -1    0    0    0    0 -0.00000000000E+00 -0.00000000000E+00 -0.45593999997E+02  0.45594000000E+02  0.51100000000E-03 0.  1.
    9900012    2    1    2    0    0  0.17355950754E+02 -0.35230102115E+02 -0.10525051651E+02  0.50528857930E+02  0.29999994163E+02 0.  0.
         12    1    1    2    0    0 -0.17355950754E+02  0.35230102115E+02  0.10525051651E+02  0.40659142070E+02  0.00000000000E+00 0. -1.
         11    1    3    3    0    0 -0.26943428928E+01 -0.50305191627E+01 -0.54059968494E+01  0.78606875569E+01  0.51100000000E-03 0. -1.
        -11    1    3    3    0    0  0.15611986887E+02 -0.24584965771E+02 -0.13112496757E+02  0.31938883011E+02  0.51100000000E-03 0.  1.
        -12    1    3    3    0    0  0.44383067599E+01 -0.56146171817E+01  0.79934419558E+01  0.10729287362E+02  0.00000000000E+00 0.  1.
</event>
<event>
 7    1  0.5902966E-013  0.5052886E+02  0.7816164E-02  0.1300439E+00
        -11   -1    0    0    0    0  0.00000000000E+00  0.00000000000E+00  0.45593999997E+02  0.45594000000E+02  0.51100000000E-03 0.  1.
         11   -1    0    0    0    0 -0.00000000000E+00 -0.00000000000E+00 -0.45593999997E+02  0.45594000000E+02  0.51100000000E-03 0. -1.
    9900012    2    1    2    0    0 -0.50675958247E+01  0.30944631889E+02  0.25882714157E+02  0.50528860039E+02  0.30000000575E+02 0.  0.
         12    1    1    2    0    0  0.50675958247E+01 -0.30944631889E+02 -0.25882714157E+02  0.40659139961E+02  0.00000000000E+00 0. -1.
         11    1    3    3    0    0 -0.41755009720E+01 -0.18910099664E+01 -0.39608272839E+00  0.46008269745E+01  0.51100000000E-03 0. -1.
        -11    1    3    3    0    0 -0.25906086042E+01  0.17536007400E+02  0.29380498835E+01  0.17968164788E+02  0.51100000000E-03 0.  1.
         12    1    3    3    0    0  0.16985137515E+01  0.15299634456E+02  0.23340747002E+02  0.27959868277E+02  0.00000000000E+00 0. -1.
</event>
<event>
 7    1  0.5902966E-013  0.5052892E+02  0.7816164E-02  0.1300439E+00
        -11   -1    0    0    0    0  0.00000000000E+00  0.00000000000E+00  0.45593999997E+02  0.45594000000E+02  0.51100000000E-03 0. -1.
         11   -1    0    0    0    0 -0.00000000000E+00 -0.00000000000E+00 -0.45593999997E+02  0.45594000000E+02  0.51100000000E-03 0.  1.
    9900012    2    1    2    0    0 -0.36418409923E+02  0.94652603634E+01 -0.15403540784E+02  0.50528919787E+02  0.30000182184E+02 0.  0.
         12    1    1    2    0    0  0.36418409923E+02 -0.94652603634E+01  0.15403540784E+02  0.40659080213E+02  0.00000000000E+00 0. -1.
         11    1    3    3    0    0 -0.85182080819E+01 -0.64434831900E+01  0.15408495501E+01  0.10791318832E+02  0.51100000000E-03 0. -1.
        -11    1    3    3    0    0 -0.18466050014E+02  0.20596143886E+01 -0.52657122542E+01  0.19312295057E+02  0.51100000000E-03 0.  1.
         12    1    3    3    0    0 -0.94341518271E+01  0.13849129165E+02 -0.11678678080E+02  0.20425305898E+02  0.00000000000E+00 0. -1.
</event>
<event>
 7    1  0.5902966E-013  0.5052886E+02  0.7816164E-02  0.1300439E+00
        -11   -1    0    0    0    0  0.00000000000E+00  0.00000000000E+00  0.45593999997E+02  0.45594000000E+02  0.51100000000E-03 0.  1.
         11   -1    0    0    0    0 -0.00000000000E+00 -0.00000000000E+00 -0.45593999997E+02  0.45594000000E+02  0.51100000000E-03 0. -1.
    9900012    2    1    2    0    0 -0.32242983327E+02 -0.32105900620E+01  0.24561103698E+02  0.50528859856E+02  0.30000000019E+02 0.  0.
         12    1    1    2    0    0  0.32242983327E+02  0.32105900620E+01 -0.24561103698E+02  0.40659140144E+02  0.00000000000E+00 0. -1.
         11    1    3    3    0    0 -0.30554234696E+01  0.43359832765E+01  0.24387578703E+00  0.53099754438E+01  0.51100000000E-03 0. -1.
        -11    1    3    3    0    0 -0.24517442253E+02  0.28823220208E+01  0.22957586070E+02  0.33711474505E+02  0.51100000000E-03 0.  1.
         12    1    3    3    0    0 -0.46701176039E+01 -0.10428895359E+02  0.13596418415E+01  0.11507409908E+02  0.00000000000E+00 0. -1.
</event>
<event>
 7    1  0.5902966E-013  0.5052886E+02  0.7816164E-02  0.1300439E+00
        -11   -1    0    0    0    0  0.00000000000E+00  0.00000000000E+00  0.45593999997E+02  0.45594000000E+02  0.51100000000E-03 0.  1.
         11   -1    0    0    0    0 -0.00000000000E+00 -0.00000000000E+00 -0.45593999997E+02  0.45594000000E+02  0.51100000000E-03 0. -1.
    9900012    2    1    2    0    0 -0.13466820881E+02 -0.12066940266E+00  0.38363988077E+02  0.50528863181E+02  0.30000010125E+02 0.  0.
         12    1    1    2    0    0  0.13466820881E+02  0.12066940266E+00 -0.38363988077E+02  0.40659136819E+02  0.00000000000E+00 0. -1.
         11    1    3    3    0    0 -0.11865767060E+02  0.19192753607E+01  0.15181672871E+02  0.19363967498E+02  0.51100000000E-03 0. -1.
        -11    1    3    3    0    0 -0.72802416229E+01 -0.67566702332E+01  0.21366662533E+02  0.23562444244E+02  0.51100000000E-03 0.  1.
        -12    1    3    3    0    0  0.56791878021E+01  0.47167254699E+01  0.18156526730E+01  0.76024514388E+01  0.00000000000E+00 0.  1.
</event>
<event>
 7    1  0.5902966E-013  0.5052885E+02  0.7816164E-02  0.1300439E+00
        -11   -1    0    0    0    0  0.00000000000E+00  0.00000000000E+00  0.45593999997E+02  0.45594000000E+02  0.51100000000E-03 0. -1.
         11   -1    0    0    0    0 -0.00000000000E+00 -0.00000000000E+00 -0.45593999997E+02  0.45594000000E+02  0.51100000000E-03 0.  1.
    9900012    2    1    2    0    0  0.16021403002E+02  0.35040516311E+02 -0.12986281195E+02  0.50528848056E+02  0.29999964152E+02 0.  0.
         12    1    1    2    0    0 -0.16021403002E+02 -0.35040516311E+02  0.12986281195E+02  0.40659151944E+02  0.00000000000E+00 0. -1.
         11    1    3    3    0    0  0.74099637496E+01  0.43496905389E+01 -0.44153176755E-01  0.85923989851E+01  0.51100000000E-03 0. -1.
        -11    1    3    3    0    0 -0.18860227927E+01  0.15245472581E+01  0.53991532646E+01  0.59187990802E+01  0.51100000000E-03 0.  1.
        -12    1    3    3    0    0  0.10497462045E+02  0.29166278514E+02 -0.18341281283E+02  0.36017649991E+02  0.00000000000E+00 0.  1.
</event>
<event>
 7    1  0.5902966E-013  0.5052886E+02  0.7816164E-02  0.1300439E+00
        -11   -1    0    0    0    0  0.00000000000E+00  0.00000000000E+00  0.45593999997E+02  0.45594000000E+02  0.51100000000E-03 0. -1.
         11   -1    0    0    0    0 -0.00000000000E+00 -0.00000000000E+00 -0.45593999997E+02  0.45594000000E+02  0.51100000000E-03 0.  1.
    9900012    2    1    2    0    0 -0.15221627918E+02 -0.31986938817E+01 -0.37566425813E+02  0.50528856534E+02  0.29999989921E+02 0.  0.
         12    1    1    2    0    0  0.15221627918E+02  0.31986938817E+01  0.37566425813E+02  0.40659143466E+02  0.00000000000E+00 0. -1.
         11    1    3    3    0    0 -0.32384533614E+01  0.44868047557E+00 -0.19029988204E+02  0.19308789337E+02  0.51100000000E-03 0. -1.
        -11    1    3    3    0    0 -0.15951197156E+02  0.36970713105E+01 -0.14810426712E+02  0.22078445748E+02  0.51100000000E-03 0.  1.
        -12    1    3    3    0    0  0.39680226003E+01 -0.73444456678E+01 -0.37260108974E+01  0.91416214497E+01  0.00000000000E+00 0.  1.
</event>
<event>
 7    1  0.5902966E-013  0.5052887E+02  0.7816164E-02  0.1300439E+00
        -11   -1    0    0    0    0  0.00000000000E+00  0.00000000000E+00  0.45593999997E+02  0.45594000000E+02  0.51100000000E-03 0. -1.
         11   -1    0    0    0    0 -0.00000000000E+00 -0.00000000000E+00 -0.45593999997E+02  0.45594000000E+02  0.51100000000E-03 0.  1.
    9900012    2    1    2    0    0 -0.22188409265E+02  0.34062872113E+02 -0.74858741039E+00  0.50528866396E+02  0.30000019897E+02 0.  0.
         12    1    1    2    0    0  0.22188409265E+02 -0.34062872113E+02  0.74858741039E+00  0.40659133604E+02  0.00000000000E+00 0. -1.
         11    1    3    3    0    0 -0.14094920376E+02  0.17375269383E+02 -0.27111451267E+01  0.22537015656E+02  0.51100000000E-03 0.  1.
        -11    1    3    3    0    0 -0.11443006484E+02  0.10209036843E+02  0.90630240832E+01  0.17813063646E+02  0.51100000000E-03 0. -1.
         12    1    3    3    0    0  0.33495175952E+01  0.64785658870E+01 -0.71004663668E+01  0.10178787094E+02  0.00000000000E+00 0. -1.
</event>
<event>
 7    1  0.5902966E-013  0.5052886E+02  0.7816164E-02  0.1300439E+00
        -11   -1    0    0    0    0  0.00000000000E+00  0.00000000000E+00  0.45593999997E+02  0.45594000000E+02  0.51100000000E-03 0.  1.
         11   -1    0    0    0    0 -0.00000000000E+00 -0.00000000000E+00 -0.45593999997E+02  0.45594000000E+02  0.51100000000E-03 0. -1.
    9900012    2    1    2    0    0 -0.20552021305E+02 -0.13726937580E+02  0.32285465200E+02  0.50528860090E+02  0.30000000730E+02 0.  0.
         12    1    1    2    0    0  0.20552021305E+02  0.13726937580E+02 -0.32285465200E+02  0.40659139910E+02  0.00000000000E+00 0. -1.
         11    1    3    3    0    0 -0.61066738742E+01 -0.10708994818E+02  0.72647889210E+01  0.14309129748E+02  0.51100000000E-03 0. -1.
        -11    1    3    3    0    0  0.38296695057E+00 -0.22755219194E+01  0.20599786594E+02  0.20728624452E+02  0.51100000000E-03 0.  1.
         12    1    3    3    0    0 -0.14828314381E+02 -0.74242084265E+00  0.44208896849E+01  0.15491105890E+02  0.00000000000E+00 0. -1.
</event>
<event>
 7    1  0.5902966E-013  0.5052886E+02  0.7816164E-02  0.1300439E+00
        -11   -1    0    0    0    0  0.00000000000E+00  0.00000000000E+00  0.45593999997E+02  0.45594000000E+02  0.51100000000E-03 0.  1.
         11   -1    0    0    0    0 -0.00000000000E+00 -0.00000000000E+00 -0.45593999997E+02  0.45594000000E+02  0.51100000000E-03 0. -1.
    9900012    2    1    2    0    0 -0.18693098578E+02 -0.70375033174E+01  0.35414791427E+02  0.50528857864E+02  0.29999993964E+02 0.  0.
         12    1    1    2    0    0  0.18693098578E+02  0.70375033174E+01 -0.35414791427E+02  0.40659142136E+02  0.00000000000E+00 0. -1.
         11    1    3    3    0    0 -0.76135239495E+01 -0.42774353987E+01  0.70048820005E+01  0.11195113783E+02  0.51100000000E-03 0. -1.
        -11    1    3    3    0    0 -0.79918754160E+01 -0.24401394065E+01  0.32861180218E+02  0.33906953838E+02  0.51100000000E-03 0.  1.
        -12    1    3    3    0    0 -0.30876992129E+01 -0.31992851229E+00 -0.44512707915E+01  0.54267902430E+01  0.00000000000E+00 0.  1.
</event>
<event>
 7    1  0.5902966E-013  0.5052876E+02  0.7816164E-02  0.1300439E+00
        -11   -1    0    0    0    0  0.00000000000E+00  0.00000000000E+00  0.45593999997E+02  0.45594000000E+02  0.51100000000E-03 0.  1.
         11   -1    0    0    0    0 -0.00000000000E+00 -0.00000000000E+00 -0.45593999997E+02  0.45594000000E+02  0.51100000000E-03 0. -1.
    9900012    2    1    2    0    0 -0.90164910720E+01 -0.93170582921E+00  0.39635950711E+02  0.50528760266E+02  0.29999697302E+02 0.  0.
         12    1    1    2    0    0  0.90164910720E+01  0.93170582921E+00 -0.39635950711E+02  0.40659239734E+02  0.00000000000E+00 0. -1.
         11    1    3    3    0    0  0.33593163531E+01  0.24917191282E+01  0.54491620033E+00  0.42178910015E+01  0.51100000000E-03 0. -1.
        -11    1    3    3    0    0 -0.30470176206E+01 -0.10163718386E+02  0.84008213250E+01  0.13533635395E+02  0.51100000000E-03 0.  1.
         12    1    3    3    0    0 -0.93287898045E+01  0.67402934284E+01  0.30690213186E+02  0.32777233869E+02  0.00000000000E+00 0. -1.
</event>
<event>
 7    1  0.5902966E-013  0.5052887E+02  0.7816164E-02  0.1300439E+00
        -11   -1    0    0    0    0  0.00000000000E+00  0.00000000000E+00  0.45593999997E+02  0.45594000000E+02  0.51100000000E-03 0. -1.
         11   -1    0    0    0    0 -0.00000000000E+00 -0.00000000000E+00 -0.45593999997E+02  0.45594000000E+02  0.51100000000E-03 0.  1.
    9900012    2    1    2    0    0 -0.34670501369E+02  0.10153339368E+02 -0.18655589287E+02  0.50528868465E+02  0.30000026186E+02 0.  0.
         12    1    1    2    0    0  0.34670501369E+02 -0.10153339368E+02  0.18655589287E+02  0.40659131535E+02  0.00000000000E+00 0. -1.
         11    1    3    3    0    0 -0.28365425050E+01  0.10358586596E+02  0.22641385013E+01  0.10976001688E+02  0.51100000000E-03 0. -1.
        -11    1    3    3    0    0 -0.12268176142E+02  0.95772249481E+00 -0.23005532209E+01  0.12518702952E+02  0.51100000000E-03 0.  1.
        -12    1    3    3    0    0 -0.19565782722E+02 -0.11629697224E+01 -0.18619174568E+02  0.27034163825E+02  0.00000000000E+00 0.  1.
</event>
<event>
 7    1  0.5902966E-013  0.5052887E+02  0.7816164E-02  0.1300439E+00
        -11   -1    0    0    0    0  0.00000000000E+00  0.00000000000E+00  0.45593999997E+02  0.45594000000E+02  0.51100000000E-03 0.  1.
         11   -1    0    0    0    0 -0.00000000000E+00 -0.00000000000E+00 -0.45593999997E+02  0.45594000000E+02  0.51100000000E-03 0. -1.
    9900012    2    1    2    0    0 -0.36266756835E+02  0.99144074253E+01  0.15478756423E+02  0.50528867860E+02  0.30000024348E+02 0.  0.
         12    1    1    2    0    0  0.36266756835E+02 -0.99144074253E+01 -0.15478756423E+02  0.40659132140E+02  0.00000000000E+00 0. -1.
         11    1    3    3    0    0 -0.22956641583E+01 -0.20584025183E+01  0.76174926733E+01  0.82178640622E+01  0.51100000000E-03 0. -1.
        -11    1    3    3    0    0 -0.15108072959E+02 -0.50292939711E+01  0.75590430488E+00  0.15941112194E+02  0.51100000000E-03 0.  1.
         12    1    3    3    0    0 -0.18863019718E+02  0.17002103915E+02  0.71053594450E+01  0.26369891605E+02  0.00000000000E+00 0. -1.
</event>
<event>
 7    1  0.5902966E-013  0.5052886E+02  0.7816164E-02  0.1300439E+00
        -11   -1    0    0    0    0  0.00000000000E+00  0.00000000000E+00  0.45593999997E+02  0.45594000000E+02  0.51100000000E-03 0.  1.
         11   -1    0    0    0    0 -0.00000000000E+00 -0.00000000000E+00 -0.45593999997E+02  0.45594000000E+02  0.51100000000E-03 0. -1.
    9900012    2    1    2    0    0  0.30196382194E+02 -0.16351188576E+02  0.21771154733E+02  0.50528855348E+02  0.29999986314E+02 0.  0.
         12    1    1    2    0    0 -0.30196382194E+02  0.16351188576E+02 -0.21771154733E+02  0.40659144652E+02  0.00000000000E+00 0. -1.
         11    1    3    3    0    0  0.13711640880E+01  0.43934452965E+01 -0.23920662156E+01  0.51869483871E+01  0.51100000000E-03 0. -1.
        -11    1    3    3    0    0  0.51302717633E+01 -0.18952297106E+01  0.11083925584E+02  0.12359813536E+02  0.51100000000E-03 0.  1.
        -12    1    3    3    0    0  0.23694946343E+02 -0.18849404162E+02  0.13079295365E+02  0.32982093425E+02  0.00000000000E+00 0.  1.
</event>
<event>
 7    1  0.5902966E-013  0.5052882E+02  0.7816164E-02  0.1300439E+00
        -11   -1    0    0    0    0  0.00000000000E+00  0.00000000000E+00  0.45593999997E+02  0.45594000000E+02  0.51100000000E-03 0.  1.
         11   -1    0    0    0    0 -0.00000000000E+00 -0.00000000000E+00 -0.45593999997E+02  0.45594000000E+02  0.51100000000E-03 0. -1.
    9900012    2    1    2    0    0 -0.32901228039E+02 -0.14841542049E+02  0.18719149205E+02  0.50528822391E+02  0.29999886139E+02 0.  0.
         12    1    1    2    0    0  0.32901228039E+02  0.14841542049E+02 -0.18719149205E+02  0.40659177609E+02  0.00000000000E+00 0. -1.
         11    1    3    3    0    0 -0.88298040062E+01 -0.10062713369E+02  0.12402441701E+02  0.18249498610E+02  0.51100000000E-03 0.  1.
        -11    1    3    3    0    0 -0.24324541118E+01  0.46919090601E+01  0.68509460051E+01  0.86525317139E+01  0.51100000000E-03 0. -1.
         12    1    3    3    0    0 -0.21638969921E+02 -0.94707377408E+01 -0.53423850052E+00  0.23626792067E+02  0.00000000000E+00 0. -1.
</event>
<event>
 7    1  0.5902966E-013  0.5052886E+02  0.7816164E-02  0.1300439E+00
        -11   -1    0    0    0    0  0.00000000000E+00  0.00000000000E+00  0.45593999997E+02  0.45594000000E+02  0.51100000000E-03 0. -1.
         11   -1    0    0    0    0 -0.00000000000E+00 -0.00000000000E+00 -0.45593999997E+02  0.45594000000E+02  0.51100000000E-03 0.  1.
    9900012    2    1    2    0    0 -0.19981146573E+02 -0.31550136067E+02 -0.16078196681E+02  0.50528859420E+02  0.29999998692E+02 0.  0.
         12    1    1    2    0    0  0.19981146573E+02  0.31550136067E+02  0.16078196681E+02  0.40659140580E+02  0.00000000000E+00 0. -1.
         11    1    3    3    0    0  0.88578669080E+00 -0.85836500965E+01  0.52419002083E+01  0.10096592747E+02  0.51100000000E-03 0. -1.
        -11    1    3    3    0    0 -0.60118606980E+01  0.10033039414E+01 -0.29015038479E+01  0.67503935212E+01  0.51100000000E-03 0.  1.
        -12    1    3    3    0    0 -0.14855072566E+02 -0.23969789912E+02 -0.18418593042E+02  0.33681873151E+02  0.00000000000E+00 0.  1.
</event>
<event>
 7    1  0.5902966E-013  0.5052886E+02  0.7816164E-02  0.1300439E+00
        -11   -1    0    0    0    0  0.00000000000E+00  0.00000000000E+00  0.45593999997E+02  0.45594000000E+02  0.51100000000E-03 0.  1.
         11   -1    0    0    0    0 -0.00000000000E+00 -0.00000000000E+00 -0.45593999997E+02  0.45594000000E+02  0.51100000000E-03 0. -1.
    9900012    2    1    2    0    0 -0.12984230677E+02  0.29070309715E+02  0.25288192819E+02  0.50528857740E+02  0.29999993588E+02 0.  0.
         12    1    1    2    0    0  0.12984230677E+02 -0.29070309715E+02 -0.25288192819E+02  0.40659142260E+02  0.00000000000E+00 0. -1.
         11    1    3    3    0    0 -0.66053849825E+01  0.76089813791E+01 -0.98495428163E+00  0.10124121868E+02  0.51100000000E-03 0. -1.
        -11    1    3    3    0    0 -0.13562039597E+02  0.11272993529E+02  0.19207511759E+02  0.26075617143E+02  0.51100000000E-03 0.  1.
        -12    1    3    3    0    0  0.71831939026E+01  0.10188334807E+02  0.70656353416E+01  0.14329118730E+02  0.00000000000E+00 0.  1.
</event>
<event>
 7    1  0.5902966E-013  0.5052873E+02  0.7816164E-02  0.1300439E+00
        -11   -1    0    0    0    0  0.00000000000E+00  0.00000000000E+00  0.45593999997E+02  0.45594000000E+02  0.51100000000E-03 0. -1.
         11   -1    0    0    0    0 -0.00000000000E+00 -0.00000000000E+00 -0.45593999997E+02  0.45594000000E+02  0.51100000000E-03 0.  1.
    9900012    2    1    2    0    0  0.30757232921E+02  0.24298198684E+02 -0.10805858256E+02  0.50528727886E+02  0.29999598878E+02 0.  0.
         12    1    1    2    0    0 -0.30757232921E+02 -0.24298198684E+02  0.10805858256E+02  0.40659272114E+02  0.00000000000E+00 0. -1.
         11    1    3    3    0    0  0.28541226050E+02  0.17837639068E+02 -0.23160863455E+01  0.33736437396E+02  0.51100000000E-03 0. -1.
        -11    1    3    3    0    0  0.67344030656E+01  0.58881913696E+01 -0.83478327978E+01  0.12235574974E+02  0.51100000000E-03 0.  1.
         12    1    3    3    0    0 -0.45183961947E+01  0.57236824654E+00 -0.14193911233E+00  0.45567155159E+01  0.00000000000E+00 0. -1.
</event>
<event>
 7    1  0.5902966E-013  0.5052886E+02  0.7816164E-02  0.1300439E+00
        -11   -1    0    0    0    0  0.00000000000E+00  0.00000000000E+00  0.45593999997E+02  0.45594000000E+02  0.51100000000E-03 0. -1.
         11   -1    0    0    0    0 -0.00000000000E+00 -0.00000000000E+00 -0.45593999997E+02  0.45594000000E+02  0.51100000000E-03 0.  1.
    9900012    2    1    2    0    0  0.11817683508E+02 -0.14549592181E+02 -0.36080709895E+02  0.50528857084E+02  0.29999991593E+02 0.  0.
         12    1    1    2    0    0 -0.11817683508E+02  0.14549592181E+02  0.36080709895E+02  0.40659142916E+02  0.00000000000E+00 0. -1.
         11    1    3    3    0    0  0.82337274758E+01 -0.93240390864E+01 -0.16329002907E+02  0.20527257713E+02  0.51100000000E-03 0. -1.
        -11    1    3    3    0    0 -0.76156316406E+01 -0.66596060394E+00 -0.15322664307E+02  0.17123825231E+02  0.51100000000E-03 0.  1.
         12    1    3    3    0    0  0.11199587673E+02 -0.45595924908E+01 -0.44290426808E+01  0.12877774140E+02  0.00000000000E+00 0. -1.
</event>
<event>
 7    1  0.5902966E-013  0.5052886E+02  0.7816164E-02  0.1300439E+00
        -11   -1    0    0    0    0  0.00000000000E+00  0.00000000000E+00  0.45593999997E+02  0.45594000000E+02  0.51100000000E-03 0.  1.
         11   -1    0    0    0    0 -0.00000000000E+00 -0.00000000000E+00 -0.45593999997E+02  0.45594000000E+02  0.51100000000E-03 0. -1.
    9900012    2    1    2    0    0 -0.17406987698E+02 -0.31552077219E+02  0.18831602448E+02  0.50528855293E+02  0.29999986150E+02 0.  0.
         12    1    1    2    0    0  0.17406987698E+02  0.31552077219E+02 -0.18831602448E+02  0.40659144707E+02  0.00000000000E+00 0. -1.
         11    1    3    3    0    0 -0.77862475127E+01 -0.87618867940E+01  0.51361920584E+01  0.12797530217E+02  0.51100000000E-03 0.  1.
        -11    1    3    3    0    0 -0.79524776865E+01  0.35892645221E+01  0.35188106924E+01  0.94078026188E+01  0.51100000000E-03 0. -1.
         12    1    3    3    0    0 -0.16682624984E+01 -0.26379454947E+02  0.10176599697E+02  0.28323522458E+02  0.00000000000E+00 0. -1.
</event>
<event>
 7    1  0.5902966E-013  0.5052885E+02  0.7816164E-02  0.1300439E+00
        -11   -1    0    0    0    0  0.00000000000E+00  0.00000000000E+00  0.45593999997E+02  0.45594000000E+02  0.51100000000E-03 0. -1.
         11   -1    0    0    0    0 -0.00000000000E+00 -0.00000000000E+00 -0.45593999997E+02  0.45594000000E+02  0.51100000000E-03 0.  1.
    9900012    2    1    2    0    0  0.79150417290E+01 -0.29613733118E+02 -0.26712272285E+02  0.50528848935E+02  0.29999966821E+02 0.  0.
         12    1    1    2    0    0 -0.79150417290E+01  0.29613733118E+02  0.26712272285E+02  0.40659151065E+02  0.00000000000E+00 0. -1.
         11    1    3    3    0    0 -0.33439539788E+01 -0.75976739632E+01 -0.10656732290E+02  0.13508242714E+02  0.51100000000E-03 0. -1.
        -11    1    3    3    0    0 -0.57882201598E+01 -0.63321008409E+01  0.42849613935E+00  0.85896800220E+01  0.51100000000E-03 0.  1.
        -12    1    3    3    0    0  0.17047215868E+02 -0.15683958313E+02 -0.16484036134E+02  0.28430926198E+02  0.00000000000E+00 0.  1.
</event>
<event>
 7    1  0.5902966E-013  0.5052885E+02  0.7816164E-02  0.1300439E+00
        -11   -1    0    0    0    0  0.00000000000E+00  0.00000000000E+00  0.45593999997E+02  0.45594000000E+02  0.51100000000E-03 0.  1.
         11   -1    0    0    0    0 -0.00000000000E+00 -0.00000000000E+00 -0.45593999997E+02  0.45594000000E+02  0.51100000000E-03 0. -1.
    9900012    2    1    2    0    0  0.31077258686E+02 -0.18028722817E+02  0.19035112466E+02  0.50528851454E+02  0.29999974481E+02 0.  0.
         12    1    1    2    0    0 -0.31077258686E+02  0.18028722817E+02 -0.19035112466E+02  0.40659148546E+02  0.00000000000E+00 0. -1.
         11    1    3    3    0    0  0.18210320228E+01 -0.38277082725E+01  0.33340474166E+01  0.53929009526E+01  0.51100000000E-03 0. -1.
        -11    1    3    3    0    0  0.94507426739E+01 -0.11757718389E+01  0.18951056343E+02  0.21209467539E+02  0.51100000000E-03 0.  1.
         12    1    3    3    0    0  0.19805483989E+02 -0.13025242706E+02 -0.32499912930E+01  0.23926482963E+02  0.00000000000E+00 0. -1.
</event>
<event>
 7    1  0.5902966E-013  0.5052885E+02  0.7816164E-02  0.1300439E+00
        -11   -1    0    0    0    0  0.00000000000E+00  0.00000000000E+00  0.45593999997E+02  0.45594000000E+02  0.51100000000E-03 0. -1.
         11   -1    0    0    0    0 -0.00000000000E+00 -0.00000000000E+00 -0.45593999997E+02  0.45594000000E+02  0.51100000000E-03 0.  1.
    9900012    2    1    2    0    0  0.23158487583E+02 -0.29332295917E+02 -0.16014596760E+02  0.50528850473E+02  0.29999971498E+02 0.  0.
         12    1    1    2    0    0 -0.23158487583E+02  0.29332295917E+02  0.16014596760E+02  0.40659149527E+02  0.00000000000E+00 0. -1.
         11    1    3    3    0    0  0.14884668617E+02 -0.12849942810E+02  0.25016640252E+00  0.19665629244E+02  0.51100000000E-03 0. -1.
        -11    1    3    3    0    0  0.77983287574E+01  0.13041523440E+01 -0.79885131776E+01  0.11239710307E+02  0.51100000000E-03 0.  1.
         12    1    3    3    0    0  0.47549020829E+00 -0.17786505451E+02 -0.82762499847E+01  0.19623510922E+02  0.00000000000E+00 0. -1.
</event>
<event>
 7    1  0.5902966E-013  0.5052886E+02  0.7816164E-02  0.1300439E+00
        -11   -1    0    0    0    0  0.00000000000E+00  0.00000000000E+00  0.45593999997E+02  0.45594000000E+02  0.51100000000E-03 0. -1.
         11   -1    0    0    0    0 -0.00000000000E+00 -0.00000000000E+00 -0.45593999997E+02  0.45594000000E+02  0.51100000000E-03 0.  1.
    9900012    2    1    2    0    0 -0.24096920395E+02 -0.27187251219E+02 -0.18258090335E+02  0.50528855099E+02  0.29999985559E+02 0.  0.
         12    1    1    2    0    0  0.24096920395E+02  0.27187251219E+02  0.18258090335E+02  0.40659144901E+02  0.00000000000E+00 0. -1.
         11    1    3    3    0    0 -0.22242889757E+02 -0.79712117035E+01 -0.10249163240E+02  0.25755226812E+02  0.51100000000E-03 0. -1.
        -11    1    3    3    0    0 -0.68707416246E+01 -0.10253101383E+02 -0.75989688604E+01  0.14494050726E+02  0.51100000000E-03 0.  1.
         12    1    3    3    0    0  0.50167109859E+01 -0.89629381325E+01 -0.40995823437E+00  0.10279577561E+02  0.00000000000E+00 0. -1.
</event>
<event>
 7    1  0.5902966E-013  0.5052886E+02  0.7816164E-02  0.1300439E+00
        -11   -1    0    0    0    0  0.00000000000E+00  0.00000000000E+00  0.45593999997E+02  0.45594000000E+02  0.51100000000E-03 0. -1.
         11   -1    0    0    0    0 -0.00000000000E+00 -0.00000000000E+00 -0.45593999997E+02  0.45594000000E+02  0.51100000000E-03 0.  1.
    9900012    2    1    2    0    0 -0.35870553365E+02  0.18380007259E+02  0.53520548655E+01  0.50528858877E+02  0.29999997042E+02 0.  0.
         12    1    1    2    0    0  0.35870553365E+02 -0.18380007259E+02 -0.53520548655E+01  0.40659141123E+02  0.00000000000E+00 0. -1.
         11    1    3    3    0    0 -0.70816604239E+00  0.33001113649E+01  0.84721555133E+01  0.91197397697E+01  0.51100000000E-03 0. -1.
        -11    1    3    3    0    0 -0.27104616373E+02  0.95167604297E+01  0.44014862092E+01  0.29062037763E+02  0.51100000000E-03 0.  1.
        -12    1    3    3    0    0 -0.80577709494E+01  0.55631354647E+01 -0.75215868571E+01  0.12347081344E+02  0.00000000000E+00 0.  1.
</event>
<event>
 7    1  0.5902966E-013  0.5052886E+02  0.7816164E-02  0.1300439E+00
        -11   -1    0    0    0    0  0.00000000000E+00  0.00000000000E+00  0.45593999997E+02  0.45594000000E+02  0.51100000000E-03 0.  1.
         11   -1    0    0    0    0 -0.00000000000E+00 -0.00000000000E+00 -0.45593999997E+02  0.45594000000E+02  0.51100000000E-03 0. -1.
    9900012    2    1    2    0    0 -0.19134522855E+02 -0.35008093881E+02  0.78402081894E+01  0.50528862447E+02  0.30000007894E+02 0.  0.
         12    1    1    2    0    0  0.19134522855E+02  0.35008093881E+02 -0.78402081894E+01  0.40659137553E+02  0.00000000000E+00 0. -1.
         11    1    3    3    0    0 -0.41618662140E+01  0.27012432174E+01  0.31215783599E+01  0.58619192267E+01  0.51100000000E-03 0. -1.
        -11    1    3    3    0    0 -0.11741177124E+02 -0.19365254533E+02 -0.56612608714E+01  0.23343482994E+02  0.51100000000E-03 0.  1.
         12    1    3    3    0    0 -0.32314795170E+01 -0.18344082566E+02  0.10379890701E+02  0.21323460226E+02  0.00000000000E+00 0. -1.
</event>
<event>
 7    1  0.5902966E-013  0.5052885E+02  0.7816164E-02  0.1300439E+00
        -11   -1    0    0    0    0  0.00000000000E+00  0.00000000000E+00  0.45593999997E+02  0.45594000000E+02  0.51100000000E-03 0.  1.
         11   -1    0    0    0    0 -0.00000000000E+00 -0.00000000000E+00 -0.45593999997E+02  0.45594000000E+02  0.51100000000E-03 0. -1.
    9900012    2    1    2    0    0  0.26580962304E+02  0.27864025142E+02  0.13046648162E+02  0.50528849955E+02  0.29999969922E+02 0.  0.
         12    1    1    2    0    0 -0.26580962304E+02 -0.27864025142E+02 -0.13046648162E+02  0.40659150045E+02  0.00000000000E+00 0. -1.
         11    1    3    3    0    0 -0.23346748048E+01 -0.93408839165E+00  0.28977701577E+00  0.25312444662E+01  0.51100000000E-03 0. -1.
        -11    1    3    3    0    0  0.16242392543E+02  0.16931762787E+01  0.51718082608E+01  0.17129791662E+02  0.51100000000E-03 0.  1.
        -12    1    3    3    0    0  0.12673244566E+02  0.27104937255E+02  0.75850628855E+01  0.30867813827E+02  0.00000000000E+00 0.  1.
</event>
<event>
 7    1  0.5902966E-013  0.5052886E+02  0.7816164E-02  0.1300439E+00
        -11   -1    0    0    0    0  0.00000000000E+00  0.00000000000E+00  0.45593999997E+02  0.45594000000E+02  0.51100000000E-03 0.  1.
         11   -1    0    0    0    0 -0.00000000000E+00 -0.00000000000E+00 -0.45593999997E+02  0.45594000000E+02  0.51100000000E-03 0. -1.
    9900012    2    1    2    0    0 -0.44932605066E+01 -0.33428605759E+02  0.22704732845E+02  0.50528856298E+02  0.29999989204E+02 0.  0.
         12    1    1    2    0    0  0.44932605066E+01  0.33428605759E+02 -0.22704732845E+02  0.40659143702E+02  0.00000000000E+00 0. -1.
         11    1    3    3    0    0 -0.48612330542E+01 -0.92388527154E+01 -0.59261169167E+01  0.12004451186E+02  0.51100000000E-03 0. -1.
        -11    1    3    3    0    0 -0.32373365401E+01 -0.10268355198E+02  0.81703666860E+01  0.13515707839E+02  0.51100000000E-03 0.  1.
        -12    1    3    3    0    0  0.36053090877E+01 -0.13921397846E+02  0.20460483076E+02  0.25008697273E+02  0.00000000000E+00 0.  1.
</event>
<event>
 7    1  0.5902966E-013  0.5052886E+02  0.7816164E-02  0.1300439E+00
        -11   -1    0    0    0    0  0.00000000000E+00  0.00000000000E+00  0.45593999997E+02  0.45594000000E+02  0.51100000000E-03 0. -1.
         11   -1    0    0    0    0 -0.00000000000E+00 -0.00000000000E+00 -0.45593999997E+02  0.45594000000E+02  0.51100000000E-03 0.  1.
    9900012    2    1    2    0    0  0.38018579248E+01  0.19078771411E+02 -0.35703107299E+02  0.50528861875E+02  0.30000006156E+02 0.  0.
         12    1    1    2    0    0 -0.38018579248E+01 -0.19078771411E+02  0.35703107299E+02  0.40659138125E+02  0.00000000000E+00 0. -1.
         11    1    3    3    0    0  0.47744599917E+00  0.10756843937E+02 -0.12024387130E+02  0.16140741380E+02  0.51100000000E-03 0. -1.
        -11    1    3    3    0    0 -0.34374820847E+01 -0.98812586574E+00 -0.22543785093E+02  0.22825751300E+02  0.51100000000E-03 0.  1.
         12    1    3    3    0    0  0.67618940103E+01  0.93100533399E+01 -0.11349350760E+01  0.11562369196E+02  0.00000000000E+00 0. -1.
</event>
<event>
 7    1  0.5902966E-013  0.5052886E+02  0.7816164E-02  0.1300439E+00
        -11   -1    0    0    0    0  0.00000000000E+00  0.00000000000E+00  0.45593999997E+02  0.45594000000E+02  0.51100000000E-03 0.  1.
         11   -1    0    0    0    0 -0.00000000000E+00 -0.00000000000E+00 -0.45593999997E+02  0.45594000000E+02  0.51100000000E-03 0. -1.
    9900012    2    1    2    0    0  0.44589659960E+00 -0.38923393905E+02  0.11744615087E+02  0.50528863260E+02  0.30000010367E+02 0.  0.
         12    1    1    2    0    0 -0.44589659960E+00  0.38923393905E+02 -0.11744615087E+02  0.40659136740E+02  0.00000000000E+00 0. -1.
         11    1    3    3    0    0  0.59620563990E+01 -0.17227795374E+02 -0.28275425469E+01  0.18448253225E+02  0.51100000000E-03 0. -1.
        -11    1    3    3    0    0  0.53973546562E-01 -0.12268675892E+02 -0.17838701463E+01  0.12397802799E+02  0.51100000000E-03 0.  1.
        -12    1    3    3    0    0 -0.55701333460E+01 -0.94269226393E+01  0.16356027781E+02  0.19682807236E+02  0.00000000000E+00 0.  1.
</event>
<event>
 7    1  0.5902966E-013  0.5052885E+02  0.7816164E-02  0.1300439E+00
        -11   -1    0    0    0    0  0.00000000000E+00  0.00000000000E+00  0.45593999997E+02  0.45594000000E+02  0.51100000000E-03 0. -1.
         11   -1    0    0    0    0 -0.00000000000E+00 -0.00000000000E+00 -0.45593999997E+02  0.45594000000E+02  0.51100000000E-03 0.  1.
    9900012    2    1    2    0    0  0.39353303576E+02 -0.91102553455E+01  0.46354026846E+01  0.50528853270E+02  0.29999979999E+02 0.  0.
         12    1    1    2    0    0 -0.39353303576E+02  0.91102553455E+01 -0.46354026846E+01  0.40659146730E+02  0.00000000000E+00 0. -1.
         11    1    3    3    0    0  0.19930234036E+02 -0.50871164420E+01  0.28684955110E+01  0.20768275066E+02  0.51100000000E-03 0. -1.
        -11    1    3    3    0    0  0.18276860426E+02 -0.29956100076E+01  0.10230278976E+02  0.21158353304E+02  0.51100000000E-03 0.  1.
         12    1    3    3    0    0  0.11462091130E+01 -0.10275288959E+01 -0.84633718025E+01  0.86022249000E+01  0.00000000000E+00 0. -1.
</event>
<event>
 7    1  0.6255879E-013  0.5052887E+02  0.7816164E-02  0.1300439E+00
        -11   -1    0    0    0    0  0.00000000000E+00  0.00000000000E+00  0.45593999997E+02  0.45594000000E+02  0.51100000000E-03 0. -1.
         11   -1    0    0    0    0 -0.00000000000E+00 -0.00000000000E+00 -0.45593999997E+02  0.45594000000E+02  0.51100000000E-03 0.  1.
    9900012    2    1    2    0    0 -0.25748391164E+02  0.21420639839E+02 -0.23050842116E+02  0.50528870879E+02  0.30000033522E+02 0.  0.
         12    1    1    2    0    0  0.25748391164E+02 -0.21420639839E+02  0.23050842116E+02  0.40659129121E+02  0.00000000000E+00 0. -1.
         11    1    3    3    0    0 -0.25749586521E+01 -0.26865047344E+01 -0.29560152670E+01  0.47524463456E+01  0.51100000000E-03 0. -1.
        -11    1    3    3    0    0 -0.13488948264E+00  0.81230786893E+01 -0.15308159007E+02  0.17330387618E+02  0.51100000000E-03 0.  1.
        -12    1    3    3    0    0 -0.23038543029E+02  0.15984065884E+02 -0.47866678420E+01  0.28446036914E+02  0.00000000000E+00 0.  1.
</event>
<event>
 7    1  0.5902966E-013  0.5052886E+02  0.7816164E-02  0.1300439E+00
        -11   -1    0    0    0    0  0.00000000000E+00  0.00000000000E+00  0.45593999997E+02  0.45594000000E+02  0.51100000000E-03 0. -1.
         11   -1    0    0    0    0 -0.00000000000E+00 -0.00000000000E+00 -0.45593999997E+02  0.45594000000E+02  0.51100000000E-03 0.  1.
    9900012    2    1    2    0    0 -0.36034464753E+02 -0.18725175149E+02  0.20126171407E+01  0.50528862501E+02  0.30000008059E+02 0.  0.
         12    1    1    2    0    0  0.36034464753E+02  0.18725175149E+02 -0.20126171407E+01  0.40659137499E+02  0.00000000000E+00 0. -1.
         11    1    3    3    0    0  0.34196607760E+01 -0.79646213565E+00  0.19320484520E+01  0.40076480932E+01  0.51100000000E-03 0. -1.
        -11    1    3    3    0    0 -0.39432514186E+01  0.28824534965E+01  0.20891372986E+01  0.53124631597E+01  0.51100000000E-03 0.  1.
         12    1    3    3    0    0 -0.35510874110E+02 -0.20811166510E+02 -0.20085686099E+01  0.41208751248E+02  0.00000000000E+00 0. -1.
</event>
<event>
 7    1  0.5902966E-013  0.5052887E+02  0.7816164E-02  0.1300439E+00
        -11   -1    0    0    0    0  0.00000000000E+00  0.00000000000E+00  0.45593999997E+02  0.45594000000E+02  0.51100000000E-03 0. -1.
         11   -1    0    0    0    0 -0.00000000000E+00 -0.00000000000E+00 -0.45593999997E+02  0.45594000000E+02  0.51100000000E-03 0.  1.
    9900012    2    1    2    0    0 -0.72625024315E+01  0.24355825850E+00 -0.40004524269E+02  0.50528865428E+02  0.30000016955E+02 0.  0.
         12    1    1    2    0    0  0.72625024315E+01 -0.24355825850E+00  0.40004524269E+02  0.40659134572E+02  0.00000000000E+00 0. -1.
         11    1    3    3    0    0 -0.52770427090E+01  0.24885778462E+01 -0.50711202969E+01  0.77302303184E+01  0.51100000000E-03 0. -1.
        -11    1    3    3    0    0 -0.92645372831E+01 -0.15492748307E+01 -0.34180543325E+02  0.35447728359E+02  0.51100000000E-03 0.  1.
         12    1    3    3    0    0  0.72790775605E+01 -0.69574475698E+00 -0.75286064678E+00  0.73509067504E+01  0.00000000000E+00 0. -1.
</event>
<event>
 7    1  0.5902966E-013  0.5052886E+02  0.7816164E-02  0.1300439E+00
        -11   -1    0    0    0    0  0.00000000000E+00  0.00000000000E+00  0.45593999997E+02  0.45594000000E+02  0.51100000000E-03 0.  1.
         11   -1    0    0    0    0 -0.00000000000E+00 -0.00000000000E+00 -0.45593999997E+02  0.45594000000E+02  0.51100000000E-03 0. -1.
    9900012    2    1    2    0    0 -0.16631248014E+02  0.25565077696E+02  0.26888549233E+02  0.50528859724E+02  0.29999999619E+02 0.  0.
         12    1    1    2    0    0  0.16631248014E+02 -0.25565077696E+02 -0.26888549233E+02  0.40659140276E+02  0.00000000000E+00 0. -1.
         11    1    3    3    0    0 -0.79080119986E+01  0.47112377919E+01  0.93880359098E+00  0.92527708145E+01  0.51100000000E-03 0. -1.
        -11    1    3    3    0    0 -0.14006883001E+02  0.85625779640E+01  0.64726900122E+01  0.17646705898E+02  0.51100000000E-03 0.  1.
         12    1    3    3    0    0  0.52836469854E+01  0.12291261940E+02  0.19477055629E+02  0.23629383012E+02  0.00000000000E+00 0. -1.
</event>
<event>
 7    1  0.5902966E-013  0.5052884E+02  0.7816164E-02  0.1300439E+00
        -11   -1    0    0    0    0  0.00000000000E+00  0.00000000000E+00  0.45593999997E+02  0.45594000000E+02  0.51100000000E-03 0. -1.
         11   -1    0    0    0    0 -0.00000000000E+00 -0.00000000000E+00 -0.45593999997E+02  0.45594000000E+02  0.51100000000E-03 0.  1.
    9900012    2    1    2    0    0  0.10068786538E+02  0.75658250991E+01 -0.38659344776E+02  0.50528842234E+02  0.29999946453E+02 0.  0.
         12    1    1    2    0    0 -0.10068786538E+02 -0.75658250991E+01  0.38659344776E+02  0.40659157766E+02  0.00000000000E+00 0. -1.
         11    1    3    3    0    0  0.40260535924E+01  0.44658980495E+01 -0.70425599458E+01  0.92601837870E+01  0.51100000000E-03 0.  1.
        -11    1    3    3    0    0  0.10745906749E+02 -0.50373217409E+01 -0.29265506475E+02  0.31580357687E+02  0.51100000000E-03 0. -1.
         12    1    3    3    0    0 -0.47031738031E+01  0.81372487905E+01 -0.23512783554E+01  0.96883007594E+01  0.00000000000E+00 0. -1.
</event>
<event>
 7    1  0.5902966E-013  0.5052886E+02  0.7816164E-02  0.1300439E+00
        -11   -1    0    0    0    0  0.00000000000E+00  0.00000000000E+00  0.45593999997E+02  0.45594000000E+02  0.51100000000E-03 0. -1.
         11   -1    0    0    0    0 -0.00000000000E+00 -0.00000000000E+00 -0.45593999997E+02  0.45594000000E+02  0.51100000000E-03 0.  1.
    9900012    2    1    2    0    0  0.27188959117E+02  0.75630911319E+01 -0.29269876516E+02  0.50528861832E+02  0.30000006024E+02 0.  0.
         12    1    1    2    0    0 -0.27188959117E+02 -0.75630911319E+01  0.29269876516E+02  0.40659138168E+02  0.00000000000E+00 0. -1.
         11    1    3    3    0    0 -0.41615068521E+01 -0.21259459903E+01 -0.80949497055E+01  0.93469779410E+01  0.51100000000E-03 0. -1.
        -11    1    3    3    0    0  0.59797664650E+01  0.49228272527E+01 -0.10958116393E+02  0.13419096478E+02  0.51100000000E-03 0.  1.
         12    1    3    3    0    0  0.25370699504E+02  0.47662098696E+01 -0.10216810417E+02  0.27762787413E+02  0.00000000000E+00 0. -1.
</event>
<event>
 7    1  0.5902966E-013  0.5052886E+02  0.7816164E-02  0.1300439E+00
        -11   -1    0    0    0    0  0.00000000000E+00  0.00000000000E+00  0.45593999997E+02  0.45594000000E+02  0.51100000000E-03 0. -1.
         11   -1    0    0    0    0 -0.00000000000E+00 -0.00000000000E+00 -0.45593999997E+02  0.45594000000E+02  0.51100000000E-03 0.  1.
    9900012    2    1    2    0    0 -0.21630515962E+02 -0.14240838688E+02 -0.31344617586E+02  0.50528858852E+02  0.29999996967E+02 0.  0.
         12    1    1    2    0    0  0.21630515962E+02  0.14240838688E+02  0.31344617586E+02  0.40659141148E+02  0.00000000000E+00 0. -1.
         11    1    3    3    0    0 -0.54354108082E+01  0.32247148776E+01 -0.17584535290E+01  0.65600789455E+01  0.51100000000E-03 0. -1.
        -11    1    3    3    0    0 -0.11918808696E+02  0.22189580318E+01 -0.84946141672E+01  0.14803386288E+02  0.51100000000E-03 0.  1.
        -12    1    3    3    0    0 -0.42762964579E+01 -0.19684511597E+02 -0.21091549889E+02  0.29165393619E+02  0.00000000000E+00 0.  1.
</event>
<event>
 7    1  0.5902966E-013  0.5052887E+02  0.7816164E-02  0.1300439E+00
        -11   -1    0    0    0    0  0.00000000000E+00  0.00000000000E+00  0.45593999997E+02  0.45594000000E+02  0.51100000000E-03 0.  1.
         11   -1    0    0    0    0 -0.00000000000E+00 -0.00000000000E+00 -0.45593999997E+02  0.45594000000E+02  0.51100000000E-03 0. -1.
    9900012    2    1    2    0    0  0.13069562127E+01 -0.93117092683E+01  0.39556909776E+02  0.50528866031E+02  0.30000018788E+02 0.  0.
         12    1    1    2    0    0 -0.13069562127E+01  0.93117092683E+01 -0.39556909776E+02  0.40659133969E+02  0.00000000000E+00 0. -1.
         11    1    3    3    0    0  0.19891867177E+00 -0.46847976736E+01 -0.14190061700E+01  0.48990281335E+01  0.51100000000E-03 0. -1.
        -11    1    3    3    0    0  0.13764804788E+01 -0.12138332564E+02  0.21114058618E+02  0.24393386143E+02  0.51100000000E-03 0.  1.
         12    1    3    3    0    0 -0.26844293783E+00  0.75114209692E+01  0.19861857328E+02  0.21236451754E+02  0.00000000000E+00 0. -1.
</event>
<event>
 7    1  0.5902966E-013  0.5052885E+02  0.7816164E-02  0.1300439E+00
        -11   -1    0    0    0    0  0.00000000000E+00  0.00000000000E+00  0.45593999997E+02  0.45594000000E+02  0.51100000000E-03 0. -1.
         11   -1    0    0    0    0 -0.00000000000E+00 -0.00000000000E+00 -0.45593999997E+02  0.45594000000E+02  0.51100000000E-03 0.  1.
    9900012    2    1    2    0    0 -0.39953725685E+02 -0.72536164394E+01  0.20618543124E+01  0.50528851082E+02  0.29999973348E+02 0.  0.
         12    1    1    2    0    0  0.39953725685E+02  0.72536164394E+01 -0.20618543124E+01  0.40659148918E+02  0.00000000000E+00 0. -1.
         11    1    3    3    0    0  0.32736375993E+01  0.11186762921E+01  0.40496425110E+00  0.34831216005E+01  0.51100000000E-03 0. -1.
        -11    1    3    3    0    0 -0.91636852227E+01 -0.50424473486E+01  0.67419370106E+01  0.12443999238E+02  0.51100000000E-03 0.  1.
        -12    1    3    3    0    0 -0.34063678061E+02 -0.33298453829E+01 -0.50850469492E+01  0.34601730243E+02  0.00000000000E+00 0.  1.
</event>
<event>
 7    1  0.5902966E-013  0.5052885E+02  0.7816164E-02  0.1300439E+00
        -11   -1    0    0    0    0  0.00000000000E+00  0.00000000000E+00  0.45593999997E+02  0.45594000000E+02  0.51100000000E-03 0.  1.
         11   -1    0    0    0    0 -0.00000000000E+00 -0.00000000000E+00 -0.45593999997E+02  0.45594000000E+02  0.51100000000E-03 0. -1.
    9900012    2    1    2    0    0  0.42138746570E+01 -0.19928997304E+02  0.35188698128E+02  0.50528854053E+02  0.29999982380E+02 0.  0.
         12    1    1    2    0    0 -0.42138746570E+01  0.19928997304E+02 -0.35188698128E+02  0.40659145947E+02  0.00000000000E+00 0. -1.
         11    1    3    3    0    0  0.49256496875E+01  0.15190373621E+01  0.18254160595E+02  0.18967969808E+02  0.51100000000E-03 0. -1.
        -11    1    3    3    0    0 -0.79432201707E+01 -0.81174235427E+01  0.58439770644E+01  0.12772602704E+02  0.51100000000E-03 0.  1.
         12    1    3    3    0    0  0.72314451401E+01 -0.13330611124E+02  0.11090560469E+02  0.18788281541E+02  0.00000000000E+00 0. -1.
</event>
<event>
 7    1  0.5902966E-013  0.5052889E+02  0.7816164E-02  0.1300439E+00
        -11   -1    0    0    0    0  0.00000000000E+00  0.00000000000E+00  0.45593999997E+02  0.45594000000E+02  0.51100000000E-03 0.  1.
         11   -1    0    0    0    0 -0.00000000000E+00 -0.00000000000E+00 -0.45593999997E+02  0.45594000000E+02  0.51100000000E-03 0. -1.
    9900012    2    1    2    0    0  0.68836547223E+01 -0.39644066781E+02  0.58417871557E+01  0.50528890191E+02  0.30000092224E+02 0.  0.
         12    1    1    2    0    0 -0.68836547223E+01  0.39644066781E+02 -0.58417871557E+01  0.40659109809E+02  0.00000000000E+00 0. -1.
         11    1    3    3    0    0  0.14893889632E+01 -0.58512365162E+01  0.57431598713E+01  0.83330146898E+01  0.51100000000E-03 0. -1.
        -11    1    3    3    0    0  0.10710437441E+02 -0.27509417180E+02  0.82087626460E+01  0.30640908737E+02  0.51100000000E-03 0.  1.
         12    1    3    3    0    0 -0.53161716817E+01 -0.62834130849E+01 -0.81101353616E+01  0.11554966765E+02  0.00000000000E+00 0. -1.
</event>
