<event>
 7    1  0.4639347E-015  0.9000777E+02  0.7816164E-02  0.1186339E+00
        -11   -1    0    0    0    0  0.00000000000E+00  0.00000000000E+00  0.45593999997E+02  0.45594000000E+02  0.51100000000E-03 0.  1.
         11   -1    0    0    0    0 -0.00000000000E+00 -0.00000000000E+00 -0.45593999997E+02  0.45594000000E+02  0.51100000000E-03 0. -1.
    9900012    2    1    2    0    0  0.35329322707E+00 -0.10228863347E+01  0.47099840184E+00  0.90007766103E+02  0.90000027815E+02 0.  0.
         12    1    1    2    0    0 -0.35329322707E+00  0.10228863347E+01 -0.47099840184E+00  0.11802338974E+01  0.00000000000E+00 0. -1.
         11    1    3    3    0    0  0.85570380734E+01  0.52368319001E+01  0.48921571147E+01  0.11161563978E+02  0.51100000000E-03 0. -1.
        -11    1    3    3    0    0  0.96166441826E+01  0.32633191420E+02  0.66302205482E+01  0.34660710500E+02  0.51100000000E-03 0.  1.
         12    1    3    3    0    0 -0.17820389029E+02 -0.38892909655E+02 -0.11051379261E+02  0.44185491625E+02  0.00000000000E+00 0. -1.
</event>
<event>
 7    1  0.4639347E-015  0.9000775E+02  0.7816164E-02  0.1186339E+00
        -11   -1    0    0    0    0  0.00000000000E+00  0.00000000000E+00  0.45593999997E+02  0.45594000000E+02  0.51100000000E-03 0. -1.
         11   -1    0    0    0    0 -0.00000000000E+00 -0.00000000000E+00 -0.45593999997E+02  0.45594000000E+02  0.51100000000E-03 0.  1.
    9900012    2    1    2    0    0 -0.20947249882E+00  0.11571159746E+01 -0.10091226343E+00  0.90007754521E+02  0.90000016080E+02 0.  0.
         12    1    1    2    0    0  0.20947249882E+00 -0.11571159746E+01  0.10091226343E+00  0.11802454793E+01  0.00000000000E+00 0. -1.
         11    1    3    3    0    0  0.76004019123E+01  0.75018575365E+01  0.51816206295E+01  0.11869842810E+02  0.51100000000E-03 0. -1.
        -11    1    3    3    0    0 -0.57245914492E+01 -0.34141030597E+02 -0.26094661166E+02  0.43351035271E+02  0.51100000000E-03 0.  1.
         12    1    3    3    0    0 -0.20852829620E+01  0.27796289035E+02  0.20812128273E+02  0.34786876439E+02  0.00000000000E+00 0. -1.
</event>
<event>
 7    1  0.4639347E-015  0.9000774E+02  0.7816164E-02  0.1186339E+00
        -11   -1    0    0    0    0  0.00000000000E+00  0.00000000000E+00  0.45593999997E+02  0.45594000000E+02  0.51100000000E-03 0.  1.
         11   -1    0    0    0    0 -0.00000000000E+00 -0.00000000000E+00 -0.45593999997E+02  0.45594000000E+02  0.51100000000E-03 0. -1.
    9900012    2    1    2    0    0  0.22813865309E-01 -0.11787437248E+01  0.55207290545E-01  0.90007743635E+02  0.90000005051E+02 0.  0.
         12    1    1    2    0    0 -0.22813865309E-01  0.11787437248E+01 -0.55207290545E-01  0.11802563646E+01  0.00000000000E+00 0. -1.
         11    1    3    3    0    0 -0.57135545778E+01  0.87563346657E+01 -0.23038024190E+01  0.10706334972E+02  0.51100000000E-03 0. -1.
        -11    1    3    3    0    0 -0.38474937276E+01  0.15762008783E+02  0.33852515194E+02  0.37539804396E+02  0.51100000000E-03 0.  1.
         12    1    3    3    0    0  0.95838621706E+01 -0.25697087174E+02 -0.31493505484E+02  0.41761604268E+02  0.00000000000E+00 0. -1.
</event>
<event>
 7    1  0.4639347E-015  0.9000771E+02  0.7816164E-02  0.1186339E+00
        -11   -1    0    0    0    0  0.00000000000E+00  0.00000000000E+00  0.45593999997E+02  0.45594000000E+02  0.51100000000E-03 0.  1.
         11   -1    0    0    0    0 -0.00000000000E+00 -0.00000000000E+00 -0.45593999997E+02  0.45594000000E+02  0.51100000000E-03 0. -1.
    9900012    2    1    2    0    0 -0.10164050667E+01 -0.55869026251E+00  0.21881841674E+00  0.90007705304E+02  0.89999966214E+02 0.  0.
         12    1    1    2    0    0  0.10164050667E+01  0.55869026251E+00 -0.21881841674E+00  0.11802946957E+01  0.00000000000E+00 0. -1.
         11    1    3    3    0    0 -0.95177367128E+01  0.22260108698E+01  0.72634097609E+01  0.12177830601E+02  0.51100000000E-03 0. -1.
        -11    1    3    3    0    0 -0.27749035694E+02  0.20334587834E+02 -0.10441502464E+01  0.34417941460E+02  0.51100000000E-03 0.  1.
         12    1    3    3    0    0  0.36250367340E+02 -0.23119288966E+02 -0.60004410978E+01  0.43411933244E+02  0.00000000000E+00 0. -1.
</event>
<event>
 7    1  0.4639347E-015  0.9000769E+02  0.7816164E-02  0.1186339E+00
        -11   -1    0    0    0    0  0.00000000000E+00  0.00000000000E+00  0.45593999997E+02  0.45594000000E+02  0.51100000000E-03 0. -1.
         11   -1    0    0    0    0 -0.00000000000E+00 -0.00000000000E+00 -0.45593999997E+02  0.45594000000E+02  0.51100000000E-03 0.  1.
    9900012    2    1    2    0    0 -0.10378422120E+01  0.55803228201E+00  0.67892465447E-01  0.90007692467E+02  0.89999953208E+02 0.  0.
         12    1    1    2    0    0  0.10378422120E+01 -0.55803228201E+00 -0.67892465447E-01  0.11803075326E+01  0.00000000000E+00 0. -1.
         11    1    3    3    0    0 -0.35994006223E+02 -0.87996369362E+01 -0.17272527391E+02  0.40882053482E+02  0.51100000000E-03 0. -1.
        -11    1    3    3    0    0  0.30061254399E+01 -0.87353182999E+01  0.31196970784E+01  0.97506454188E+01  0.51100000000E-03 0.  1.
        -12    1    3    3    0    0  0.31950038571E+02  0.18092987518E+02  0.14220722778E+02  0.39374993566E+02  0.00000000000E+00 0.  1.
</event>
<event>
 7    1  0.4639347E-015  0.9000782E+02  0.7816164E-02  0.1186339E+00
        -11   -1    0    0    0    0  0.00000000000E+00  0.00000000000E+00  0.45593999997E+02  0.45594000000E+02  0.51100000000E-03 0. -1.
         11   -1    0    0    0    0 -0.00000000000E+00 -0.00000000000E+00 -0.45593999997E+02  0.45594000000E+02  0.51100000000E-03 0.  1.
    9900012    2    1    2    0    0  0.72884092130E+00  0.82790630953E+00 -0.41973891696E+00  0.90007822596E+02  0.90000085054E+02 0.  0.
         12    1    1    2    0    0 -0.72884092130E+00 -0.82790630953E+00  0.41973891696E+00  0.11801774038E+01  0.00000000000E+00 0. -1.
         11    1    3    3    0    0 -0.95003367227E+01  0.90969547041E+00 -0.91589097472E+00  0.95876378860E+01  0.51100000000E-03 0. -1.
        -11    1    3    3    0    0 -0.27276887680E+02 -0.12034683490E+02 -0.20135602047E+02  0.35976446160E+02  0.51100000000E-03 0.  1.
         12    1    3    3    0    0  0.37506065324E+02  0.11952894329E+02  0.20631754105E+02  0.44443738551E+02  0.00000000000E+00 0. -1.
</event>
<event>
 7    1  0.5263289E-015  0.9000776E+02  0.7816164E-02  0.1186339E+00
        -11   -1    0    0    0    0  0.00000000000E+00  0.00000000000E+00  0.45593999997E+02  0.45594000000E+02  0.51100000000E-03 0.  1.
         11   -1    0    0    0    0 -0.00000000000E+00 -0.00000000000E+00 -0.45593999997E+02  0.45594000000E+02  0.51100000000E-03 0. -1.
    9900012    2    1    2    0    0  0.11191389214E+01  0.44679352078E-01  0.37215427493E+00  0.90007759781E+02  0.90000021410E+02 0.  0.
         12    1    1    2    0    0 -0.11191389214E+01 -0.44679352078E-01 -0.37215427493E+00  0.11802402189E+01  0.00000000000E+00 0. -1.
         11    1    3    3    0    0  0.84569305462E+01  0.31038426691E+01  0.14905215305E+01  0.91310003982E+01  0.51100000000E-03 0. -1.
        -11    1    3    3    0    0 -0.96649613373E+01  0.37670644571E+02 -0.74330991114E+01  0.39594695386E+02  0.51100000000E-03 0.  1.
         12    1    3    3    0    0  0.23271697126E+01 -0.40729807888E+02  0.63147318559E+01  0.41282063997E+02  0.00000000000E+00 0. -1.
</event>
<event>
 7    1  0.4639347E-015  0.9000782E+02  0.7816164E-02  0.1186339E+00
        -11   -1    0    0    0    0  0.00000000000E+00  0.00000000000E+00  0.45593999997E+02  0.45594000000E+02  0.51100000000E-03 0. -1.
         11   -1    0    0    0    0 -0.00000000000E+00 -0.00000000000E+00 -0.45593999997E+02  0.45594000000E+02  0.51100000000E-03 0.  1.
    9900012    2    1    2    0    0 -0.11729034260E+00  0.51110398241E+00 -0.10572805308E+01  0.90007819325E+02  0.90000081740E+02 0.  0.
         12    1    1    2    0    0  0.11729034260E+00 -0.51110398241E+00  0.10572805308E+01  0.11801806752E+01  0.00000000000E+00 0. -1.
         11    1    3    3    0    0  0.25330542321E+00 -0.70490927321E+01 -0.37855735663E+01  0.80052757273E+01  0.51100000000E-03 0. -1.
        -11    1    3    3    0    0 -0.11411339615E+02 -0.35597076114E+02  0.23234713155E+01  0.37453558161E+02  0.51100000000E-03 0.  1.
         12    1    3    3    0    0  0.11040743849E+02  0.43157272829E+02  0.40482171998E+00  0.44548985436E+02  0.00000000000E+00 0. -1.
</event>
<event>
 7    1  0.4639347E-015  0.9000786E+02  0.7816164E-02  0.1186339E+00
        -11   -1    0    0    0    0  0.00000000000E+00  0.00000000000E+00  0.45593999997E+02  0.45594000000E+02  0.51100000000E-03 0. -1.
         11   -1    0    0    0    0 -0.00000000000E+00 -0.00000000000E+00 -0.45593999997E+02  0.45594000000E+02  0.51100000000E-03 0.  1.
    9900012    2    1    2    0    0 -0.15914963918E+00 -0.11683991394E+01 -0.47316039700E-01  0.90007862735E+02  0.90000125723E+02 0.  0.
         12    1    1    2    0    0  0.15914963918E+00  0.11683991394E+01  0.47316039700E-01  0.11801372650E+01  0.00000000000E+00 0. -1.
         11    1    3    3    0    0 -0.32214497259E+02 -0.39313607821E+01 -0.21538508900E+02  0.38950440269E+02  0.51100000000E-03 0. -1.
        -11    1    3    3    0    0 -0.18478507089E+01  0.91363458318E+01 -0.17197357159E+01  0.94786527837E+01  0.51100000000E-03 0.  1.
        -12    1    3    3    0    0  0.33903198329E+02 -0.63733841891E+01  0.23210928576E+02  0.41578769682E+02  0.00000000000E+00 0.  1.
</event>
<event>
 7    1  0.4639347E-015  0.9000783E+02  0.7816164E-02  0.1186339E+00
        -11   -1    0    0    0    0  0.00000000000E+00  0.00000000000E+00  0.45593999997E+02  0.45594000000E+02  0.51100000000E-03 0.  1.
         11   -1    0    0    0    0 -0.00000000000E+00 -0.00000000000E+00 -0.45593999997E+02  0.45594000000E+02  0.51100000000E-03 0. -1.
    9900012    2    1    2    0    0  0.54434486616E+00 -0.89862170111E+00 -0.53756489882E+00  0.90007826998E+02  0.90000089514E+02 0.  0.
         12    1    1    2    0    0 -0.54434486616E+00  0.89862170111E+00  0.53756489882E+00  0.11801730023E+01  0.00000000000E+00 0. -1.
         11    1    3    3    0    0  0.36645808891E+02  0.79243982195E+01  0.49959653320E+01  0.37824212699E+02  0.51100000000E-03 0. -1.
        -11    1    3    3    0    0  0.32741645190E+01  0.65308490916E+01 -0.66879862632E+01  0.99046102232E+01  0.51100000000E-03 0.  1.
        -12    1    3    3    0    0 -0.39375628544E+02 -0.15353869012E+02  0.11544560324E+01  0.42279004076E+02  0.00000000000E+00 0.  1.
</event>
<event>
 7    1  0.4639347E-015  0.9000805E+02  0.7816164E-02  0.1186338E+00
        -11   -1    0    0    0    0  0.00000000000E+00  0.00000000000E+00  0.45593999997E+02  0.45594000000E+02  0.51100000000E-03 0. -1.
         11   -1    0    0    0    0 -0.00000000000E+00 -0.00000000000E+00 -0.45593999997E+02  0.45594000000E+02  0.51100000000E-03 0.  1.
    9900012    2    1    2    0    0 -0.95711033897E+00  0.54335344278E+00 -0.42543387553E+00  0.90008047820E+02  0.90000313251E+02 0.  0.
         12    1    1    2    0    0  0.95711033897E+00 -0.54335344278E+00  0.42543387553E+00  0.11799521800E+01  0.00000000000E+00 0. -1.
         11    1    3    3    0    0  0.16416308021E+02 -0.63451428528E+01  0.32838304984E+02  0.37257352044E+02  0.51100000000E-03 0. -1.
        -11    1    3    3    0    0  0.10315709462E+02  0.12034233503E+01 -0.19522590570E+01  0.10567563823E+02  0.51100000000E-03 0.  1.
        -12    1    3    3    0    0 -0.27689127822E+02  0.56850729453E+01 -0.31311479802E+02  0.42183131953E+02  0.00000000000E+00 0.  1.
</event>
<event>
 7    1  0.4639347E-015  0.9000776E+02  0.7816164E-02  0.1186339E+00
        -11   -1    0    0    0    0  0.00000000000E+00  0.00000000000E+00  0.45593999997E+02  0.45594000000E+02  0.51100000000E-03 0.  1.
         11   -1    0    0    0    0 -0.00000000000E+00 -0.00000000000E+00 -0.45593999997E+02  0.45594000000E+02  0.51100000000E-03 0. -1.
    9900012    2    1    2    0    0 -0.17517521765E+00  0.29069522915E+00  0.11303885935E+01  0.90007759158E+02  0.90000020779E+02 0.  0.
         12    1    1    2    0    0  0.17517521765E+00 -0.29069522915E+00 -0.11303885935E+01  0.11802408421E+01  0.00000000000E+00 0. -1.
         11    1    3    3    0    0 -0.42509041512E+01  0.15145844777E+01 -0.62274641608E+01  0.76906087131E+01  0.51100000000E-03 0. -1.
        -11    1    3    3    0    0 -0.37449497095E+02  0.90977527948E+01 -0.17156573154E+01  0.38576902661E+02  0.51100000000E-03 0.  1.
         12    1    3    3    0    0  0.41525226029E+02 -0.10321642043E+02  0.90735100697E+01  0.43740247784E+02  0.00000000000E+00 0. -1.
</event>
<event>
 7    1  0.4639347E-015  0.9000782E+02  0.7816164E-02  0.1186339E+00
        -11   -1    0    0    0    0  0.00000000000E+00  0.00000000000E+00  0.45593999997E+02  0.45594000000E+02  0.51100000000E-03 0.  1.
         11   -1    0    0    0    0 -0.00000000000E+00 -0.00000000000E+00 -0.45593999997E+02  0.45594000000E+02  0.51100000000E-03 0. -1.
    9900012    2    1    2    0    0 -0.10431394001E+00 -0.80153952413E+00  0.85992792419E+00  0.90007820759E+02  0.90000083193E+02 0.  0.
         12    1    1    2    0    0  0.10431394001E+00  0.80153952413E+00 -0.85992792419E+00  0.11801792413E+01  0.00000000000E+00 0. -1.
         11    1    3    3    0    0  0.30002985573E+02  0.23005879768E+02 -0.22118042199E+00  0.37808710217E+02  0.51100000000E-03 0. -1.
        -11    1    3    3    0    0  0.87463198318E+00  0.73309013841E+01 -0.32374829410E+01  0.80615378349E+01  0.51100000000E-03 0.  1.
        -12    1    3    3    0    0 -0.30981931497E+02 -0.31138320676E+02  0.43185912872E+01  0.44137572707E+02  0.00000000000E+00 0.  1.
</event>
<event>
 7    1  0.4639347E-015  0.9000774E+02  0.7816164E-02  0.1186339E+00
        -11   -1    0    0    0    0  0.00000000000E+00  0.00000000000E+00  0.45593999997E+02  0.45594000000E+02  0.51100000000E-03 0.  1.
         11   -1    0    0    0    0 -0.00000000000E+00 -0.00000000000E+00 -0.45593999997E+02  0.45594000000E+02  0.51100000000E-03 0. -1.
    9900012    2    1    2    0    0  0.45418482227E+00 -0.97700267315E+00  0.48186114186E+00  0.90007742301E+02  0.90000003699E+02 0.  0.
         12    1    1    2    0    0 -0.45418482227E+00  0.97700267315E+00 -0.48186114186E+00  0.11802576990E+01  0.00000000000E+00 0. -1.
         11    1    3    3    0    0 -0.22459389756E+02  0.30227601765E+02 -0.15733137017E+02  0.40812543382E+02  0.51100000000E-03 0. -1.
        -11    1    3    3    0    0  0.68483309391E+01  0.88814137980E+00  0.10915918821E+02  0.12916877166E+02  0.51100000000E-03 0.  1.
        -12    1    3    3    0    0  0.16065243639E+02 -0.32092745818E+02  0.52990793374E+01  0.36278321752E+02  0.00000000000E+00 0.  1.
</event>
<event>
 7    1  0.4639347E-015  0.9000783E+02  0.7816164E-02  0.1186339E+00
        -11   -1    0    0    0    0  0.00000000000E+00  0.00000000000E+00  0.45593999997E+02  0.45594000000E+02  0.51100000000E-03 0. -1.
         11   -1    0    0    0    0 -0.00000000000E+00 -0.00000000000E+00 -0.45593999997E+02  0.45594000000E+02  0.51100000000E-03 0.  1.
    9900012    2    1    2    0    0 -0.47070763485E+00 -0.89567628968E+00  0.60745884957E+00  0.90007827154E+02  0.90000089672E+02 0.  0.
         12    1    1    2    0    0  0.47070763485E+00  0.89567628968E+00 -0.60745884957E+00  0.11801728464E+01  0.00000000000E+00 0. -1.
         11    1    3    3    0    0  0.32242183754E+02  0.55721908001E+01  0.21781799249E+02  0.39307181307E+02  0.51100000000E-03 0. -1.
        -11    1    3    3    0    0 -0.40034438391E+01 -0.37264239516E+01  0.79913374223E+01  0.96837633231E+01  0.51100000000E-03 0.  1.
        -12    1    3    3    0    0 -0.28709447550E+02 -0.27414431382E+01 -0.29165677822E+02  0.41016882523E+02  0.00000000000E+00 0.  1.
</event>
<event>
 7    1  0.4639347E-015  0.9000773E+02  0.7816164E-02  0.1186339E+00
        -11   -1    0    0    0    0  0.00000000000E+00  0.00000000000E+00  0.45593999997E+02  0.45594000000E+02  0.51100000000E-03 0.  1.
         11   -1    0    0    0    0 -0.00000000000E+00 -0.00000000000E+00 -0.45593999997E+02  0.45594000000E+02  0.51100000000E-03 0. -1.
    9900012    2    1    2    0    0 -0.79572800427E+00 -0.32657477016E+00  0.80821440566E+00  0.90007726869E+02  0.89999988064E+02 0.  0.
         12    1    1    2    0    0  0.79572800427E+00  0.32657477016E+00 -0.80821440566E+00  0.11802731306E+01  0.00000000000E+00 0. -1.
         11    1    3    3    0    0 -0.18759902132E+02  0.83880894186E+00 -0.63404150118E+01  0.19820151140E+02  0.51100000000E-03 0. -1.
        -11    1    3    3    0    0  0.21146158373E+02 -0.32253020430E+02  0.43858103398E+01  0.38815624089E+02  0.51100000000E-03 0.  1.
         12    1    3    3    0    0 -0.31819842459E+01  0.31087636718E+02  0.27628190777E+01  0.31371951640E+02  0.00000000000E+00 0. -1.
</event>
<event>
 7    1  0.4639347E-015  0.9000786E+02  0.7816164E-02  0.1186339E+00
        -11   -1    0    0    0    0  0.00000000000E+00  0.00000000000E+00  0.45593999997E+02  0.45594000000E+02  0.51100000000E-03 0.  1.
         11   -1    0    0    0    0 -0.00000000000E+00 -0.00000000000E+00 -0.45593999997E+02  0.45594000000E+02  0.51100000000E-03 0. -1.
    9900012    2    1    2    0    0 -0.92839436133E+00  0.61600735362E+00  0.38903070591E+00  0.90007861856E+02  0.90000124832E+02 0.  0.
         12    1    1    2    0    0  0.92839436133E+00 -0.61600735362E+00 -0.38903070591E+00  0.11801381445E+01  0.00000000000E+00 0. -1.
         11    1    3    3    0    0  0.78642689213E+01  0.32694051196E+01 -0.34003796955E+01  0.91705134991E+01  0.51100000000E-03 0. -1.
        -11    1    3    3    0    0  0.10763424584E+02  0.31134840440E+02  0.20030231727E+02  0.38554374347E+02  0.51100000000E-03 0.  1.
         12    1    3    3    0    0 -0.19556087867E+02 -0.33788238206E+02 -0.16240821326E+02  0.42282974009E+02  0.00000000000E+00 0. -1.
</event>
<event>
 7    1  0.4639347E-015  0.9000723E+02  0.7816164E-02  0.1186340E+00
        -11   -1    0    0    0    0  0.00000000000E+00  0.00000000000E+00  0.45593999997E+02  0.45594000000E+02  0.51100000000E-03 0.  1.
         11   -1    0    0    0    0 -0.00000000000E+00 -0.00000000000E+00 -0.45593999997E+02  0.45594000000E+02  0.51100000000E-03 0. -1.
    9900012    2    1    2    0    0 -0.99506748058E-01 -0.50498979888E+00  0.10626804329E+01  0.90007234997E+02  0.89999489698E+02 0.  0.
         12    1    1    2    0    0  0.99506748058E-01  0.50498979888E+00 -0.10626804329E+01  0.11807650030E+01  0.00000000000E+00 0. -1.
         11    1    3    3    0    0 -0.36539152420E+02 -0.23696612096E+01 -0.95723860464E+01  0.37846473134E+02  0.51100000000E-03 0. -1.
        -11    1    3    3    0    0 -0.62271743783E+01  0.38179329510E+01  0.54961356196E+01  0.91412154425E+01  0.51100000000E-03 0.  1.
        -12    1    3    3    0    0  0.42666820050E+02 -0.19532615403E+01  0.51389308597E+01  0.43019546420E+02  0.00000000000E+00 0.  1.
</event>
<event>
 7    1  0.4639347E-015  0.9000776E+02  0.7816164E-02  0.1186339E+00
        -11   -1    0    0    0    0  0.00000000000E+00  0.00000000000E+00  0.45593999997E+02  0.45594000000E+02  0.51100000000E-03 0. -1.
         11   -1    0    0    0    0 -0.00000000000E+00 -0.00000000000E+00 -0.45593999997E+02  0.45594000000E+02  0.51100000000E-03 0.  1.
    9900012    2    1    2    0    0 -0.65636951866E+00  0.95279221274E+00 -0.23311581457E+00  0.90007755564E+02  0.90000017137E+02 0.  0.
         12    1    1    2    0    0  0.65636951866E+00 -0.95279221274E+00  0.23311581457E+00  0.11802444360E+01  0.00000000000E+00 0. -1.
         11    1    3    3    0    0  0.19479210932E+02  0.27806397356E+02 -0.26905596082E+02  0.43319123874E+02  0.51100000000E-03 0. -1.
        -11    1    3    3    0    0  0.22054674679E+01 -0.16383640205E+01  0.73618956437E+01  0.78578515604E+01  0.51100000000E-03 0.  1.
        -12    1    3    3    0    0 -0.22341047918E+02 -0.25215241123E+02  0.19310584623E+02  0.38830780130E+02  0.00000000000E+00 0.  1.
</event>
<event>
 7    1  0.4639347E-015  0.9000775E+02  0.7816164E-02  0.1186339E+00
        -11   -1    0    0    0    0  0.00000000000E+00  0.00000000000E+00  0.45593999997E+02  0.45594000000E+02  0.51100000000E-03 0.  1.
         11   -1    0    0    0    0 -0.00000000000E+00 -0.00000000000E+00 -0.45593999997E+02  0.45594000000E+02  0.51100000000E-03 0. -1.
    9900012    2    1    2    0    0  0.54467281656E+00 -0.16745074176E+00  0.10335738539E+01  0.90007752933E+02  0.90000014472E+02 0.  0.
         12    1    1    2    0    0 -0.54467281656E+00  0.16745074176E+00 -0.10335738539E+01  0.11802470671E+01  0.00000000000E+00 0. -1.
         11    1    3    3    0    0 -0.24445152460E+02 -0.22516415371E+02 -0.17387831751E+02  0.37508547469E+02  0.51100000000E-03 0. -1.
        -11    1    3    3    0    0  0.51820224003E+00 -0.57789955933E+01 -0.56675752075E+01  0.81109020844E+01  0.51100000000E-03 0.  1.
        -12    1    3    3    0    0  0.24471623037E+02  0.28127960222E+02  0.24088980813E+02  0.44388303380E+02  0.00000000000E+00 0.  1.
</event>
<event>
 7    1  0.4639347E-015  0.9000770E+02  0.7816164E-02  0.1186339E+00
        -11   -1    0    0    0    0  0.00000000000E+00  0.00000000000E+00  0.45593999997E+02  0.45594000000E+02  0.51100000000E-03 0.  1.
         11   -1    0    0    0    0 -0.00000000000E+00 -0.00000000000E+00 -0.45593999997E+02  0.45594000000E+02  0.51100000000E-03 0. -1.
    9900012    2    1    2    0    0 -0.91532676906E+00 -0.33845059976E+00  0.66387216846E+00  0.90007704207E+02  0.89999965103E+02 0.  0.
         12    1    1    2    0    0  0.91532676906E+00  0.33845059976E+00 -0.66387216846E+00  0.11802957929E+01  0.00000000000E+00 0. -1.
         11    1    3    3    0    0  0.26277040858E+02  0.61415165085E+01 -0.28109243160E+02  0.38965762569E+02  0.51100000000E-03 0. -1.
        -11    1    3    3    0    0  0.49609727481E+01 -0.63029506171E+01  0.19482756921E+00  0.80234902088E+01  0.51100000000E-03 0.  1.
        -12    1    3    3    0    0 -0.32153340375E+02 -0.17701649120E+00  0.28578287760E+02  0.43018451429E+02  0.00000000000E+00 0.  1.
</event>
<event>
 7    1  0.4639347E-015  0.9000763E+02  0.7816164E-02  0.1186339E+00
        -11   -1    0    0    0    0  0.00000000000E+00  0.00000000000E+00  0.45593999997E+02  0.45594000000E+02  0.51100000000E-03 0. -1.
         11   -1    0    0    0    0 -0.00000000000E+00 -0.00000000000E+00 -0.45593999997E+02  0.45594000000E+02  0.51100000000E-03 0.  1.
    9900012    2    1    2    0    0  0.40957763543E+00 -0.72607776638E+00 -0.83566550513E+00  0.90007627348E+02  0.89999887228E+02 0.  0.
         12    1    1    2    0    0 -0.40957763543E+00  0.72607776638E+00  0.83566550513E+00  0.11803726525E+01  0.00000000000E+00 0. -1.
         11    1    3    3    0    0  0.35181372327E+00 -0.59939397765E+01  0.67420631508E+01  0.90280951884E+01  0.51100000000E-03 0. -1.
        -11    1    3    3    0    0  0.21688648356E+02 -0.31185917925E+02 -0.40416939651E+00  0.37988449528E+02  0.51100000000E-03 0.  1.
         12    1    3    3    0    0 -0.21630884444E+02  0.36453779935E+02 -0.71735592594E+01  0.42991082632E+02  0.00000000000E+00 0. -1.
</event>
<event>
 7    1  0.4639347E-015  0.9000765E+02  0.7816164E-02  0.1186339E+00
        -11   -1    0    0    0    0  0.00000000000E+00  0.00000000000E+00  0.45593999997E+02  0.45594000000E+02  0.51100000000E-03 0. -1.
         11   -1    0    0    0    0 -0.00000000000E+00 -0.00000000000E+00 -0.45593999997E+02  0.45594000000E+02  0.51100000000E-03 0.  1.
    9900012    2    1    2    0    0 -0.67431859587E+00 -0.85649146967E+00 -0.45270335676E+00  0.90007651096E+02  0.89999911290E+02 0.  0.
         12    1    1    2    0    0  0.67431859587E+00  0.85649146967E+00  0.45270335676E+00  0.11803489042E+01  0.00000000000E+00 0. -1.
         11    1    3    3    0    0 -0.34529820242E+02 -0.11088448288E+02 -0.96738697317E+01  0.37534596405E+02  0.51100000000E-03 0. -1.
        -11    1    3    3    0    0 -0.72372874245E+01  0.53999295910E+01 -0.26807671083E+01  0.94193461239E+01  0.51100000000E-03 0.  1.
        -12    1    3    3    0    0  0.41092789071E+02  0.48320272276E+01  0.11901933483E+02  0.43053708567E+02  0.00000000000E+00 0.  1.
</event>
<event>
 7    1  0.4639347E-015  0.9000780E+02  0.7816164E-02  0.1186339E+00
        -11   -1    0    0    0    0  0.00000000000E+00  0.00000000000E+00  0.45593999997E+02  0.45594000000E+02  0.51100000000E-03 0.  1.
         11   -1    0    0    0    0 -0.00000000000E+00 -0.00000000000E+00 -0.45593999997E+02  0.45594000000E+02  0.51100000000E-03 0. -1.
    9900012    2    1    2    0    0 -0.58025246892E+00 -0.54694807538E+00  0.87007087111E+00  0.90007801523E+02  0.90000063703E+02 0.  0.
         12    1    1    2    0    0  0.58025246892E+00  0.54694807538E+00 -0.87007087111E+00  0.11801984772E+01  0.00000000000E+00 0. -1.
         11    1    3    3    0    0  0.23728962075E+02  0.12153106835E+02 -0.26235936936E+02  0.37404358490E+02  0.51100000000E-03 0. -1.
        -11    1    3    3    0    0  0.41701870212E+01 -0.94162793519E+01 -0.32994970287E+01  0.10814039834E+02  0.51100000000E-03 0.  1.
        -12    1    3    3    0    0 -0.28479401565E+02 -0.32837755581E+01  0.30405504836E+02  0.41789403199E+02  0.00000000000E+00 0.  1.
</event>
<event>
 7    1  0.4639347E-015  0.9000777E+02  0.7816164E-02  0.1186339E+00
        -11   -1    0    0    0    0  0.00000000000E+00  0.00000000000E+00  0.45593999997E+02  0.45594000000E+02  0.51100000000E-03 0. -1.
         11   -1    0    0    0    0 -0.00000000000E+00 -0.00000000000E+00 -0.45593999997E+02  0.45594000000E+02  0.51100000000E-03 0.  1.
    9900012    2    1    2    0    0 -0.53279485030E+00 -0.10508454179E+01  0.69204037398E-01  0.90007773054E+02  0.90000034858E+02 0.  0.
         12    1    1    2    0    0  0.53279485030E+00  0.10508454179E+01 -0.69204037398E-01  0.11802269458E+01  0.00000000000E+00 0. -1.
         11    1    3    3    0    0 -0.62671012895E+01  0.31122924927E+01 -0.48260174001E+01  0.85001980765E+01  0.51100000000E-03 0. -1.
        -11    1    3    3    0    0  0.56479454559E+01  0.36445867761E+02 -0.10066390444E+02  0.38229998451E+02  0.51100000000E-03 0.  1.
         12    1    3    3    0    0  0.86360983245E-01 -0.40609005672E+02  0.14961611882E+02  0.43277576526E+02  0.00000000000E+00 0. -1.
</event>
<event>
 7    1  0.4639347E-015  0.9000773E+02  0.7816164E-02  0.1186339E+00
        -11   -1    0    0    0    0  0.00000000000E+00  0.00000000000E+00  0.45593999997E+02  0.45594000000E+02  0.51100000000E-03 0.  1.
         11   -1    0    0    0    0 -0.00000000000E+00 -0.00000000000E+00 -0.45593999997E+02  0.45594000000E+02  0.51100000000E-03 0. -1.
    9900012    2    1    2    0    0  0.91571392736E-01  0.11745009933E+01  0.72043324934E-01  0.90007733867E+02  0.89999995154E+02 0.  0.
         12    1    1    2    0    0 -0.91571392736E-01 -0.11745009933E+01 -0.72043324934E-01  0.11802661326E+01  0.00000000000E+00 0. -1.
         11    1    3    3    0    0 -0.23983905321E+02  0.30122698579E+01 -0.33275604715E+02  0.41128668268E+02  0.51100000000E-03 0. -1.
        -11    1    3    3    0    0  0.74158088059E+01 -0.20448329924E+01 -0.34912490442E+01  0.84477442174E+01  0.51100000000E-03 0.  1.
        -12    1    3    3    0    0  0.16659667908E+02  0.20706412772E+00  0.36838897084E+02  0.40431321382E+02  0.00000000000E+00 0.  1.
</event>
<event>
 7    1  0.4639347E-015  0.9000785E+02  0.7816164E-02  0.1186339E+00
        -11   -1    0    0    0    0  0.00000000000E+00  0.00000000000E+00  0.45593999997E+02  0.45594000000E+02  0.51100000000E-03 0. -1.
         11   -1    0    0    0    0 -0.00000000000E+00 -0.00000000000E+00 -0.45593999997E+02  0.45594000000E+02  0.51100000000E-03 0.  1.
    9900012    2    1    2    0    0 -0.11674216341E+01 -0.12858984499E+00 -0.11552662664E+00  0.90007849577E+02  0.90000112391E+02 0.  0.
         12    1    1    2    0    0  0.11674216341E+01  0.12858984499E+00  0.11552662664E+00  0.11801504232E+01  0.00000000000E+00 0. -1.
         11    1    3    3    0    0  0.12584542755E+02 -0.31904146778E+02  0.19550761727E+02  0.39477557958E+02  0.51100000000E-03 0. -1.
        -11    1    3    3    0    0 -0.74829046341E+01  0.23603363259E+01  0.68642460914E+01  0.10425110263E+02  0.51100000000E-03 0.  1.
        -12    1    3    3    0    0 -0.62690597553E+01  0.29415220607E+02 -0.26530534445E+02  0.40105181355E+02  0.00000000000E+00 0.  1.
</event>
<event>
 7    1  0.4639347E-015  0.9000776E+02  0.7816164E-02  0.1186339E+00
        -11   -1    0    0    0    0  0.00000000000E+00  0.00000000000E+00  0.45593999997E+02  0.45594000000E+02  0.51100000000E-03 0.  1.
         11   -1    0    0    0    0 -0.00000000000E+00 -0.00000000000E+00 -0.45593999997E+02  0.45594000000E+02  0.51100000000E-03 0. -1.
    9900012    2    1    2    0    0  0.76031542429E+00 -0.89825525136E+00 -0.89584117335E-01  0.90007759620E+02  0.90000021247E+02 0.  0.
         12    1    1    2    0    0 -0.76031542429E+00  0.89825525136E+00  0.89584117335E-01  0.11802403802E+01  0.00000000000E+00 0. -1.
         11    1    3    3    0    0 -0.17873327553E+00 -0.81631743606E+01 -0.34380463295E+01  0.88594313615E+01  0.51100000000E-03 0. -1.
        -11    1    3    3    0    0  0.31920582564E+02 -0.18476815755E+02 -0.10839757516E+02  0.38442380974E+02  0.51100000000E-03 0.  1.
         12    1    3    3    0    0 -0.30981533864E+02  0.25741734864E+02  0.14188219728E+02  0.42705947284E+02  0.00000000000E+00 0. -1.
</event>
<event>
 7    1  0.4639347E-015  0.9000772E+02  0.7816164E-02  0.1186339E+00
        -11   -1    0    0    0    0  0.00000000000E+00  0.00000000000E+00  0.45593999997E+02  0.45594000000E+02  0.51100000000E-03 0.  1.
         11   -1    0    0    0    0 -0.00000000000E+00 -0.00000000000E+00 -0.45593999997E+02  0.45594000000E+02  0.51100000000E-03 0. -1.
    9900012    2    1    2    0    0 -0.78538235314E+00 -0.21426892482E-01  0.88078579079E+00  0.90007716915E+02  0.89999977978E+02 0.  0.
         12    1    1    2    0    0  0.78538235314E+00  0.21426892482E-01 -0.88078579079E+00  0.11802830854E+01  0.00000000000E+00 0. -1.
         11    1    3    3    0    0  0.12391123597E+02 -0.39966537085E+01 -0.35944999469E+02  0.38230304367E+02  0.51100000000E-03 0. -1.
        -11    1    3    3    0    0 -0.66192536617E+01  0.40407971780E+01 -0.51390224297E+01  0.93033387913E+01  0.51100000000E-03 0.  1.
        -12    1    3    3    0    0 -0.65572522889E+01 -0.65570362049E-01  0.41964807690E+02  0.42474073757E+02  0.00000000000E+00 0.  1.
</event>
<event>
 7    1  0.4639347E-015  0.9000792E+02  0.7816164E-02  0.1186339E+00
        -11   -1    0    0    0    0  0.00000000000E+00  0.00000000000E+00  0.45593999997E+02  0.45594000000E+02  0.51100000000E-03 0. -1.
         11   -1    0    0    0    0 -0.00000000000E+00 -0.00000000000E+00 -0.45593999997E+02  0.45594000000E+02  0.51100000000E-03 0.  1.
    9900012    2    1    2    0    0  0.11080816404E+01  0.30981236465E+00 -0.26223022176E+00  0.90007918091E+02  0.90000181810E+02 0.  0.
         12    1    1    2    0    0 -0.11080816404E+01 -0.30981236465E+00  0.26223022176E+00  0.11800819091E+01  0.00000000000E+00 0. -1.
         11    1    3    3    0    0 -0.84930968657E+01 -0.25944242825E+01 -0.25450308541E+02  0.26955183858E+02  0.51100000000E-03 0. -1.
        -11    1    3    3    0    0  0.43399167784E+01 -0.70675085092E+01 -0.17251244034E+02  0.19141315920E+02  0.51100000000E-03 0.  1.
        -12    1    3    3    0    0  0.52612617276E+01  0.99717451563E+01  0.42439322353E+02  0.43911418313E+02  0.00000000000E+00 0.  1.
</event>
<event>
 7    1  0.6203313E-015  0.9000781E+02  0.7816164E-02  0.1186339E+00
        -11   -1    0    0    0    0  0.00000000000E+00  0.00000000000E+00  0.45593999997E+02  0.45594000000E+02  0.51100000000E-03 0.  1.
         11   -1    0    0    0    0 -0.00000000000E+00 -0.00000000000E+00 -0.45593999997E+02  0.45594000000E+02  0.51100000000E-03 0. -1.
    9900012    2    1    2    0    0 -0.71189270493E+00 -0.33074818427E+00  0.88128304797E+00  0.90007811288E+02  0.90000073597E+02 0.  0.
         12    1    1    2    0    0  0.71189270493E+00  0.33074818427E+00 -0.88128304797E+00  0.11801887118E+01  0.00000000000E+00 0. -1.
         11    1    3    3    0    0  0.65665687052E+01 -0.35994835075E+01 -0.57863655993E+01  0.94635159001E+01  0.51100000000E-03 0. -1.
        -11    1    3    3    0    0 -0.20361148996E+02 -0.34151701062E+02  0.92372819287E+01  0.40819633163E+02  0.51100000000E-03 0.  1.
         12    1    3    3    0    0  0.13082687585E+02  0.37420436385E+02 -0.25696332814E+01  0.39724662225E+02  0.00000000000E+00 0. -1.
</event>
<event>
 7    1  0.4639347E-015  0.9000774E+02  0.7816164E-02  0.1186339E+00
        -11   -1    0    0    0    0  0.00000000000E+00  0.00000000000E+00  0.45593999997E+02  0.45594000000E+02  0.51100000000E-03 0. -1.
         11   -1    0    0    0    0 -0.00000000000E+00 -0.00000000000E+00 -0.45593999997E+02  0.45594000000E+02  0.51100000000E-03 0.  1.
    9900012    2    1    2    0    0 -0.13731661021E+00 -0.33544267236E+00 -0.11232240407E+01  0.90007741603E+02  0.90000002992E+02 0.  0.
         12    1    1    2    0    0  0.13731661021E+00  0.33544267236E+00  0.11232240407E+01  0.11802583969E+01  0.00000000000E+00 0. -1.
         11    1    3    3    0    0 -0.61097707152E+01 -0.35840752578E+00  0.50757337111E+01  0.79511525651E+01  0.51100000000E-03 0. -1.
        -11    1    3    3    0    0 -0.26276647862E+02 -0.85791293205E+01 -0.30204629721E+02  0.40943660554E+02  0.51100000000E-03 0.  1.
         12    1    3    3    0    0  0.32249101967E+02  0.86020941739E+01  0.24005671969E+02  0.41112928484E+02  0.00000000000E+00 0. -1.
</event>
<event>
 7    1  0.4639347E-015  0.9000761E+02  0.7816164E-02  0.1186339E+00
        -11   -1    0    0    0    0  0.00000000000E+00  0.00000000000E+00  0.45593999997E+02  0.45594000000E+02  0.51100000000E-03 0. -1.
         11   -1    0    0    0    0 -0.00000000000E+00 -0.00000000000E+00 -0.45593999997E+02  0.45594000000E+02  0.51100000000E-03 0.  1.
    9900012    2    1    2    0    0 -0.79307634328E+00 -0.23009091334E+00 -0.84345571059E+00  0.90007606231E+02  0.89999865833E+02 0.  0.
         12    1    1    2    0    0  0.79307634328E+00  0.23009091334E+00  0.84345571059E+00  0.11803937692E+01  0.00000000000E+00 0. -1.
         11    1    3    3    0    0 -0.60163748427E+00  0.30026925841E+02  0.24313187148E+02  0.38640772672E+02  0.51100000000E-03 0. -1.
        -11    1    3    3    0    0  0.40979081595E+01 -0.49307818682E+01  0.74686174846E+01  0.98430538202E+01  0.51100000000E-03 0.  1.
        -12    1    3    3    0    0 -0.42893470185E+01 -0.25326234886E+02 -0.32625260343E+02  0.41523779739E+02  0.00000000000E+00 0.  1.
</event>
<event>
 7    1  0.4639347E-015  0.9000816E+02  0.7816164E-02  0.1186338E+00
        -11   -1    0    0    0    0  0.00000000000E+00  0.00000000000E+00  0.45593999997E+02  0.45594000000E+02  0.51100000000E-03 0. -1.
         11   -1    0    0    0    0 -0.00000000000E+00 -0.00000000000E+00 -0.45593999997E+02  0.45594000000E+02  0.51100000000E-03 0.  1.
    9900012    2    1    2    0    0  0.87730952280E+00  0.71080664363E+00 -0.34221961976E+00  0.90008155794E+02  0.90000422649E+02 0.  0.
         12    1    1    2    0    0 -0.87730952280E+00 -0.71080664363E+00  0.34221961976E+00  0.11798442065E+01  0.00000000000E+00 0. -1.
         11    1    3    3    0    0  0.64638550355E+01  0.69234263607E+01 -0.13570926324E+01  0.95685398659E+01  0.51100000000E-03 0. -1.
        -11    1    3    3    0    0  0.17381552635E+02  0.30232142455E+02 -0.94055134489E+01  0.36118755418E+02  0.51100000000E-03 0.  1.
         12    1    3    3    0    0 -0.22968098148E+02 -0.36444762172E+02  0.10420386461E+02  0.44320860510E+02  0.00000000000E+00 0. -1.
</event>
<event>
 7    1  0.4639347E-015  0.9000772E+02  0.7816164E-02  0.1186339E+00
        -11   -1    0    0    0    0  0.00000000000E+00  0.00000000000E+00  0.45593999997E+02  0.45594000000E+02  0.51100000000E-03 0.  1.
         11   -1    0    0    0    0 -0.00000000000E+00 -0.00000000000E+00 -0.45593999997E+02  0.45594000000E+02  0.51100000000E-03 0. -1.
    9900012    2    1    2    0    0 -0.80123552454E+00  0.14028860118E+00  0.85522330571E+00  0.90007717763E+02  0.89999978837E+02 0.  0.
         12    1    1    2    0    0  0.80123552454E+00 -0.14028860118E+00 -0.85522330571E+00  0.11802822374E+01  0.00000000000E+00 0. -1.
         11    1    3    3    0    0 -0.35819784735E+02  0.12209871783E+00 -0.16580408039E+02  0.39471278388E+02  0.51100000000E-03 0. -1.
        -11    1    3    3    0    0 -0.56441353943E+00 -0.73033827122E+01 -0.40093918880E+01  0.83506398112E+01  0.51100000000E-03 0.  1.
        -12    1    3    3    0    0  0.35582962750E+02  0.73215725955E+01  0.21445023233E+02  0.42185799563E+02  0.00000000000E+00 0.  1.
</event>
<event>
 7    1  0.4639347E-015  0.9000778E+02  0.7816164E-02  0.1186339E+00
        -11   -1    0    0    0    0  0.00000000000E+00  0.00000000000E+00  0.45593999997E+02  0.45594000000E+02  0.51100000000E-03 0.  1.
         11   -1    0    0    0    0 -0.00000000000E+00 -0.00000000000E+00 -0.45593999997E+02  0.45594000000E+02  0.51100000000E-03 0. -1.
    9900012    2    1    2    0    0 -0.44333389481E-01 -0.11607666960E+01  0.20874197183E+00  0.90007780536E+02  0.90000042439E+02 0.  0.
         12    1    1    2    0    0  0.44333389481E-01  0.11607666960E+01 -0.20874197183E+00  0.11802194639E+01  0.00000000000E+00 0. -1.
         11    1    3    3    0    0  0.73186574251E+01  0.23372405399E+02  0.41989728436E+01  0.24848811920E+02  0.51100000000E-03 0. -1.
        -11    1    3    3    0    0 -0.10467762692E+02  0.90983364630E+01 -0.22660262460E+02  0.26567673537E+02  0.51100000000E-03 0.  1.
        -12    1    3    3    0    0  0.31047718772E+01 -0.33631508558E+02  0.18670031588E+02  0.38591295078E+02  0.00000000000E+00 0.  1.
</event>
<event>
 7    1  0.4639347E-015  0.9000768E+02  0.7816164E-02  0.1186339E+00
        -11   -1    0    0    0    0  0.00000000000E+00  0.00000000000E+00  0.45593999997E+02  0.45594000000E+02  0.51100000000E-03 0. -1.
         11   -1    0    0    0    0 -0.00000000000E+00 -0.00000000000E+00 -0.45593999997E+02  0.45594000000E+02  0.51100000000E-03 0.  1.
    9900012    2    1    2    0    0 -0.90950599442E+00 -0.74890912119E+00 -0.71392938127E-01  0.90007676749E+02  0.89999937282E+02 0.  0.
         12    1    1    2    0    0  0.90950599442E+00  0.74890912119E+00  0.71392938127E-01  0.11803232512E+01  0.00000000000E+00 0. -1.
         11    1    3    3    0    0 -0.29155275200E+01  0.34441655691E+01  0.87179992562E+01  0.98166230691E+01  0.51100000000E-03 0. -1.
        -11    1    3    3    0    0 -0.19528122716E+02  0.27802901545E+02 -0.20750531753E+02  0.39811223034E+02  0.51100000000E-03 0.  1.
         12    1    3    3    0    0  0.21534144241E+02 -0.31995976235E+02  0.11961139559E+02  0.40379830646E+02  0.00000000000E+00 0. -1.
</event>
<event>
 7    1  0.4639347E-015  0.9000771E+02  0.7816164E-02  0.1186339E+00
        -11   -1    0    0    0    0  0.00000000000E+00  0.00000000000E+00  0.45593999997E+02  0.45594000000E+02  0.51100000000E-03 0.  1.
         11   -1    0    0    0    0 -0.00000000000E+00 -0.00000000000E+00 -0.45593999997E+02  0.45594000000E+02  0.51100000000E-03 0. -1.
    9900012    2    1    2    0    0 -0.69755042038E+00  0.70683264191E+00  0.63789205218E+00  0.90007705442E+02  0.89999966354E+02 0.  0.
         12    1    1    2    0    0  0.69755042038E+00 -0.70683264191E+00 -0.63789205218E+00  0.11802945577E+01  0.00000000000E+00 0. -1.
         11    1    3    3    0    0  0.15087753672E+01  0.59420134511E+01  0.87362412110E+01  0.10672667788E+02  0.51100000000E-03 0. -1.
        -11    1    3    3    0    0 -0.10990297597E+02 -0.47698878723E+01  0.34144835516E+02  0.36185746701E+02  0.51100000000E-03 0.  1.
         12    1    3    3    0    0  0.87839718093E+01 -0.46529293692E+00 -0.42243184675E+02  0.43149290953E+02  0.00000000000E+00 0. -1.
</event>
<event>
 7    1  0.4639347E-015  0.9000768E+02  0.7816164E-02  0.1186339E+00
        -11   -1    0    0    0    0  0.00000000000E+00  0.00000000000E+00  0.45593999997E+02  0.45594000000E+02  0.51100000000E-03 0. -1.
         11   -1    0    0    0    0 -0.00000000000E+00 -0.00000000000E+00 -0.45593999997E+02  0.45594000000E+02  0.51100000000E-03 0.  1.
    9900012    2    1    2    0    0 -0.33008596770E+00  0.11328856262E+01  0.27821326021E-01  0.90007677750E+02  0.89999938296E+02 0.  0.
         12    1    1    2    0    0  0.33008596770E+00 -0.11328856262E+01 -0.27821326021E-01  0.11803222502E+01  0.00000000000E+00 0. -1.
         11    1    3    3    0    0 -0.38312053089E+02  0.15345209568E+02  0.12010400314E+02  0.42983003438E+02  0.51100000000E-03 0. -1.
        -11    1    3    3    0    0  0.27227709305E+01 -0.48461716878E+01  0.43452657510E+01  0.70555082223E+01  0.51100000000E-03 0.  1.
        -12    1    3    3    0    0  0.35259196191E+02 -0.93661522538E+01 -0.16327844739E+02  0.39969166090E+02  0.00000000000E+00 0.  1.
</event>
<event>
 7    1  0.4639347E-015  0.9000773E+02  0.7816164E-02  0.1186339E+00
        -11   -1    0    0    0    0  0.00000000000E+00  0.00000000000E+00  0.45593999997E+02  0.45594000000E+02  0.51100000000E-03 0.  1.
         11   -1    0    0    0    0 -0.00000000000E+00 -0.00000000000E+00 -0.45593999997E+02  0.45594000000E+02  0.51100000000E-03 0. -1.
    9900012    2    1    2    0    0 -0.60241929100E+00  0.84230884581E+00  0.56625072181E+00  0.90007731779E+02  0.89999993038E+02 0.  0.
         12    1    1    2    0    0  0.60241929100E+00 -0.84230884581E+00 -0.56625072181E+00  0.11802682211E+01  0.00000000000E+00 0. -1.
         11    1    3    3    0    0  0.27725070369E+02 -0.20727234256E+02  0.17328935628E+02  0.38711623282E+02  0.51100000000E-03 0. -1.
        -11    1    3    3    0    0 -0.49536853279E+01 -0.39503756411E+01  0.69042605172E+01  0.93708740032E+01  0.51100000000E-03 0.  1.
        -12    1    3    3    0    0 -0.23373804333E+02  0.25519918743E+02 -0.23666945424E+02  0.41925234493E+02  0.00000000000E+00 0.  1.
</event>
<event>
 7    1  0.4639347E-015  0.9000774E+02  0.7816164E-02  0.1186339E+00
        -11   -1    0    0    0    0  0.00000000000E+00  0.00000000000E+00  0.45593999997E+02  0.45594000000E+02  0.51100000000E-03 0.  1.
         11   -1    0    0    0    0 -0.00000000000E+00 -0.00000000000E+00 -0.45593999997E+02  0.45594000000E+02  0.51100000000E-03 0. -1.
    9900012    2    1    2    0    0  0.10935194545E+01  0.44373183789E+00  0.18047373610E-01  0.90007742211E+02  0.90000003608E+02 0.  0.
         12    1    1    2    0    0 -0.10935194545E+01 -0.44373183789E+00 -0.18047373610E-01  0.11802577892E+01  0.00000000000E+00 0. -1.
         11    1    3    3    0    0 -0.87974900482E+01  0.26603624090E+02 -0.12678797677E+02  0.30755496365E+02  0.51100000000E-03 0.  1.
        -11    1    3    3    0    0 -0.19519164386E+02 -0.18716066734E+02  0.98539539850E+01  0.28781753625E+02  0.51100000000E-03 0. -1.
         12    1    3    3    0    0  0.29410173889E+02 -0.74438255183E+01  0.28428910659E+01  0.30470492220E+02  0.00000000000E+00 0. -1.
</event>
<event>
 7    1  0.4639347E-015  0.9000771E+02  0.7816164E-02  0.1186339E+00
        -11   -1    0    0    0    0  0.00000000000E+00  0.00000000000E+00  0.45593999997E+02  0.45594000000E+02  0.51100000000E-03 0. -1.
         11   -1    0    0    0    0 -0.00000000000E+00 -0.00000000000E+00 -0.45593999997E+02  0.45594000000E+02  0.51100000000E-03 0.  1.
    9900012    2    1    2    0    0  0.10123522208E+01  0.15658762954E+00 -0.58626887666E+00  0.90007708553E+02  0.89999969506E+02 0.  0.
         12    1    1    2    0    0 -0.10123522208E+01 -0.15658762954E+00  0.58626887666E+00  0.11802914472E+01  0.00000000000E+00 0. -1.
         11    1    3    3    0    0  0.15640690211E+02  0.24929966760E+02  0.10774947657E+02  0.31340611516E+02  0.51100000000E-03 0. -1.
        -11    1    3    3    0    0  0.79544633574E+01  0.10975737546E+02 -0.90916061886E+01  0.16321691252E+02  0.51100000000E-03 0.  1.
        -12    1    3    3    0    0 -0.22582801348E+02 -0.35749116677E+02 -0.22696103447E+01  0.42345405784E+02  0.00000000000E+00 0.  1.
</event>
<event>
 7    1  0.4639347E-015  0.9000768E+02  0.7816164E-02  0.1186339E+00
        -11   -1    0    0    0    0  0.00000000000E+00  0.00000000000E+00  0.45593999997E+02  0.45594000000E+02  0.51100000000E-03 0. -1.
         11   -1    0    0    0    0 -0.00000000000E+00 -0.00000000000E+00 -0.45593999997E+02  0.45594000000E+02  0.51100000000E-03 0.  1.
    9900012    2    1    2    0    0  0.67728175312E+00 -0.75973598301E-01 -0.96368198135E+00  0.90007675671E+02  0.89999936190E+02 0.  0.
         12    1    1    2    0    0 -0.67728175312E+00  0.75973598301E-01  0.96368198135E+00  0.11803243291E+01  0.00000000000E+00 0. -1.
         11    1    3    3    0    0  0.74236663100E+01  0.10574974163E+02  0.47224770835E+01  0.13756550807E+02  0.51100000000E-03 0. -1.
        -11    1    3    3    0    0  0.19812531729E+02 -0.23037630832E+02 -0.26490854586E+02  0.40311713246E+02  0.51100000000E-03 0.  1.
         12    1    3    3    0    0 -0.26558916286E+02  0.12386683070E+02  0.20804695521E+02  0.35939411619E+02  0.00000000000E+00 0. -1.
</event>
<event>
 7    1  0.4639347E-015  0.9000779E+02  0.7816164E-02  0.1186339E+00
        -11   -1    0    0    0    0  0.00000000000E+00  0.00000000000E+00  0.45593999997E+02  0.45594000000E+02  0.51100000000E-03 0.  1.
         11   -1    0    0    0    0 -0.00000000000E+00 -0.00000000000E+00 -0.45593999997E+02  0.45594000000E+02  0.51100000000E-03 0. -1.
    9900012    2    1    2    0    0  0.80371473924E-01 -0.36646365823E+00  0.11189892961E+01  0.90007791446E+02  0.90000053493E+02 0.  0.
         12    1    1    2    0    0 -0.80371473924E-01  0.36646365823E+00 -0.11189892961E+01  0.11802085542E+01  0.00000000000E+00 0. -1.
         11    1    3    3    0    0  0.16732923673E+02  0.34294197435E+02 -0.27006465197E+01  0.38254100489E+02  0.51100000000E-03 0. -1.
        -11    1    3    3    0    0 -0.37980467059E+01 -0.65945441116E+00 -0.11633347304E+02  0.12255399163E+02  0.51100000000E-03 0.  1.
        -12    1    3    3    0    0 -0.12854505493E+02 -0.34001206682E+02  0.15452983119E+02  0.39498291793E+02  0.00000000000E+00 0.  1.
</event>
<event>
 7    1  0.4639347E-015  0.9000797E+02  0.7816164E-02  0.1186339E+00
        -11   -1    0    0    0    0  0.00000000000E+00  0.00000000000E+00  0.45593999997E+02  0.45594000000E+02  0.51100000000E-03 0. -1.
         11   -1    0    0    0    0 -0.00000000000E+00 -0.00000000000E+00 -0.45593999997E+02  0.45594000000E+02  0.51100000000E-03 0.  1.
    9900012    2    1    2    0    0  0.93030820373E+00  0.38318476481E+00 -0.61658216148E+00  0.90007967170E+02  0.90000231536E+02 0.  0.
         12    1    1    2    0    0 -0.93030820373E+00 -0.38318476481E+00  0.61658216148E+00  0.11800328300E+01  0.00000000000E+00 0. -1.
         11    1    3    3    0    0 -0.11500879825E+02  0.51282125241E+01 -0.71073464432E+01  0.14459708647E+02  0.51100000000E-03 0. -1.
        -11    1    3    3    0    0 -0.19732840324E+02 -0.23841545764E+02 -0.12764353521E+02  0.33477350743E+02  0.51100000000E-03 0.  1.
         12    1    3    3    0    0  0.32164028353E+02  0.19096518005E+02  0.19255117803E+02  0.42070907780E+02  0.00000000000E+00 0. -1.
</event>
<event>
 7    1  0.4639347E-015  0.9000773E+02  0.7816164E-02  0.1186339E+00
        -11   -1    0    0    0    0  0.00000000000E+00  0.00000000000E+00  0.45593999997E+02  0.45594000000E+02  0.51100000000E-03 0. -1.
         11   -1    0    0    0    0 -0.00000000000E+00 -0.00000000000E+00 -0.45593999997E+02  0.45594000000E+02  0.51100000000E-03 0.  1.
    9900012    2    1    2    0    0 -0.94614313662E+00  0.39443430081E+00  0.58503856206E+00  0.90007730805E+02  0.89999992052E+02 0.  0.
         12    1    1    2    0    0  0.94614313662E+00 -0.39443430081E+00 -0.58503856206E+00  0.11802691946E+01  0.00000000000E+00 0. -1.
         11    1    3    3    0    0 -0.19880576905E+01  0.63544243468E+00  0.16891431697E+02  0.17019889116E+02  0.51100000000E-03 0. -1.
        -11    1    3    3    0    0  0.35415813133E+02  0.58144691321E+01 -0.46513159815E+01  0.36190089966E+02  0.51100000000E-03 0.  1.
         12    1    3    3    0    0 -0.34373898579E+02 -0.60554772660E+01 -0.11655077154E+02  0.36797751723E+02  0.00000000000E+00 0. -1.
</event>
<event>
 7    1  0.4639347E-015  0.9000776E+02  0.7816164E-02  0.1186339E+00
        -11   -1    0    0    0    0  0.00000000000E+00  0.00000000000E+00  0.45593999997E+02  0.45594000000E+02  0.51100000000E-03 0. -1.
         11   -1    0    0    0    0 -0.00000000000E+00 -0.00000000000E+00 -0.45593999997E+02  0.45594000000E+02  0.51100000000E-03 0.  1.
    9900012    2    1    2    0    0 -0.92127765354E+00 -0.22098337455E+00 -0.70382420630E+00  0.90007764989E+02  0.90000026687E+02 0.  0.
         12    1    1    2    0    0  0.92127765354E+00  0.22098337455E+00  0.70382420630E+00  0.11802350105E+01  0.00000000000E+00 0. -1.
         11    1    3    3    0    0  0.67727876648E+01 -0.13573457238E+02  0.34987154112E+02  0.38134110023E+02  0.51100000000E-03 0. -1.
        -11    1    3    3    0    0 -0.19594715679E+01 -0.11730799941E+02 -0.10509286586E+02  0.15871241315E+02  0.51100000000E-03 0.  1.
        -12    1    3    3    0    0 -0.57345937504E+01  0.25083273804E+02 -0.25181691732E+02  0.36002413651E+02  0.00000000000E+00 0.  1.
</event>
<event>
 7    1  0.4639347E-015  0.9000774E+02  0.7816164E-02  0.1186339E+00
        -11   -1    0    0    0    0  0.00000000000E+00  0.00000000000E+00  0.45593999997E+02  0.45594000000E+02  0.51100000000E-03 0.  1.
         11   -1    0    0    0    0 -0.00000000000E+00 -0.00000000000E+00 -0.45593999997E+02  0.45594000000E+02  0.51100000000E-03 0. -1.
    9900012    2    1    2    0    0 -0.20350932749E+00 -0.26983007185E+00  0.11308320782E+01  0.90007743459E+02  0.90000004872E+02 0.  0.
         12    1    1    2    0    0  0.20350932749E+00  0.26983007185E+00 -0.11308320782E+01  0.11802565412E+01  0.00000000000E+00 0. -1.
         11    1    3    3    0    0 -0.16624912486E+02  0.12400345386E+01 -0.34465083737E+01  0.17023625379E+02  0.51100000000E-03 0. -1.
        -11    1    3    3    0    0  0.13708373373E+02  0.32108890096E+02  0.14533973913E+02  0.37817148513E+02  0.51100000000E-03 0.  1.
         12    1    3    3    0    0  0.27130297858E+01 -0.33618754706E+02 -0.99566334609E+01  0.35166969566E+02  0.00000000000E+00 0. -1.
</event>
<event>
 7    1  0.4639347E-015  0.9000775E+02  0.7816164E-02  0.1186339E+00
        -11   -1    0    0    0    0  0.00000000000E+00  0.00000000000E+00  0.45593999997E+02  0.45594000000E+02  0.51100000000E-03 0. -1.
         11   -1    0    0    0    0 -0.00000000000E+00 -0.00000000000E+00 -0.45593999997E+02  0.45594000000E+02  0.51100000000E-03 0.  1.
    9900012    2    1    2    0    0 -0.63435751859E+00  0.77727826445E+00 -0.62161711373E+00  0.90007754772E+02  0.90000016335E+02 0.  0.
         12    1    1    2    0    0  0.63435751859E+00 -0.77727826445E+00  0.62161711373E+00  0.11802452279E+01  0.00000000000E+00 0. -1.
         11    1    3    3    0    0  0.27336482814E+02  0.25832629320E+02 -0.19940796552E+02  0.42570452166E+02  0.51100000000E-03 0. -1.
        -11    1    3    3    0    0 -0.44611257969E+01 -0.99795764653E+01 -0.33864137669E+01  0.11443836256E+02  0.51100000000E-03 0.  1.
        -12    1    3    3    0    0 -0.23509714536E+02 -0.15075774590E+02  0.22705593206E+02  0.35993466350E+02  0.00000000000E+00 0.  1.
</event>
<event>
 7    1  0.4639347E-015  0.9000761E+02  0.7816164E-02  0.1186339E+00
        -11   -1    0    0    0    0  0.00000000000E+00  0.00000000000E+00  0.45593999997E+02  0.45594000000E+02  0.51100000000E-03 0. -1.
         11   -1    0    0    0    0 -0.00000000000E+00 -0.00000000000E+00 -0.45593999997E+02  0.45594000000E+02  0.51100000000E-03 0.  1.
    9900012    2    1    2    0    0  0.65597443035E+00  0.44573530436E-02 -0.98132684688E+00  0.90007608242E+02  0.89999867871E+02 0.  0.
         12    1    1    2    0    0 -0.65597443035E+00 -0.44573530436E-02  0.98132684688E+00  0.11803917577E+01  0.00000000000E+00 0. -1.
         11    1    3    3    0    0  0.27787198600E+02  0.29626212595E+02 -0.46751702026E+01  0.40886404775E+02  0.51100000000E-03 0. -1.
        -11    1    3    3    0    0  0.52182228128E+01 -0.53401127558E+01 -0.31393800092E+01  0.80995284228E+01  0.51100000000E-03 0.  1.
        -12    1    3    3    0    0 -0.32349446982E+02 -0.24281642486E+02  0.68332233650E+01  0.41021675044E+02  0.00000000000E+00 0.  1.
</event>
<event>
 7    1  0.4639347E-015  0.9000772E+02  0.7816164E-02  0.1186339E+00
        -11   -1    0    0    0    0  0.00000000000E+00  0.00000000000E+00  0.45593999997E+02  0.45594000000E+02  0.51100000000E-03 0. -1.
         11   -1    0    0    0    0 -0.00000000000E+00 -0.00000000000E+00 -0.45593999997E+02  0.45594000000E+02  0.51100000000E-03 0.  1.
    9900012    2    1    2    0    0 -0.69489643929E+00 -0.16607832757E+00 -0.93946632493E+00  0.90007720352E+02  0.89999981460E+02 0.  0.
         12    1    1    2    0    0  0.69489643929E+00  0.16607832757E+00  0.93946632493E+00  0.11802796482E+01  0.00000000000E+00 0. -1.
         11    1    3    3    0    0 -0.98492167842E+01 -0.12528929006E+01  0.38708001977E+01  0.10656449048E+02  0.51100000000E-03 0. -1.
        -11    1    3    3    0    0 -0.25571179400E+02 -0.16568796628E+02 -0.21166978770E+02  0.37100555630E+02  0.51100000000E-03 0.  1.
         12    1    3    3    0    0  0.34725499745E+02  0.17655611201E+02  0.16356712247E+02  0.42250715673E+02  0.00000000000E+00 0. -1.
</event>
<event>
 7    1  0.6757757E-015  0.9000788E+02  0.7816164E-02  0.1186339E+00
        -11   -1    0    0    0    0  0.00000000000E+00  0.00000000000E+00  0.45593999997E+02  0.45594000000E+02  0.51100000000E-03 0. -1.
         11   -1    0    0    0    0 -0.00000000000E+00 -0.00000000000E+00 -0.45593999997E+02  0.45594000000E+02  0.51100000000E-03 0.  1.
    9900012    2    1    2    0    0 -0.62828011477E+00 -0.30534568044E+00 -0.95116325497E+00  0.90007879911E+02  0.90000143126E+02 0.  0.
         12    1    1    2    0    0  0.62828011477E+00  0.30534568044E+00  0.95116325497E+00  0.11801200891E+01  0.00000000000E+00 0. -1.
         11    1    3    3    0    0 -0.29879430089E+01 -0.59114145218E+01  0.64354165198E+01  0.92351075314E+01  0.51100000000E-03 0. -1.
        -11    1    3    3    0    0  0.21972262193E+02 -0.50805249364E+01 -0.37211397963E+02  0.43511839517E+02  0.51100000000E-03 0.  1.
         12    1    3    3    0    0 -0.19612599299E+02  0.10686593778E+02  0.29824818188E+02  0.37260932863E+02  0.00000000000E+00 0. -1.
</event>
<event>
 7    1  0.4639347E-015  0.9000769E+02  0.7816164E-02  0.1186339E+00
        -11   -1    0    0    0    0  0.00000000000E+00  0.00000000000E+00  0.45593999997E+02  0.45594000000E+02  0.51100000000E-03 0.  1.
         11   -1    0    0    0    0 -0.00000000000E+00 -0.00000000000E+00 -0.45593999997E+02  0.45594000000E+02  0.51100000000E-03 0. -1.
    9900012    2    1    2    0    0 -0.47412004976E+00  0.35824949596E+00  0.10198026560E+01  0.90007690727E+02  0.89999951444E+02 0.  0.
         12    1    1    2    0    0  0.47412004976E+00 -0.35824949596E+00 -0.10198026560E+01  0.11803092731E+01  0.00000000000E+00 0. -1.
         11    1    3    3    0    0  0.67936620489E+01 -0.52184746917E+01  0.31973382150E+01  0.91438117908E+01  0.51100000000E-03 0. -1.
        -11    1    3    3    0    0  0.25767395203E+02  0.67926791711E+01 -0.28195663103E+02  0.38795548249E+02  0.51100000000E-03 0.  1.
         12    1    3    3    0    0 -0.33035177301E+02 -0.12159549834E+01  0.26018127545E+02  0.42068330687E+02  0.00000000000E+00 0. -1.
</event>
<event>
 7    1  0.4639347E-015  0.9000772E+02  0.7816164E-02  0.1186339E+00
        -11   -1    0    0    0    0  0.00000000000E+00  0.00000000000E+00  0.45593999997E+02  0.45594000000E+02  0.51100000000E-03 0. -1.
         11   -1    0    0    0    0 -0.00000000000E+00 -0.00000000000E+00 -0.45593999997E+02  0.45594000000E+02  0.51100000000E-03 0.  1.
    9900012    2    1    2    0    0 -0.68589789227E+00  0.36256153084E+00 -0.88946383633E+00  0.90007723465E+02  0.89999984615E+02 0.  0.
         12    1    1    2    0    0  0.68589789227E+00 -0.36256153084E+00  0.88946383633E+00  0.11802765347E+01  0.00000000000E+00 0. -1.
         11    1    3    3    0    0  0.64162017512E+01  0.37772407036E+02  0.18843666637E+02  0.42696676109E+02  0.51100000000E-03 0. -1.
        -11    1    3    3    0    0 -0.81349954394E+01 -0.47945189666E+01 -0.55067504656E+00  0.94587951764E+01  0.51100000000E-03 0.  1.
        -12    1    3    3    0    0  0.10328957960E+01 -0.32615326538E+02 -0.19182455426E+02  0.37852252180E+02  0.00000000000E+00 0.  1.
</event>
<event>
 7    1  0.4639347E-015  0.9000777E+02  0.7816164E-02  0.1186339E+00
        -11   -1    0    0    0    0  0.00000000000E+00  0.00000000000E+00  0.45593999997E+02  0.45594000000E+02  0.51100000000E-03 0.  1.
         11   -1    0    0    0    0 -0.00000000000E+00 -0.00000000000E+00 -0.45593999997E+02  0.45594000000E+02  0.51100000000E-03 0. -1.
    9900012    2    1    2    0    0  0.11526870284E+01  0.20703066028E-01  0.25264657283E+00  0.90007768543E+02  0.90000030287E+02 0.  0.
         12    1    1    2    0    0 -0.11526870284E+01 -0.20703066028E-01 -0.25264657283E+00  0.11802314574E+01  0.00000000000E+00 0. -1.
         11    1    3    3    0    0  0.88786487262E+01 -0.26154818933E+02 -0.26099627507E+02  0.38001256728E+02  0.51100000000E-03 0. -1.
        -11    1    3    3    0    0  0.75367644127E+01  0.28959977204E+01 -0.54507207040E+01  0.97416619251E+01  0.51100000000E-03 0.  1.
        -12    1    3    3    0    0 -0.15262726111E+02  0.23279524279E+02  0.31802994784E+02  0.42264849890E+02  0.00000000000E+00 0.  1.
</event>
<event>
 7    1  0.4639347E-015  0.9000785E+02  0.7816164E-02  0.1186339E+00
        -11   -1    0    0    0    0  0.00000000000E+00  0.00000000000E+00  0.45593999997E+02  0.45594000000E+02  0.51100000000E-03 0. -1.
         11   -1    0    0    0    0 -0.00000000000E+00 -0.00000000000E+00 -0.45593999997E+02  0.45594000000E+02  0.51100000000E-03 0.  1.
    9900012    2    1    2    0    0  0.67017486023E+00  0.83460883486E+00  0.49703274313E+00  0.90007852637E+02  0.90000115492E+02 0.  0.
         12    1    1    2    0    0 -0.67017486023E+00 -0.83460883486E+00 -0.49703274313E+00  0.11801473629E+01  0.00000000000E+00 0. -1.
         11    1    3    3    0    0 -0.17767833635E+02 -0.16916434472E+02  0.27949171742E+02  0.37188948206E+02  0.51100000000E-03 0. -1.
        -11    1    3    3    0    0 -0.93871913821E+01 -0.17019157262E+00  0.63527843691E+00  0.94102022385E+01  0.51100000000E-03 0.  1.
        -12    1    3    3    0    0  0.27825199878E+02  0.17921234880E+02 -0.28087417436E+02  0.43408702193E+02  0.00000000000E+00 0.  1.
</event>
<event>
 7    1  0.4639347E-015  0.9000777E+02  0.7816164E-02  0.1186339E+00
        -11   -1    0    0    0    0  0.00000000000E+00  0.00000000000E+00  0.45593999997E+02  0.45594000000E+02  0.51100000000E-03 0. -1.
         11   -1    0    0    0    0 -0.00000000000E+00 -0.00000000000E+00 -0.45593999997E+02  0.45594000000E+02  0.51100000000E-03 0.  1.
    9900012    2    1    2    0    0 -0.10205011310E+01 -0.61563790368E-01  0.58969440522E+00  0.90007766061E+02  0.90000027773E+02 0.  0.
         12    1    1    2    0    0  0.10205011310E+01  0.61563790368E-01 -0.58969440522E+00  0.11802339388E+01  0.00000000000E+00 0. -1.
         11    1    3    3    0    0  0.94287433502E+01  0.49420258795E+01  0.34693288591E+02  0.36289793255E+02  0.51100000000E-03 0. -1.
        -11    1    3    3    0    0  0.15344050051E+02 -0.88291598879E+00 -0.13309898036E+02  0.20331571474E+02  0.51100000000E-03 0.  1.
        -12    1    3    3    0    0 -0.25793294532E+02 -0.41206736811E+01 -0.20793696150E+02  0.33386401333E+02  0.00000000000E+00 0.  1.
</event>
<event>
 7    1  0.4639347E-015  0.9000793E+02  0.7816164E-02  0.1186339E+00
        -11   -1    0    0    0    0  0.00000000000E+00  0.00000000000E+00  0.45593999997E+02  0.45594000000E+02  0.51100000000E-03 0. -1.
         11   -1    0    0    0    0 -0.00000000000E+00 -0.00000000000E+00 -0.45593999997E+02  0.45594000000E+02  0.51100000000E-03 0.  1.
    9900012    2    1    2    0    0  0.78729426438E+00  0.49263889032E+00 -0.72803754991E+00  0.90007930507E+02  0.90000194389E+02 0.  0.
         12    1    1    2    0    0 -0.78729426438E+00 -0.49263889032E+00  0.72803754991E+00  0.11800694933E+01  0.00000000000E+00 0. -1.
         11    1    3    3    0    0 -0.37242005265E+02  0.58374917671E+01  0.11376348480E+02  0.39375938989E+02  0.51100000000E-03 0. -1.
        -11    1    3    3    0    0  0.17012841056E+02 -0.15683094882E+02 -0.14148275925E+02  0.27121392623E+02  0.51100000000E-03 0.  1.
        -12    1    3    3    0    0  0.21016458473E+02  0.10338242005E+02  0.20438898948E+01  0.23510598895E+02  0.00000000000E+00 0.  1.
</event>
<event>
 7    1  0.4639347E-015  0.9000753E+02  0.7816164E-02  0.1186339E+00
        -11   -1    0    0    0    0  0.00000000000E+00  0.00000000000E+00  0.45593999997E+02  0.45594000000E+02  0.51100000000E-03 0. -1.
         11   -1    0    0    0    0 -0.00000000000E+00 -0.00000000000E+00 -0.45593999997E+02  0.45594000000E+02  0.51100000000E-03 0.  1.
    9900012    2    1    2    0    0  0.10283431303E+01 -0.57965372890E+00 -0.55400404204E-02  0.90007526057E+02  0.89999784600E+02 0.  0.
         12    1    1    2    0    0 -0.10283431303E+01  0.57965372890E+00  0.55400404204E-02  0.11804739434E+01  0.00000000000E+00 0. -1.
         11    1    3    3    0    0  0.60438229963E+01 -0.10020622857E+02  0.38440208641E+02  0.40181965102E+02  0.51100000000E-03 0. -1.
        -11    1    3    3    0    0  0.10605497518E+02  0.42118891414E+01 -0.48314830253E+01  0.12391925445E+02  0.51100000000E-03 0.  1.
        -12    1    3    3    0    0 -0.15620977384E+02  0.52290799866E+01 -0.33614265656E+02  0.37433635510E+02  0.00000000000E+00 0.  1.
</event>
<event>
 7    1  0.4639347E-015  0.9000782E+02  0.7816164E-02  0.1186339E+00
        -11   -1    0    0    0    0  0.00000000000E+00  0.00000000000E+00  0.45593999997E+02  0.45594000000E+02  0.51100000000E-03 0.  1.
         11   -1    0    0    0    0 -0.00000000000E+00 -0.00000000000E+00 -0.45593999997E+02  0.45594000000E+02  0.51100000000E-03 0. -1.
    9900012    2    1    2    0    0  0.37205057645E+00  0.93502480346E+00  0.61655373951E+00  0.90007817163E+02  0.90000079550E+02 0.  0.
         12    1    1    2    0    0 -0.37205057645E+00 -0.93502480346E+00 -0.61655373951E+00  0.11801828368E+01  0.00000000000E+00 0. -1.
         11    1    3    3    0    0 -0.70218310774E+01 -0.51470880609E+01  0.57290831984E+01  0.10422140938E+02  0.51100000000E-03 0. -1.
        -11    1    3    3    0    0 -0.23000550508E+02  0.15668066188E+02  0.23751467838E+02  0.36587509432E+02  0.51100000000E-03 0.  1.
         12    1    3    3    0    0  0.30394432162E+02 -0.95859533235E+01 -0.28863997296E+02  0.42998166792E+02  0.00000000000E+00 0. -1.
</event>
<event>
 7    1  0.4639347E-015  0.9000781E+02  0.7816164E-02  0.1186339E+00
        -11   -1    0    0    0    0  0.00000000000E+00  0.00000000000E+00  0.45593999997E+02  0.45594000000E+02  0.51100000000E-03 0. -1.
         11   -1    0    0    0    0 -0.00000000000E+00 -0.00000000000E+00 -0.45593999997E+02  0.45594000000E+02  0.51100000000E-03 0.  1.
    9900012    2    1    2    0    0 -0.80476659142E-01 -0.32823490764E+00 -0.11307713365E+01  0.90007805752E+02  0.90000067988E+02 0.  0.
         12    1    1    2    0    0  0.80476659142E-01  0.32823490764E+00  0.11307713365E+01  0.11801942479E+01  0.00000000000E+00 0. -1.
         11    1    3    3    0    0 -0.80776027680E+01  0.12891547428E+01 -0.37328231888E+01  0.89913044464E+01  0.51100000000E-03 0. -1.
        -11    1    3    3    0    0 -0.48365248865E+01  0.34923156388E+02 -0.15198490660E+02  0.38392876209E+02  0.51100000000E-03 0.  1.
         12    1    3    3    0    0  0.12833650995E+02 -0.36540546038E+02  0.17800542512E+02  0.42623625096E+02  0.00000000000E+00 0. -1.
</event>
<event>
 7    1  0.4639347E-015  0.9000744E+02  0.7816164E-02  0.1186340E+00
        -11   -1    0    0    0    0  0.00000000000E+00  0.00000000000E+00  0.45593999997E+02  0.45594000000E+02  0.51100000000E-03 0. -1.
         11   -1    0    0    0    0 -0.00000000000E+00 -0.00000000000E+00 -0.45593999997E+02  0.45594000000E+02  0.51100000000E-03 0.  1.
    9900012    2    1    2    0    0 -0.13964787881E+00 -0.31498266595E+00 -0.11291570336E+01  0.90007444531E+02  0.89999701998E+02 0.  0.
         12    1    1    2    0    0  0.13964787881E+00  0.31498266595E+00  0.11291570336E+01  0.11805554694E+01  0.00000000000E+00 0. -1.
         11    1    3    3    0    0 -0.75184082888E+01 -0.88434476616E+00 -0.19405385583E+02  0.20829726804E+02  0.51100000000E-03 0. -1.
        -11    1    3    3    0    0  0.12732551439E+01  0.20197688138E+02  0.36481567745E+02  0.41718971345E+02  0.51100000000E-03 0.  1.
         12    1    3    3    0    0  0.61055052661E+01 -0.19628326037E+02 -0.18205339195E+02  0.27458746381E+02  0.00000000000E+00 0. -1.
</event>
<event>
 7    1  0.4639347E-015  0.9000749E+02  0.7816164E-02  0.1186340E+00
        -11   -1    0    0    0    0  0.00000000000E+00  0.00000000000E+00  0.45593999997E+02  0.45594000000E+02  0.51100000000E-03 0. -1.
         11   -1    0    0    0    0 -0.00000000000E+00 -0.00000000000E+00 -0.45593999997E+02  0.45594000000E+02  0.51100000000E-03 0.  1.
    9900012    2    1    2    0    0 -0.33019095767E+00 -0.56541904262E+00 -0.98228835019E+00  0.90007485212E+02  0.89999743216E+02 0.  0.
         12    1    1    2    0    0  0.33019095767E+00  0.56541904262E+00  0.98228835019E+00  0.11805147882E+01  0.00000000000E+00 0. -1.
         11    1    3    3    0    0  0.30508322518E+02 -0.27693211587E+01  0.32384787959E+01  0.30804457919E+02  0.51100000000E-03 0. -1.
        -11    1    3    3    0    0  0.97497599602E+01  0.79549168370E+01  0.97237883232E+01  0.15902533785E+02  0.51100000000E-03 0.  1.
        -12    1    3    3    0    0 -0.40588273435E+02 -0.57510147210E+01 -0.13944555469E+02  0.43300493508E+02  0.00000000000E+00 0.  1.
</event>
<event>
 7    1  0.4639347E-015  0.9000771E+02  0.7816164E-02  0.1186339E+00
        -11   -1    0    0    0    0  0.00000000000E+00  0.00000000000E+00  0.45593999997E+02  0.45594000000E+02  0.51100000000E-03 0.  1.
         11   -1    0    0    0    0 -0.00000000000E+00 -0.00000000000E+00 -0.45593999997E+02  0.45594000000E+02  0.51100000000E-03 0. -1.
    9900012    2    1    2    0    0 -0.36577814328E+00 -0.34812864170E-01  0.11216453839E+01  0.90007705989E+02  0.89999966908E+02 0.  0.
         12    1    1    2    0    0  0.36577814328E+00  0.34812864170E-01 -0.11216453839E+01  0.11802940112E+01  0.00000000000E+00 0. -1.
         11    1    3    3    0    0 -0.45906895826E+01 -0.17483356115E+01 -0.83242938586E+01  0.96656596651E+01  0.51100000000E-03 0. -1.
        -11    1    3    3    0    0 -0.12803506833E+02  0.16842123196E+02  0.38195106723E+02  0.43662948581E+02  0.51100000000E-03 0.  1.
         12    1    3    3    0    0  0.17028418273E+02 -0.15128600449E+02 -0.28749167480E+02  0.36679097743E+02  0.00000000000E+00 0. -1.
</event>
<event>
 7    1  0.4639347E-015  0.9000752E+02  0.7816164E-02  0.1186339E+00
        -11   -1    0    0    0    0  0.00000000000E+00  0.00000000000E+00  0.45593999997E+02  0.45594000000E+02  0.51100000000E-03 0.  1.
         11   -1    0    0    0    0 -0.00000000000E+00 -0.00000000000E+00 -0.45593999997E+02  0.45594000000E+02  0.51100000000E-03 0. -1.
    9900012    2    1    2    0    0  0.10664970347E+01  0.16294857038E+00  0.47913297129E+00  0.90007518503E+02  0.89999776946E+02 0.  0.
         12    1    1    2    0    0 -0.10664970347E+01 -0.16294857038E+00 -0.47913297129E+00  0.11804814975E+01  0.00000000000E+00 0. -1.
         11    1    3    3    0    0 -0.29137144097E+02  0.17837856429E+02  0.13264803573E+02  0.36648564804E+02  0.51100000000E-03 0. -1.
        -11    1    3    3    0    0 -0.53083662336E+01  0.55183775327E+01  0.28262115309E+01  0.81620288251E+01  0.51100000000E-03 0.  1.
        -12    1    3    3    0    0  0.35512007365E+02 -0.23193285391E+02 -0.15611882132E+02  0.45196924874E+02  0.00000000000E+00 0.  1.
</event>
<event>
 7    1  0.4639347E-015  0.9000775E+02  0.7816164E-02  0.1186339E+00
        -11   -1    0    0    0    0  0.00000000000E+00  0.00000000000E+00  0.45593999997E+02  0.45594000000E+02  0.51100000000E-03 0. -1.
         11   -1    0    0    0    0 -0.00000000000E+00 -0.00000000000E+00 -0.45593999997E+02  0.45594000000E+02  0.51100000000E-03 0.  1.
    9900012    2    1    2    0    0  0.39245358623E-01  0.43849820412E+00 -0.10950672727E+01  0.90007748669E+02  0.90000010151E+02 0.  0.
         12    1    1    2    0    0 -0.39245358623E-01 -0.43849820412E+00  0.10950672727E+01  0.11802513313E+01  0.00000000000E+00 0. -1.
         11    1    3    3    0    0  0.32498423675E+02 -0.59031739276E+01 -0.12172428207E+02  0.35201747293E+02  0.51100000000E-03 0. -1.
        -11    1    3    3    0    0  0.58755410605E+01 -0.34638095995E+01 -0.83035223701E+01  0.10745624398E+02  0.51100000000E-03 0.  1.
        -12    1    3    3    0    0 -0.38334719377E+02  0.98054817312E+01  0.19380883305E+02  0.44060376977E+02  0.00000000000E+00 0.  1.
</event>
<event>
 7    1  0.4639347E-015  0.9000770E+02  0.7816164E-02  0.1186339E+00
        -11   -1    0    0    0    0  0.00000000000E+00  0.00000000000E+00  0.45593999997E+02  0.45594000000E+02  0.51100000000E-03 0. -1.
         11   -1    0    0    0    0 -0.00000000000E+00 -0.00000000000E+00 -0.45593999997E+02  0.45594000000E+02  0.51100000000E-03 0.  1.
    9900012    2    1    2    0    0  0.41410952754E+00 -0.39676052854E+00 -0.10316039633E+01  0.90007698193E+02  0.89999959009E+02 0.  0.
         12    1    1    2    0    0 -0.41410952754E+00  0.39676052854E+00  0.10316039633E+01  0.11803018067E+01  0.00000000000E+00 0. -1.
         11    1    3    3    0    0 -0.28559763425E+01 -0.74204109833E+01  0.67097134546E+01  0.10403814442E+02  0.51100000000E-03 0. -1.
        -11    1    3    3    0    0  0.19132543997E+02 -0.31164773093E+02 -0.10823949077E+02  0.38137320247E+02  0.51100000000E-03 0.  1.
         12    1    3    3    0    0 -0.15862458127E+02  0.38188423548E+02  0.30826316594E+01  0.41466563504E+02  0.00000000000E+00 0. -1.
</event>
<event>
 7    1  0.4639347E-015  0.9000771E+02  0.7816164E-02  0.1186339E+00
        -11   -1    0    0    0    0  0.00000000000E+00  0.00000000000E+00  0.45593999997E+02  0.45594000000E+02  0.51100000000E-03 0. -1.
         11   -1    0    0    0    0 -0.00000000000E+00 -0.00000000000E+00 -0.45593999997E+02  0.45594000000E+02  0.51100000000E-03 0.  1.
    9900012    2    1    2    0    0  0.66346527344E+00 -0.95843669472E+00 -0.18522579105E+00  0.90007705265E+02  0.89999966175E+02 0.  0.
         12    1    1    2    0    0 -0.66346527344E+00  0.95843669472E+00  0.18522579105E+00  0.11802947346E+01  0.00000000000E+00 0. -1.
         11    1    3    3    0    0 -0.11909531111E+02  0.38692445332E+01  0.36449299812E+02  0.38540361202E+02  0.51100000000E-03 0. -1.
        -11    1    3    3    0    0 -0.70306518513E+01 -0.54620136850E+01  0.10692474878E+01  0.89669922159E+01  0.51100000000E-03 0.  1.
        -12    1    3    3    0    0  0.19603648235E+02  0.63433245704E+00 -0.37703773091E+02  0.42500351847E+02  0.00000000000E+00 0.  1.
</event>
<event>
 7    1  0.4639347E-015  0.9000782E+02  0.7816164E-02  0.1186339E+00
        -11   -1    0    0    0    0  0.00000000000E+00  0.00000000000E+00  0.45593999997E+02  0.45594000000E+02  0.51100000000E-03 0.  1.
         11   -1    0    0    0    0 -0.00000000000E+00 -0.00000000000E+00 -0.45593999997E+02  0.45594000000E+02  0.51100000000E-03 0. -1.
    9900012    2    1    2    0    0  0.35149132310E+00  0.19648939211E+00  0.11093579565E+01  0.90007818104E+02  0.90000080503E+02 0.  0.
         12    1    1    2    0    0 -0.35149132310E+00 -0.19648939211E+00 -0.11093579565E+01  0.11801818958E+01  0.00000000000E+00 0. -1.
         11    1    3    3    0    0  0.97126099616E+01  0.19186035090E+01 -0.14812115148E+01  0.10010485478E+02  0.51100000000E-03 0. -1.
        -11    1    3    3    0    0 -0.25302458326E+02  0.27323171180E+02  0.20316877696E+02  0.42421051380E+02  0.51100000000E-03 0.  1.
         12    1    3    3    0    0  0.15941339687E+02 -0.29045285296E+02 -0.17726308225E+02  0.37576281246E+02  0.00000000000E+00 0. -1.
</event>
<event>
 7    1  0.4639347E-015  0.9000679E+02  0.7816164E-02  0.1186341E+00
        -11   -1    0    0    0    0  0.00000000000E+00  0.00000000000E+00  0.45593999997E+02  0.45594000000E+02  0.51100000000E-03 0. -1.
         11   -1    0    0    0    0 -0.00000000000E+00 -0.00000000000E+00 -0.45593999997E+02  0.45594000000E+02  0.51100000000E-03 0.  1.
    9900012    2    1    2    0    0  0.97115111991E+00 -0.48732193503E+00  0.46330249934E+00  0.90006786060E+02  0.89999034831E+02 0.  0.
         12    1    1    2    0    0 -0.97115111991E+00  0.48732193503E+00 -0.46330249934E+00  0.11812139400E+01  0.00000000000E+00 0. -1.
         11    1    3    3    0    0 -0.20530646368E+02  0.40861730609E+01  0.30517810191E+02  0.37007309950E+02  0.51100000000E-03 0. -1.
        -11    1    3    3    0    0  0.38371390346E+01  0.26460992128E+01  0.86614543952E+01  0.98359681535E+01  0.51100000000E-03 0.  1.
        -12    1    3    3    0    0  0.17664658453E+02 -0.72195942088E+01 -0.38715962087E+02  0.43163507957E+02  0.00000000000E+00 0.  1.
</event>
<event>
 7    1  0.4639347E-015  0.9000779E+02  0.7816164E-02  0.1186339E+00
        -11   -1    0    0    0    0  0.00000000000E+00  0.00000000000E+00  0.45593999997E+02  0.45594000000E+02  0.51100000000E-03 0. -1.
         11   -1    0    0    0    0 -0.00000000000E+00 -0.00000000000E+00 -0.45593999997E+02  0.45594000000E+02  0.51100000000E-03 0.  1.
    9900012    2    1    2    0    0 -0.27065533594E-01  0.17271878921E+00 -0.11671874526E+01  0.90007792021E+02  0.90000054076E+02 0.  0.
         12    1    1    2    0    0  0.27065533594E-01 -0.17271878921E+00  0.11671874526E+01  0.11802079786E+01  0.00000000000E+00 0. -1.
         11    1    3    3    0    0  0.24873196013E+02 -0.14476673690E+02  0.23865770151E+02  0.37387497191E+02  0.51100000000E-03 0. -1.
        -11    1    3    3    0    0 -0.18767817518E+01  0.24022236725E+01  0.91391568619E+01  0.96341671526E+01  0.51100000000E-03 0.  1.
        -12    1    3    3    0    0 -0.23023479795E+02  0.12247168806E+02 -0.34172114466E+02  0.42986127678E+02  0.00000000000E+00 0.  1.
</event>
<event>
 7    1  0.4639347E-015  0.9000773E+02  0.7816164E-02  0.1186339E+00
        -11   -1    0    0    0    0  0.00000000000E+00  0.00000000000E+00  0.45593999997E+02  0.45594000000E+02  0.51100000000E-03 0.  1.
         11   -1    0    0    0    0 -0.00000000000E+00 -0.00000000000E+00 -0.45593999997E+02  0.45594000000E+02  0.51100000000E-03 0. -1.
    9900012    2    1    2    0    0 -0.10343173917E+01 -0.32829386533E+00  0.46415795168E+00  0.90007732262E+02  0.89999993528E+02 0.  0.
         12    1    1    2    0    0  0.10343173917E+01  0.32829386533E+00 -0.46415795168E+00  0.11802677378E+01  0.00000000000E+00 0. -1.
         11    1    3    3    0    0 -0.91504389778E+01  0.34030172229E+00  0.98884466618E+00  0.92100028656E+01  0.51100000000E-03 0. -1.
        -11    1    3    3    0    0  0.14410682770E+02 -0.11779250600E+02  0.36859813863E+02  0.41292425466E+02  0.51100000000E-03 0.  1.
         12    1    3    3    0    0 -0.62945611837E+01  0.11110655012E+02 -0.37384500577E+02  0.39505303931E+02  0.00000000000E+00 0. -1.
</event>
<event>
 7    1  0.4639347E-015  0.9000789E+02  0.7816164E-02  0.1186339E+00
        -11   -1    0    0    0    0  0.00000000000E+00  0.00000000000E+00  0.45593999997E+02  0.45594000000E+02  0.51100000000E-03 0.  1.
         11   -1    0    0    0    0 -0.00000000000E+00 -0.00000000000E+00 -0.45593999997E+02  0.45594000000E+02  0.51100000000E-03 0. -1.
    9900012    2    1    2    0    0  0.58626550719E+00 -0.87468145238E+00  0.53281676278E+00  0.90007886196E+02  0.90000149494E+02 0.  0.
         12    1    1    2    0    0 -0.58626550719E+00  0.87468145238E+00 -0.53281676278E+00  0.11801138042E+01  0.00000000000E+00 0. -1.
         11    1    3    3    0    0 -0.30015884017E+01  0.58011967406E+01 -0.63378820496E+01  0.91012178137E+01  0.51100000000E-03 0. -1.
        -11    1    3    3    0    0 -0.60050927868E+01 -0.30558842733E+02 -0.25003591556E+02  0.39938497712E+02  0.51100000000E-03 0.  1.
         12    1    3    3    0    0  0.95929466957E+01  0.23882964540E+02  0.31874290369E+02  0.40968170670E+02  0.00000000000E+00 0. -1.
</event>
<event>
 7    1  0.4639347E-015  0.9000705E+02  0.7816164E-02  0.1186340E+00
        -11   -1    0    0    0    0  0.00000000000E+00  0.00000000000E+00  0.45593999997E+02  0.45594000000E+02  0.51100000000E-03 0.  1.
         11   -1    0    0    0    0 -0.00000000000E+00 -0.00000000000E+00 -0.45593999997E+02  0.45594000000E+02  0.51100000000E-03 0. -1.
    9900012    2    1    2    0    0 -0.57645438679E+00 -0.62949628480E+00  0.81612945492E+00  0.90007054396E+02  0.89999306711E+02 0.  0.
         12    1    1    2    0    0  0.57645438679E+00  0.62949628480E+00 -0.81612945492E+00  0.11809456041E+01  0.00000000000E+00 0. -1.
         11    1    3    3    0    0 -0.94227546827E+01 -0.19874141328E+01  0.35708208455E+01  0.10270778087E+02  0.51100000000E-03 0. -1.
        -11    1    3    3    0    0 -0.34382790166E+02 -0.58889075308E+01 -0.73961326422E+01  0.35658915713E+02  0.51100000000E-03 0.  1.
         12    1    3    3    0    0  0.43229090462E+02  0.72468253788E+01  0.46414412516E+01  0.44077360596E+02  0.00000000000E+00 0. -1.
</event>
<event>
 7    1  0.5809302E-015  0.9000773E+02  0.7816164E-02  0.1186339E+00
        -11   -1    0    0    0    0  0.00000000000E+00  0.00000000000E+00  0.45593999997E+02  0.45594000000E+02  0.51100000000E-03 0. -1.
         11   -1    0    0    0    0 -0.00000000000E+00 -0.00000000000E+00 -0.45593999997E+02  0.45594000000E+02  0.51100000000E-03 0.  1.
    9900012    2    1    2    0    0 -0.55399102492E+00 -0.73233304529E+00 -0.74149210717E+00  0.90007733805E+02  0.89999995092E+02 0.  0.
         12    1    1    2    0    0  0.55399102492E+00  0.73233304529E+00  0.74149210717E+00  0.11802661945E+01  0.00000000000E+00 0. -1.
         11    1    3    3    0    0  0.37227858951E+01 -0.82735843613E+01 -0.27469924017E+01  0.94793090740E+01  0.51100000000E-03 0. -1.
        -11    1    3    3    0    0 -0.35040031237E+01 -0.18968964651E+02 -0.32023730757E+02  0.37384742739E+02  0.51100000000E-03 0.  1.
         12    1    3    3    0    0 -0.77277379623E+00  0.26510215967E+02  0.34029231051E+02  0.43143681993E+02  0.00000000000E+00 0. -1.
</event>
<event>
 7    1  0.4639347E-015  0.9000775E+02  0.7816164E-02  0.1186339E+00
        -11   -1    0    0    0    0  0.00000000000E+00  0.00000000000E+00  0.45593999997E+02  0.45594000000E+02  0.51100000000E-03 0.  1.
         11   -1    0    0    0    0 -0.00000000000E+00 -0.00000000000E+00 -0.45593999997E+02  0.45594000000E+02  0.51100000000E-03 0. -1.
    9900012    2    1    2    0    0 -0.11399618642E+01 -0.29838956532E+00  0.66718413282E-01  0.90007745480E+02  0.90000006921E+02 0.  0.
         12    1    1    2    0    0  0.11399618642E+01  0.29838956532E+00 -0.66718413282E-01  0.11802545196E+01  0.00000000000E+00 0. -1.
         11    1    3    3    0    0 -0.10931918905E+01 -0.28437013098E+01 -0.10844136525E+02  0.11263969233E+02  0.51100000000E-03 0. -1.
        -11    1    3    3    0    0 -0.32473767834E+02  0.20916791391E+02 -0.34993648929E+01  0.38785349223E+02  0.51100000000E-03 0.  1.
         12    1    3    3    0    0  0.32426997860E+02 -0.18371479647E+02  0.14410219832E+02  0.39958427024E+02  0.00000000000E+00 0. -1.
</event>
<event>
 7    1  0.4639347E-015  0.9000770E+02  0.7816164E-02  0.1186339E+00
        -11   -1    0    0    0    0  0.00000000000E+00  0.00000000000E+00  0.45593999997E+02  0.45594000000E+02  0.51100000000E-03 0. -1.
         11   -1    0    0    0    0 -0.00000000000E+00 -0.00000000000E+00 -0.45593999997E+02  0.45594000000E+02  0.51100000000E-03 0.  1.
    9900012    2    1    2    0    0 -0.10376942142E+01 -0.55689920142E+00  0.78475540093E-01  0.90007701558E+02  0.89999962418E+02 0.  0.
         12    1    1    2    0    0  0.10376942142E+01  0.55689920142E+00 -0.78475540093E-01  0.11802984424E+01  0.00000000000E+00 0. -1.
         11    1    3    3    0    0 -0.25944200126E+02  0.12735440652E+02 -0.31067200371E+02  0.42431873726E+02  0.51100000000E-03 0. -1.
        -11    1    3    3    0    0  0.67758280839E+01  0.54420853577E+01  0.29589062550E+01  0.91805917974E+01  0.51100000000E-03 0.  1.
        -12    1    3    3    0    0  0.18130677827E+02 -0.18734425211E+02  0.28186769656E+02  0.38395236034E+02  0.00000000000E+00 0.  1.
</event>
<event>
 7    1  0.4639347E-015  0.9000784E+02  0.7816164E-02  0.1186339E+00
        -11   -1    0    0    0    0  0.00000000000E+00  0.00000000000E+00  0.45593999997E+02  0.45594000000E+02  0.51100000000E-03 0.  1.
         11   -1    0    0    0    0 -0.00000000000E+00 -0.00000000000E+00 -0.45593999997E+02  0.45594000000E+02  0.51100000000E-03 0. -1.
    9900012    2    1    2    0    0 -0.11350221582E+00 -0.94816717099E+00  0.69345630295E+00  0.90007836714E+02  0.90000099359E+02 0.  0.
         12    1    1    2    0    0  0.11350221582E+00  0.94816717099E+00 -0.69345630295E+00  0.11801632858E+01  0.00000000000E+00 0. -1.
         11    1    3    3    0    0  0.29800330857E+01  0.32337091771E+00  0.91388810703E+01  0.96179162723E+01  0.51100000000E-03 0. -1.
        -11    1    3    3    0    0  0.33931697095E+02 -0.35729955246E+01  0.14168218029E+02  0.36944076212E+02  0.51100000000E-03 0.  1.
         12    1    3    3    0    0 -0.37025232397E+02  0.23014574359E+01 -0.22613642796E+02  0.43445844230E+02  0.00000000000E+00 0. -1.
</event>
<event>
 7    1  0.4639347E-015  0.9000775E+02  0.7816164E-02  0.1186339E+00
        -11   -1    0    0    0    0  0.00000000000E+00  0.00000000000E+00  0.45593999997E+02  0.45594000000E+02  0.51100000000E-03 0. -1.
         11   -1    0    0    0    0 -0.00000000000E+00 -0.00000000000E+00 -0.45593999997E+02  0.45594000000E+02  0.51100000000E-03 0.  1.
    9900012    2    1    2    0    0  0.60940972934E+00 -0.35190491656E+00 -0.94750485409E+00  0.90007753103E+02  0.90000014644E+02 0.  0.
         12    1    1    2    0    0 -0.60940972934E+00  0.35190491656E+00  0.94750485409E+00  0.11802468966E+01  0.00000000000E+00 0. -1.
         11    1    3    3    0    0  0.72462935630E+00 -0.72611907647E+01 -0.66921744380E+00  0.73278804080E+01  0.51100000000E-03 0. -1.
        -11    1    3    3    0    0  0.33395288149E+02 -0.14472288797E+02 -0.16225896948E+02  0.39849368196E+02  0.51100000000E-03 0.  1.
         12    1    3    3    0    0 -0.33510507776E+02  0.21381574645E+02  0.15947609537E+02  0.42830504499E+02  0.00000000000E+00 0. -1.
</event>
<event>
 7    1  0.4639347E-015  0.9000769E+02  0.7816164E-02  0.1186339E+00
        -11   -1    0    0    0    0  0.00000000000E+00  0.00000000000E+00  0.45593999997E+02  0.45594000000E+02  0.51100000000E-03 0.  1.
         11   -1    0    0    0    0 -0.00000000000E+00 -0.00000000000E+00 -0.45593999997E+02  0.45594000000E+02  0.51100000000E-03 0. -1.
    9900012    2    1    2    0    0 -0.85159470628E+00 -0.89226889986E-01  0.81237640527E+00  0.90007690547E+02  0.89999951262E+02 0.  0.
         12    1    1    2    0    0  0.85159470628E+00  0.89226889986E-01 -0.81237640527E+00  0.11803094533E+01  0.00000000000E+00 0. -1.
         11    1    3    3    0    0 -0.53297111154E+01 -0.72117980659E+01  0.25902234207E+01  0.93340832195E+01  0.51100000000E-03 0. -1.
        -11    1    3    3    0    0  0.13539028255E+02 -0.34204761452E+02  0.70428421988E+01  0.37454941177E+02  0.51100000000E-03 0.  1.
         12    1    3    3    0    0 -0.90609118461E+01  0.41327332628E+02 -0.88206892142E+01  0.43218666150E+02  0.00000000000E+00 0. -1.
</event>
<event>
 7    1  0.4639347E-015  0.9000778E+02  0.7816164E-02  0.1186339E+00
        -11   -1    0    0    0    0  0.00000000000E+00  0.00000000000E+00  0.45593999997E+02  0.45594000000E+02  0.51100000000E-03 0.  1.
         11   -1    0    0    0    0 -0.00000000000E+00 -0.00000000000E+00 -0.45593999997E+02  0.45594000000E+02  0.51100000000E-03 0. -1.
    9900012    2    1    2    0    0 -0.11416335188E+01  0.11325779090E+00 -0.27707404956E+00  0.90007777797E+02  0.90000039664E+02 0.  0.
         12    1    1    2    0    0  0.11416335188E+01 -0.11325779090E+00  0.27707404956E+00  0.11802222025E+01  0.00000000000E+00 0. -1.
         11    1    3    3    0    0 -0.39176311240E+02  0.17499563307E+01 -0.22730936950E+01  0.39281199889E+02  0.51100000000E-03 0. -1.
        -11    1    3    3    0    0 -0.51730517531E+01  0.26745742241E+01  0.43064297415E+01  0.72428688446E+01  0.51100000000E-03 0.  1.
        -12    1    3    3    0    0  0.43207729474E+02 -0.43112727639E+01 -0.23104100960E+01  0.43483709064E+02  0.00000000000E+00 0.  1.
</event>
<event>
 7    1  0.4639347E-015  0.9000776E+02  0.7816164E-02  0.1186339E+00
        -11   -1    0    0    0    0  0.00000000000E+00  0.00000000000E+00  0.45593999997E+02  0.45594000000E+02  0.51100000000E-03 0.  1.
         11   -1    0    0    0    0 -0.00000000000E+00 -0.00000000000E+00 -0.45593999997E+02  0.45594000000E+02  0.51100000000E-03 0. -1.
    9900012    2    1    2    0    0  0.11195331900E+00  0.74387178855E+00  0.90944634449E+00  0.90007757891E+02  0.90000019495E+02 0.  0.
         12    1    1    2    0    0 -0.11195331900E+00 -0.74387178855E+00 -0.90944634449E+00  0.11802421095E+01  0.00000000000E+00 0. -1.
         11    1    3    3    0    0  0.30225990581E+02  0.27152655481E+02 -0.19997648867E+01  0.40680170429E+02  0.51100000000E-03 0. -1.
        -11    1    3    3    0    0 -0.19451220214E+01 -0.43043132426E+00  0.10138516223E+02  0.10332389959E+02  0.51100000000E-03 0.  1.
        -12    1    3    3    0    0 -0.28168915241E+02 -0.25978352368E+02 -0.72293049914E+01  0.38995197503E+02  0.00000000000E+00 0.  1.
</event>
<event>
 7    1  0.4639347E-015  0.9000773E+02  0.7816164E-02  0.1186339E+00
        -11   -1    0    0    0    0  0.00000000000E+00  0.00000000000E+00  0.45593999997E+02  0.45594000000E+02  0.51100000000E-03 0.  1.
         11   -1    0    0    0    0 -0.00000000000E+00 -0.00000000000E+00 -0.45593999997E+02  0.45594000000E+02  0.51100000000E-03 0. -1.
    9900012    2    1    2    0    0  0.90109506106E+00  0.52421731550E+00  0.55341039958E+00  0.90007729195E+02  0.89999990420E+02 0.  0.
         12    1    1    2    0    0 -0.90109506106E+00 -0.52421731550E+00 -0.55341039958E+00  0.11802708051E+01  0.00000000000E+00 0. -1.
         11    1    3    3    0    0 -0.32570618674E+02 -0.15651958052E+02  0.13884632771E+02  0.38711910559E+02  0.51100000000E-03 0. -1.
        -11    1    3    3    0    0  0.20442661287E+01 -0.90023194665E+01 -0.17720646192E+01  0.94000528221E+01  0.51100000000E-03 0.  1.
        -12    1    3    3    0    0  0.31427447607E+02  0.25178494834E+02 -0.11559157752E+02  0.41895765814E+02  0.00000000000E+00 0.  1.
</event>
<event>
 7    1  0.4639347E-015  0.9000756E+02  0.7816164E-02  0.1186339E+00
        -11   -1    0    0    0    0  0.00000000000E+00  0.00000000000E+00  0.45593999997E+02  0.45594000000E+02  0.51100000000E-03 0.  1.
         11   -1    0    0    0    0 -0.00000000000E+00 -0.00000000000E+00 -0.45593999997E+02  0.45594000000E+02  0.51100000000E-03 0. -1.
    9900012    2    1    2    0    0 -0.86752971986E+00 -0.32792240229E+00  0.73027082222E+00  0.90007560933E+02  0.89999819937E+02 0.  0.
         12    1    1    2    0    0  0.86752971986E+00  0.32792240229E+00 -0.73027082222E+00  0.11804390669E+01  0.00000000000E+00 0. -1.
         11    1    3    3    0    0  0.63378138170E+01 -0.62700719860E+01 -0.31192798608E+02  0.32441830589E+02  0.51100000000E-03 0. -1.
        -11    1    3    3    0    0 -0.68824395497E+01 -0.16348870896E+02 -0.10432138490E+01  0.17769126290E+02  0.51100000000E-03 0.  1.
        -12    1    3    3    0    0 -0.32290398725E+00  0.22291020480E+02  0.32966283279E+02  0.39796604054E+02  0.00000000000E+00 0.  1.
</event>
<event>
 7    1  0.4639347E-015  0.9000757E+02  0.7816164E-02  0.1186339E+00
        -11   -1    0    0    0    0  0.00000000000E+00  0.00000000000E+00  0.45593999997E+02  0.45594000000E+02  0.51100000000E-03 0.  1.
         11   -1    0    0    0    0 -0.00000000000E+00 -0.00000000000E+00 -0.45593999997E+02  0.45594000000E+02  0.51100000000E-03 0. -1.
    9900012    2    1    2    0    0  0.59427635522E+00  0.30320595527E+00  0.97381853412E+00  0.90007567547E+02  0.89999826639E+02 0.  0.
         12    1    1    2    0    0 -0.59427635522E+00 -0.30320595527E+00 -0.97381853412E+00  0.11804324526E+01  0.00000000000E+00 0. -1.
         11    1    3    3    0    0 -0.71886696586E+01 -0.36619842991E+01  0.57211945996E+01  0.98903573431E+01  0.51100000000E-03 0. -1.
        -11    1    3    3    0    0 -0.30667906861E+01  0.55524693213E+01  0.36699879894E+02  0.37244010326E+02  0.51100000000E-03 0.  1.
         12    1    3    3    0    0  0.10849736700E+02 -0.15872790669E+01 -0.41447255959E+02  0.42873199879E+02  0.00000000000E+00 0. -1.
</event>
<event>
 7    1  0.4639347E-015  0.9000766E+02  0.7816164E-02  0.1186339E+00
        -11   -1    0    0    0    0  0.00000000000E+00  0.00000000000E+00  0.45593999997E+02  0.45594000000E+02  0.51100000000E-03 0.  1.
         11   -1    0    0    0    0 -0.00000000000E+00 -0.00000000000E+00 -0.45593999997E+02  0.45594000000E+02  0.51100000000E-03 0. -1.
    9900012    2    1    2    0    0  0.42664144646E+00  0.32056042937E+00  0.10528124774E+01  0.90007662749E+02  0.89999923098E+02 0.  0.
         12    1    1    2    0    0 -0.42664144646E+00 -0.32056042937E+00 -0.10528124774E+01  0.11803372507E+01  0.00000000000E+00 0. -1.
         11    1    3    3    0    0  0.31725453874E+01  0.35138717295E+02 -0.45000405400E+01  0.35567469160E+02  0.51100000000E-03 0. -1.
        -11    1    3    3    0    0  0.31878525894E+01  0.89219419328E+01 -0.19320265909E+01  0.96693422213E+01  0.51100000000E-03 0.  1.
        -12    1    3    3    0    0 -0.59337565304E+01 -0.43740098798E+02  0.74848796083E+01  0.44770851368E+02  0.00000000000E+00 0.  1.
</event>
<event>
 7    1  0.4639347E-015  0.9000773E+02  0.7816164E-02  0.1186339E+00
        -11   -1    0    0    0    0  0.00000000000E+00  0.00000000000E+00  0.45593999997E+02  0.45594000000E+02  0.51100000000E-03 0. -1.
         11   -1    0    0    0    0 -0.00000000000E+00 -0.00000000000E+00 -0.45593999997E+02  0.45594000000E+02  0.51100000000E-03 0.  1.
    9900012    2    1    2    0    0 -0.49283605410E+00  0.43182346872E+00 -0.98167664499E+00  0.90007725490E+02  0.89999986666E+02 0.  0.
         12    1    1    2    0    0  0.49283605410E+00 -0.43182346872E+00  0.98167664499E+00  0.11802745103E+01  0.00000000000E+00 0. -1.
         11    1    3    3    0    0 -0.11930858366E+00  0.89787188478E+01  0.42502187023E+01  0.99345853444E+01  0.51100000000E-03 0. -1.
        -11    1    3    3    0    0 -0.96430782331E+01  0.32181162143E+02  0.10866613913E+02  0.35308631422E+02  0.51100000000E-03 0.  1.
         12    1    3    3    0    0  0.92695507626E+01 -0.40728057522E+02 -0.16098509260E+02  0.44764508724E+02  0.00000000000E+00 0. -1.
</event>
<event>
 7    1  0.4639347E-015  0.9000775E+02  0.7816164E-02  0.1186339E+00
        -11   -1    0    0    0    0  0.00000000000E+00  0.00000000000E+00  0.45593999997E+02  0.45594000000E+02  0.51100000000E-03 0.  1.
         11   -1    0    0    0    0 -0.00000000000E+00 -0.00000000000E+00 -0.45593999997E+02  0.45594000000E+02  0.51100000000E-03 0. -1.
    9900012    2    1    2    0    0 -0.92361137017E+00  0.31076502290E+00  0.66584318973E+00  0.90007754256E+02  0.90000015812E+02 0.  0.
         12    1    1    2    0    0  0.92361137017E+00 -0.31076502290E+00 -0.66584318973E+00  0.11802457438E+01  0.00000000000E+00 0. -1.
         11    1    3    3    0    0  0.22219341652E+02 -0.17879005049E+02 -0.19200243561E+02  0.34380333303E+02  0.51100000000E-03 0. -1.
        -11    1    3    3    0    0  0.29558785610E+01  0.23419757250E+00 -0.11003055560E+02  0.11395582412E+02  0.51100000000E-03 0.  1.
        -12    1    3    3    0    0 -0.26098831583E+02  0.17955572499E+02  0.30869142311E+02  0.44231838542E+02  0.00000000000E+00 0.  1.
</event>
<event>
 7    1  0.4639347E-015  0.9000745E+02  0.7816164E-02  0.1186340E+00
        -11   -1    0    0    0    0  0.00000000000E+00  0.00000000000E+00  0.45593999997E+02  0.45594000000E+02  0.51100000000E-03 0.  1.
         11   -1    0    0    0    0 -0.00000000000E+00 -0.00000000000E+00 -0.45593999997E+02  0.45594000000E+02  0.51100000000E-03 0. -1.
    9900012    2    1    2    0    0 -0.38277894180E+00 -0.11146806218E+01 -0.68362890771E-01  0.90007446701E+02  0.89999704197E+02 0.  0.
         12    1    1    2    0    0  0.38277894180E+00  0.11146806218E+01  0.68362890771E-01  0.11805532990E+01  0.00000000000E+00 0. -1.
         11    1    3    3    0    0 -0.13956214105E+02 -0.18678192157E+01 -0.99816616223E+01  0.17259728555E+02  0.51100000000E-03 0. -1.
        -11    1    3    3    0    0  0.25392091093E+02 -0.27768575674E+02  0.16651388404E+02  0.41147549394E+02  0.51100000000E-03 0.  1.
         12    1    3    3    0    0 -0.11818655930E+02  0.28521714268E+02 -0.67380896723E+01  0.31600168753E+02  0.00000000000E+00 0. -1.
</event>
<event>
 7    1  0.4639347E-015  0.9000799E+02  0.7816164E-02  0.1186339E+00
        -11   -1    0    0    0    0  0.00000000000E+00  0.00000000000E+00  0.45593999997E+02  0.45594000000E+02  0.51100000000E-03 0. -1.
         11   -1    0    0    0    0 -0.00000000000E+00 -0.00000000000E+00 -0.45593999997E+02  0.45594000000E+02  0.51100000000E-03 0.  1.
    9900012    2    1    2    0    0 -0.33198629529E+00  0.40880794601E+00 -0.10559735574E+01  0.90007991953E+02  0.90000256646E+02 0.  0.
         12    1    1    2    0    0  0.33198629529E+00 -0.40880794601E+00  0.10559735574E+01  0.11800080470E+01  0.00000000000E+00 0. -1.
         11    1    3    3    0    0  0.19098992958E+01 -0.29714247712E+02 -0.11564100268E+02  0.31942333160E+02  0.51100000000E-03 0. -1.
        -11    1    3    3    0    0 -0.84469250914E+01 -0.86316690890E+01 -0.81887273850E+01  0.14591487628E+02  0.51100000000E-03 0.  1.
        -12    1    3    3    0    0  0.62050395004E+01  0.38754724747E+02  0.18696854096E+02  0.43474171165E+02  0.00000000000E+00 0.  1.
</event>
<event>
 7    1  0.4639347E-015  0.9000772E+02  0.7816164E-02  0.1186339E+00
        -11   -1    0    0    0    0  0.00000000000E+00  0.00000000000E+00  0.45593999997E+02  0.45594000000E+02  0.51100000000E-03 0.  1.
         11   -1    0    0    0    0 -0.00000000000E+00 -0.00000000000E+00 -0.45593999997E+02  0.45594000000E+02  0.51100000000E-03 0. -1.
    9900012    2    1    2    0    0  0.64579914901E+00 -0.97891338106E+00 -0.13319190416E+00  0.90007716970E+02  0.89999978034E+02 0.  0.
         12    1    1    2    0    0 -0.64579914901E+00  0.97891338106E+00  0.13319190416E+00  0.11802830304E+01  0.00000000000E+00 0. -1.
         11    1    3    3    0    0 -0.34796507301E+02  0.12142645168E+02 -0.15256316681E+02  0.39887290595E+02  0.51100000000E-03 0. -1.
        -11    1    3    3    0    0  0.28319812429E+01  0.32736796499E+01  0.12839162063E+02  0.13549213222E+02  0.51100000000E-03 0.  1.
        -12    1    3    3    0    0  0.32610325208E+02 -0.16395238199E+02  0.22839627144E+01  0.36571213152E+02  0.00000000000E+00 0.  1.
</event>
<event>
 7    1  0.4639347E-015  0.9000781E+02  0.7816164E-02  0.1186339E+00
        -11   -1    0    0    0    0  0.00000000000E+00  0.00000000000E+00  0.45593999997E+02  0.45594000000E+02  0.51100000000E-03 0.  1.
         11   -1    0    0    0    0 -0.00000000000E+00 -0.00000000000E+00 -0.45593999997E+02  0.45594000000E+02  0.51100000000E-03 0. -1.
    9900012    2    1    2    0    0  0.61075272924E+00 -0.35372763948E+00  0.94589522767E+00  0.90007805134E+02  0.90000067362E+02 0.  0.
         12    1    1    2    0    0 -0.61075272924E+00  0.35372763948E+00 -0.94589522767E+00  0.11801948657E+01  0.00000000000E+00 0. -1.
         11    1    3    3    0    0  0.79701393834E+01 -0.40011732099E+01 -0.26679416112E+01  0.93086208188E+01  0.51100000000E-03 0. -1.
        -11    1    3    3    0    0  0.17815365193E+02 -0.30500973421E+02  0.12283083084E+02  0.37397469793E+02  0.51100000000E-03 0.  1.
        -12    1    3    3    0    0 -0.25174751847E+02  0.34148418991E+02 -0.86692462447E+01  0.43301714523E+02  0.00000000000E+00 0.  1.
</event>
<event>
 7    1  0.4639347E-015  0.9000785E+02  0.7816164E-02  0.1186339E+00
        -11   -1    0    0    0    0  0.00000000000E+00  0.00000000000E+00  0.45593999997E+02  0.45594000000E+02  0.51100000000E-03 0.  1.
         11   -1    0    0    0    0 -0.00000000000E+00 -0.00000000000E+00 -0.45593999997E+02  0.45594000000E+02  0.51100000000E-03 0. -1.
    9900012    2    1    2    0    0  0.33822237046E-01  0.75056512145E+00  0.91008611189E+00  0.90007852265E+02  0.90000115115E+02 0.  0.
         12    1    1    2    0    0 -0.33822237046E-01 -0.75056512145E+00 -0.91008611189E+00  0.11801477350E+01  0.00000000000E+00 0. -1.
         11    1    3    3    0    0 -0.52029858167E+01  0.59515994886E+01 -0.77925297701E+01  0.11100275598E+02  0.51100000000E-03 0. -1.
        -11    1    3    3    0    0 -0.36052956833E+02 -0.31014410759E+01 -0.18687110498E+01  0.36234330605E+02  0.51100000000E-03 0.  1.
         12    1    3    3    0    0  0.41289764886E+02 -0.20995932912E+01  0.10571326932E+02  0.42673246062E+02  0.00000000000E+00 0. -1.
</event>
<event>
 7    1  0.4639347E-015  0.9000773E+02  0.7816164E-02  0.1186339E+00
        -11   -1    0    0    0    0  0.00000000000E+00  0.00000000000E+00  0.45593999997E+02  0.45594000000E+02  0.51100000000E-03 0.  1.
         11   -1    0    0    0    0 -0.00000000000E+00 -0.00000000000E+00 -0.45593999997E+02  0.45594000000E+02  0.51100000000E-03 0. -1.
    9900012    2    1    2    0    0 -0.89984941179E+00  0.75405206093E+00  0.12132088301E+00  0.90007727900E+02  0.89999989108E+02 0.  0.
         12    1    1    2    0    0  0.89984941179E+00 -0.75405206093E+00 -0.12132088301E+00  0.11802721005E+01  0.00000000000E+00 0. -1.
         11    1    3    3    0    0  0.19451104030E+02  0.27098156164E+02  0.21678274625E+02  0.39781944478E+02  0.51100000000E-03 0. -1.
        -11    1    3    3    0    0 -0.75350746722E+01 -0.74705030728E+01  0.77111815901E+01  0.13116710268E+02  0.51100000000E-03 0.  1.
        -12    1    3    3    0    0 -0.12815878769E+02 -0.18873601031E+02 -0.29268135332E+02  0.37109073153E+02  0.00000000000E+00 0.  1.
</event>
<event>
 7    1  0.4639347E-015  0.9000778E+02  0.7816164E-02  0.1186339E+00
        -11   -1    0    0    0    0  0.00000000000E+00  0.00000000000E+00  0.45593999997E+02  0.45594000000E+02  0.51100000000E-03 0. -1.
         11   -1    0    0    0    0 -0.00000000000E+00 -0.00000000000E+00 -0.45593999997E+02  0.45594000000E+02  0.51100000000E-03 0.  1.
    9900012    2    1    2    0    0 -0.67140132306E+00 -0.21719293105E-01 -0.97039327478E+00  0.90007781981E+02  0.90000043903E+02 0.  0.
         12    1    1    2    0    0  0.67140132306E+00  0.21719293105E-01  0.97039327478E+00  0.11802180189E+01  0.00000000000E+00 0. -1.
         11    1    3    3    0    0 -0.38770585943E+02 -0.43225995218E+01  0.17719285432E+01  0.39051029845E+02  0.51100000000E-03 0. -1.
        -11    1    3    3    0    0 -0.82463851791E+00 -0.61970246283E+00  0.97329692424E+01  0.97874792650E+01  0.51100000000E-03 0.  1.
        -12    1    3    3    0    0  0.38923823138E+02  0.49205826915E+01 -0.12475291060E+02  0.41169272871E+02  0.00000000000E+00 0.  1.
</event>
<event>
 7    1  0.4639347E-015  0.9000767E+02  0.7816164E-02  0.1186339E+00
        -11   -1    0    0    0    0  0.00000000000E+00  0.00000000000E+00  0.45593999997E+02  0.45594000000E+02  0.51100000000E-03 0. -1.
         11   -1    0    0    0    0 -0.00000000000E+00 -0.00000000000E+00 -0.45593999997E+02  0.45594000000E+02  0.51100000000E-03 0.  1.
    9900012    2    1    2    0    0 -0.77229294376E+00 -0.71966050205E+00 -0.52803691719E+00  0.90007673513E+02  0.89999934004E+02 0.  0.
         12    1    1    2    0    0  0.77229294376E+00  0.71966050205E+00  0.52803691719E+00  0.11803264867E+01  0.00000000000E+00 0. -1.
         11    1    3    3    0    0 -0.87303854158E+00  0.12938904558E+02 -0.26564179048E+01  0.13237598113E+02  0.51100000000E-03 0. -1.
        -11    1    3    3    0    0 -0.24757808387E+02 -0.21403284264E+02 -0.23457758874E+02  0.40265569722E+02  0.51100000000E-03 0.  1.
         12    1    3    3    0    0  0.24858553985E+02  0.77447192040E+01  0.25586139862E+02  0.36504505678E+02  0.00000000000E+00 0. -1.
</event>
<event>
 7    1  0.4639347E-015  0.9000722E+02  0.7816164E-02  0.1186340E+00
        -11   -1    0    0    0    0  0.00000000000E+00  0.00000000000E+00  0.45593999997E+02  0.45594000000E+02  0.51100000000E-03 0. -1.
         11   -1    0    0    0    0 -0.00000000000E+00 -0.00000000000E+00 -0.45593999997E+02  0.45594000000E+02  0.51100000000E-03 0.  1.
    9900012    2    1    2    0    0 -0.48680090658E+00  0.26010126282E+00 -0.10438452079E+01  0.90007220339E+02  0.89999474846E+02 0.  0.
         12    1    1    2    0    0  0.48680090658E+00 -0.26010126282E+00  0.10438452079E+01  0.11807796609E+01  0.00000000000E+00 0. -1.
         11    1    3    3    0    0 -0.13838537312E+02  0.15424013342E+02  0.28819915643E+02  0.35496377849E+02  0.51100000000E-03 0. -1.
        -11    1    3    3    0    0 -0.21241757522E+01  0.10845980875E+01  0.91764533615E+01  0.94813381015E+01  0.51100000000E-03 0.  1.
        -12    1    3    3    0    0  0.15475912158E+02 -0.16248510166E+02 -0.39040214212E+02  0.45029504388E+02  0.00000000000E+00 0.  1.
</event>
<event>
 7    1  0.4639347E-015  0.9000768E+02  0.7816164E-02  0.1186339E+00
        -11   -1    0    0    0    0  0.00000000000E+00  0.00000000000E+00  0.45593999997E+02  0.45594000000E+02  0.51100000000E-03 0. -1.
         11   -1    0    0    0    0 -0.00000000000E+00 -0.00000000000E+00 -0.45593999997E+02  0.45594000000E+02  0.51100000000E-03 0.  1.
    9900012    2    1    2    0    0  0.62366404194E+00 -0.97425443618E+00 -0.23457457188E+00  0.90007680648E+02  0.89999941232E+02 0.  0.
         12    1    1    2    0    0 -0.62366404194E+00  0.97425443618E+00  0.23457457188E+00  0.11803193523E+01  0.00000000000E+00 0. -1.
         11    1    3    3    0    0 -0.43525034209E+01 -0.78224617157E+01 -0.38423727247E+01  0.97416128921E+01  0.51100000000E-03 0. -1.
        -11    1    3    3    0    0  0.33679910375E+02 -0.92411111575E+01 -0.19554120594E+02  0.40026218042E+02  0.51100000000E-03 0.  1.
         12    1    3    3    0    0 -0.28703742912E+02  0.16089318437E+02  0.23161918746E+02  0.40239849713E+02  0.00000000000E+00 0. -1.
</event>
<event>
 7    1  0.4639347E-015  0.9000773E+02  0.7816164E-02  0.1186339E+00
        -11   -1    0    0    0    0  0.00000000000E+00  0.00000000000E+00  0.45593999997E+02  0.45594000000E+02  0.51100000000E-03 0. -1.
         11   -1    0    0    0    0 -0.00000000000E+00 -0.00000000000E+00 -0.45593999997E+02  0.45594000000E+02  0.51100000000E-03 0.  1.
    9900012    2    1    2    0    0  0.90415320130E-01 -0.11734221002E+01  0.89121478433E-01  0.90007730118E+02  0.89999991356E+02 0.  0.
         12    1    1    2    0    0 -0.90415320130E-01  0.11734221002E+01 -0.89121478433E-01  0.11802698816E+01  0.00000000000E+00 0. -1.
         11    1    3    3    0    0 -0.61695007387E+00  0.10142058748E+02  0.37378766686E+01  0.10826527851E+02  0.51100000000E-03 0. -1.
        -11    1    3    3    0    0 -0.55345975594E+01  0.29693128718E+02 -0.18150355769E+02  0.35238460211E+02  0.51100000000E-03 0.  1.
         12    1    3    3    0    0  0.62419629534E+01 -0.41008609567E+02  0.14501600579E+02  0.43942742057E+02  0.00000000000E+00 0. -1.
</event>
<event>
 7    1  0.4639347E-015  0.9000762E+02  0.7816164E-02  0.1186339E+00
        -11   -1    0    0    0    0  0.00000000000E+00  0.00000000000E+00  0.45593999997E+02  0.45594000000E+02  0.51100000000E-03 0. -1.
         11   -1    0    0    0    0 -0.00000000000E+00 -0.00000000000E+00 -0.45593999997E+02  0.45594000000E+02  0.51100000000E-03 0.  1.
    9900012    2    1    2    0    0  0.72015563404E+00 -0.92427763442E+00 -0.14279160033E+00  0.90007617552E+02  0.89999877303E+02 0.  0.
         12    1    1    2    0    0 -0.72015563404E+00  0.92427763442E+00  0.14279160033E+00  0.11803824481E+01  0.00000000000E+00 0. -1.
         11    1    3    3    0    0 -0.36384864004E+01  0.12101751840E+01  0.81294663533E-01  0.38353248031E+01  0.51100000000E-03 0. -1.
        -11    1    3    3    0    0 -0.22137731333E+02 -0.35614064524E+02  0.80038854674E+01  0.42690782651E+02  0.51100000000E-03 0.  1.
         12    1    3    3    0    0  0.26496373367E+02  0.33479611706E+02 -0.82279717312E+01  0.43481510098E+02  0.00000000000E+00 0. -1.
</event>
<event>
 7    1  0.4639347E-015  0.9000776E+02  0.7816164E-02  0.1186339E+00
        -11   -1    0    0    0    0  0.00000000000E+00  0.00000000000E+00  0.45593999997E+02  0.45594000000E+02  0.51100000000E-03 0.  1.
         11   -1    0    0    0    0 -0.00000000000E+00 -0.00000000000E+00 -0.45593999997E+02  0.45594000000E+02  0.51100000000E-03 0. -1.
    9900012    2    1    2    0    0  0.81830092107E+00 -0.84628794840E+00  0.84552839771E-01  0.90007758977E+02  0.90000020596E+02 0.  0.
         12    1    1    2    0    0 -0.81830092107E+00  0.84628794840E+00 -0.84552839771E-01  0.11802410227E+01  0.00000000000E+00 0. -1.
         11    1    3    3    0    0  0.47109818676E+01 -0.27032352091E+01 -0.89005025691E+01  0.10426877624E+02  0.51100000000E-03 0. -1.
        -11    1    3    3    0    0  0.17506719592E+02  0.33971538021E+02 -0.49807576824E+01  0.38540349943E+02  0.51100000000E-03 0.  1.
         12    1    3    3    0    0 -0.21399400538E+02 -0.32114590760E+02  0.13965813091E+02  0.41040531410E+02  0.00000000000E+00 0. -1.
</event>
<event>
 7    1  0.4639347E-015  0.9000796E+02  0.7816164E-02  0.1186339E+00
        -11   -1    0    0    0    0  0.00000000000E+00  0.00000000000E+00  0.45593999997E+02  0.45594000000E+02  0.51100000000E-03 0.  1.
         11   -1    0    0    0    0 -0.00000000000E+00 -0.00000000000E+00 -0.45593999997E+02  0.45594000000E+02  0.51100000000E-03 0. -1.
    9900012    2    1    2    0    0  0.21947542360E-01  0.33214121959E+00  0.11321222895E+01  0.90007957474E+02  0.90000221713E+02 0.  0.
         12    1    1    2    0    0 -0.21947542360E-01 -0.33214121959E+00 -0.11321222895E+01  0.11800425258E+01  0.00000000000E+00 0. -1.
         11    1    3    3    0    0 -0.71223732704E+01  0.32033559837E+01  0.45975051415E+01  0.90623807219E+01  0.51100000000E-03 0. -1.
        -11    1    3    3    0    0 -0.20484046027E+02 -0.68260454751E+01  0.30257391976E+02  0.37171236298E+02  0.51100000000E-03 0.  1.
         12    1    3    3    0    0  0.27628366839E+02  0.39548307109E+01 -0.33722774828E+02  0.43774340455E+02  0.00000000000E+00 0. -1.
</event>
<event>
 7    1  0.4639347E-015  0.9000787E+02  0.7816164E-02  0.1186339E+00
        -11   -1    0    0    0    0  0.00000000000E+00  0.00000000000E+00  0.45593999997E+02  0.45594000000E+02  0.51100000000E-03 0.  1.
         11   -1    0    0    0    0 -0.00000000000E+00 -0.00000000000E+00 -0.45593999997E+02  0.45594000000E+02  0.51100000000E-03 0. -1.
    9900012    2    1    2    0    0 -0.27734042392E-01 -0.11876266055E+00  0.11738105018E+01  0.90007870837E+02  0.90000133932E+02 0.  0.
         12    1    1    2    0    0  0.27734042392E-01  0.11876266055E+00 -0.11738105018E+01  0.11801291627E+01  0.00000000000E+00 0. -1.
         11    1    3    3    0    0 -0.25832751794E+02 -0.26181356878E+02 -0.25776595915E+01  0.36870568784E+02  0.51100000000E-03 0. -1.
        -11    1    3    3    0    0 -0.86533718597E+01 -0.13680349351E+01 -0.10909623170E+01  0.88285085470E+01  0.51100000000E-03 0.  1.
        -12    1    3    3    0    0  0.34458389612E+02  0.27430629152E+02  0.48424324103E+01  0.44308793506E+02  0.00000000000E+00 0.  1.
</event>
<event>
 7    1  0.4639347E-015  0.9000775E+02  0.7816164E-02  0.1186339E+00
        -11   -1    0    0    0    0  0.00000000000E+00  0.00000000000E+00  0.45593999997E+02  0.45594000000E+02  0.51100000000E-03 0.  1.
         11   -1    0    0    0    0 -0.00000000000E+00 -0.00000000000E+00 -0.45593999997E+02  0.45594000000E+02  0.51100000000E-03 0. -1.
    9900012    2    1    2    0    0 -0.10649951045E+01 -0.46416371952E-01  0.50658078858E+00  0.90007748693E+02  0.90000010176E+02 0.  0.
         12    1    1    2    0    0  0.10649951045E+01  0.46416371952E-01 -0.50658078858E+00  0.11802513069E+01  0.00000000000E+00 0. -1.
         11    1    3    3    0    0  0.17383517509E+02 -0.16785602995E+02 -0.28669095287E+02  0.37494801956E+02  0.51100000000E-03 0. -1.
        -11    1    3    3    0    0  0.21647065402E+01 -0.97499281419E+01  0.51603227904E+01  0.11241707377E+02  0.51100000000E-03 0.  1.
        -12    1    3    3    0    0 -0.20613219154E+02  0.26489114765E+02  0.24015353286E+02  0.41271239360E+02  0.00000000000E+00 0.  1.
</event>
<event>
 7    1  0.4639347E-015  0.9000772E+02  0.7816164E-02  0.1186339E+00
        -11   -1    0    0    0    0  0.00000000000E+00  0.00000000000E+00  0.45593999997E+02  0.45594000000E+02  0.51100000000E-03 0.  1.
         11   -1    0    0    0    0 -0.00000000000E+00 -0.00000000000E+00 -0.45593999997E+02  0.45594000000E+02  0.51100000000E-03 0. -1.
    9900012    2    1    2    0    0  0.38169613247E+00  0.36856234486E+00  0.10542931758E+01  0.90007718576E+02  0.89999979661E+02 0.  0.
         12    1    1    2    0    0 -0.38169613247E+00 -0.36856234486E+00 -0.10542931758E+01  0.11802814242E+01  0.00000000000E+00 0. -1.
         11    1    3    3    0    0 -0.30234347208E+02  0.25968012503E+02 -0.10134969614E+02  0.41123849939E+02  0.51100000000E-03 0. -1.
        -11    1    3    3    0    0 -0.30992074004E+01 -0.62617357189E+01  0.68340129477E+01  0.97733389359E+01  0.51100000000E-03 0.  1.
        -12    1    3    3    0    0  0.33715250741E+02 -0.19337714439E+02  0.43552498420E+01  0.39110529701E+02  0.00000000000E+00 0.  1.
</event>
<event>
 7    1  0.4639347E-015  0.9000766E+02  0.7816164E-02  0.1186339E+00
        -11   -1    0    0    0    0  0.00000000000E+00  0.00000000000E+00  0.45593999997E+02  0.45594000000E+02  0.51100000000E-03 0.  1.
         11   -1    0    0    0    0 -0.00000000000E+00 -0.00000000000E+00 -0.45593999997E+02  0.45594000000E+02  0.51100000000E-03 0. -1.
    9900012    2    1    2    0    0  0.96960201844E+00 -0.14293509493E+00  0.65775671682E+00  0.90007660043E+02  0.89999920356E+02 0.  0.
         12    1    1    2    0    0 -0.96960201844E+00  0.14293509493E+00 -0.65775671682E+00  0.11803399570E+01  0.00000000000E+00 0. -1.
         11    1    3    3    0    0  0.37298963214E+02  0.12828044081E+02 -0.17170347233E+02  0.43018509925E+02  0.51100000000E-03 0. -1.
        -11    1    3    3    0    0 -0.52426363087E+01  0.47875022287E+01  0.59663833195E+01  0.92737879656E+01  0.51100000000E-03 0.  1.
        -12    1    3    3    0    0 -0.31086724887E+02 -0.17758481405E+02  0.11861720631E+02  0.37715362153E+02  0.00000000000E+00 0.  1.
</event>
<event>
 7    1  0.4639347E-015  0.9000758E+02  0.7816164E-02  0.1186339E+00
        -11   -1    0    0    0    0  0.00000000000E+00  0.00000000000E+00  0.45593999997E+02  0.45594000000E+02  0.51100000000E-03 0. -1.
         11   -1    0    0    0    0 -0.00000000000E+00 -0.00000000000E+00 -0.45593999997E+02  0.45594000000E+02  0.51100000000E-03 0.  1.
    9900012    2    1    2    0    0 -0.11687315463E+01 -0.62102272718E-01  0.15363853914E+00  0.90007578499E+02  0.89999837735E+02 0.  0.
         12    1    1    2    0    0  0.11687315463E+01  0.62102272718E-01 -0.15363853914E+00  0.11804215011E+01  0.00000000000E+00 0. -1.
         11    1    3    3    0    0 -0.13815148432E+02 -0.98951502580E+01 -0.43946983387E+01  0.17552370170E+02  0.51100000000E-03 0. -1.
        -11    1    3    3    0    0  0.68165073810E+01 -0.18829854830E+01 -0.32449519424E+02  0.33211168578E+02  0.51100000000E-03 0.  1.
         12    1    3    3    0    0  0.58299095048E+01  0.11716033468E+02  0.36997856302E+02  0.39244039751E+02  0.00000000000E+00 0. -1.
</event>
<event>
 7    1  0.4639347E-015  0.9000770E+02  0.7816164E-02  0.1186339E+00
        -11   -1    0    0    0    0  0.00000000000E+00  0.00000000000E+00  0.45593999997E+02  0.45594000000E+02  0.51100000000E-03 0.  1.
         11   -1    0    0    0    0 -0.00000000000E+00 -0.00000000000E+00 -0.45593999997E+02  0.45594000000E+02  0.51100000000E-03 0. -1.
    9900012    2    1    2    0    0 -0.40244055735E+00  0.49247284420E+00  0.99429098257E+00  0.90007702384E+02  0.89999963255E+02 0.  0.
         12    1    1    2    0    0  0.40244055735E+00 -0.49247284420E+00 -0.99429098257E+00  0.11802976161E+01  0.00000000000E+00 0. -1.
         11    1    3    3    0    0  0.11044778399E+02  0.22024101840E+01  0.13697960222E+01  0.11345222867E+02  0.51100000000E-03 0. -1.
        -11    1    3    3    0    0  0.25274771335E+02 -0.21805622764E+02 -0.11571985350E+02  0.35330016917E+02  0.51100000000E-03 0.  1.
         12    1    3    3    0    0 -0.36721990291E+02  0.20095685424E+02  0.11196480310E+02  0.43332462600E+02  0.00000000000E+00 0. -1.
</event>
<event>
 7    1  0.4639347E-015  0.9000775E+02  0.7816164E-02  0.1186339E+00
        -11   -1    0    0    0    0  0.00000000000E+00  0.00000000000E+00  0.45593999997E+02  0.45594000000E+02  0.51100000000E-03 0. -1.
         11   -1    0    0    0    0 -0.00000000000E+00 -0.00000000000E+00 -0.45593999997E+02  0.45594000000E+02  0.51100000000E-03 0.  1.
    9900012    2    1    2    0    0  0.67909103616E+00  0.77726488773E+00 -0.57244199320E+00  0.90007747833E+02  0.90000009305E+02 0.  0.
         12    1    1    2    0    0 -0.67909103616E+00 -0.77726488773E+00  0.57244199320E+00  0.11802521666E+01  0.00000000000E+00 0. -1.
         11    1    3    3    0    0 -0.53333035008E+01  0.80110605733E+01  0.46722106924E+01  0.10698166701E+02  0.51100000000E-03 0. -1.
        -11    1    3    3    0    0 -0.36055394908E+02  0.37953333786E+00 -0.59920750700E+01  0.36551887932E+02  0.51100000000E-03 0.  1.
         12    1    3    3    0    0  0.42067789445E+02 -0.76133290234E+01  0.74742238446E+00  0.42757693200E+02  0.00000000000E+00 0. -1.
</event>
<event>
 7    1  0.4639347E-015  0.9000795E+02  0.7816164E-02  0.1186339E+00
        -11   -1    0    0    0    0  0.00000000000E+00  0.00000000000E+00  0.45593999997E+02  0.45594000000E+02  0.51100000000E-03 0.  1.
         11   -1    0    0    0    0 -0.00000000000E+00 -0.00000000000E+00 -0.45593999997E+02  0.45594000000E+02  0.51100000000E-03 0. -1.
    9900012    2    1    2    0    0  0.61899835677E+00  0.47962782865E+00  0.88278680668E+00  0.90007951541E+02  0.90000215701E+02 0.  0.
         12    1    1    2    0    0 -0.61899835677E+00 -0.47962782865E+00 -0.88278680668E+00  0.11800484591E+01  0.00000000000E+00 0. -1.
         11    1    3    3    0    0 -0.46680534421E+01 -0.72385480072E+01 -0.35524992317E+00  0.86205279978E+01  0.51100000000E-03 0. -1.
        -11    1    3    3    0    0  0.10291617208E+02 -0.26760457093E+02  0.25951823317E+02  0.38672168059E+02  0.51100000000E-03 0.  1.
         12    1    3    3    0    0 -0.50045654096E+01  0.34478632929E+02 -0.24713786587E+02  0.42715255484E+02  0.00000000000E+00 0. -1.
</event>
<event>
 7    1  0.4639347E-015  0.9000778E+02  0.7816164E-02  0.1186339E+00
        -11   -1    0    0    0    0  0.00000000000E+00  0.00000000000E+00  0.45593999997E+02  0.45594000000E+02  0.51100000000E-03 0.  1.
         11   -1    0    0    0    0 -0.00000000000E+00 -0.00000000000E+00 -0.45593999997E+02  0.45594000000E+02  0.51100000000E-03 0. -1.
    9900012    2    1    2    0    0  0.83937948098E-02  0.10389258947E+01  0.55988855636E+00  0.90007782789E+02  0.90000044721E+02 0.  0.
         12    1    1    2    0    0 -0.83937948098E-02 -0.10389258947E+01 -0.55988855636E+00  0.11802172114E+01  0.00000000000E+00 0. -1.
         11    1    3    3    0    0  0.30544608759E+02  0.65119729066E+01 -0.16122778496E+02  0.35147160654E+02  0.51100000000E-03 0. -1.
        -11    1    3    3    0    0  0.60207381023E+01  0.66507646104E+01 -0.53932859797E+01  0.10467544656E+02  0.51100000000E-03 0.  1.
        -12    1    3    3    0    0 -0.36556953067E+02 -0.12123811622E+02  0.22075953032E+02  0.44393077479E+02  0.00000000000E+00 0.  1.
</event>
<event>
 7    1  0.4639347E-015  0.9000774E+02  0.7816164E-02  0.1186339E+00
        -11   -1    0    0    0    0  0.00000000000E+00  0.00000000000E+00  0.45593999997E+02  0.45594000000E+02  0.51100000000E-03 0.  1.
         11   -1    0    0    0    0 -0.00000000000E+00 -0.00000000000E+00 -0.45593999997E+02  0.45594000000E+02  0.51100000000E-03 0. -1.
    9900012    2    1    2    0    0  0.32321525182E+00  0.78896665951E+00  0.81614055679E+00  0.90007736514E+02  0.89999997836E+02 0.  0.
         12    1    1    2    0    0 -0.32321525182E+00 -0.78896665951E+00 -0.81614055679E+00  0.11802634864E+01  0.00000000000E+00 0. -1.
         11    1    3    3    0    0  0.33523404439E+02  0.16565269919E+02  0.24272361431E+01  0.37471566397E+02  0.51100000000E-03 0. -1.
        -11    1    3    3    0    0  0.45652870309E+01  0.35097631417E+01 -0.77858233968E+01  0.96839728011E+01  0.51100000000E-03 0.  1.
        -12    1    3    3    0    0 -0.37765476218E+02 -0.19286066401E+02  0.61747278105E+01  0.42852197315E+02  0.00000000000E+00 0.  1.
</event>
<event>
 7    1  0.4639347E-015  0.9000772E+02  0.7816164E-02  0.1186339E+00
        -11   -1    0    0    0    0  0.00000000000E+00  0.00000000000E+00  0.45593999997E+02  0.45594000000E+02  0.51100000000E-03 0. -1.
         11   -1    0    0    0    0 -0.00000000000E+00 -0.00000000000E+00 -0.45593999997E+02  0.45594000000E+02  0.51100000000E-03 0.  1.
    9900012    2    1    2    0    0 -0.72259063119E+00 -0.29832757210E+00 -0.88426777544E+00  0.90007717805E+02  0.89999978880E+02 0.  0.
         12    1    1    2    0    0  0.72259063119E+00  0.29832757210E+00  0.88426777544E+00  0.11802821947E+01  0.00000000000E+00 0. -1.
         11    1    3    3    0    0 -0.28032527584E+02  0.16350047846E+02  0.26451682736E+02  0.41866910408E+02  0.51100000000E-03 0. -1.
        -11    1    3    3    0    0  0.81668071128E+01 -0.28252556966E+01  0.34821971746E+01  0.93168935592E+01  0.51100000000E-03 0.  1.
        -12    1    3    3    0    0  0.19143129840E+02 -0.13823119722E+02 -0.30818147686E+02  0.38823913838E+02  0.00000000000E+00 0.  1.
</event>
<event>
 7    1  0.4639347E-015  0.9000776E+02  0.7816164E-02  0.1186339E+00
        -11   -1    0    0    0    0  0.00000000000E+00  0.00000000000E+00  0.45593999997E+02  0.45594000000E+02  0.51100000000E-03 0.  1.
         11   -1    0    0    0    0 -0.00000000000E+00 -0.00000000000E+00 -0.45593999997E+02  0.45594000000E+02  0.51100000000E-03 0. -1.
    9900012    2    1    2    0    0  0.10182475601E+00 -0.10184126271E+01 -0.58774150799E+00  0.90007757381E+02  0.90000018978E+02 0.  0.
         12    1    1    2    0    0 -0.10182475601E+00  0.10184126271E+01  0.58774150799E+00  0.11802426192E+01  0.00000000000E+00 0. -1.
         11    1    3    3    0    0  0.68646207432E+01  0.31837526015E+01 -0.43148591127E+01  0.87107581759E+01  0.51100000000E-03 0. -1.
        -11    1    3    3    0    0 -0.26506538919E+02  0.30250879718E+02 -0.53172283569E+01  0.40570743731E+02  0.51100000000E-03 0.  1.
         12    1    3    3    0    0  0.19743742932E+02 -0.34453044947E+02  0.90443459616E+01  0.40726255474E+02  0.00000000000E+00 0. -1.
</event>
<event>
 7    1  0.4639347E-015  0.9000807E+02  0.7816164E-02  0.1186338E+00
        -11   -1    0    0    0    0  0.00000000000E+00  0.00000000000E+00  0.45593999997E+02  0.45594000000E+02  0.51100000000E-03 0.  1.
         11   -1    0    0    0    0 -0.00000000000E+00 -0.00000000000E+00 -0.45593999997E+02  0.45594000000E+02  0.51100000000E-03 0. -1.
    9900012    2    1    2    0    0 -0.11191351274E+01  0.37077102399E+00 -0.47954936637E-01  0.90008070230E+02  0.90000335957E+02 0.  0.
         12    1    1    2    0    0  0.11191351274E+01 -0.37077102399E+00  0.47954936637E-01  0.11799297697E+01  0.00000000000E+00 0. -1.
         11    1    3    3    0    0 -0.29668539314E+02  0.15802867123E+02 -0.80930242994E+01  0.34575278406E+02  0.51100000000E-03 0. -1.
        -11    1    3    3    0    0 -0.10644080836E+02  0.17815296954E+01 -0.30432450589E+01  0.11213012336E+02  0.51100000000E-03 0.  1.
        -12    1    3    3    0    0  0.39193485023E+02 -0.17213625794E+02  0.11088314422E+02  0.44219779487E+02  0.00000000000E+00 0.  1.
</event>
<event>
 7    1  0.4639347E-015  0.9000774E+02  0.7816164E-02  0.1186339E+00
        -11   -1    0    0    0    0  0.00000000000E+00  0.00000000000E+00  0.45593999997E+02  0.45594000000E+02  0.51100000000E-03 0.  1.
         11   -1    0    0    0    0 -0.00000000000E+00 -0.00000000000E+00 -0.45593999997E+02  0.45594000000E+02  0.51100000000E-03 0. -1.
    9900012    2    1    2    0    0  0.10825041439E+01 -0.30720354998E+00 -0.35612226161E+00  0.90007740576E+02  0.90000001952E+02 0.  0.
         12    1    1    2    0    0 -0.10825041439E+01  0.30720354998E+00  0.35612226161E+00  0.11802594240E+01  0.00000000000E+00 0. -1.
         11    1    3    3    0    0  0.11506261312E+02  0.39928157969E+01 -0.29086391332E+01  0.12521853267E+02  0.51100000000E-03 0. -1.
        -11    1    3    3    0    0 -0.61344600501E+00  0.24667525617E+02  0.28271762813E+02  0.37525400849E+02  0.51100000000E-03 0.  1.
         12    1    3    3    0    0 -0.98103111630E+01 -0.28967544964E+02 -0.25719245941E+02  0.39960486460E+02  0.00000000000E+00 0. -1.
</event>
<event>
 7    1  0.4639347E-015  0.9000784E+02  0.7816164E-02  0.1186339E+00
        -11   -1    0    0    0    0  0.00000000000E+00  0.00000000000E+00  0.45593999997E+02  0.45594000000E+02  0.51100000000E-03 0.  1.
         11   -1    0    0    0    0 -0.00000000000E+00 -0.00000000000E+00 -0.45593999997E+02  0.45594000000E+02  0.51100000000E-03 0. -1.
    9900012    2    1    2    0    0  0.90174063245E+00  0.65602821997E+00  0.38634782575E+00  0.90007841606E+02  0.90000104315E+02 0.  0.
         12    1    1    2    0    0 -0.90174063245E+00 -0.65602821997E+00 -0.38634782575E+00  0.11801583945E+01  0.00000000000E+00 0. -1.
         11    1    3    3    0    0 -0.98996152515E+01 -0.36595811968E+01 -0.39001064283E-01  0.10554451099E+02  0.51100000000E-03 0. -1.
        -11    1    3    3    0    0 -0.10262185489E+02 -0.18304799003E+02  0.30042041648E+02  0.36645632539E+02  0.51100000000E-03 0.  1.
         12    1    3    3    0    0  0.21063541373E+02  0.22620408420E+02 -0.29616692758E+02  0.42807757967E+02  0.00000000000E+00 0. -1.
</event>
<event>
 7    1  0.4639347E-015  0.9000757E+02  0.7816164E-02  0.1186339E+00
        -11   -1    0    0    0    0  0.00000000000E+00  0.00000000000E+00  0.45593999997E+02  0.45594000000E+02  0.51100000000E-03 0.  1.
         11   -1    0    0    0    0 -0.00000000000E+00 -0.00000000000E+00 -0.45593999997E+02  0.45594000000E+02  0.51100000000E-03 0. -1.
    9900012    2    1    2    0    0  0.10966707973E+01 -0.39780815041E+00  0.18020684809E+00  0.90007570980E+02  0.89999830117E+02 0.  0.
         12    1    1    2    0    0 -0.10966707973E+01  0.39780815041E+00 -0.18020684809E+00  0.11804290196E+01  0.00000000000E+00 0. -1.
         11    1    3    3    0    0  0.16593561972E+02  0.27629837621E+02 -0.27616763798E+02  0.42443372496E+02  0.51100000000E-03 0. -1.
        -11    1    3    3    0    0  0.34909063509E+01 -0.80080529225E+01  0.49832059012E+00  0.87500664245E+01  0.51100000000E-03 0.  1.
        -12    1    3    3    0    0 -0.18987797525E+02 -0.20019592849E+02  0.27298650056E+02  0.38814132060E+02  0.00000000000E+00 0.  1.
</event>
<event>
 7    1  0.4639347E-015  0.9000770E+02  0.7816164E-02  0.1186339E+00
        -11   -1    0    0    0    0  0.00000000000E+00  0.00000000000E+00  0.45593999997E+02  0.45594000000E+02  0.51100000000E-03 0.  1.
         11   -1    0    0    0    0 -0.00000000000E+00 -0.00000000000E+00 -0.45593999997E+02  0.45594000000E+02  0.51100000000E-03 0. -1.
    9900012    2    1    2    0    0 -0.11298332056E+01 -0.15721910372E+00  0.30309260268E+00  0.90007700866E+02  0.89999961718E+02 0.  0.
         12    1    1    2    0    0  0.11298332056E+01  0.15721910372E+00 -0.30309260268E+00  0.11802991337E+01  0.00000000000E+00 0. -1.
         11    1    3    3    0    0  0.32366515003E+02 -0.14291250774E+02  0.83114533267E+00  0.35390986775E+02  0.51100000000E-03 0. -1.
        -11    1    3    3    0    0  0.84549956349E+01 -0.34134955631E+01  0.49912937187E+00  0.91317048537E+01  0.51100000000E-03 0.  1.
        -12    1    3    3    0    0 -0.41951343843E+02  0.17547527234E+02 -0.10271821019E+01  0.45485009237E+02  0.00000000000E+00 0.  1.
</event>
<event>
 7    1  0.4639347E-015  0.9000779E+02  0.7816164E-02  0.1186339E+00
        -11   -1    0    0    0    0  0.00000000000E+00  0.00000000000E+00  0.45593999997E+02  0.45594000000E+02  0.51100000000E-03 0. -1.
         11   -1    0    0    0    0 -0.00000000000E+00 -0.00000000000E+00 -0.45593999997E+02  0.45594000000E+02  0.51100000000E-03 0.  1.
    9900012    2    1    2    0    0  0.50670069673E+00  0.90290738753E+00  0.56649211830E+00  0.90007787872E+02  0.90000049872E+02 0.  0.
         12    1    1    2    0    0 -0.50670069673E+00 -0.90290738753E+00 -0.56649211830E+00  0.11802121278E+01  0.00000000000E+00 0. -1.
         11    1    3    3    0    0  0.19281201384E+01 -0.17806054063E+01 -0.65363067410E+01  0.70435437782E+01  0.51100000000E-03 0. -1.
        -11    1    3    3    0    0 -0.11725842480E+02 -0.26435974312E+02 -0.25135442653E+02  0.38316401153E+02  0.51100000000E-03 0.  1.
         12    1    3    3    0    0  0.10304423038E+02  0.29119487106E+02  0.32238241512E+02  0.44647842941E+02  0.00000000000E+00 0. -1.
</event>
<event>
 7    1  0.4639347E-015  0.9000774E+02  0.7816164E-02  0.1186339E+00
        -11   -1    0    0    0    0  0.00000000000E+00  0.00000000000E+00  0.45593999997E+02  0.45594000000E+02  0.51100000000E-03 0. -1.
         11   -1    0    0    0    0 -0.00000000000E+00 -0.00000000000E+00 -0.45593999997E+02  0.45594000000E+02  0.51100000000E-03 0.  1.
    9900012    2    1    2    0    0  0.19873641820E+00  0.86386580438E+00  0.77926118423E+00  0.90007742280E+02  0.90000003678E+02 0.  0.
         12    1    1    2    0    0 -0.19873641820E+00 -0.86386580438E+00 -0.77926118423E+00  0.11802577198E+01  0.00000000000E+00 0. -1.
         11    1    3    3    0    0  0.36444174990E+01 -0.12065909750E+01  0.15304686295E+02  0.15778816924E+02  0.51100000000E-03 0. -1.
        -11    1    3    3    0    0  0.27561165562E+01  0.37106253278E+02 -0.78566595200E+01  0.38028900982E+02  0.51100000000E-03 0.  1.
         12    1    3    3    0    0 -0.62017976369E+01 -0.35035796498E+02 -0.66687655904E+01  0.36200024374E+02  0.00000000000E+00 0. -1.
</event>
<event>
 7    1  0.4639347E-015  0.9000766E+02  0.7816164E-02  0.1186339E+00
        -11   -1    0    0    0    0  0.00000000000E+00  0.00000000000E+00  0.45593999997E+02  0.45594000000E+02  0.51100000000E-03 0. -1.
         11   -1    0    0    0    0 -0.00000000000E+00 -0.00000000000E+00 -0.45593999997E+02  0.45594000000E+02  0.51100000000E-03 0.  1.
    9900012    2    1    2    0    0 -0.10873912433E+01 -0.45818670459E+00 -0.28928127638E-01  0.90007664620E+02  0.89999924993E+02 0.  0.
         12    1    1    2    0    0  0.10873912433E+01  0.45818670459E+00  0.28928127638E-01  0.11803353799E+01  0.00000000000E+00 0. -1.
         11    1    3    3    0    0  0.14450934467E+00  0.69874194982E+01  0.80280179634E+01  0.10643964810E+02  0.51100000000E-03 0. -1.
        -11    1    3    3    0    0 -0.39899283602E+02 -0.32606998316E+01 -0.30264368644E+01  0.40146535538E+02  0.51100000000E-03 0.  1.
         12    1    3    3    0    0  0.38667383014E+02 -0.41849063713E+01 -0.50305092267E+01  0.39217164272E+02  0.00000000000E+00 0. -1.
</event>
<event>
 7    1  0.4639347E-015  0.9000780E+02  0.7816164E-02  0.1186339E+00
        -11   -1    0    0    0    0  0.00000000000E+00  0.00000000000E+00  0.45593999997E+02  0.45594000000E+02  0.51100000000E-03 0. -1.
         11   -1    0    0    0    0 -0.00000000000E+00 -0.00000000000E+00 -0.45593999997E+02  0.45594000000E+02  0.51100000000E-03 0.  1.
    9900012    2    1    2    0    0  0.11458206517E+01 -0.28190249612E+00  0.22297901992E-01  0.90007800365E+02  0.90000062529E+02 0.  0.
         12    1    1    2    0    0 -0.11458206517E+01  0.28190249612E+00 -0.22297901992E-01  0.11801996355E+01  0.00000000000E+00 0. -1.
         11    1    3    3    0    0  0.94589732293E+01 -0.12810691531E+01  0.90659814077E+00  0.95882862482E+01  0.51100000000E-03 0. -1.
        -11    1    3    3    0    0 -0.23537740356E+02  0.23105669311E+02  0.26323460622E+02  0.42199783823E+02  0.51100000000E-03 0.  1.
         12    1    3    3    0    0  0.15224587778E+02 -0.22106502654E+02 -0.27207760861E+02  0.38219730293E+02  0.00000000000E+00 0. -1.
</event>
<event>
 7    1  0.4639347E-015  0.9000762E+02  0.7816164E-02  0.1186339E+00
        -11   -1    0    0    0    0  0.00000000000E+00  0.00000000000E+00  0.45593999997E+02  0.45594000000E+02  0.51100000000E-03 0.  1.
         11   -1    0    0    0    0 -0.00000000000E+00 -0.00000000000E+00 -0.45593999997E+02  0.45594000000E+02  0.51100000000E-03 0. -1.
    9900012    2    1    2    0    0 -0.43011338845E+00  0.10805788952E+01  0.20160728038E+00  0.90007621344E+02  0.89999881146E+02 0.  0.
         12    1    1    2    0    0  0.43011338845E+00 -0.10805788952E+01 -0.20160728038E+00  0.11803786559E+01  0.00000000000E+00 0. -1.
         11    1    3    3    0    0 -0.60557523763E+01 -0.51465843134E+01 -0.11809622443E+01  0.80345590434E+01  0.51100000000E-03 0. -1.
        -11    1    3    3    0    0 -0.32050952279E+01 -0.37352985294E+02  0.10976678045E+01  0.37506306412E+02  0.51100000000E-03 0.  1.
         12    1    3    3    0    0  0.88307342158E+01  0.43580148503E+02  0.28490172019E+00  0.44466755889E+02  0.00000000000E+00 0. -1.
</event>
<event>
 7    1  0.4639347E-015  0.9000767E+02  0.7816164E-02  0.1186339E+00
        -11   -1    0    0    0    0  0.00000000000E+00  0.00000000000E+00  0.45593999997E+02  0.45594000000E+02  0.51100000000E-03 0.  1.
         11   -1    0    0    0    0 -0.00000000000E+00 -0.00000000000E+00 -0.45593999997E+02  0.45594000000E+02  0.51100000000E-03 0. -1.
    9900012    2    1    2    0    0 -0.53587009332E+00  0.28709319332E+00  0.10117273136E+01  0.90007673174E+02  0.89999933660E+02 0.  0.
         12    1    1    2    0    0  0.53587009332E+00 -0.28709319332E+00 -0.10117273136E+01  0.11803268258E+01  0.00000000000E+00 0. -1.
         11    1    3    3    0    0  0.74363599512E+01  0.79349339999E+01 -0.10770876758E+02  0.15306025392E+02  0.51100000000E-03 0. -1.
        -11    1    3    3    0    0 -0.81960002235E+01  0.19285887079E+02  0.33897233295E+02  0.39851502925E+02  0.51100000000E-03 0.  1.
         12    1    3    3    0    0  0.22377017898E+00 -0.26933727885E+02 -0.22114629224E+02  0.34850144857E+02  0.00000000000E+00 0. -1.
</event>
<event>
 7    1  0.4639347E-015  0.9000777E+02  0.7816164E-02  0.1186339E+00
        -11   -1    0    0    0    0  0.00000000000E+00  0.00000000000E+00  0.45593999997E+02  0.45594000000E+02  0.51100000000E-03 0.  1.
         11   -1    0    0    0    0 -0.00000000000E+00 -0.00000000000E+00 -0.45593999997E+02  0.45594000000E+02  0.51100000000E-03 0. -1.
    9900012    2    1    2    0    0 -0.59997581198E+00  0.65531475567E+00  0.77687503460E+00  0.90007769843E+02  0.90000031605E+02 0.  0.
         12    1    1    2    0    0  0.59997581198E+00 -0.65531475567E+00 -0.77687503460E+00  0.11802301569E+01  0.00000000000E+00 0. -1.
         11    1    3    3    0    0  0.15655576945E+02  0.17171085127E+02 -0.29040944478E+02  0.37193006203E+02  0.51100000000E-03 0. -1.
        -11    1    3    3    0    0  0.72259728822E+01  0.43310968906E+01 -0.13963710144E+01  0.85394927625E+01  0.51100000000E-03 0.  1.
        -12    1    3    3    0    0 -0.23481525640E+02 -0.20846867262E+02  0.31214190528E+02  0.44275270878E+02  0.00000000000E+00 0.  1.
</event>
<event>
 7    1  0.4639347E-015  0.9000776E+02  0.7816164E-02  0.1186339E+00
        -11   -1    0    0    0    0  0.00000000000E+00  0.00000000000E+00  0.45593999997E+02  0.45594000000E+02  0.51100000000E-03 0.  1.
         11   -1    0    0    0    0 -0.00000000000E+00 -0.00000000000E+00 -0.45593999997E+02  0.45594000000E+02  0.51100000000E-03 0. -1.
    9900012    2    1    2    0    0  0.10310097850E+00 -0.65117779674E+00  0.97892803481E+00  0.90007761705E+02  0.90000023360E+02 0.  0.
         12    1    1    2    0    0 -0.10310097850E+00  0.65117779674E+00 -0.97892803481E+00  0.11802382946E+01  0.00000000000E+00 0. -1.
         11    1    3    3    0    0  0.15096465711E+01  0.23301906128E+02 -0.27115718195E+02  0.35784354618E+02  0.51100000000E-03 0. -1.
        -11    1    3    3    0    0 -0.42653168558E+01  0.81969780982E+01 -0.26856336510E+01  0.96226818606E+01  0.51100000000E-03 0.  1.
        -12    1    3    3    0    0  0.28587712632E+01 -0.32150062023E+02  0.30780279881E+02  0.44600725227E+02  0.00000000000E+00 0.  1.
</event>
<event>
 7    1  0.4639347E-015  0.9000746E+02  0.7816164E-02  0.1186340E+00
        -11   -1    0    0    0    0  0.00000000000E+00  0.00000000000E+00  0.45593999997E+02  0.45594000000E+02  0.51100000000E-03 0.  1.
         11   -1    0    0    0    0 -0.00000000000E+00 -0.00000000000E+00 -0.45593999997E+02  0.45594000000E+02  0.51100000000E-03 0. -1.
    9900012    2    1    2    0    0 -0.45688560157E+00  0.33476895852E+00  0.10357942780E+01  0.90007455848E+02  0.89999713465E+02 0.  0.
         12    1    1    2    0    0  0.45688560157E+00 -0.33476895852E+00 -0.10357942780E+01  0.11805441520E+01  0.00000000000E+00 0. -1.
         11    1    3    3    0    0  0.32409864413E+01  0.92966840245E+01 -0.32836136722E+01  0.10378557027E+02  0.51100000000E-03 0. -1.
        -11    1    3    3    0    0 -0.36337422159E+02  0.13239538605E+02  0.94779601787E+01  0.39818655943E+02  0.51100000000E-03 0.  1.
         12    1    3    3    0    0  0.32639550116E+02 -0.22201453671E+02 -0.51585522284E+01  0.39810242878E+02  0.00000000000E+00 0. -1.
</event>
<event>
 7    1  0.4639347E-015  0.9000776E+02  0.7816164E-02  0.1186339E+00
        -11   -1    0    0    0    0  0.00000000000E+00  0.00000000000E+00  0.45593999997E+02  0.45594000000E+02  0.51100000000E-03 0. -1.
         11   -1    0    0    0    0 -0.00000000000E+00 -0.00000000000E+00 -0.45593999997E+02  0.45594000000E+02  0.51100000000E-03 0.  1.
    9900012    2    1    2    0    0 -0.28542027117E+00  0.99638310459E+00  0.56456423437E+00  0.90007755620E+02  0.90000017194E+02 0.  0.
         12    1    1    2    0    0  0.28542027117E+00 -0.99638310459E+00 -0.56456423437E+00  0.11802443802E+01  0.00000000000E+00 0. -1.
         11    1    3    3    0    0  0.18953508662E+02 -0.19229156816E+02  0.34091578900E+02  0.43488293995E+02  0.51100000000E-03 0. -1.
        -11    1    3    3    0    0 -0.14187094143E+01  0.29769311367E+01  0.14824936040E+01  0.36156110053E+01  0.51100000000E-03 0.  1.
        -12    1    3    3    0    0 -0.17820219519E+02  0.17248608784E+02 -0.35009508270E+02  0.42903850619E+02  0.00000000000E+00 0.  1.
</event>
<event>
 7    1  0.4639347E-015  0.9000777E+02  0.7816164E-02  0.1186339E+00
        -11   -1    0    0    0    0  0.00000000000E+00  0.00000000000E+00  0.45593999997E+02  0.45594000000E+02  0.51100000000E-03 0.  1.
         11   -1    0    0    0    0 -0.00000000000E+00 -0.00000000000E+00 -0.45593999997E+02  0.45594000000E+02  0.51100000000E-03 0. -1.
    9900012    2    1    2    0    0 -0.92490820837E+00  0.48421261891E+00  0.55047122283E+00  0.90007773064E+02  0.90000034868E+02 0.  0.
         12    1    1    2    0    0  0.92490820837E+00 -0.48421261891E+00 -0.55047122283E+00  0.11802269364E+01  0.00000000000E+00 0. -1.
         11    1    3    3    0    0 -0.22807783989E+02 -0.14632645182E+02 -0.12540567748E+02  0.29859255771E+02  0.51100000000E-03 0. -1.
        -11    1    3    3    0    0 -0.12989757866E+02 -0.74938684150E+01 -0.34976526175E+01  0.15398878120E+02  0.51100000000E-03 0.  1.
        -12    1    3    3    0    0  0.34872633647E+02  0.22610726216E+02  0.16588691588E+02  0.44749639173E+02  0.00000000000E+00 0.  1.
</event>
<event>
 7    1  0.4639347E-015  0.9000717E+02  0.7816164E-02  0.1186340E+00
        -11   -1    0    0    0    0  0.00000000000E+00  0.00000000000E+00  0.45593999997E+02  0.45594000000E+02  0.51100000000E-03 0.  1.
         11   -1    0    0    0    0 -0.00000000000E+00 -0.00000000000E+00 -0.45593999997E+02  0.45594000000E+02  0.51100000000E-03 0. -1.
    9900012    2    1    2    0    0  0.39808958024E+00  0.56910477080E+00  0.95498595896E+00  0.90007172436E+02  0.89999426310E+02 0.  0.
         12    1    1    2    0    0 -0.39808958024E+00 -0.56910477080E+00 -0.95498595896E+00  0.11808275640E+01  0.00000000000E+00 0. -1.
         11    1    3    3    0    0 -0.36904969133E+02 -0.74959251669E+01  0.10788703072E+02  0.39173482805E+02  0.51100000000E-03 0. -1.
        -11    1    3    3    0    0  0.76166511064E+00 -0.84646146678E+01  0.25260042249E+01  0.88662581070E+01  0.51100000000E-03 0.  1.
        -12    1    3    3    0    0  0.36541393603E+02  0.16529644605E+02 -0.12359721338E+02  0.41967431524E+02  0.00000000000E+00 0.  1.
</event>
<event>
 7    1  0.4639347E-015  0.9000769E+02  0.7816164E-02  0.1186339E+00
        -11   -1    0    0    0    0  0.00000000000E+00  0.00000000000E+00  0.45593999997E+02  0.45594000000E+02  0.51100000000E-03 0. -1.
         11   -1    0    0    0    0 -0.00000000000E+00 -0.00000000000E+00 -0.45593999997E+02  0.45594000000E+02  0.51100000000E-03 0.  1.
    9900012    2    1    2    0    0 -0.19474902223E+00 -0.44198925239E+00 -0.10769608478E+01  0.90007692265E+02  0.89999953003E+02 0.  0.
         12    1    1    2    0    0  0.19474902223E+00  0.44198925239E+00  0.10769608478E+01  0.11803077347E+01  0.00000000000E+00 0. -1.
         11    1    3    3    0    0 -0.28237796777E+02 -0.13618745591E+02  0.20079662318E+02  0.37229507616E+02  0.51100000000E-03 0. -1.
        -11    1    3    3    0    0 -0.62050618070E+01 -0.58671335486E+01 -0.68708106284E+00  0.85672707879E+01  0.51100000000E-03 0.  1.
        -12    1    3    3    0    0  0.34248109561E+02  0.19043889887E+02 -0.20469542103E+02  0.44210913861E+02  0.00000000000E+00 0.  1.
</event>
<event>
 7    1  0.4639347E-015  0.9000770E+02  0.7816164E-02  0.1186339E+00
        -11   -1    0    0    0    0  0.00000000000E+00  0.00000000000E+00  0.45593999997E+02  0.45594000000E+02  0.51100000000E-03 0.  1.
         11   -1    0    0    0    0 -0.00000000000E+00 -0.00000000000E+00 -0.45593999997E+02  0.45594000000E+02  0.51100000000E-03 0. -1.
    9900012    2    1    2    0    0 -0.79730416484E+00 -0.46319010089E+00  0.73679465418E+00  0.90007701155E+02  0.89999962010E+02 0.  0.
         12    1    1    2    0    0  0.79730416484E+00  0.46319010089E+00 -0.73679465418E+00  0.11802988449E+01  0.00000000000E+00 0. -1.
         11    1    3    3    0    0 -0.17283401035E+01  0.20416937149E+01  0.11136937347E+02  0.11453691391E+02  0.51100000000E-03 0. -1.
        -11    1    3    3    0    0 -0.28258639748E+02  0.34599671190E+01  0.20918212250E+02  0.35328369576E+02  0.51100000000E-03 0.  1.
         12    1    3    3    0    0  0.29189675687E+02 -0.59648509349E+01 -0.31318354943E+02  0.43225640189E+02  0.00000000000E+00 0. -1.
</event>
<event>
 7    1  0.4639347E-015  0.9000686E+02  0.7816164E-02  0.1186341E+00
        -11   -1    0    0    0    0  0.00000000000E+00  0.00000000000E+00  0.45593999997E+02  0.45594000000E+02  0.51100000000E-03 0.  1.
         11   -1    0    0    0    0 -0.00000000000E+00 -0.00000000000E+00 -0.45593999997E+02  0.45594000000E+02  0.51100000000E-03 0. -1.
    9900012    2    1    2    0    0 -0.88449257150E+00  0.44690158085E+00  0.64268306458E+00  0.90006860866E+02  0.89999110625E+02 0.  0.
         12    1    1    2    0    0  0.88449257150E+00 -0.44690158085E+00 -0.64268306458E+00  0.11811391339E+01  0.00000000000E+00 0. -1.
         11    1    3    3    0    0 -0.30709670469E+02 -0.12755007746E+02 -0.20181603535E+02  0.38898215954E+02  0.51100000000E-03 0. -1.
        -11    1    3    3    0    0 -0.49388466575E+01 -0.53396717762E+01  0.33445217311E+01  0.80056309467E+01  0.51100000000E-03 0.  1.
        -12    1    3    3    0    0  0.34764024555E+02  0.18541581103E+02  0.17479764869E+02  0.43103013965E+02  0.00000000000E+00 0.  1.
</event>
<event>
 7    1  0.4639347E-015  0.9000774E+02  0.7816164E-02  0.1186339E+00
        -11   -1    0    0    0    0  0.00000000000E+00  0.00000000000E+00  0.45593999997E+02  0.45594000000E+02  0.51100000000E-03 0.  1.
         11   -1    0    0    0    0 -0.00000000000E+00 -0.00000000000E+00 -0.45593999997E+02  0.45594000000E+02  0.51100000000E-03 0. -1.
    9900012    2    1    2    0    0  0.59106295643E+00  0.44375300148E+00  0.92018729841E+00  0.90007738669E+02  0.90000000020E+02 0.  0.
         12    1    1    2    0    0 -0.59106295643E+00 -0.44375300148E+00 -0.92018729841E+00  0.11802613308E+01  0.00000000000E+00 0. -1.
         11    1    3    3    0    0 -0.93265286585E+01  0.82381533780E+00  0.18510296585E+01  0.95440620067E+01  0.51100000000E-03 0. -1.
        -11    1    3    3    0    0  0.23621638751E+02 -0.31719419122E+02  0.15549569058E+02  0.42495793496E+02  0.51100000000E-03 0.  1.
         12    1    3    3    0    0 -0.13704047136E+02  0.31339356786E+02 -0.16480411418E+02  0.37967883167E+02  0.00000000000E+00 0. -1.
</event>
<event>
 7    1  0.4639347E-015  0.9000775E+02  0.7816164E-02  0.1186339E+00
        -11   -1    0    0    0    0  0.00000000000E+00  0.00000000000E+00  0.45593999997E+02  0.45594000000E+02  0.51100000000E-03 0.  1.
         11   -1    0    0    0    0 -0.00000000000E+00 -0.00000000000E+00 -0.45593999997E+02  0.45594000000E+02  0.51100000000E-03 0. -1.
    9900012    2    1    2    0    0  0.46642260516E-01  0.88199036466E+00  0.78288168138E+00  0.90007751623E+02  0.90000013145E+02 0.  0.
         12    1    1    2    0    0 -0.46642260516E-01 -0.88199036466E+00 -0.78288168138E+00  0.11802483768E+01  0.00000000000E+00 0. -1.
         11    1    3    3    0    0  0.13946287078E+02  0.33633922663E+02 -0.20929052270E+02  0.41997201171E+02  0.51100000000E-03 0. -1.
        -11    1    3    3    0    0 -0.11645822552E+02 -0.18377429833E+01  0.51303008077E+01  0.12857778534E+02  0.51100000000E-03 0.  1.
        -12    1    3    3    0    0 -0.22538222653E+01 -0.30914189315E+02  0.16581633144E+02  0.35152771918E+02  0.00000000000E+00 0.  1.
</event>
<event>
 7    1  0.4639347E-015  0.9000764E+02  0.7816164E-02  0.1186339E+00
        -11   -1    0    0    0    0  0.00000000000E+00  0.00000000000E+00  0.45593999997E+02  0.45594000000E+02  0.51100000000E-03 0.  1.
         11   -1    0    0    0    0 -0.00000000000E+00 -0.00000000000E+00 -0.45593999997E+02  0.45594000000E+02  0.51100000000E-03 0. -1.
    9900012    2    1    2    0    0 -0.11689934170E+01  0.92094118213E-01  0.13497867366E+00  0.90007641505E+02  0.89999901572E+02 0.  0.
         12    1    1    2    0    0  0.11689934170E+01 -0.92094118213E-01 -0.13497867366E+00  0.11803584955E+01  0.00000000000E+00 0. -1.
         11    1    3    3    0    0 -0.23257826956E+02  0.28182609484E+02 -0.11185561402E+02  0.38213908151E+02  0.51100000000E-03 0. -1.
        -11    1    3    3    0    0  0.51786486772E+01  0.84804053497E+01  0.45848082269E+01  0.10943315026E+02  0.51100000000E-03 0.  1.
        -12    1    3    3    0    0  0.16910184861E+02 -0.36570920715E+02  0.67357318484E+01  0.40850418328E+02  0.00000000000E+00 0.  1.
</event>
<event>
 7    1  0.4639347E-015  0.9000782E+02  0.7816164E-02  0.1186339E+00
        -11   -1    0    0    0    0  0.00000000000E+00  0.00000000000E+00  0.45593999997E+02  0.45594000000E+02  0.51100000000E-03 0. -1.
         11   -1    0    0    0    0 -0.00000000000E+00 -0.00000000000E+00 -0.45593999997E+02  0.45594000000E+02  0.51100000000E-03 0.  1.
    9900012    2    1    2    0    0  0.98121597361E+00 -0.58579732808E+00  0.29476966130E+00  0.90007816773E+02  0.90000079154E+02 0.  0.
         12    1    1    2    0    0 -0.98121597361E+00  0.58579732808E+00 -0.29476966130E+00  0.11801832272E+01  0.00000000000E+00 0. -1.
         11    1    3    3    0    0  0.24680284301E+02 -0.14133804708E+02  0.25383796187E+02  0.38121096231E+02  0.51100000000E-03 0. -1.
        -11    1    3    3    0    0  0.45839467207E+01  0.77543234434E+01  0.49041611056E+01  0.10256358809E+02  0.51100000000E-03 0.  1.
        -12    1    3    3    0    0 -0.28283015048E+02  0.57936839370E+01 -0.29993187631E+02  0.41630361733E+02  0.00000000000E+00 0.  1.
</event>
<event>
 7    1  0.4639347E-015  0.9000777E+02  0.7816164E-02  0.1186339E+00
        -11   -1    0    0    0    0  0.00000000000E+00  0.00000000000E+00  0.45593999997E+02  0.45594000000E+02  0.51100000000E-03 0. -1.
         11   -1    0    0    0    0 -0.00000000000E+00 -0.00000000000E+00 -0.45593999997E+02  0.45594000000E+02  0.51100000000E-03 0.  1.
    9900012    2    1    2    0    0 -0.68375837697E+00  0.65635965771E+00 -0.70329184948E+00  0.90007765725E+02  0.90000027433E+02 0.  0.
         12    1    1    2    0    0  0.68375837697E+00 -0.65635965771E+00  0.70329184948E+00  0.11802342750E+01  0.00000000000E+00 0. -1.
         11    1    3    3    0    0  0.29390205622E+02 -0.40244749669E+01  0.21044667523E+02  0.36371123390E+02  0.51100000000E-03 0. -1.
        -11    1    3    3    0    0  0.58307705164E+00 -0.59858780286E+01  0.77267929194E+01  0.97915291810E+01  0.51100000000E-03 0.  1.
        -12    1    3    3    0    0 -0.30657041050E+02  0.10666712653E+02 -0.29474752292E+02  0.43845113154E+02  0.00000000000E+00 0.  1.
</event>
<event>
 7    1  0.4639347E-015  0.9000775E+02  0.7816164E-02  0.1186339E+00
        -11   -1    0    0    0    0  0.00000000000E+00  0.00000000000E+00  0.45593999997E+02  0.45594000000E+02  0.51100000000E-03 0. -1.
         11   -1    0    0    0    0 -0.00000000000E+00 -0.00000000000E+00 -0.45593999997E+02  0.45594000000E+02  0.51100000000E-03 0.  1.
    9900012    2    1    2    0    0 -0.11181936405E+00 -0.77376435757E+00 -0.88418321682E+00  0.90007747988E+02  0.90000009461E+02 0.  0.
         12    1    1    2    0    0  0.11181936405E+00  0.77376435757E+00  0.88418321682E+00  0.11802520121E+01  0.00000000000E+00 0. -1.
         11    1    3    3    0    0  0.62947378089E+01 -0.26524256897E+02  0.28238426666E+02  0.39250078584E+02  0.51100000000E-03 0. -1.
        -11    1    3    3    0    0 -0.15248093921E+01 -0.76101197518E+01 -0.41547774418E+01  0.88034733016E+01  0.51100000000E-03 0.  1.
        -12    1    3    3    0    0 -0.48817477808E+01  0.33360612291E+02 -0.24967832441E+02  0.41954196103E+02  0.00000000000E+00 0.  1.
</event>
<event>
 7    1  0.4639347E-015  0.9000771E+02  0.7816164E-02  0.1186339E+00
        -11   -1    0    0    0    0  0.00000000000E+00  0.00000000000E+00  0.45593999997E+02  0.45594000000E+02  0.51100000000E-03 0. -1.
         11   -1    0    0    0    0 -0.00000000000E+00 -0.00000000000E+00 -0.45593999997E+02  0.45594000000E+02  0.51100000000E-03 0.  1.
    9900012    2    1    2    0    0 -0.81945402696E+00 -0.74105986402E+00 -0.41522184295E+00  0.90007710288E+02  0.89999971264E+02 0.  0.
         12    1    1    2    0    0  0.81945402696E+00  0.74105986402E+00  0.41522184295E+00  0.11802897116E+01  0.00000000000E+00 0. -1.
         11    1    3    3    0    0 -0.90316865849E+01 -0.18779249732E+01 -0.18482340698E+01  0.94081844270E+01  0.51100000000E-03 0. -1.
        -11    1    3    3    0    0 -0.17010916253E+02  0.34470887839E+02 -0.30380661719E+01  0.38559606150E+02  0.51100000000E-03 0.  1.
         12    1    3    3    0    0  0.25223148811E+02 -0.33334022730E+02  0.44710783987E+01  0.42039919711E+02  0.00000000000E+00 0. -1.
</event>
<event>
 7    1  0.4639347E-015  0.9000772E+02  0.7816164E-02  0.1186339E+00
        -11   -1    0    0    0    0  0.00000000000E+00  0.00000000000E+00  0.45593999997E+02  0.45594000000E+02  0.51100000000E-03 0.  1.
         11   -1    0    0    0    0 -0.00000000000E+00 -0.00000000000E+00 -0.45593999997E+02  0.45594000000E+02  0.51100000000E-03 0. -1.
    9900012    2    1    2    0    0  0.48633431516E+00  0.10376164888E+01  0.28266688585E+00  0.90007716300E+02  0.89999977355E+02 0.  0.
         12    1    1    2    0    0 -0.48633431516E+00 -0.10376164888E+01 -0.28266688585E+00  0.11802836999E+01  0.00000000000E+00 0. -1.
         11    1    3    3    0    0  0.11979552439E+02 -0.91641862544E+00 -0.32418371125E+02  0.34573115081E+02  0.51100000000E-03 0. -1.
        -11    1    3    3    0    0 -0.33106415430E+01  0.38183911390E+01 -0.10379388869E+02  0.11544356711E+02  0.51100000000E-03 0.  1.
        -12    1    3    3    0    0 -0.81825765806E+01 -0.18643560247E+01  0.43080426880E+02  0.43890244509E+02  0.00000000000E+00 0.  1.
</event>
<event>
 7    1  0.4639347E-015  0.9000764E+02  0.7816164E-02  0.1186339E+00
        -11   -1    0    0    0    0  0.00000000000E+00  0.00000000000E+00  0.45593999997E+02  0.45594000000E+02  0.51100000000E-03 0. -1.
         11   -1    0    0    0    0 -0.00000000000E+00 -0.00000000000E+00 -0.45593999997E+02  0.45594000000E+02  0.51100000000E-03 0.  1.
    9900012    2    1    2    0    0  0.40443855542E+00 -0.10734646968E+01  0.27812629634E+00  0.90007639361E+02  0.89999899401E+02 0.  0.
         12    1    1    2    0    0 -0.40443855542E+00  0.10734646968E+01 -0.27812629634E+00  0.11803606386E+01  0.00000000000E+00 0. -1.
         11    1    3    3    0    0  0.17677324581E+02 -0.21881489923E+02  0.26199947131E+02  0.38441184107E+02  0.51100000000E-03 0. -1.
        -11    1    3    3    0    0 -0.83395116415E+01 -0.59685588956E+01  0.34591358098E+01  0.10822974199E+02  0.51100000000E-03 0.  1.
        -12    1    3    3    0    0 -0.89333743845E+01  0.26776584122E+02 -0.29380956644E+02  0.40743481055E+02  0.00000000000E+00 0.  1.
</event>
<event>
 7    1  0.4639347E-015  0.9000774E+02  0.7816164E-02  0.1186339E+00
        -11   -1    0    0    0    0  0.00000000000E+00  0.00000000000E+00  0.45593999997E+02  0.45594000000E+02  0.51100000000E-03 0. -1.
         11   -1    0    0    0    0 -0.00000000000E+00 -0.00000000000E+00 -0.45593999997E+02  0.45594000000E+02  0.51100000000E-03 0.  1.
    9900012    2    1    2    0    0 -0.90846657509E+00  0.11424039404E+00 -0.74475092510E+00  0.90007738874E+02  0.90000000227E+02 0.  0.
         12    1    1    2    0    0  0.90846657509E+00 -0.11424039404E+00  0.74475092510E+00  0.11802611262E+01  0.00000000000E+00 0. -1.
         11    1    3    3    0    0 -0.21834734163E+01  0.16199366509E+01 -0.93328167834E+01  0.97207623305E+01  0.51100000000E-03 0. -1.
        -11    1    3    3    0    0  0.21614077918E+02  0.22989287679E+02 -0.20114926222E+02  0.37420395100E+02  0.51100000000E-03 0.  1.
         12    1    3    3    0    0 -0.20339071076E+02 -0.24494983936E+02  0.28702992081E+02  0.42866581444E+02  0.00000000000E+00 0. -1.
</event>
<event>
 7    1  0.4639347E-015  0.9000780E+02  0.7816164E-02  0.1186339E+00
        -11   -1    0    0    0    0  0.00000000000E+00  0.00000000000E+00  0.45593999997E+02  0.45594000000E+02  0.51100000000E-03 0.  1.
         11   -1    0    0    0    0 -0.00000000000E+00 -0.00000000000E+00 -0.45593999997E+02  0.45594000000E+02  0.51100000000E-03 0. -1.
    9900012    2    1    2    0    0  0.72487289913E+00 -0.22938829028E+00  0.90266798176E+00  0.90007801206E+02  0.90000063382E+02 0.  0.
         12    1    1    2    0    0 -0.72487289913E+00  0.22938829028E+00 -0.90266798176E+00  0.11801987938E+01  0.00000000000E+00 0. -1.
         11    1    3    3    0    0  0.13510899273E+01  0.40120169307E+01  0.60198937944E+01  0.73594052342E+01  0.51100000000E-03 0. -1.
        -11    1    3    3    0    0  0.10666519893E+02  0.18740182471E+02  0.31373844739E+02  0.38069505115E+02  0.51100000000E-03 0.  1.
         12    1    3    3    0    0 -0.11292736921E+02 -0.22981587692E+02 -0.36491070552E+02  0.44578890857E+02  0.00000000000E+00 0. -1.
</event>
<event>
 7    1  0.4639347E-015  0.9000774E+02  0.7816164E-02  0.1186339E+00
        -11   -1    0    0    0    0  0.00000000000E+00  0.00000000000E+00  0.45593999997E+02  0.45594000000E+02  0.51100000000E-03 0.  1.
         11   -1    0    0    0    0 -0.00000000000E+00 -0.00000000000E+00 -0.45593999997E+02  0.45594000000E+02  0.51100000000E-03 0. -1.
    9900012    2    1    2    0    0 -0.60221037136E+00  0.64567269115E+00  0.78323845790E+00  0.90007740267E+02  0.90000001638E+02 0.  0.
         12    1    1    2    0    0  0.60221037136E+00 -0.64567269115E+00 -0.78323845790E+00  0.11802597330E+01  0.00000000000E+00 0. -1.
         11    1    3    3    0    0  0.17363776137E+02 -0.29470489053E+02 -0.46946005868E+01  0.34526073070E+02  0.51100000000E-03 0. -1.
        -11    1    3    3    0    0  0.93209959971E+01 -0.46894009722E+01  0.41670935591E+01  0.11235484718E+02  0.51100000000E-03 0.  1.
        -12    1    3    3    0    0 -0.27286982505E+02  0.34805562716E+02  0.13107454856E+01  0.44246182479E+02  0.00000000000E+00 0.  1.
</event>
<event>
 7    1  0.4639347E-015  0.9000772E+02  0.7816164E-02  0.1186339E+00
        -11   -1    0    0    0    0  0.00000000000E+00  0.00000000000E+00  0.45593999997E+02  0.45594000000E+02  0.51100000000E-03 0.  1.
         11   -1    0    0    0    0 -0.00000000000E+00 -0.00000000000E+00 -0.45593999997E+02  0.45594000000E+02  0.51100000000E-03 0. -1.
    9900012    2    1    2    0    0  0.61646453985E+00  0.47602924446E-01  0.10053644132E+01  0.90007723689E+02  0.89999984842E+02 0.  0.
         12    1    1    2    0    0 -0.61646453985E+00 -0.47602924446E-01 -0.10053644132E+01  0.11802763111E+01  0.00000000000E+00 0. -1.
         11    1    3    3    0    0 -0.36764195449E+02 -0.13221644952E+02  0.47054859397E+01  0.39351741517E+02  0.51100000000E-03 0. -1.
        -11    1    3    3    0    0 -0.35350787254E+01  0.76574728798E+01  0.27185269713E+01  0.88613803471E+01  0.51100000000E-03 0.  1.
        -12    1    3    3    0    0  0.40915738714E+02  0.56117749965E+01 -0.64186484978E+01  0.41794601825E+02  0.00000000000E+00 0.  1.
</event>
<event>
 7    1  0.4639347E-015  0.9000781E+02  0.7816164E-02  0.1186339E+00
        -11   -1    0    0    0    0  0.00000000000E+00  0.00000000000E+00  0.45593999997E+02  0.45594000000E+02  0.51100000000E-03 0.  1.
         11   -1    0    0    0    0 -0.00000000000E+00 -0.00000000000E+00 -0.45593999997E+02  0.45594000000E+02  0.51100000000E-03 0. -1.
    9900012    2    1    2    0    0  0.80106345821E+00  0.86659534923E+00 -0.12868015894E-01  0.90007806902E+02  0.90000069153E+02 0.  0.
         12    1    1    2    0    0 -0.80106345821E+00 -0.86659534923E+00  0.12868015894E-01  0.11801930983E+01  0.00000000000E+00 0. -1.
         11    1    3    3    0    0  0.27919506921E+02 -0.12350673201E+02  0.23191151953E+02  0.38338851370E+02  0.51100000000E-03 0. -1.
        -11    1    3    3    0    0  0.13188577137E+01  0.59665180171E+01  0.71787092439E+01  0.94272259752E+01  0.51100000000E-03 0.  1.
        -12    1    3    3    0    0 -0.28437301176E+02  0.72507505333E+01 -0.30382729213E+02  0.42241729556E+02  0.00000000000E+00 0.  1.
</event>
<event>
 7    1  0.4639347E-015  0.9000772E+02  0.7816164E-02  0.1186339E+00
        -11   -1    0    0    0    0  0.00000000000E+00  0.00000000000E+00  0.45593999997E+02  0.45594000000E+02  0.51100000000E-03 0.  1.
         11   -1    0    0    0    0 -0.00000000000E+00 -0.00000000000E+00 -0.45593999997E+02  0.45594000000E+02  0.51100000000E-03 0. -1.
    9900012    2    1    2    0    0  0.12012405755E+00 -0.91173993041E+00 -0.73983141588E+00  0.90007724603E+02  0.89999985767E+02 0.  0.
         12    1    1    2    0    0 -0.12012405755E+00  0.91173993041E+00  0.73983141588E+00  0.11802753975E+01  0.00000000000E+00 0. -1.
         11    1    3    3    0    0 -0.95613830507E+01  0.33600153949E+02 -0.57540706683E+01  0.35404797991E+02  0.51100000000E-03 0. -1.
        -11    1    3    3    0    0 -0.44676296625E+01  0.27976105306E+01 -0.10533253051E+02  0.11778614502E+02  0.51100000000E-03 0.  1.
        -12    1    3    3    0    0  0.14149136771E+02 -0.37309504410E+02  0.15547492304E+02  0.42824312109E+02  0.00000000000E+00 0.  1.
</event>
<event>
 7    1  0.4639347E-015  0.9000781E+02  0.7816164E-02  0.1186339E+00
        -11   -1    0    0    0    0  0.00000000000E+00  0.00000000000E+00  0.45593999997E+02  0.45594000000E+02  0.51100000000E-03 0.  1.
         11   -1    0    0    0    0 -0.00000000000E+00 -0.00000000000E+00 -0.45593999997E+02  0.45594000000E+02  0.51100000000E-03 0. -1.
    9900012    2    1    2    0    0 -0.68758129262E+00 -0.80892442401E+00 -0.51548814397E+00  0.90007807311E+02  0.90000069567E+02 0.  0.
         12    1    1    2    0    0  0.68758129262E+00  0.80892442401E+00  0.51548814397E+00  0.11801926895E+01  0.00000000000E+00 0. -1.
         11    1    3    3    0    0  0.41193352356E+01 -0.75411481931E+01  0.44201824957E+01  0.96631181515E+01  0.51100000000E-03 0. -1.
        -11    1    3    3    0    0  0.67125996495E+01  0.24938273371E+01  0.36465669433E+02  0.37162120719E+02  0.51100000000E-03 0.  1.
         12    1    3    3    0    0 -0.11519516178E+02  0.42383964320E+01 -0.41401340073E+02  0.43182568440E+02  0.00000000000E+00 0. -1.
</event>
<event>
 7    1  0.4639347E-015  0.9000772E+02  0.7816164E-02  0.1186339E+00
        -11   -1    0    0    0    0  0.00000000000E+00  0.00000000000E+00  0.45593999997E+02  0.45594000000E+02  0.51100000000E-03 0.  1.
         11   -1    0    0    0    0 -0.00000000000E+00 -0.00000000000E+00 -0.45593999997E+02  0.45594000000E+02  0.51100000000E-03 0. -1.
    9900012    2    1    2    0    0  0.56728052955E+00 -0.24191377541E+00  0.10063501594E+01  0.90007716086E+02  0.89999977139E+02 0.  0.
         12    1    1    2    0    0 -0.56728052955E+00  0.24191377541E+00 -0.10063501594E+01  0.11802839138E+01  0.00000000000E+00 0. -1.
         11    1    3    3    0    0  0.46140253519E+01  0.51003172886E+01 -0.38084012565E+02  0.38700057877E+02  0.51100000000E-03 0. -1.
        -11    1    3    3    0    0  0.92236852832E+01  0.20621720718E+01  0.90610687946E-01  0.94518323311E+01  0.51100000000E-03 0.  1.
        -12    1    3    3    0    0 -0.13270430106E+02 -0.74044031358E+01  0.38999752037E+02  0.41855825878E+02  0.00000000000E+00 0.  1.
</event>
<event>
 7    1  0.5608680E-015  0.9000776E+02  0.7816164E-02  0.1186339E+00
        -11   -1    0    0    0    0  0.00000000000E+00  0.00000000000E+00  0.45593999997E+02  0.45594000000E+02  0.51100000000E-03 0.  1.
         11   -1    0    0    0    0 -0.00000000000E+00 -0.00000000000E+00 -0.45593999997E+02  0.45594000000E+02  0.51100000000E-03 0. -1.
    9900012    2    1    2    0    0 -0.10670957662E+01 -0.41093800548E+00  0.29221881485E+00  0.90007764746E+02  0.90000026441E+02 0.  0.
         12    1    1    2    0    0  0.10670957662E+01  0.41093800548E+00 -0.29221881485E+00  0.11802352538E+01  0.00000000000E+00 0. -1.
         11    1    3    3    0    0 -0.37403895824E+01 -0.14165920151E+00  0.80591989861E+01  0.88860154241E+01  0.51100000000E-03 0. -1.
        -11    1    3    3    0    0  0.10264816717E+02  0.50688381998E+01  0.35277308140E+02  0.37088381641E+02  0.51100000000E-03 0.  1.
         12    1    3    3    0    0 -0.75915229012E+01 -0.53381170038E+01 -0.43044288311E+02  0.44033367681E+02  0.00000000000E+00 0. -1.
</event>
<event>
 7    1  0.4639347E-015  0.9000775E+02  0.7816164E-02  0.1186339E+00
        -11   -1    0    0    0    0  0.00000000000E+00  0.00000000000E+00  0.45593999997E+02  0.45594000000E+02  0.51100000000E-03 0.  1.
         11   -1    0    0    0    0 -0.00000000000E+00 -0.00000000000E+00 -0.45593999997E+02  0.45594000000E+02  0.51100000000E-03 0. -1.
    9900012    2    1    2    0    0  0.54328015508E+00 -0.66842597861E+00  0.80686834352E+00  0.90007752933E+02  0.90000014472E+02 0.  0.
         12    1    1    2    0    0 -0.54328015508E+00  0.66842597861E+00 -0.80686834352E+00  0.11802470672E+01  0.00000000000E+00 0. -1.
         11    1    3    3    0    0 -0.43485631286E+01  0.96941734739E+01 -0.41068467067E+01  0.11390925808E+02  0.51100000000E-03 0. -1.
        -11    1    3    3    0    0 -0.34005378095E+02 -0.11301639898E+02 -0.95861215247E+01  0.37094292417E+02  0.51100000000E-03 0.  1.
         12    1    3    3    0    0  0.38897221378E+02  0.93904044536E+00  0.14499836575E+02  0.41522534708E+02  0.00000000000E+00 0. -1.
</event>
<event>
 7    1  0.4639347E-015  0.9000825E+02  0.7816164E-02  0.1186338E+00
        -11   -1    0    0    0    0  0.00000000000E+00  0.00000000000E+00  0.45593999997E+02  0.45594000000E+02  0.51100000000E-03 0.  1.
         11   -1    0    0    0    0 -0.00000000000E+00 -0.00000000000E+00 -0.45593999997E+02  0.45594000000E+02  0.51100000000E-03 0. -1.
    9900012    2    1    2    0    0  0.95804325925E+00  0.29911182346E+00  0.62006972800E+00  0.90008253740E+02  0.90000521888E+02 0.  0.
         12    1    1    2    0    0 -0.95804325925E+00 -0.29911182346E+00 -0.62006972800E+00  0.11797462596E+01  0.00000000000E+00 0. -1.
         11    1    3    3    0    0 -0.21337937700E+02 -0.11366893606E+02  0.25318673103E+01  0.24308932677E+02  0.51100000000E-03 0. -1.
        -11    1    3    3    0    0 -0.21144793052E+02  0.47200451266E+01 -0.12622664546E+01  0.21701944984E+02  0.51100000000E-03 0.  1.
         12    1    3    3    0    0  0.43440774011E+02  0.69459603033E+01 -0.64953112769E+00  0.43997376080E+02  0.00000000000E+00 0. -1.
</event>
<event>
 7    1  0.4639347E-015  0.9000790E+02  0.7816164E-02  0.1186339E+00
        -11   -1    0    0    0    0  0.00000000000E+00  0.00000000000E+00  0.45593999997E+02  0.45594000000E+02  0.51100000000E-03 0.  1.
         11   -1    0    0    0    0 -0.00000000000E+00 -0.00000000000E+00 -0.45593999997E+02  0.45594000000E+02  0.51100000000E-03 0. -1.
    9900012    2    1    2    0    0  0.33023753130E+00 -0.99610920992E+00 -0.53977230856E+00  0.90007896390E+02  0.90000159822E+02 0.  0.
         12    1    1    2    0    0 -0.33023753130E+00  0.99610920992E+00  0.53977230856E+00  0.11801036100E+01  0.00000000000E+00 0. -1.
         11    1    3    3    0    0  0.11708131934E+02  0.37357256098E+02 -0.94752396324E+01  0.40279338412E+02  0.51100000000E-03 0. -1.
        -11    1    3    3    0    0  0.50380279689E+01 -0.18929330311E+01 -0.50377051625E+01  0.73717972599E+01  0.51100000000E-03 0.  1.
        -12    1    3    3    0    0 -0.16415922372E+02 -0.36460432277E+02  0.13973172486E+02  0.42356760718E+02  0.00000000000E+00 0.  1.
</event>
<event>
 7    1  0.4639347E-015  0.9000772E+02  0.7816164E-02  0.1186339E+00
        -11   -1    0    0    0    0  0.00000000000E+00  0.00000000000E+00  0.45593999997E+02  0.45594000000E+02  0.51100000000E-03 0. -1.
         11   -1    0    0    0    0 -0.00000000000E+00 -0.00000000000E+00 -0.45593999997E+02  0.45594000000E+02  0.51100000000E-03 0.  1.
    9900012    2    1    2    0    0 -0.29995881565E+00 -0.54405189932E+00 -0.10035375443E+01  0.90007722336E+02  0.89999983471E+02 0.  0.
         12    1    1    2    0    0  0.29995881565E+00  0.54405189932E+00  0.10035375443E+01  0.11802776635E+01  0.00000000000E+00 0. -1.
         11    1    3    3    0    0  0.29976354231E+02  0.19094328842E+02  0.10428805874E+02  0.37039643615E+02  0.51100000000E-03 0. -1.
        -11    1    3    3    0    0  0.84125404018E+01 -0.63889751255E+01 -0.45346236199E+01  0.11495766647E+02  0.51100000000E-03 0.  1.
        -12    1    3    3    0    0 -0.38688853449E+02 -0.13249405616E+02 -0.68977197984E+01  0.41472312074E+02  0.00000000000E+00 0.  1.
</event>
<event>
 7    1  0.4639347E-015  0.9000764E+02  0.7816164E-02  0.1186339E+00
        -11   -1    0    0    0    0  0.00000000000E+00  0.00000000000E+00  0.45593999997E+02  0.45594000000E+02  0.51100000000E-03 0.  1.
         11   -1    0    0    0    0 -0.00000000000E+00 -0.00000000000E+00 -0.45593999997E+02  0.45594000000E+02  0.51100000000E-03 0. -1.
    9900012    2    1    2    0    0  0.59169722496E+00 -0.91224720790E+00 -0.45929079063E+00  0.90007640477E+02  0.89999900531E+02 0.  0.
         12    1    1    2    0    0 -0.59169722496E+00  0.91224720790E+00  0.45929079063E+00  0.11803595235E+01  0.00000000000E+00 0. -1.
         11    1    3    3    0    0  0.27426317216E+02  0.17258474498E+02 -0.16350396743E+02  0.36295912882E+02  0.51100000000E-03 0. -1.
        -11    1    3    3    0    0  0.43017017307E+01  0.16815165047E+01 -0.83478468465E+01  0.95403712071E+01  0.51100000000E-03 0.  1.
        -12    1    3    3    0    0 -0.31136321722E+02 -0.19852238210E+02  0.24238952799E+02  0.44171356387E+02  0.00000000000E+00 0.  1.
</event>
<event>
 7    1  0.4639347E-015  0.9000762E+02  0.7816164E-02  0.1186339E+00
        -11   -1    0    0    0    0  0.00000000000E+00  0.00000000000E+00  0.45593999997E+02  0.45594000000E+02  0.51100000000E-03 0. -1.
         11   -1    0    0    0    0 -0.00000000000E+00 -0.00000000000E+00 -0.45593999997E+02  0.45594000000E+02  0.51100000000E-03 0.  1.
    9900012    2    1    2    0    0 -0.76185037209E+00  0.57631808600E+00  0.69335496916E+00  0.90007618859E+02  0.89999878627E+02 0.  0.
         12    1    1    2    0    0  0.76185037209E+00 -0.57631808600E+00 -0.69335496916E+00  0.11803811414E+01  0.00000000000E+00 0. -1.
         11    1    3    3    0    0  0.28137444658E+02 -0.22667623183E+02 -0.20248126612E+02  0.41418879321E+02  0.51100000000E-03 0. -1.
        -11    1    3    3    0    0  0.20558827219E+01  0.44299679837E+00  0.76124225118E+01  0.78975867636E+01  0.51100000000E-03 0.  1.
        -12    1    3    3    0    0 -0.30955177752E+02  0.22800944471E+02  0.13329059069E+02  0.40691152774E+02  0.00000000000E+00 0.  1.
</event>
<event>
 7    1  0.4639347E-015  0.9000772E+02  0.7816164E-02  0.1186339E+00
        -11   -1    0    0    0    0  0.00000000000E+00  0.00000000000E+00  0.45593999997E+02  0.45594000000E+02  0.51100000000E-03 0.  1.
         11   -1    0    0    0    0 -0.00000000000E+00 -0.00000000000E+00 -0.45593999997E+02  0.45594000000E+02  0.51100000000E-03 0. -1.
    9900012    2    1    2    0    0 -0.85221148615E+00 -0.23473222387E+00 -0.78211374710E+00  0.90007718022E+02  0.89999979100E+02 0.  0.
         12    1    1    2    0    0  0.85221148615E+00  0.23473222387E+00  0.78211374710E+00  0.11802819779E+01  0.00000000000E+00 0. -1.
         11    1    3    3    0    0  0.23948806242E+02 -0.33056342995E+01 -0.22658125290E+02  0.33134018477E+02  0.51100000000E-03 0. -1.
        -11    1    3    3    0    0  0.21934684366E+01 -0.49459104251E+01 -0.11796603215E+02  0.12978180974E+02  0.51100000000E-03 0.  1.
        -12    1    3    3    0    0 -0.26994486164E+02  0.80168125007E+01  0.33672614758E+02  0.43895518571E+02  0.00000000000E+00 0.  1.
</event>
<event>
 7    1  0.4639347E-015  0.9000769E+02  0.7816164E-02  0.1186339E+00
        -11   -1    0    0    0    0  0.00000000000E+00  0.00000000000E+00  0.45593999997E+02  0.45594000000E+02  0.51100000000E-03 0.  1.
         11   -1    0    0    0    0 -0.00000000000E+00 -0.00000000000E+00 -0.45593999997E+02  0.45594000000E+02  0.51100000000E-03 0. -1.
    9900012    2    1    2    0    0  0.99744366358E+00  0.56876862470E+00  0.27338706613E+00  0.90007689830E+02  0.89999950535E+02 0.  0.
         12    1    1    2    0    0 -0.99744366358E+00 -0.56876862470E+00 -0.27338706613E+00  0.11803101704E+01  0.00000000000E+00 0. -1.
         11    1    3    3    0    0  0.43251468325E+01 -0.26374536395E+01 -0.12182257013E+02  0.13193575824E+02  0.51100000000E-03 0. -1.
        -11    1    3    3    0    0  0.28784289499E+02 -0.35379729845E+01  0.28172235551E+02  0.40431762650E+02  0.51100000000E-03 0.  1.
         12    1    3    3    0    0 -0.32111992668E+02  0.67441952487E+01 -0.15716591472E+02  0.36382351355E+02  0.00000000000E+00 0. -1.
</event>
<event>
 7    1  0.4639347E-015  0.9000772E+02  0.7816164E-02  0.1186339E+00
        -11   -1    0    0    0    0  0.00000000000E+00  0.00000000000E+00  0.45593999997E+02  0.45594000000E+02  0.51100000000E-03 0. -1.
         11   -1    0    0    0    0 -0.00000000000E+00 -0.00000000000E+00 -0.45593999997E+02  0.45594000000E+02  0.51100000000E-03 0.  1.
    9900012    2    1    2    0    0 -0.85355582445E+00  0.59645959274E+00  0.55565311291E+00  0.90007715300E+02  0.89999976342E+02 0.  0.
         12    1    1    2    0    0  0.85355582445E+00 -0.59645959274E+00 -0.55565311291E+00  0.11802847000E+01  0.00000000000E+00 0. -1.
         11    1    3    3    0    0  0.40005614067E+02  0.96795848047E+01  0.11195032930E+02  0.42655272610E+02  0.51100000000E-03 0. -1.
        -11    1    3    3    0    0 -0.31389893121E+01 -0.68291918088E+01 -0.52835121985E+01  0.91873073355E+01  0.51100000000E-03 0.  1.
        -12    1    3    3    0    0 -0.37720180579E+02 -0.22539334032E+01 -0.53558676184E+01  0.38165135355E+02  0.00000000000E+00 0.  1.
</event>
<event>
 7    1  0.4639347E-015  0.9000769E+02  0.7816164E-02  0.1186339E+00
        -11   -1    0    0    0    0  0.00000000000E+00  0.00000000000E+00  0.45593999997E+02  0.45594000000E+02  0.51100000000E-03 0.  1.
         11   -1    0    0    0    0 -0.00000000000E+00 -0.00000000000E+00 -0.45593999997E+02  0.45594000000E+02  0.51100000000E-03 0. -1.
    9900012    2    1    2    0    0 -0.80379130005E+00 -0.86324418591E+00  0.43045662494E-01  0.90007693299E+02  0.89999954051E+02 0.  0.
         12    1    1    2    0    0  0.80379130005E+00  0.86324418591E+00 -0.43045662494E-01  0.11803067007E+01  0.00000000000E+00 0. -1.
         11    1    3    3    0    0 -0.32961588826E+02 -0.89999091752E+01  0.21337443707E+02  0.40283386244E+02  0.51100000000E-03 0. -1.
        -11    1    3    3    0    0  0.22918342017E+01 -0.93466486973E+01 -0.11778358489E+01  0.96953413259E+01  0.51100000000E-03 0.  1.
        -12    1    3    3    0    0  0.29865963324E+02  0.17483313687E+02 -0.20116562196E+02  0.40028965729E+02  0.00000000000E+00 0.  1.
</event>
<event>
 7    1  0.4639347E-015  0.9000779E+02  0.7816164E-02  0.1186339E+00
        -11   -1    0    0    0    0  0.00000000000E+00  0.00000000000E+00  0.45593999997E+02  0.45594000000E+02  0.51100000000E-03 0.  1.
         11   -1    0    0    0    0 -0.00000000000E+00 -0.00000000000E+00 -0.45593999997E+02  0.45594000000E+02  0.51100000000E-03 0. -1.
    9900012    2    1    2    0    0  0.19430892898E+00 -0.78395890605E+00  0.86054714683E+00  0.90007792849E+02  0.90000054915E+02 0.  0.
         12    1    1    2    0    0 -0.19430892898E+00  0.78395890605E+00 -0.86054714683E+00  0.11802071505E+01  0.00000000000E+00 0. -1.
         11    1    3    3    0    0 -0.13042850693E+02  0.27941638414E+02 -0.20390491356E+02  0.36967867797E+02  0.51100000000E-03 0. -1.
        -11    1    3    3    0    0 -0.12553064804E+01  0.84206213251E+01  0.56783963672E+01  0.10233613410E+02  0.51100000000E-03 0.  1.
        -12    1    3    3    0    0  0.14492466102E+02 -0.37146218645E+02  0.15572642135E+02  0.42806311643E+02  0.00000000000E+00 0.  1.
</event>
<event>
 7    1  0.4639347E-015  0.9000801E+02  0.7816164E-02  0.1186339E+00
        -11   -1    0    0    0    0  0.00000000000E+00  0.00000000000E+00  0.45593999997E+02  0.45594000000E+02  0.51100000000E-03 0.  1.
         11   -1    0    0    0    0 -0.00000000000E+00 -0.00000000000E+00 -0.45593999997E+02  0.45594000000E+02  0.51100000000E-03 0. -1.
    9900012    2    1    2    0    0 -0.94342725775E+00  0.48106842002E+00  0.52047772258E+00  0.90008008951E+02  0.90000273869E+02 0.  0.
         12    1    1    2    0    0  0.94342725775E+00 -0.48106842002E+00 -0.52047772258E+00  0.11799910487E+01  0.00000000000E+00 0. -1.
         11    1    3    3    0    0 -0.96142588342E+01  0.30735771878E+00 -0.30313574490E+01  0.10085512875E+02  0.51100000000E-03 0. -1.
        -11    1    3    3    0    0  0.61373294473E+00  0.17174331438E+02  0.37421304438E+02  0.41178736680E+02  0.51100000000E-03 0.  1.
         12    1    3    3    0    0  0.80570986317E+01 -0.17000620737E+02 -0.33869469266E+02  0.38743759397E+02  0.00000000000E+00 0. -1.
</event>
<event>
 7    1  0.4639347E-015  0.9000777E+02  0.7816164E-02  0.1186339E+00
        -11   -1    0    0    0    0  0.00000000000E+00  0.00000000000E+00  0.45593999997E+02  0.45594000000E+02  0.51100000000E-03 0. -1.
         11   -1    0    0    0    0 -0.00000000000E+00 -0.00000000000E+00 -0.45593999997E+02  0.45594000000E+02  0.51100000000E-03 0.  1.
    9900012    2    1    2    0    0 -0.84360488177E+00 -0.77150603815E+00 -0.29334454518E+00  0.90007770452E+02  0.90000032222E+02 0.  0.
         12    1    1    2    0    0  0.84360488177E+00  0.77150603815E+00  0.29334454518E+00  0.11802295479E+01  0.00000000000E+00 0. -1.
         11    1    3    3    0    0 -0.30913225750E+02  0.21562204868E+02  0.15456671204E+02  0.40736530166E+02  0.51100000000E-03 0. -1.
        -11    1    3    3    0    0  0.29387011279E+01 -0.53564687152E+01  0.75287114439E+01  0.96958350688E+01  0.51100000000E-03 0.  1.
        -12    1    3    3    0    0  0.27130919740E+02 -0.16977242191E+02 -0.23278727193E+02  0.39575405217E+02  0.00000000000E+00 0.  1.
</event>
<event>
 7    1  0.4639347E-015  0.9000776E+02  0.7816164E-02  0.1186339E+00
        -11   -1    0    0    0    0  0.00000000000E+00  0.00000000000E+00  0.45593999997E+02  0.45594000000E+02  0.51100000000E-03 0. -1.
         11   -1    0    0    0    0 -0.00000000000E+00 -0.00000000000E+00 -0.45593999997E+02  0.45594000000E+02  0.51100000000E-03 0.  1.
    9900012    2    1    2    0    0  0.69988150500E+00 -0.73425261007E+00 -0.60333361159E+00  0.90007757456E+02  0.90000019054E+02 0.  0.
         12    1    1    2    0    0 -0.69988150500E+00  0.73425261007E+00  0.60333361159E+00  0.11802425443E+01  0.00000000000E+00 0. -1.
         11    1    3    3    0    0 -0.29323989767E+01  0.20359667834E+02  0.30727973129E+02  0.36977335909E+02  0.51100000000E-03 0. -1.
        -11    1    3    3    0    0  0.57307912673E+00 -0.16358097294E+01  0.84573790780E+01  0.86331659480E+01  0.51100000000E-03 0.  1.
        -12    1    3    3    0    0  0.30592013550E+01 -0.19458110715E+02 -0.39788685818E+02  0.44397255598E+02  0.00000000000E+00 0.  1.
</event>
<event>
 7    1  0.4639347E-015  0.9000764E+02  0.7816164E-02  0.1186339E+00
        -11   -1    0    0    0    0  0.00000000000E+00  0.00000000000E+00  0.45593999997E+02  0.45594000000E+02  0.51100000000E-03 0.  1.
         11   -1    0    0    0    0 -0.00000000000E+00 -0.00000000000E+00 -0.45593999997E+02  0.45594000000E+02  0.51100000000E-03 0. -1.
    9900012    2    1    2    0    0  0.21467098785E+00  0.69471841868E+00 -0.92980629371E+00  0.90007636896E+02  0.89999896903E+02 0.  0.
         12    1    1    2    0    0 -0.21467098785E+00 -0.69471841868E+00  0.92980629371E+00  0.11803631043E+01  0.00000000000E+00 0. -1.
         11    1    3    3    0    0 -0.15612743946E+02 -0.86139056049E+00 -0.69896783825E+00  0.15652102846E+02  0.51100000000E-03 0. -1.
        -11    1    3    3    0    0 -0.18062355414E+02 -0.18373918104E+02  0.17582260363E+02  0.31192714363E+02  0.51100000000E-03 0.  1.
         12    1    3    3    0    0  0.33889770347E+02  0.19930027084E+02 -0.17813098818E+02  0.43162819686E+02  0.00000000000E+00 0. -1.
</event>
<event>
 7    1  0.4639347E-015  0.9000773E+02  0.7816164E-02  0.1186339E+00
        -11   -1    0    0    0    0  0.00000000000E+00  0.00000000000E+00  0.45593999997E+02  0.45594000000E+02  0.51100000000E-03 0.  1.
         11   -1    0    0    0    0 -0.00000000000E+00 -0.00000000000E+00 -0.45593999997E+02  0.45594000000E+02  0.51100000000E-03 0. -1.
    9900012    2    1    2    0    0 -0.74258406841E+00 -0.70762272646E+00  0.58384811406E+00  0.90007728996E+02  0.89999990219E+02 0.  0.
         12    1    1    2    0    0  0.74258406841E+00  0.70762272646E+00 -0.58384811406E+00  0.11802710036E+01  0.00000000000E+00 0. -1.
         11    1    3    3    0    0 -0.11806960775E+02  0.23824192888E+02 -0.29773072236E+02  0.39917819581E+02  0.51100000000E-03 0. -1.
        -11    1    3    3    0    0 -0.59685755312E+01 -0.59905526976E+01 -0.23856367476E+01  0.87864599496E+01  0.51100000000E-03 0.  1.
        -12    1    3    3    0    0  0.17032952238E+02 -0.18541262916E+02  0.32742557098E+02  0.41303449466E+02  0.00000000000E+00 0.  1.
</event>
<event>
 7    1  0.4639347E-015  0.9000775E+02  0.7816164E-02  0.1186339E+00
        -11   -1    0    0    0    0  0.00000000000E+00  0.00000000000E+00  0.45593999997E+02  0.45594000000E+02  0.51100000000E-03 0.  1.
         11   -1    0    0    0    0 -0.00000000000E+00 -0.00000000000E+00 -0.45593999997E+02  0.45594000000E+02  0.51100000000E-03 0. -1.
    9900012    2    1    2    0    0  0.40897180656E+00 -0.88945794147E+00  0.65923632808E+00  0.90007751762E+02  0.90000013285E+02 0.  0.
         12    1    1    2    0    0 -0.40897180656E+00  0.88945794147E+00 -0.65923632808E+00  0.11802482385E+01  0.00000000000E+00 0. -1.
         11    1    3    3    0    0  0.34129208956E+02  0.78443051643E+01  0.96507737634E+01  0.36324557285E+02  0.51100000000E-03 0. -1.
        -11    1    3    3    0    0  0.69906286077E+01 -0.32301388867E+01  0.61965304574E+01  0.98843146211E+01  0.51100000000E-03 0.  1.
        -12    1    3    3    0    0 -0.40710865757E+02 -0.55036242191E+01 -0.15188067893E+02  0.43798879855E+02  0.00000000000E+00 0.  1.
</event>
<event>
 7    1  0.4639347E-015  0.9000774E+02  0.7816164E-02  0.1186339E+00
        -11   -1    0    0    0    0  0.00000000000E+00  0.00000000000E+00  0.45593999997E+02  0.45594000000E+02  0.51100000000E-03 0.  1.
         11   -1    0    0    0    0 -0.00000000000E+00 -0.00000000000E+00 -0.45593999997E+02  0.45594000000E+02  0.51100000000E-03 0. -1.
    9900012    2    1    2    0    0  0.85492172708E+00 -0.73299028052E+00  0.35332383618E+00  0.90007744246E+02  0.90000005670E+02 0.  0.
         12    1    1    2    0    0 -0.85492172708E+00  0.73299028052E+00 -0.35332383618E+00  0.11802557536E+01  0.00000000000E+00 0. -1.
         11    1    3    3    0    0  0.34243212936E+02  0.69608137734E+01  0.20431033173E+02  0.40478113559E+02  0.51100000000E-03 0. -1.
        -11    1    3    3    0    0 -0.43097348145E+00 -0.10111014123E+02  0.12528502296E+01  0.10197449617E+02  0.51100000000E-03 0.  1.
        -12    1    3    3    0    0 -0.32957317727E+02  0.24172100689E+01 -0.21330559567E+02  0.39332181070E+02  0.00000000000E+00 0.  1.
</event>
<event>
 7    1  0.4639347E-015  0.9000780E+02  0.7816164E-02  0.1186339E+00
        -11   -1    0    0    0    0  0.00000000000E+00  0.00000000000E+00  0.45593999997E+02  0.45594000000E+02  0.51100000000E-03 0.  1.
         11   -1    0    0    0    0 -0.00000000000E+00 -0.00000000000E+00 -0.45593999997E+02  0.45594000000E+02  0.51100000000E-03 0. -1.
    9900012    2    1    2    0    0  0.10620503045E+01  0.51088430155E+00 -0.62534603266E-01  0.90007803323E+02  0.90000065527E+02 0.  0.
         12    1    1    2    0    0 -0.10620503045E+01 -0.51088430155E+00  0.62534603266E-01  0.11801966766E+01  0.00000000000E+00 0. -1.
         11    1    3    3    0    0 -0.15211026360E+02  0.73445833285E+01 -0.18360082129E+01  0.16990854999E+02  0.51100000000E-03 0. -1.
        -11    1    3    3    0    0 -0.22500744515E+02  0.15200716602E+02  0.71952586365E+01  0.28091227030E+02  0.51100000000E-03 0.  1.
         12    1    3    3    0    0  0.38773821179E+02 -0.22034415629E+02 -0.54217850268E+01  0.44925721294E+02  0.00000000000E+00 0. -1.
</event>
<event>
 7    1  0.5054684E-015  0.9000774E+02  0.7816164E-02  0.1186339E+00
        -11   -1    0    0    0    0  0.00000000000E+00  0.00000000000E+00  0.45593999997E+02  0.45594000000E+02  0.51100000000E-03 0. -1.
         11   -1    0    0    0    0 -0.00000000000E+00 -0.00000000000E+00 -0.45593999997E+02  0.45594000000E+02  0.51100000000E-03 0.  1.
    9900012    2    1    2    0    0 -0.11343374987E+01  0.32374884809E+00  0.38460098347E-01  0.90007739835E+02  0.90000001201E+02 0.  0.
         12    1    1    2    0    0  0.11343374987E+01 -0.32374884809E+00 -0.38460098347E-01  0.11802601648E+01  0.00000000000E+00 0. -1.
         11    1    3    3    0    0  0.40181824070E+01 -0.63199121183E+01  0.69125489759E+01  0.10191683504E+02  0.51100000000E-03 0. -1.
        -11    1    3    3    0    0 -0.40553865272E+02 -0.58213684121E+01 -0.99436574336E+01  0.42158992422E+02  0.51100000000E-03 0.  1.
         12    1    3    3    0    0  0.35401345366E+02  0.12465029378E+02  0.30695685561E+01  0.37657063909E+02  0.00000000000E+00 0. -1.
</event>
<event>
 7    1  0.4639347E-015  0.9000753E+02  0.7816164E-02  0.1186339E+00
        -11   -1    0    0    0    0  0.00000000000E+00  0.00000000000E+00  0.45593999997E+02  0.45594000000E+02  0.51100000000E-03 0. -1.
         11   -1    0    0    0    0 -0.00000000000E+00 -0.00000000000E+00 -0.45593999997E+02  0.45594000000E+02  0.51100000000E-03 0.  1.
    9900012    2    1    2    0    0  0.56634687787E+00  0.36170729387E+00  0.97052868141E+00  0.90007531079E+02  0.89999789689E+02 0.  0.
         12    1    1    2    0    0 -0.56634687787E+00 -0.36170729387E+00 -0.97052868141E+00  0.11804689212E+01  0.00000000000E+00 0. -1.
         11    1    3    3    0    0  0.45980856266E+00  0.67481339900E+01  0.87800863886E+01  0.11083260058E+02  0.51100000000E-03 0. -1.
        -11    1    3    3    0    0 -0.55687724253E+01 -0.41667931247E+02 -0.96865205913E+01  0.43139962937E+02  0.51100000000E-03 0.  1.
         12    1    3    3    0    0  0.56753107405E+01  0.35281504551E+02  0.18769628842E+01  0.35784308084E+02  0.00000000000E+00 0. -1.
</event>
<event>
 7    1  0.4639347E-015  0.9000780E+02  0.7816164E-02  0.1186339E+00
        -11   -1    0    0    0    0  0.00000000000E+00  0.00000000000E+00  0.45593999997E+02  0.45594000000E+02  0.51100000000E-03 0.  1.
         11   -1    0    0    0    0 -0.00000000000E+00 -0.00000000000E+00 -0.45593999997E+02  0.45594000000E+02  0.51100000000E-03 0. -1.
    9900012    2    1    2    0    0  0.11220842253E+01  0.33706745454E+00  0.14207530719E+00  0.90007799648E+02  0.90000061803E+02 0.  0.
         12    1    1    2    0    0 -0.11220842253E+01 -0.33706745454E+00 -0.14207530719E+00  0.11802003519E+01  0.00000000000E+00 0. -1.
         11    1    3    3    0    0 -0.74628197796E+01  0.92247805805E-01  0.72725563066E+01  0.10420761211E+02  0.51100000000E-03 0. -1.
        -11    1    3    3    0    0  0.24552513561E+02  0.29239099208E+02  0.13600557838E+02  0.40530556602E+02  0.51100000000E-03 0.  1.
         12    1    3    3    0    0 -0.15967609556E+02 -0.28994279559E+02 -0.20731038838E+02  0.39056481836E+02  0.00000000000E+00 0. -1.
</event>
<event>
 7    1  0.4639347E-015  0.9000753E+02  0.7816164E-02  0.1186339E+00
        -11   -1    0    0    0    0  0.00000000000E+00  0.00000000000E+00  0.45593999997E+02  0.45594000000E+02  0.51100000000E-03 0.  1.
         11   -1    0    0    0    0 -0.00000000000E+00 -0.00000000000E+00 -0.45593999997E+02  0.45594000000E+02  0.51100000000E-03 0. -1.
    9900012    2    1    2    0    0  0.54238094866E+00  0.98639936589E+00  0.35543893610E+00  0.90007534990E+02  0.89999793652E+02 0.  0.
         12    1    1    2    0    0 -0.54238094866E+00 -0.98639936589E+00 -0.35543893610E+00  0.11804650100E+01  0.00000000000E+00 0. -1.
         11    1    3    3    0    0  0.27869388203E+01  0.35157216277E+01  0.78207549420E+01  0.90161818235E+01  0.51100000000E-03 0. -1.
        -11    1    3    3    0    0 -0.11902485339E+02 -0.88674710423E+01  0.34451017605E+02  0.37512315501E+02  0.51100000000E-03 0.  1.
         12    1    3    3    0    0  0.96579274671E+01  0.63381487806E+01 -0.41916333611E+02  0.43479037666E+02  0.00000000000E+00 0. -1.
</event>
<event>
 7    1  0.4639347E-015  0.9000774E+02  0.7816164E-02  0.1186339E+00
        -11   -1    0    0    0    0  0.00000000000E+00  0.00000000000E+00  0.45593999997E+02  0.45594000000E+02  0.51100000000E-03 0.  1.
         11   -1    0    0    0    0 -0.00000000000E+00 -0.00000000000E+00 -0.45593999997E+02  0.45594000000E+02  0.51100000000E-03 0. -1.
    9900012    2    1    2    0    0 -0.52690642163E+00  0.78299976923E+00 -0.70872320950E+00  0.90007742569E+02  0.90000003971E+02 0.  0.
         12    1    1    2    0    0  0.52690642163E+00 -0.78299976923E+00  0.70872320950E+00  0.11802574310E+01  0.00000000000E+00 0. -1.
         11    1    3    3    0    0  0.10267386591E+01 -0.84845194607E+01  0.18889482534E+01  0.87526789338E+01  0.51100000000E-03 0. -1.
        -11    1    3    3    0    0 -0.16439812678E+02  0.33704028713E+02  0.22039019378E+02  0.43496521330E+02  0.51100000000E-03 0.  1.
         12    1    3    3    0    0  0.14886167598E+02 -0.24436509483E+02 -0.24636690841E+02  0.37758542306E+02  0.00000000000E+00 0. -1.
</event>
<event>
 7    1  0.4639347E-015  0.9000750E+02  0.7816164E-02  0.1186340E+00
        -11   -1    0    0    0    0  0.00000000000E+00  0.00000000000E+00  0.45593999997E+02  0.45594000000E+02  0.51100000000E-03 0. -1.
         11   -1    0    0    0    0 -0.00000000000E+00 -0.00000000000E+00 -0.45593999997E+02  0.45594000000E+02  0.51100000000E-03 0.  1.
    9900012    2    1    2    0    0  0.80442664654E+00 -0.65308786125E+00 -0.56563827607E+00  0.90007503222E+02  0.89999761464E+02 0.  0.
         12    1    1    2    0    0 -0.80442664654E+00  0.65308786125E+00  0.56563827607E+00  0.11804967783E+01  0.00000000000E+00 0. -1.
         11    1    3    3    0    0  0.80674577628E+01  0.16099605495E+02 -0.48126252304E+01  0.18639810453E+02  0.51100000000E-03 0. -1.
        -11    1    3    3    0    0  0.28775582280E+01 -0.11667677796E+02 -0.31579151642E+02  0.33788427978E+02  0.51100000000E-03 0.  1.
         12    1    3    3    0    0 -0.10140589344E+02 -0.50850155603E+01  0.35826138596E+02  0.37579264791E+02  0.00000000000E+00 0. -1.
</event>
<event>
 7    1  0.8386759E-015  0.9000794E+02  0.7816164E-02  0.1186339E+00
        -11   -1    0    0    0    0  0.00000000000E+00  0.00000000000E+00  0.45593999997E+02  0.45594000000E+02  0.51100000000E-03 0.  1.
         11   -1    0    0    0    0 -0.00000000000E+00 -0.00000000000E+00 -0.45593999997E+02  0.45594000000E+02  0.51100000000E-03 0. -1.
    9900012    2    1    2    0    0  0.10406371401E+01 -0.54267115960E+00 -0.12295554154E+00  0.90007942497E+02  0.90000206538E+02 0.  0.
         12    1    1    2    0    0 -0.10406371401E+01  0.54267115960E+00  0.12295554154E+00  0.11800575028E+01  0.00000000000E+00 0. -1.
         11    1    3    3    0    0  0.10468807727E+01 -0.44007252820E+01 -0.82612507314E+01  0.94186308064E+01  0.51100000000E-03 0. -1.
        -11    1    3    3    0    0 -0.24593274272E+02 -0.19879066921E+02  0.26976076705E+02  0.41565793096E+02  0.51100000000E-03 0.  1.
         12    1    3    3    0    0  0.24587030639E+02  0.23737121043E+02 -0.18837781515E+02  0.39023518594E+02  0.00000000000E+00 0. -1.
</event>
<event>
 7    1  0.4639347E-015  0.9000831E+02  0.7816164E-02  0.1186338E+00
        -11   -1    0    0    0    0  0.00000000000E+00  0.00000000000E+00  0.45593999997E+02  0.45594000000E+02  0.51100000000E-03 0.  1.
         11   -1    0    0    0    0 -0.00000000000E+00 -0.00000000000E+00 -0.45593999997E+02  0.45594000000E+02  0.51100000000E-03 0. -1.
    9900012    2    1    2    0    0  0.11660762690E+01  0.11651428257E+00  0.13553794425E+00  0.90008305134E+02  0.90000573960E+02 0.  0.
         12    1    1    2    0    0 -0.11660762690E+01 -0.11651428257E+00 -0.13553794425E+00  0.11796948663E+01  0.00000000000E+00 0. -1.
         11    1    3    3    0    0  0.23174688770E+02  0.32617099153E+01 -0.35924394874E+02  0.42875017183E+02  0.51100000000E-03 0. -1.
        -11    1    3    3    0    0  0.24489526499E+01  0.40283285448E+01  0.74540689489E+01  0.88197473945E+01  0.51100000000E-03 0.  1.
        -12    1    3    3    0    0 -0.24457565151E+02 -0.71735241775E+01  0.28605863869E+02  0.38313540556E+02  0.00000000000E+00 0.  1.
</event>
<event>
 7    1  0.4639347E-015  0.9000650E+02  0.7816164E-02  0.1186342E+00
        -11   -1    0    0    0    0  0.00000000000E+00  0.00000000000E+00  0.45593999997E+02  0.45594000000E+02  0.51100000000E-03 0. -1.
         11   -1    0    0    0    0 -0.00000000000E+00 -0.00000000000E+00 -0.45593999997E+02  0.45594000000E+02  0.51100000000E-03 0.  1.
    9900012    2    1    2    0    0 -0.17427937991E+00 -0.11664819691E+01  0.69941368994E-01  0.90006498717E+02  0.89998743691E+02 0.  0.
         12    1    1    2    0    0  0.17427937991E+00  0.11664819691E+01 -0.69941368994E-01  0.11815012829E+01  0.00000000000E+00 0. -1.
         11    1    3    3    0    0 -0.14268195845E+01  0.81602991809E+01 -0.38073277975E+01  0.91171290474E+01  0.51100000000E-03 0. -1.
        -11    1    3    3    0    0  0.20363121804E+02 -0.33088705112E+02 -0.18533361694E+02  0.43046540296E+02  0.51100000000E-03 0.  1.
         12    1    3    3    0    0 -0.19110581599E+02  0.23761923962E+02  0.22410630860E+02  0.37842829373E+02  0.00000000000E+00 0. -1.
</event>
<event>
 7    1  0.4639347E-015  0.9000780E+02  0.7816164E-02  0.1186339E+00
        -11   -1    0    0    0    0  0.00000000000E+00  0.00000000000E+00  0.45593999997E+02  0.45594000000E+02  0.51100000000E-03 0. -1.
         11   -1    0    0    0    0 -0.00000000000E+00 -0.00000000000E+00 -0.45593999997E+02  0.45594000000E+02  0.51100000000E-03 0.  1.
    9900012    2    1    2    0    0  0.50506527100E+00  0.10155350943E+01  0.32628324932E+00  0.90007803739E+02  0.90000065948E+02 0.  0.
         12    1    1    2    0    0 -0.50506527100E+00 -0.10155350943E+01 -0.32628324932E+00  0.11801962610E+01  0.00000000000E+00 0. -1.
         11    1    3    3    0    0  0.92561210428E+01  0.36797080273E+02  0.11984897297E+02  0.39791188181E+02  0.51100000000E-03 0. -1.
        -11    1    3    3    0    0  0.76288182141E+00 -0.50390517418E+01  0.10139267452E+02  0.11348073662E+02  0.51100000000E-03 0.  1.
        -12    1    3    3    0    0 -0.95139375932E+01 -0.30742493437E+02 -0.21797881500E+02  0.38868541896E+02  0.00000000000E+00 0.  1.
</event>
<event>
 7    1  0.4639347E-015  0.9000753E+02  0.7816164E-02  0.1186339E+00
        -11   -1    0    0    0    0  0.00000000000E+00  0.00000000000E+00  0.45593999997E+02  0.45594000000E+02  0.51100000000E-03 0. -1.
         11   -1    0    0    0    0 -0.00000000000E+00 -0.00000000000E+00 -0.45593999997E+02  0.45594000000E+02  0.51100000000E-03 0.  1.
    9900012    2    1    2    0    0 -0.64752213281E+00  0.36277634676E-02 -0.98702433517E+00  0.90007527590E+02  0.89999786154E+02 0.  0.
         12    1    1    2    0    0  0.64752213281E+00 -0.36277634676E-02  0.98702433517E+00  0.11804724103E+01  0.00000000000E+00 0. -1.
         11    1    3    3    0    0 -0.34443048803E+02 -0.21497408672E+02  0.12820693620E+02  0.42577369290E+02  0.51100000000E-03 0. -1.
        -11    1    3    3    0    0  0.31651988728E+01 -0.91400766811E+00 -0.84858842685E+01  0.91029734703E+01  0.51100000000E-03 0.  1.
        -12    1    3    3    0    0  0.30630327798E+02  0.22415044104E+02 -0.53218336866E+01  0.38327184830E+02  0.00000000000E+00 0.  1.
</event>
<event>
 7    1  0.4639347E-015  0.9000864E+02  0.7816164E-02  0.1186337E+00
        -11   -1    0    0    0    0  0.00000000000E+00  0.00000000000E+00  0.45593999997E+02  0.45594000000E+02  0.51100000000E-03 0.  1.
         11   -1    0    0    0    0 -0.00000000000E+00 -0.00000000000E+00 -0.45593999997E+02  0.45594000000E+02  0.51100000000E-03 0. -1.
    9900012    2    1    2    0    0 -0.60974088561E+00 -0.65796520423E+00  0.76563639305E+00  0.90008635237E+02  0.90000908418E+02 0.  0.
         12    1    1    2    0    0  0.60974088561E+00  0.65796520423E+00 -0.76563639305E+00  0.11793647629E+01  0.00000000000E+00 0. -1.
         11    1    3    3    0    0  0.87216890749E+01 -0.78949144979E+01  0.71433061801E+01  0.13763152208E+02  0.51100000000E-03 0. -1.
        -11    1    3    3    0    0  0.21477624189E+02 -0.15896794312E+02  0.16531772921E+02  0.31421265512E+02  0.51100000000E-03 0.  1.
         12    1    3    3    0    0 -0.30809054150E+02  0.23133743606E+02 -0.22909442708E+02  0.44824217517E+02  0.00000000000E+00 0. -1.
</event>
<event>
 7    1  0.4639347E-015  0.9000778E+02  0.7816164E-02  0.1186339E+00
        -11   -1    0    0    0    0  0.00000000000E+00  0.00000000000E+00  0.45593999997E+02  0.45594000000E+02  0.51100000000E-03 0.  1.
         11   -1    0    0    0    0 -0.00000000000E+00 -0.00000000000E+00 -0.45593999997E+02  0.45594000000E+02  0.51100000000E-03 0. -1.
    9900012    2    1    2    0    0 -0.12395846162E+00  0.11655819738E+01  0.13777823305E+00  0.90007775496E+02  0.90000037333E+02 0.  0.
         12    1    1    2    0    0  0.12395846162E+00 -0.11655819738E+01 -0.13777823305E+00  0.11802245038E+01  0.00000000000E+00 0. -1.
         11    1    3    3    0    0 -0.19877501819E+02  0.24546631971E+02 -0.28875318603E+02  0.42795282969E+02  0.51100000000E-03 0. -1.
        -11    1    3    3    0    0  0.94688336258E+01  0.15591613309E+01  0.39109122693E+01  0.10362674815E+02  0.51100000000E-03 0.  1.
        -12    1    3    3    0    0  0.10284709732E+02 -0.24940211328E+02  0.25102184567E+02  0.36849817712E+02  0.00000000000E+00 0.  1.
</event>
<event>
 7    1  0.4639347E-015  0.9000774E+02  0.7816164E-02  0.1186339E+00
        -11   -1    0    0    0    0  0.00000000000E+00  0.00000000000E+00  0.45593999997E+02  0.45594000000E+02  0.51100000000E-03 0.  1.
         11   -1    0    0    0    0 -0.00000000000E+00 -0.00000000000E+00 -0.45593999997E+02  0.45594000000E+02  0.51100000000E-03 0. -1.
    9900012    2    1    2    0    0 -0.10906526099E+01  0.35202385767E-01  0.44972938162E+00  0.90007737809E+02  0.89999999148E+02 0.  0.
         12    1    1    2    0    0  0.10906526099E+01 -0.35202385767E-01 -0.44972938162E+00  0.11802621913E+01  0.00000000000E+00 0. -1.
         11    1    3    3    0    0  0.59229585516E+01 -0.40468107605E+02  0.61784188788E+01  0.41363293283E+02  0.51100000000E-03 0. -1.
        -11    1    3    3    0    0 -0.15217612734E+01  0.13373975990E+01 -0.87487247325E+01  0.89802324256E+01  0.51100000000E-03 0.  1.
        -12    1    3    3    0    0 -0.54918498882E+01  0.39165912392E+02  0.30200352354E+01  0.39664212100E+02  0.00000000000E+00 0.  1.
</event>
<event>
 7    1  0.4639347E-015  0.9000768E+02  0.7816164E-02  0.1186339E+00
        -11   -1    0    0    0    0  0.00000000000E+00  0.00000000000E+00  0.45593999997E+02  0.45594000000E+02  0.51100000000E-03 0.  1.
         11   -1    0    0    0    0 -0.00000000000E+00 -0.00000000000E+00 -0.45593999997E+02  0.45594000000E+02  0.51100000000E-03 0. -1.
    9900012    2    1    2    0    0 -0.81728238348E+00 -0.70559131910E+00 -0.47680687192E+00  0.90007680384E+02  0.89999940965E+02 0.  0.
         12    1    1    2    0    0  0.81728238348E+00  0.70559131910E+00  0.47680687192E+00  0.11803196165E+01  0.00000000000E+00 0. -1.
         11    1    3    3    0    0  0.23041568926E+02  0.24380397240E+02 -0.22589156863E+02  0.40442399486E+02  0.51100000000E-03 0. -1.
        -11    1    3    3    0    0  0.51100146801E+01 -0.87343680156E+01  0.10060224895E+01  0.10169243638E+02  0.51100000000E-03 0.  1.
        -12    1    3    3    0    0 -0.28968865990E+02 -0.16351620543E+02  0.21106327502E+02  0.39396037259E+02  0.00000000000E+00 0.  1.
</event>
<event>
 7    1  0.4639347E-015  0.9000784E+02  0.7816164E-02  0.1186339E+00
        -11   -1    0    0    0    0  0.00000000000E+00  0.00000000000E+00  0.45593999997E+02  0.45594000000E+02  0.51100000000E-03 0. -1.
         11   -1    0    0    0    0 -0.00000000000E+00 -0.00000000000E+00 -0.45593999997E+02  0.45594000000E+02  0.51100000000E-03 0.  1.
    9900012    2    1    2    0    0  0.57814765955E+00  0.39898874905E+00 -0.94833648897E+00  0.90007835251E+02  0.90000097876E+02 0.  0.
         12    1    1    2    0    0 -0.57814765955E+00 -0.39898874905E+00  0.94833648897E+00  0.11801647489E+01  0.00000000000E+00 0. -1.
         11    1    3    3    0    0  0.25267663392E+01  0.68343588675E-01 -0.90985243947E+01  0.94431120612E+01  0.51100000000E-03 0. -1.
        -11    1    3    3    0    0 -0.74339663779E+01  0.34113936922E+02 -0.16270843127E+02  0.38519668804E+02  0.51100000000E-03 0.  1.
         12    1    3    3    0    0  0.54853476983E+01 -0.33783291762E+02  0.24421031033E+02  0.42045054386E+02  0.00000000000E+00 0. -1.
</event>
<event>
 7    1  0.4639347E-015  0.9000820E+02  0.7816164E-02  0.1186338E+00
        -11   -1    0    0    0    0  0.00000000000E+00  0.00000000000E+00  0.45593999997E+02  0.45594000000E+02  0.51100000000E-03 0.  1.
         11   -1    0    0    0    0 -0.00000000000E+00 -0.00000000000E+00 -0.45593999997E+02  0.45594000000E+02  0.51100000000E-03 0. -1.
    9900012    2    1    2    0    0 -0.79857141347E+00  0.58894947056E+00  0.63824656350E+00  0.90008196433E+02  0.90000463825E+02 0.  0.
         12    1    1    2    0    0  0.79857141347E+00 -0.58894947056E+00 -0.63824656350E+00  0.11798035672E+01  0.00000000000E+00 0. -1.
         11    1    3    3    0    0 -0.11250529293E+02  0.36644197336E+02  0.79729397892E+01  0.39152769723E+02  0.51100000000E-03 0. -1.
        -11    1    3    3    0    0 -0.82702636766E+01 -0.69182764334E+01  0.75457083892E+01  0.13160453087E+02  0.51100000000E-03 0.  1.
        -12    1    3    3    0    0  0.18722221557E+02 -0.29136971432E+02 -0.14880401615E+02  0.37694973624E+02  0.00000000000E+00 0.  1.
</event>
<event>
 7    1  0.4639347E-015  0.9000779E+02  0.7816164E-02  0.1186339E+00
        -11   -1    0    0    0    0  0.00000000000E+00  0.00000000000E+00  0.45593999997E+02  0.45594000000E+02  0.51100000000E-03 0.  1.
         11   -1    0    0    0    0 -0.00000000000E+00 -0.00000000000E+00 -0.45593999997E+02  0.45594000000E+02  0.51100000000E-03 0. -1.
    9900012    2    1    2    0    0 -0.20375281206E+00 -0.74990382360E+00  0.88827056756E+00  0.90007790038E+02  0.90000052067E+02 0.  0.
         12    1    1    2    0    0  0.20375281206E+00  0.74990382360E+00 -0.88827056756E+00  0.11802099619E+01  0.00000000000E+00 0. -1.
         11    1    3    3    0    0  0.90260175833E+01 -0.19538773387E+01  0.38520139374E+01  0.10006230144E+02  0.51100000000E-03 0. -1.
        -11    1    3    3    0    0 -0.80023282931E+01 -0.29405346785E+02  0.24312023320E+02  0.38984434789E+02  0.51100000000E-03 0.  1.
         12    1    3    3    0    0 -0.12274421022E+01  0.30609320300E+02 -0.27275766690E+02  0.41017125105E+02  0.00000000000E+00 0. -1.
</event>
<event>
 7    1  0.4639347E-015  0.9000770E+02  0.7816164E-02  0.1186339E+00
        -11   -1    0    0    0    0  0.00000000000E+00  0.00000000000E+00  0.45593999997E+02  0.45594000000E+02  0.51100000000E-03 0. -1.
         11   -1    0    0    0    0 -0.00000000000E+00 -0.00000000000E+00 -0.45593999997E+02  0.45594000000E+02  0.51100000000E-03 0.  1.
    9900012    2    1    2    0    0 -0.93250851549E+00 -0.44579047815E+00  0.56991185611E+00  0.90007703086E+02  0.89999963967E+02 0.  0.
         12    1    1    2    0    0  0.93250851549E+00  0.44579047815E+00 -0.56991185611E+00  0.11802969142E+01  0.00000000000E+00 0. -1.
         11    1    3    3    0    0 -0.31222364124E+02  0.16343511125E+02  0.88400590604E+01  0.36333084398E+02  0.51100000000E-03 0. -1.
        -11    1    3    3    0    0 -0.88230901357E+01  0.17984998341E+01 -0.48678931142E+01  0.10236107895E+02  0.51100000000E-03 0.  1.
        -12    1    3    3    0    0  0.39112945744E+02 -0.18587801437E+02 -0.34022540900E+01  0.43438510794E+02  0.00000000000E+00 0.  1.
</event>
<event>
 7    1  0.4639347E-015  0.9000768E+02  0.7816164E-02  0.1186339E+00
        -11   -1    0    0    0    0  0.00000000000E+00  0.00000000000E+00  0.45593999997E+02  0.45594000000E+02  0.51100000000E-03 0. -1.
         11   -1    0    0    0    0 -0.00000000000E+00 -0.00000000000E+00 -0.45593999997E+02  0.45594000000E+02  0.51100000000E-03 0.  1.
    9900012    2    1    2    0    0 -0.10954131497E+01 -0.32477044535E+00  0.29624346520E+00  0.90007675468E+02  0.89999935984E+02 0.  0.
         12    1    1    2    0    0  0.10954131497E+01  0.32477044535E+00 -0.29624346520E+00  0.11803245322E+01  0.00000000000E+00 0. -1.
         11    1    3    3    0    0  0.13296753663E+02 -0.32195539721E+02  0.15930777523E+02  0.38303343309E+02  0.51100000000E-03 0. -1.
        -11    1    3    3    0    0 -0.41554419574E+01 -0.69782690866E+01 -0.67451968264E+01  0.10557538434E+02  0.51100000000E-03 0.  1.
        -12    1    3    3    0    0 -0.10236724855E+02  0.38849038362E+02 -0.88893372319E+01  0.41146793725E+02  0.00000000000E+00 0.  1.
</event>
<event>
 7    1  0.4639347E-015  0.9000789E+02  0.7816164E-02  0.1186339E+00
        -11   -1    0    0    0    0  0.00000000000E+00  0.00000000000E+00  0.45593999997E+02  0.45594000000E+02  0.51100000000E-03 0.  1.
         11   -1    0    0    0    0 -0.00000000000E+00 -0.00000000000E+00 -0.45593999997E+02  0.45594000000E+02  0.51100000000E-03 0. -1.
    9900012    2    1    2    0    0 -0.37431307591E+00 -0.10264157007E+01 -0.44612866436E+00  0.90007885491E+02  0.90000148779E+02 0.  0.
         12    1    1    2    0    0  0.37431307591E+00  0.10264157007E+01  0.44612866436E+00  0.11801145091E+01  0.00000000000E+00 0. -1.
         11    1    3    3    0    0 -0.59979343708E+01 -0.25483986419E+01  0.87283695843E+01  0.10892841145E+02  0.51100000000E-03 0. -1.
        -11    1    3    3    0    0 -0.29077173473E+02  0.95687479869E+01  0.16903405247E+02  0.34968100669E+02  0.51100000000E-03 0.  1.
         12    1    3    3    0    0  0.34700794768E+02 -0.80467650457E+01 -0.26077903495E+02  0.44146943676E+02  0.00000000000E+00 0. -1.
</event>
<event>
 7    1  0.4639347E-015  0.9000779E+02  0.7816164E-02  0.1186339E+00
        -11   -1    0    0    0    0  0.00000000000E+00  0.00000000000E+00  0.45593999997E+02  0.45594000000E+02  0.51100000000E-03 0.  1.
         11   -1    0    0    0    0 -0.00000000000E+00 -0.00000000000E+00 -0.45593999997E+02  0.45594000000E+02  0.51100000000E-03 0. -1.
    9900012    2    1    2    0    0 -0.58733554507E+00  0.96261151480E+00 -0.34830336789E+00  0.90007788491E+02  0.90000050499E+02 0.  0.
         12    1    1    2    0    0  0.58733554507E+00 -0.96261151480E+00  0.34830336789E+00  0.11802115094E+01  0.00000000000E+00 0. -1.
         11    1    3    3    0    0  0.31269110239E+02  0.22825326770E+02 -0.51359436046E+01  0.39052921968E+02  0.51100000000E-03 0. -1.
        -11    1    3    3    0    0  0.65579790824E+01 -0.21295717257E+01 -0.21329928039E+01  0.72174665876E+01  0.51100000000E-03 0.  1.
        -12    1    3    3    0    0 -0.38414424866E+02 -0.19733143530E+02  0.69206330406E+01  0.43737399935E+02  0.00000000000E+00 0.  1.
</event>
<event>
 7    1  0.4639347E-015  0.9000774E+02  0.7816164E-02  0.1186339E+00
        -11   -1    0    0    0    0  0.00000000000E+00  0.00000000000E+00  0.45593999997E+02  0.45594000000E+02  0.51100000000E-03 0.  1.
         11   -1    0    0    0    0 -0.00000000000E+00 -0.00000000000E+00 -0.45593999997E+02  0.45594000000E+02  0.51100000000E-03 0. -1.
    9900012    2    1    2    0    0  0.65151893657E+00  0.95252926595E+00  0.24741974170E+00  0.90007743479E+02  0.90000004893E+02 0.  0.
         12    1    1    2    0    0 -0.65151893657E+00 -0.95252926595E+00 -0.24741974170E+00  0.11802565212E+01  0.00000000000E+00 0. -1.
         11    1    3    3    0    0 -0.83105424553E+01 -0.42334463895E+01 -0.41774757236E+02  0.42803242011E+02  0.51100000000E-03 0. -1.
        -11    1    3    3    0    0 -0.90500476192E+00 -0.59366251284E+01  0.74379698108E+01  0.95595997145E+01  0.51100000000E-03 0.  1.
        -12    1    3    3    0    0  0.98670661537E+01  0.11122600784E+02  0.34584207167E+02  0.37644901754E+02  0.00000000000E+00 0.  1.
</event>
<event>
 7    1  0.4639347E-015  0.9000784E+02  0.7816164E-02  0.1186339E+00
        -11   -1    0    0    0    0  0.00000000000E+00  0.00000000000E+00  0.45593999997E+02  0.45594000000E+02  0.51100000000E-03 0. -1.
         11   -1    0    0    0    0 -0.00000000000E+00 -0.00000000000E+00 -0.45593999997E+02  0.45594000000E+02  0.51100000000E-03 0.  1.
    9900012    2    1    2    0    0  0.78893982318E+00  0.79324888932E-01 -0.87410481850E+00  0.90007839962E+02  0.90000102649E+02 0.  0.
         12    1    1    2    0    0 -0.78893982318E+00 -0.79324888932E-01  0.87410481850E+00  0.11801600384E+01  0.00000000000E+00 0. -1.
         11    1    3    3    0    0  0.27219067742E+02 -0.13810256931E+02 -0.24855357382E+02  0.39362286977E+02  0.51100000000E-03 0. -1.
        -11    1    3    3    0    0 -0.42528414543E+01 -0.57731000312E+00 -0.80283616540E+01  0.91035453744E+01  0.51100000000E-03 0.  1.
        -12    1    3    3    0    0 -0.22177286464E+02  0.14466891823E+02  0.32009614217E+02  0.41542007610E+02  0.00000000000E+00 0.  1.
</event>
<event>
 7    1  0.4639347E-015  0.9000776E+02  0.7816164E-02  0.1186339E+00
        -11   -1    0    0    0    0  0.00000000000E+00  0.00000000000E+00  0.45593999997E+02  0.45594000000E+02  0.51100000000E-03 0.  1.
         11   -1    0    0    0    0 -0.00000000000E+00 -0.00000000000E+00 -0.45593999997E+02  0.45594000000E+02  0.51100000000E-03 0. -1.
    9900012    2    1    2    0    0  0.24348672434E+00 -0.10448262659E+01  0.49194424404E+00  0.90007764070E+02  0.90000025756E+02 0.  0.
         12    1    1    2    0    0 -0.24348672434E+00  0.10448262659E+01 -0.49194424404E+00  0.11802359298E+01  0.00000000000E+00 0. -1.
         11    1    3    3    0    0  0.64753703664E+01 -0.45616754212E+01  0.70041608601E+01  0.10573437173E+02  0.51100000000E-03 0. -1.
        -11    1    3    3    0    0  0.97041777880E+01  0.42618207970E+01  0.34148711794E+02  0.35755680675E+02  0.51100000000E-03 0.  1.
         12    1    3    3    0    0 -0.15936061430E+02 -0.74497164169E+00 -0.40660928410E+02  0.43678646223E+02  0.00000000000E+00 0. -1.
</event>
<event>
 7    1  0.4639347E-015  0.9000775E+02  0.7816164E-02  0.1186339E+00
        -11   -1    0    0    0    0  0.00000000000E+00  0.00000000000E+00  0.45593999997E+02  0.45594000000E+02  0.51100000000E-03 0.  1.
         11   -1    0    0    0    0 -0.00000000000E+00 -0.00000000000E+00 -0.45593999997E+02  0.45594000000E+02  0.51100000000E-03 0. -1.
    9900012    2    1    2    0    0 -0.65039382745E+00 -0.29008433944E-02  0.98486950294E+00  0.90007750669E+02  0.90000012178E+02 0.  0.
         12    1    1    2    0    0  0.65039382745E+00  0.29008433944E-02 -0.98486950294E+00  0.11802493311E+01  0.00000000000E+00 0. -1.
         11    1    3    3    0    0  0.37107119699E+01 -0.68515180706E+01  0.61982796400E+01  0.99564729674E+01  0.51100000000E-03 0. -1.
        -11    1    3    3    0    0 -0.32404930485E+02  0.11315188818E+02  0.21959900217E+02  0.40747395445E+02  0.51100000000E-03 0.  1.
         12    1    3    3    0    0  0.28043824687E+02 -0.44665715912E+01 -0.27173310354E+02  0.39303882257E+02  0.00000000000E+00 0. -1.
</event>
<event>
 7    1  0.4639347E-015  0.9000784E+02  0.7816164E-02  0.1186339E+00
        -11   -1    0    0    0    0  0.00000000000E+00  0.00000000000E+00  0.45593999997E+02  0.45594000000E+02  0.51100000000E-03 0. -1.
         11   -1    0    0    0    0 -0.00000000000E+00 -0.00000000000E+00 -0.45593999997E+02  0.45594000000E+02  0.51100000000E-03 0.  1.
    9900012    2    1    2    0    0  0.94850446715E+00  0.62043733124E+00 -0.32890020213E+00  0.90007839609E+02  0.90000102291E+02 0.  0.
         12    1    1    2    0    0 -0.94850446715E+00 -0.62043733124E+00  0.32890020213E+00  0.11801603913E+01  0.00000000000E+00 0. -1.
         11    1    3    3    0    0 -0.29264945391E+02  0.66096263218E+01  0.28311510609E+02  0.41251252370E+02  0.51100000000E-03 0. -1.
        -11    1    3    3    0    0  0.25494006354E+01 -0.88607407479E+01 -0.56530826800E+00  0.92375182760E+01  0.51100000000E-03 0.  1.
        -12    1    3    3    0    0  0.27664049222E+02  0.28715517574E+01 -0.28075102543E+02  0.39519068963E+02  0.00000000000E+00 0.  1.
</event>
<event>
 7    1  0.4639347E-015  0.9000778E+02  0.7816164E-02  0.1186339E+00
        -11   -1    0    0    0    0  0.00000000000E+00  0.00000000000E+00  0.45593999997E+02  0.45594000000E+02  0.51100000000E-03 0.  1.
         11   -1    0    0    0    0 -0.00000000000E+00 -0.00000000000E+00 -0.45593999997E+02  0.45594000000E+02  0.51100000000E-03 0. -1.
    9900012    2    1    2    0    0 -0.10815826478E+01 -0.32920392496E+00 -0.33871417871E+00  0.90007778181E+02  0.90000040052E+02 0.  0.
         12    1    1    2    0    0  0.10815826478E+01  0.32920392496E+00  0.33871417871E+00  0.11802218195E+01  0.00000000000E+00 0. -1.
         11    1    3    3    0    0 -0.37738768518E+01 -0.15294304342E+01 -0.39369215559E+02  0.39579242513E+02  0.51100000000E-03 0. -1.
        -11    1    3    3    0    0 -0.78248207723E+01  0.58778165714E+01  0.52687586496E-01  0.97866911675E+01  0.51100000000E-03 0.  1.
        -12    1    3    3    0    0  0.10517114976E+02 -0.46775900622E+01  0.38977813794E+02  0.40641844500E+02  0.00000000000E+00 0.  1.
</event>
<event>
 7    1  0.4639347E-015  0.9000776E+02  0.7816164E-02  0.1186339E+00
        -11   -1    0    0    0    0  0.00000000000E+00  0.00000000000E+00  0.45593999997E+02  0.45594000000E+02  0.51100000000E-03 0.  1.
         11   -1    0    0    0    0 -0.00000000000E+00 -0.00000000000E+00 -0.45593999997E+02  0.45594000000E+02  0.51100000000E-03 0. -1.
    9900012    2    1    2    0    0 -0.27839382066E+00 -0.10982699012E+01  0.33056001901E+00  0.90007758575E+02  0.90000020188E+02 0.  0.
         12    1    1    2    0    0  0.27839382066E+00  0.10982699012E+01 -0.33056001901E+00  0.11802414251E+01  0.00000000000E+00 0. -1.
         11    1    3    3    0    0  0.22427202771E+02 -0.33376919103E+01 -0.28016238257E+02  0.36042047913E+02  0.51100000000E-03 0. -1.
        -11    1    3    3    0    0  0.99131483954E+01 -0.98869124150E+00 -0.94426997217E+00  0.10006980939E+02  0.51100000000E-03 0.  1.
        -12    1    3    3    0    0 -0.32618744987E+02  0.32281132506E+01  0.29291068248E+02  0.43958729723E+02  0.00000000000E+00 0.  1.
</event>
<event>
 7    1  0.4639347E-015  0.9000721E+02  0.7816164E-02  0.1186340E+00
        -11   -1    0    0    0    0  0.00000000000E+00  0.00000000000E+00  0.45593999997E+02  0.45594000000E+02  0.51100000000E-03 0. -1.
         11   -1    0    0    0    0 -0.00000000000E+00 -0.00000000000E+00 -0.45593999997E+02  0.45594000000E+02  0.51100000000E-03 0.  1.
    9900012    2    1    2    0    0 -0.21367449734E+00 -0.76594764011E+00 -0.87289303412E+00  0.90007205849E+02  0.89999460165E+02 0.  0.
         12    1    1    2    0    0  0.21367449734E+00  0.76594764011E+00  0.87289303412E+00  0.11807941511E+01  0.00000000000E+00 0. -1.
         11    1    3    3    0    0  0.24598258317E+01 -0.54748579818E+01  0.35226736811E+02  0.35734406385E+02  0.51100000000E-03 0. -1.
        -11    1    3    3    0    0  0.71787284592E+01 -0.52272700145E+01  0.54574960639E+01  0.10423183662E+02  0.51100000000E-03 0.  1.
        -12    1    3    3    0    0 -0.98522287882E+01  0.99361803562E+01 -0.41557125909E+02  0.43849615802E+02  0.00000000000E+00 0.  1.
</event>
<event>
 7    1  0.4639347E-015  0.9000797E+02  0.7816164E-02  0.1186339E+00
        -11   -1    0    0    0    0  0.00000000000E+00  0.00000000000E+00  0.45593999997E+02  0.45594000000E+02  0.51100000000E-03 0.  1.
         11   -1    0    0    0    0 -0.00000000000E+00 -0.00000000000E+00 -0.45593999997E+02  0.45594000000E+02  0.51100000000E-03 0. -1.
    9900012    2    1    2    0    0 -0.60580760893E+00  0.98464479296E+00  0.23653921898E+00  0.90007966513E+02  0.90000230871E+02 0.  0.
         12    1    1    2    0    0  0.60580760893E+00 -0.98464479296E+00 -0.23653921898E+00  0.11800334866E+01  0.00000000000E+00 0. -1.
         11    1    3    3    0    0 -0.84761469737E+00  0.78908523903E+01 -0.37010752741E+02  0.37852078158E+02  0.51100000000E-03 0. -1.
        -11    1    3    3    0    0  0.10787901720E+01 -0.71065288083E+01 -0.57162096215E+01  0.91837678889E+01  0.51100000000E-03 0.  1.
        -12    1    3    3    0    0 -0.83698308360E+00  0.20032121091E+00  0.42963501582E+02  0.42972120467E+02  0.00000000000E+00 0.  1.
</event>
<event>
 7    1  0.4639347E-015  0.9000766E+02  0.7816164E-02  0.1186339E+00
        -11   -1    0    0    0    0  0.00000000000E+00  0.00000000000E+00  0.45593999997E+02  0.45594000000E+02  0.51100000000E-03 0.  1.
         11   -1    0    0    0    0 -0.00000000000E+00 -0.00000000000E+00 -0.45593999997E+02  0.45594000000E+02  0.51100000000E-03 0. -1.
    9900012    2    1    2    0    0  0.40854258009E+00  0.78256728208E-01  0.11046131650E+01  0.90007660473E+02  0.89999920791E+02 0.  0.
         12    1    1    2    0    0 -0.40854258009E+00 -0.78256728208E-01 -0.11046131650E+01  0.11803395272E+01  0.00000000000E+00 0. -1.
         11    1    3    3    0    0  0.18549213716E+02 -0.28225557073E+02  0.22792338290E+01  0.33851887816E+02  0.51100000000E-03 0.  1.
        -11    1    3    3    0    0  0.10918909010E+02 -0.48361256386E+01 -0.17891327036E+01  0.12075250774E+02  0.51100000000E-03 0. -1.
        -12    1    3    3    0    0 -0.29059580147E+02  0.33139939440E+02  0.61451203957E+00  0.44080521883E+02  0.00000000000E+00 0.  1.
</event>
<event>
 7    1  0.4639347E-015  0.9000769E+02  0.7816164E-02  0.1186339E+00
        -11   -1    0    0    0    0  0.00000000000E+00  0.00000000000E+00  0.45593999997E+02  0.45594000000E+02  0.51100000000E-03 0.  1.
         11   -1    0    0    0    0 -0.00000000000E+00 -0.00000000000E+00 -0.45593999997E+02  0.45594000000E+02  0.51100000000E-03 0. -1.
    9900012    2    1    2    0    0 -0.11653621019E+01 -0.17053147570E+00  0.77396389379E-01  0.90007686476E+02  0.89999947138E+02 0.  0.
         12    1    1    2    0    0  0.11653621019E+01  0.17053147570E+00 -0.77396389379E-01  0.11803135236E+01  0.00000000000E+00 0. -1.
         11    1    3    3    0    0 -0.58427437154E+00 -0.92522102975E+01 -0.16226812244E+01  0.94115815115E+01  0.51100000000E-03 0. -1.
        -11    1    3    3    0    0 -0.49881450985E+01 -0.35330590108E+02 -0.25004086458E+01  0.35768480993E+02  0.51100000000E-03 0.  1.
         12    1    3    3    0    0  0.44070573681E+01  0.44412268930E+02  0.42004862596E+01  0.44827623972E+02  0.00000000000E+00 0. -1.
</event>
<event>
 7    1  0.4639347E-015  0.9000835E+02  0.7816164E-02  0.1186338E+00
        -11   -1    0    0    0    0  0.00000000000E+00  0.00000000000E+00  0.45593999997E+02  0.45594000000E+02  0.51100000000E-03 0. -1.
         11   -1    0    0    0    0 -0.00000000000E+00 -0.00000000000E+00 -0.45593999997E+02  0.45594000000E+02  0.51100000000E-03 0.  1.
    9900012    2    1    2    0    0 -0.28199653144E+00  0.10714612614E+01 -0.40500312017E+00  0.90008348015E+02  0.90000617407E+02 0.  0.
         12    1    1    2    0    0  0.28199653144E+00 -0.10714612614E+01  0.40500312017E+00  0.11796519850E+01  0.00000000000E+00 0. -1.
         11    1    3    3    0    0  0.10078455844E+02 -0.16186792226E+01 -0.26744828796E+01  0.10552168192E+02  0.51100000000E-03 0. -1.
        -11    1    3    3    0    0  0.12693834645E+02  0.31285643206E+02 -0.17191651265E+02  0.37887699617E+02  0.51100000000E-03 0.  1.
         12    1    3    3    0    0 -0.23054287020E+02 -0.28595502722E+02  0.19461131024E+02  0.41568480206E+02  0.00000000000E+00 0. -1.
</event>
<event>
 7    1  0.4639347E-015  0.9000779E+02  0.7816164E-02  0.1186339E+00
        -11   -1    0    0    0    0  0.00000000000E+00  0.00000000000E+00  0.45593999997E+02  0.45594000000E+02  0.51100000000E-03 0.  1.
         11   -1    0    0    0    0 -0.00000000000E+00 -0.00000000000E+00 -0.45593999997E+02  0.45594000000E+02  0.51100000000E-03 0. -1.
    9900012    2    1    2    0    0  0.10319936110E+01  0.46128665244E+00  0.33927138398E+00  0.90007787620E+02  0.90000049617E+02 0.  0.
         12    1    1    2    0    0 -0.10319936110E+01 -0.46128665244E+00 -0.33927138398E+00  0.11802123796E+01  0.00000000000E+00 0. -1.
         11    1    3    3    0    0 -0.19818566266E+02 -0.85565589561E+01 -0.32980240361E+02  0.39416830473E+02  0.51100000000E-03 0. -1.
        -11    1    3    3    0    0 -0.42639331939E+01  0.86178653553E+01  0.10119260641E+01  0.96681293012E+01  0.51100000000E-03 0.  1.
        -12    1    3    3    0    0  0.25114493071E+02  0.39998025325E+00  0.32307585681E+02  0.40922827846E+02  0.00000000000E+00 0.  1.
</event>
<event>
 7    1  0.4639347E-015  0.9000878E+02  0.7816164E-02  0.1186337E+00
        -11   -1    0    0    0    0  0.00000000000E+00  0.00000000000E+00  0.45593999997E+02  0.45594000000E+02  0.51100000000E-03 0. -1.
         11   -1    0    0    0    0 -0.00000000000E+00 -0.00000000000E+00 -0.45593999997E+02  0.45594000000E+02  0.51100000000E-03 0.  1.
    9900012    2    1    2    0    0 -0.10149737336E+01  0.42836096771E+00 -0.42058037140E+00  0.90008783036E+02  0.90001058166E+02 0.  0.
         12    1    1    2    0    0  0.10149737336E+01 -0.42836096771E+00  0.42058037140E+00  0.11792169636E+01  0.00000000000E+00 0. -1.
         11    1    3    3    0    0 -0.76763801367E+00  0.32558610733E+01 -0.98878951517E+01  0.10438408415E+02  0.51100000000E-03 0. -1.
        -11    1    3    3    0    0 -0.23770899871E+02  0.86197520405E+01 -0.25492595199E+02  0.35905824265E+02  0.51100000000E-03 0.  1.
         12    1    3    3    0    0  0.23523564151E+02 -0.11447252146E+02  0.34959909979E+02  0.43664550356E+02  0.00000000000E+00 0. -1.
</event>
<event>
 7    1  0.4639347E-015  0.9000778E+02  0.7816164E-02  0.1186339E+00
        -11   -1    0    0    0    0  0.00000000000E+00  0.00000000000E+00  0.45593999997E+02  0.45594000000E+02  0.51100000000E-03 0.  1.
         11   -1    0    0    0    0 -0.00000000000E+00 -0.00000000000E+00 -0.45593999997E+02  0.45594000000E+02  0.51100000000E-03 0. -1.
    9900012    2    1    2    0    0  0.16510072567E+00  0.10670215811E+01  0.47657283482E+00  0.90007781812E+02  0.90000043732E+02 0.  0.
         12    1    1    2    0    0 -0.16510072567E+00 -0.10670215811E+01 -0.47657283482E+00  0.11802181879E+01  0.00000000000E+00 0. -1.
         11    1    3    3    0    0 -0.24535152306E+02 -0.49399800497E+00 -0.29323958731E+02  0.38237576919E+02  0.51100000000E-03 0. -1.
        -11    1    3    3    0    0 -0.67674356284E+01  0.60103245268E+01  0.14197745504E+01  0.91617654377E+01  0.51100000000E-03 0.  1.
        -12    1    3    3    0    0  0.31467688660E+02 -0.44493049407E+01  0.28380757016E+02  0.42608439455E+02  0.00000000000E+00 0.  1.
</event>
<event>
 7    1  0.4639347E-015  0.9000793E+02  0.7816164E-02  0.1186339E+00
        -11   -1    0    0    0    0  0.00000000000E+00  0.00000000000E+00  0.45593999997E+02  0.45594000000E+02  0.51100000000E-03 0. -1.
         11   -1    0    0    0    0 -0.00000000000E+00 -0.00000000000E+00 -0.45593999997E+02  0.45594000000E+02  0.51100000000E-03 0.  1.
    9900012    2    1    2    0    0 -0.42449109675E+00 -0.10472430872E+01  0.34009371460E+00  0.90007926058E+02  0.90000189881E+02 0.  0.
         12    1    1    2    0    0  0.42449109675E+00  0.10472430872E+01 -0.34009371460E+00  0.11800739424E+01  0.00000000000E+00 0. -1.
         11    1    3    3    0    0 -0.13944350002E+02  0.71740604786E+01  0.40382188432E+02  0.43320124464E+02  0.51100000000E-03 0. -1.
        -11    1    3    3    0    0  0.41689046772E+01 -0.75408961959E+01 -0.40986694414E+01  0.95416965523E+01  0.51100000000E-03 0.  1.
        -12    1    3    3    0    0  0.93509542285E+01 -0.68040736984E+00 -0.35943425276E+02  0.37146105041E+02  0.00000000000E+00 0.  1.
</event>
<event>
 7    1  0.4639347E-015  0.9000774E+02  0.7816164E-02  0.1186339E+00
        -11   -1    0    0    0    0  0.00000000000E+00  0.00000000000E+00  0.45593999997E+02  0.45594000000E+02  0.51100000000E-03 0. -1.
         11   -1    0    0    0    0 -0.00000000000E+00 -0.00000000000E+00 -0.45593999997E+02  0.45594000000E+02  0.51100000000E-03 0.  1.
    9900012    2    1    2    0    0  0.97023841269E+00 -0.40479956841E+00 -0.53646497262E+00  0.90007737345E+02  0.89999998678E+02 0.  0.
         12    1    1    2    0    0 -0.97023841269E+00  0.40479956841E+00  0.53646497262E+00  0.11802626550E+01  0.00000000000E+00 0. -1.
         11    1    3    3    0    0 -0.23116269902E+02  0.26508789476E+02  0.19171192799E+02  0.40057614597E+02  0.51100000000E-03 0. -1.
        -11    1    3    3    0    0 -0.59578456811E+01 -0.77268510576E+01 -0.13414033742E+01  0.98488332152E+01  0.51100000000E-03 0.  1.
        -12    1    3    3    0    0  0.30044353996E+02 -0.19186737986E+02 -0.18366254397E+02  0.40101289532E+02  0.00000000000E+00 0.  1.
</event>
<event>
 7    1  0.4639347E-015  0.9000778E+02  0.7816164E-02  0.1186339E+00
        -11   -1    0    0    0    0  0.00000000000E+00  0.00000000000E+00  0.45593999997E+02  0.45594000000E+02  0.51100000000E-03 0.  1.
         11   -1    0    0    0    0 -0.00000000000E+00 -0.00000000000E+00 -0.45593999997E+02  0.45594000000E+02  0.51100000000E-03 0. -1.
    9900012    2    1    2    0    0 -0.69622774715E-01 -0.43438950162E+00  0.10951663862E+01  0.90007775028E+02  0.90000036859E+02 0.  0.
         12    1    1    2    0    0  0.69622774715E-01  0.43438950162E+00 -0.10951663862E+01  0.11802249715E+01  0.00000000000E+00 0. -1.
         11    1    3    3    0    0  0.72299329734E+01  0.94831544866E+00 -0.59404506202E+01  0.94053275765E+01  0.51100000000E-03 0. -1.
        -11    1    3    3    0    0 -0.22965917235E+02  0.22570316248E+02 -0.22648356036E+02  0.39367506415E+02  0.51100000000E-03 0.  1.
         12    1    3    3    0    0  0.15666361487E+02 -0.23953021198E+02  0.29683973042E+02  0.41234941037E+02  0.00000000000E+00 0. -1.
</event>
<event>
 7    1  0.4639347E-015  0.9000773E+02  0.7816164E-02  0.1186339E+00
        -11   -1    0    0    0    0  0.00000000000E+00  0.00000000000E+00  0.45593999997E+02  0.45594000000E+02  0.51100000000E-03 0. -1.
         11   -1    0    0    0    0 -0.00000000000E+00 -0.00000000000E+00 -0.45593999997E+02  0.45594000000E+02  0.51100000000E-03 0.  1.
    9900012    2    1    2    0    0 -0.42850739486E+00 -0.74384503884E+00 -0.81001419402E+00  0.90007725869E+02  0.89999987051E+02 0.  0.
         12    1    1    2    0    0  0.42850739486E+00  0.74384503884E+00  0.81001419402E+00  0.11802741308E+01  0.00000000000E+00 0. -1.
         11    1    3    3    0    0  0.17739924259E+02 -0.26886625125E+02  0.22676530837E+02  0.39393153902E+02  0.51100000000E-03 0. -1.
        -11    1    3    3    0    0  0.21915922218E+01  0.58634804693E+01  0.65399852688E+01  0.90528938609E+01  0.51100000000E-03 0.  1.
        -12    1    3    3    0    0 -0.20360023876E+02  0.20279299617E+02 -0.30026530300E+02  0.41561678106E+02  0.00000000000E+00 0.  1.
</event>
<event>
 7    1  0.4639347E-015  0.9000840E+02  0.7816164E-02  0.1186338E+00
        -11   -1    0    0    0    0  0.00000000000E+00  0.00000000000E+00  0.45593999997E+02  0.45594000000E+02  0.51100000000E-03 0.  1.
         11   -1    0    0    0    0 -0.00000000000E+00 -0.00000000000E+00 -0.45593999997E+02  0.45594000000E+02  0.51100000000E-03 0. -1.
    9900012    2    1    2    0    0  0.31605431850E+00  0.10877567209E+01 -0.32918405223E+00  0.90008395339E+02  0.90000665355E+02 0.  0.
         12    1    1    2    0    0 -0.31605431850E+00 -0.10877567209E+01  0.32918405223E+00  0.11796046610E+01  0.00000000000E+00 0. -1.
         11    1    3    3    0    0 -0.32753106478E+01  0.28764704893E+01  0.76864008875E+01  0.88364303415E+01  0.51100000000E-03 0. -1.
        -11    1    3    3    0    0 -0.70004348001E+01  0.30037728560E+02  0.20593437283E+02  0.37085858273E+02  0.51100000000E-03 0.  1.
         12    1    3    3    0    0  0.10591799766E+02 -0.31826442328E+02 -0.28609022223E+02  0.44086106725E+02  0.00000000000E+00 0. -1.
</event>
<event>
 7    1  0.4639347E-015  0.9000722E+02  0.7816164E-02  0.1186340E+00
        -11   -1    0    0    0    0  0.00000000000E+00  0.00000000000E+00  0.45593999997E+02  0.45594000000E+02  0.51100000000E-03 0. -1.
         11   -1    0    0    0    0 -0.00000000000E+00 -0.00000000000E+00 -0.45593999997E+02  0.45594000000E+02  0.51100000000E-03 0.  1.
    9900012    2    1    2    0    0 -0.19733475680E+00 -0.68118389172E+00 -0.94408429294E+00  0.90007217356E+02  0.89999471823E+02 0.  0.
         12    1    1    2    0    0  0.19733475680E+00  0.68118389172E+00  0.94408429294E+00  0.11807826442E+01  0.00000000000E+00 0. -1.
         11    1    3    3    0    0 -0.44196770908E+01 -0.11329762437E+02  0.16023630400E+01  0.12266402490E+02  0.51100000000E-03 0. -1.
        -11    1    3    3    0    0  0.37015720769E+02  0.89011711237E+01  0.14501878591E+02  0.40739402479E+02  0.51100000000E-03 0.  1.
         12    1    3    3    0    0 -0.32793378435E+02  0.17474074217E+01 -0.17048325924E+02  0.37001412387E+02  0.00000000000E+00 0. -1.
</event>
<event>
 7    1  0.4639347E-015  0.9000770E+02  0.7816164E-02  0.1186339E+00
        -11   -1    0    0    0    0  0.00000000000E+00  0.00000000000E+00  0.45593999997E+02  0.45594000000E+02  0.51100000000E-03 0.  1.
         11   -1    0    0    0    0 -0.00000000000E+00 -0.00000000000E+00 -0.45593999997E+02  0.45594000000E+02  0.51100000000E-03 0. -1.
    9900012    2    1    2    0    0 -0.62338558856E+00  0.24371983734E+00  0.97216503871E+00  0.90007697575E+02  0.89999958383E+02 0.  0.
         12    1    1    2    0    0  0.62338558856E+00 -0.24371983734E+00 -0.97216503871E+00  0.11803024246E+01  0.00000000000E+00 0. -1.
         11    1    3    3    0    0  0.56935066610E+01  0.58806072490E+01  0.30642108679E+01  0.87399627128E+01  0.51100000000E-03 0. -1.
        -11    1    3    3    0    0 -0.14238066117E+02 -0.10077327521E+02  0.37121951657E+02  0.41016025549E+02  0.51100000000E-03 0.  1.
         12    1    3    3    0    0  0.79211738671E+01  0.44404401089E+01 -0.39213997487E+02  0.40251709314E+02  0.00000000000E+00 0. -1.
</event>
<event>
 7    1  0.4639347E-015  0.9000768E+02  0.7816164E-02  0.1186339E+00
        -11   -1    0    0    0    0  0.00000000000E+00  0.00000000000E+00  0.45593999997E+02  0.45594000000E+02  0.51100000000E-03 0. -1.
         11   -1    0    0    0    0 -0.00000000000E+00 -0.00000000000E+00 -0.45593999997E+02  0.45594000000E+02  0.51100000000E-03 0.  1.
    9900012    2    1    2    0    0 -0.51864079707E+00  0.90929546565E+00  0.54528737859E+00  0.90007684430E+02  0.89999945064E+02 0.  0.
         12    1    1    2    0    0  0.51864079707E+00 -0.90929546565E+00 -0.54528737859E+00  0.11803155703E+01  0.00000000000E+00 0. -1.
         11    1    3    3    0    0  0.36677946799E+01 -0.79504358952E+01 -0.20430793991E+01  0.89909022033E+01  0.51100000000E-03 0. -1.
        -11    1    3    3    0    0  0.33390829883E+02  0.38742266614E+00 -0.17361570554E+02  0.37636707467E+02  0.51100000000E-03 0.  1.
         12    1    3    3    0    0 -0.37577265360E+02  0.84723086947E+01  0.19949937331E+02  0.43380074759E+02  0.00000000000E+00 0. -1.
</event>
<event>
 7    1  0.4639347E-015  0.9000779E+02  0.7816164E-02  0.1186339E+00
        -11   -1    0    0    0    0  0.00000000000E+00  0.00000000000E+00  0.45593999997E+02  0.45594000000E+02  0.51100000000E-03 0.  1.
         11   -1    0    0    0    0 -0.00000000000E+00 -0.00000000000E+00 -0.45593999997E+02  0.45594000000E+02  0.51100000000E-03 0. -1.
    9900012    2    1    2    0    0 -0.89729522798E+00  0.19300100889E+00  0.74196518925E+00  0.90007787961E+02  0.90000049962E+02 0.  0.
         12    1    1    2    0    0  0.89729522798E+00 -0.19300100889E+00 -0.74196518925E+00  0.11802120393E+01  0.00000000000E+00 0. -1.
         11    1    3    3    0    0  0.19234920852E+01  0.76190162871E+01 -0.19439956195E+01  0.80949583208E+01  0.51100000000E-03 0. -1.
        -11    1    3    3    0    0 -0.13125462776E+02  0.12351029873E+02  0.36903707904E+02  0.41069567435E+02  0.51100000000E-03 0.  1.
         12    1    3    3    0    0  0.10304675463E+02 -0.19777045151E+02 -0.34217747095E+02  0.40843262205E+02  0.00000000000E+00 0. -1.
</event>
<event>
 7    1  0.4639347E-015  0.9000775E+02  0.7816164E-02  0.1186339E+00
        -11   -1    0    0    0    0  0.00000000000E+00  0.00000000000E+00  0.45593999997E+02  0.45594000000E+02  0.51100000000E-03 0. -1.
         11   -1    0    0    0    0 -0.00000000000E+00 -0.00000000000E+00 -0.45593999997E+02  0.45594000000E+02  0.51100000000E-03 0.  1.
    9900012    2    1    2    0    0 -0.53727393088E+00 -0.37771802723E+00  0.98063633433E+00  0.90007753498E+02  0.90000015044E+02 0.  0.
         12    1    1    2    0    0  0.53727393088E+00  0.37771802723E+00 -0.98063633433E+00  0.11802465018E+01  0.00000000000E+00 0. -1.
         11    1    3    3    0    0  0.11267074220E+02 -0.18547751982E+02  0.36271484704E+02  0.42268033643E+02  0.51100000000E-03 0. -1.
        -11    1    3    3    0    0  0.57079845413E+01  0.35924466000E+01 -0.13791011612E+01  0.68839436642E+01  0.51100000000E-03 0.  1.
        -12    1    3    3    0    0 -0.17512332693E+02  0.14577587355E+02 -0.33911747209E+02  0.40855776191E+02  0.00000000000E+00 0.  1.
</event>
<event>
 7    1  0.4639347E-015  0.9000746E+02  0.7816164E-02  0.1186340E+00
        -11   -1    0    0    0    0  0.00000000000E+00  0.00000000000E+00  0.45593999997E+02  0.45594000000E+02  0.51100000000E-03 0.  1.
         11   -1    0    0    0    0 -0.00000000000E+00 -0.00000000000E+00 -0.45593999997E+02  0.45594000000E+02  0.51100000000E-03 0. -1.
    9900012    2    1    2    0    0 -0.99448871881E+00  0.41972646775E+00  0.47801221209E+00  0.90007460380E+02  0.89999718057E+02 0.  0.
         12    1    1    2    0    0  0.99448871881E+00 -0.41972646775E+00 -0.47801221209E+00  0.11805396200E+01  0.00000000000E+00 0. -1.
         11    1    3    3    0    0  0.20941833436E+01  0.54542922631E+01  0.89007572389E+01  0.10646989605E+02  0.51100000000E-03 0. -1.
        -11    1    3    3    0    0  0.34084291727E+01 -0.19795360563E+02  0.30902346835E+02  0.36856868144E+02  0.51100000000E-03 0.  1.
         12    1    3    3    0    0 -0.64971012351E+01  0.14760794768E+02 -0.39325091861E+02  0.42503602630E+02  0.00000000000E+00 0. -1.
</event>
<event>
 7    1  0.4639347E-015  0.9000759E+02  0.7816164E-02  0.1186339E+00
        -11   -1    0    0    0    0  0.00000000000E+00  0.00000000000E+00  0.45593999997E+02  0.45594000000E+02  0.51100000000E-03 0. -1.
         11   -1    0    0    0    0 -0.00000000000E+00 -0.00000000000E+00 -0.45593999997E+02  0.45594000000E+02  0.51100000000E-03 0.  1.
    9900012    2    1    2    0    0  0.43367693763E+00 -0.14680003689E+00 -0.10879981703E+01  0.90007590768E+02  0.89999850166E+02 0.  0.
         12    1    1    2    0    0 -0.43367693763E+00  0.14680003689E+00  0.10879981703E+01  0.11804092323E+01  0.00000000000E+00 0. -1.
         11    1    3    3    0    0 -0.32434454296E+01 -0.94899163243E+01  0.17839768360E+01  0.10186315512E+02  0.51100000000E-03 0. -1.
        -11    1    3    3    0    0 -0.28751613190E+02 -0.19925190220E+02  0.52990371787E+01  0.35380054573E+02  0.51100000000E-03 0.  1.
         12    1    3    3    0    0  0.32428735557E+02  0.29268306507E+02 -0.81710121850E+01  0.44441220683E+02  0.00000000000E+00 0. -1.
</event>
<event>
 7    1  0.4639347E-015  0.9000772E+02  0.7816164E-02  0.1186339E+00
        -11   -1    0    0    0    0  0.00000000000E+00  0.00000000000E+00  0.45593999997E+02  0.45594000000E+02  0.51100000000E-03 0. -1.
         11   -1    0    0    0    0 -0.00000000000E+00 -0.00000000000E+00 -0.45593999997E+02  0.45594000000E+02  0.51100000000E-03 0.  1.
    9900012    2    1    2    0    0 -0.29484139022E+00 -0.11571419061E+00 -0.11369895763E+01  0.90007717612E+02  0.89999978684E+02 0.  0.
         12    1    1    2    0    0  0.29484139022E+00  0.11571419061E+00  0.11369895763E+01  0.11802823882E+01  0.00000000000E+00 0. -1.
         11    1    3    3    0    0  0.40228307917E+01  0.40489562393E+02  0.66121848934E+01  0.41222673612E+02  0.51100000000E-03 0. -1.
        -11    1    3    3    0    0  0.92886952731E+01 -0.62598275834E+01 -0.24293206594E+01  0.11461540053E+02  0.51100000000E-03 0.  1.
        -12    1    3    3    0    0 -0.13606367455E+02 -0.34345449000E+02 -0.53198538104E+01  0.37323503948E+02  0.00000000000E+00 0.  1.
</event>
<event>
 7    1  0.4639347E-015  0.9000797E+02  0.7816164E-02  0.1186339E+00
        -11   -1    0    0    0    0  0.00000000000E+00  0.00000000000E+00  0.45593999997E+02  0.45594000000E+02  0.51100000000E-03 0.  1.
         11   -1    0    0    0    0 -0.00000000000E+00 -0.00000000000E+00 -0.45593999997E+02  0.45594000000E+02  0.51100000000E-03 0. -1.
    9900012    2    1    2    0    0 -0.38284733230E+00 -0.11077751102E+01  0.13687114838E+00  0.90007969710E+02  0.90000234110E+02 0.  0.
         12    1    1    2    0    0  0.38284733230E+00  0.11077751102E+01 -0.13687114838E+00  0.11800302902E+01  0.00000000000E+00 0. -1.
         11    1    3    3    0    0  0.54504639105E+01  0.87585435521E+01 -0.42515010984E+02  0.43748666279E+02  0.51100000000E-03 0. -1.
        -11    1    3    3    0    0 -0.21524874617E+01 -0.60537864974E+01  0.47538227473E+01  0.79925192650E+01  0.51100000000E-03 0.  1.
        -12    1    3    3    0    0 -0.36808237812E+01 -0.38125321649E+01  0.37898059385E+02  0.38266784165E+02  0.00000000000E+00 0.  1.
</event>
<event>
 7    1  0.4639347E-015  0.9000776E+02  0.7816164E-02  0.1186339E+00
        -11   -1    0    0    0    0  0.00000000000E+00  0.00000000000E+00  0.45593999997E+02  0.45594000000E+02  0.51100000000E-03 0. -1.
         11   -1    0    0    0    0 -0.00000000000E+00 -0.00000000000E+00 -0.45593999997E+02  0.45594000000E+02  0.51100000000E-03 0.  1.
    9900012    2    1    2    0    0 -0.17803585574E+00 -0.95166834485E+00 -0.67497406877E+00  0.90007762991E+02  0.90000024662E+02 0.  0.
         12    1    1    2    0    0  0.17803585574E+00  0.95166834485E+00  0.67497406877E+00  0.11802370093E+01  0.00000000000E+00 0. -1.
         11    1    3    3    0    0 -0.74876083525E+01  0.21841452344E+01  0.34364733413E+02  0.35238752419E+02  0.51100000000E-03 0. -1.
        -11    1    3    3    0    0 -0.67472152576E+01  0.21604596820E+01  0.71011732108E+01  0.10030910278E+02  0.51100000000E-03 0.  1.
        -12    1    3    3    0    0  0.14056787754E+02 -0.52962732612E+01 -0.42140880692E+02  0.44738100294E+02  0.00000000000E+00 0.  1.
</event>
<event>
 7    1  0.4639347E-015  0.9000773E+02  0.7816164E-02  0.1186339E+00
        -11   -1    0    0    0    0  0.00000000000E+00  0.00000000000E+00  0.45593999997E+02  0.45594000000E+02  0.51100000000E-03 0. -1.
         11   -1    0    0    0    0 -0.00000000000E+00 -0.00000000000E+00 -0.45593999997E+02  0.45594000000E+02  0.51100000000E-03 0.  1.
    9900012    2    1    2    0    0  0.10001689510E+00  0.11236098594E+01 -0.34719250243E+00  0.90007726672E+02  0.89999987864E+02 0.  0.
         12    1    1    2    0    0 -0.10001689510E+00 -0.11236098594E+01  0.34719250243E+00  0.11802733282E+01  0.00000000000E+00 0. -1.
         11    1    3    3    0    0 -0.35735626671E+02  0.12480283852E+02  0.39089957769E+01  0.38053551041E+02  0.51100000000E-03 0. -1.
        -11    1    3    3    0    0  0.14832342915E+01  0.10787457872E+02 -0.14767372010E+01  0.10988629774E+02  0.51100000000E-03 0.  1.
        -12    1    3    3    0    0  0.34352409275E+02 -0.22144131864E+02 -0.27794510784E+01  0.40965545856E+02  0.00000000000E+00 0.  1.
</event>
<event>
 7    1  0.4639347E-015  0.9000766E+02  0.7816164E-02  0.1186339E+00
        -11   -1    0    0    0    0  0.00000000000E+00  0.00000000000E+00  0.45593999997E+02  0.45594000000E+02  0.51100000000E-03 0.  1.
         11   -1    0    0    0    0 -0.00000000000E+00 -0.00000000000E+00 -0.45593999997E+02  0.45594000000E+02  0.51100000000E-03 0. -1.
    9900012    2    1    2    0    0  0.57689695047E+00  0.26656059168E+00  0.99465006024E+00  0.90007663869E+02  0.89999924232E+02 0.  0.
         12    1    1    2    0    0 -0.57689695047E+00 -0.26656059168E+00 -0.99465006024E+00  0.11803361313E+01  0.00000000000E+00 0. -1.
         11    1    3    3    0    0  0.34693213060E+02 -0.88692824192E+01  0.14578256102E+02  0.38662756683E+02  0.51100000000E-03 0. -1.
        -11    1    3    3    0    0 -0.20074899074E+01 -0.49469528276E+01  0.84062240577E+01  0.99582609514E+01  0.51100000000E-03 0.  1.
        -12    1    3    3    0    0 -0.32108826203E+02  0.14082795838E+02 -0.21989830099E+02  0.41386646234E+02  0.00000000000E+00 0.  1.
</event>
<event>
 7    1  0.4639347E-015  0.9000774E+02  0.7816164E-02  0.1186339E+00
        -11   -1    0    0    0    0  0.00000000000E+00  0.00000000000E+00  0.45593999997E+02  0.45594000000E+02  0.51100000000E-03 0.  1.
         11   -1    0    0    0    0 -0.00000000000E+00 -0.00000000000E+00 -0.45593999997E+02  0.45594000000E+02  0.51100000000E-03 0. -1.
    9900012    2    1    2    0    0  0.44312951857E+00  0.34768112611E+00  0.10371964392E+01  0.90007736305E+02  0.89999997624E+02 0.  0.
         12    1    1    2    0    0 -0.44312951857E+00 -0.34768112611E+00 -0.10371964392E+01  0.11802636947E+01  0.00000000000E+00 0. -1.
         11    1    3    3    0    0  0.26473820615E+02 -0.27317424106E+02 -0.92574636947E+01  0.39151059654E+02  0.51100000000E-03 0. -1.
        -11    1    3    3    0    0  0.71097124787E+01  0.92601302128E+01  0.41415302655E+00  0.11682018065E+02  0.51100000000E-03 0.  1.
        -12    1    3    3    0    0 -0.33140403575E+02  0.18404975019E+02  0.98805071073E+01  0.39174658585E+02  0.00000000000E+00 0.  1.
</event>
<event>
 7    1  0.4639347E-015  0.9000753E+02  0.7816164E-02  0.1186339E+00
        -11   -1    0    0    0    0  0.00000000000E+00  0.00000000000E+00  0.45593999997E+02  0.45594000000E+02  0.51100000000E-03 0.  1.
         11   -1    0    0    0    0 -0.00000000000E+00 -0.00000000000E+00 -0.45593999997E+02  0.45594000000E+02  0.51100000000E-03 0. -1.
    9900012    2    1    2    0    0  0.87181159656E+00  0.35783419126E-02 -0.79588981476E+00  0.90007530237E+02  0.89999788836E+02 0.  0.
         12    1    1    2    0    0 -0.87181159656E+00 -0.35783419126E-02  0.79588981476E+00  0.11804697631E+01  0.00000000000E+00 0. -1.
         11    1    3    3    0    0 -0.21867622094E+01 -0.65599637054E+00  0.82787654706E+01  0.85877947214E+01  0.51100000000E-03 0. -1.
        -11    1    3    3    0    0 -0.83887437837E+00  0.31543111296E+02  0.21185919738E+02  0.38006772763E+02  0.51100000000E-03 0.  1.
         12    1    3    3    0    0  0.38974481844E+01 -0.30883536583E+02 -0.30260575023E+02  0.43412962753E+02  0.00000000000E+00 0. -1.
</event>
<event>
 7    1  0.4639347E-015  0.9000787E+02  0.7816164E-02  0.1186339E+00
        -11   -1    0    0    0    0  0.00000000000E+00  0.00000000000E+00  0.45593999997E+02  0.45594000000E+02  0.51100000000E-03 0. -1.
         11   -1    0    0    0    0 -0.00000000000E+00 -0.00000000000E+00 -0.45593999997E+02  0.45594000000E+02  0.51100000000E-03 0.  1.
    9900012    2    1    2    0    0  0.24162912724E+00  0.91935264803E+00  0.69936532194E+00  0.90007870439E+02  0.90000133529E+02 0.  0.
         12    1    1    2    0    0 -0.24162912724E+00 -0.91935264803E+00 -0.69936532194E+00  0.11801295607E+01  0.00000000000E+00 0. -1.
         11    1    3    3    0    0  0.15496337382E+01 -0.41519050034E+02 -0.10163659012E+02  0.42773038765E+02  0.51100000000E-03 0. -1.
        -11    1    3    3    0    0 -0.87879391044E+00  0.59537628950E+01 -0.46314258119E+01  0.75940553501E+01  0.51100000000E-03 0.  1.
        -12    1    3    3    0    0 -0.42921070053E+00  0.36484639787E+02  0.15494450146E+02  0.39640776324E+02  0.00000000000E+00 0.  1.
</event>
<event>
 7    1  0.4639347E-015  0.9000775E+02  0.7816164E-02  0.1186339E+00
        -11   -1    0    0    0    0  0.00000000000E+00  0.00000000000E+00  0.45593999997E+02  0.45594000000E+02  0.51100000000E-03 0.  1.
         11   -1    0    0    0    0 -0.00000000000E+00 -0.00000000000E+00 -0.45593999997E+02  0.45594000000E+02  0.51100000000E-03 0. -1.
    9900012    2    1    2    0    0 -0.47944326723E+00 -0.12006558210E+00  0.10717739999E+01  0.90007753798E+02  0.90000015348E+02 0.  0.
         12    1    1    2    0    0  0.47944326723E+00  0.12006558210E+00 -0.10717739999E+01  0.11802462020E+01  0.00000000000E+00 0. -1.
         11    1    3    3    0    0 -0.61361212825E+01  0.69238998275E+01  0.31101219790E+01  0.97603909861E+01  0.51100000000E-03 0. -1.
        -11    1    3    3    0    0  0.18759138116E+02  0.28175458542E+02 -0.19223070464E+02  0.38926702470E+02  0.51100000000E-03 0.  1.
         12    1    3    3    0    0 -0.13102460100E+02 -0.35219423952E+02  0.17184722485E+02  0.41320660341E+02  0.00000000000E+00 0. -1.
</event>
<event>
 7    1  0.4639347E-015  0.9000777E+02  0.7816164E-02  0.1186339E+00
        -11   -1    0    0    0    0  0.00000000000E+00  0.00000000000E+00  0.45593999997E+02  0.45594000000E+02  0.51100000000E-03 0. -1.
         11   -1    0    0    0    0 -0.00000000000E+00 -0.00000000000E+00 -0.45593999997E+02  0.45594000000E+02  0.51100000000E-03 0.  1.
    9900012    2    1    2    0    0  0.16156540808E+00 -0.61347969191E+00 -0.99522504194E+00  0.90007773921E+02  0.90000035737E+02 0.  0.
         12    1    1    2    0    0 -0.16156540808E+00  0.61347969191E+00  0.99522504194E+00  0.11802260790E+01  0.00000000000E+00 0. -1.
         11    1    3    3    0    0  0.19214951567E+01  0.70760836026E+01  0.17569676076E+02  0.19038293528E+02  0.51100000000E-03 0. -1.
        -11    1    3    3    0    0  0.22630089769E+02 -0.14759004903E+02  0.13389680850E+02  0.30153486402E+02  0.51100000000E-03 0.  1.
         12    1    3    3    0    0 -0.24390019518E+02  0.70694416085E+01 -0.31954581968E+02  0.40815993991E+02  0.00000000000E+00 0. -1.
</event>
<event>
 7    1  0.4639347E-015  0.9000776E+02  0.7816164E-02  0.1186339E+00
        -11   -1    0    0    0    0  0.00000000000E+00  0.00000000000E+00  0.45593999997E+02  0.45594000000E+02  0.51100000000E-03 0.  1.
         11   -1    0    0    0    0 -0.00000000000E+00 -0.00000000000E+00 -0.45593999997E+02  0.45594000000E+02  0.51100000000E-03 0. -1.
    9900012    2    1    2    0    0 -0.89486896986E+00 -0.50713408353E+00 -0.57878435281E+00  0.90007759864E+02  0.90000021494E+02 0.  0.
         12    1    1    2    0    0  0.89486896986E+00  0.50713408353E+00  0.57878435281E+00  0.11802401361E+01  0.00000000000E+00 0. -1.
         11    1    3    3    0    0  0.42753449996E+01  0.74551073483E+01  0.50046629531E+01  0.99450415774E+01  0.51100000000E-03 0. -1.
        -11    1    3    3    0    0 -0.22252190845E+01  0.98769968404E+01  0.34572217089E+02  0.36024226033E+02  0.51100000000E-03 0.  1.
         12    1    3    3    0    0 -0.29449948850E+01 -0.17839238272E+02 -0.40155664395E+02  0.44038492254E+02  0.00000000000E+00 0. -1.
</event>
<event>
 7    1  0.4639347E-015  0.9000784E+02  0.7816164E-02  0.1186339E+00
        -11   -1    0    0    0    0  0.00000000000E+00  0.00000000000E+00  0.45593999997E+02  0.45594000000E+02  0.51100000000E-03 0.  1.
         11   -1    0    0    0    0 -0.00000000000E+00 -0.00000000000E+00 -0.45593999997E+02  0.45594000000E+02  0.51100000000E-03 0. -1.
    9900012    2    1    2    0    0 -0.11202283324E+01 -0.29940378177E+00 -0.21961162432E+00  0.90007837551E+02  0.90000100206E+02 0.  0.
         12    1    1    2    0    0  0.11202283324E+01  0.29940378177E+00  0.21961162432E+00  0.11801624493E+01  0.00000000000E+00 0. -1.
         11    1    3    3    0    0  0.22664100768E+02 -0.20610398989E+02 -0.22760817750E+02  0.38164182620E+02  0.51100000000E-03 0. -1.
        -11    1    3    3    0    0  0.10492374621E+01 -0.83490900125E+01  0.17465777254E+01  0.85941106173E+01  0.51100000000E-03 0.  1.
        -12    1    3    3    0    0 -0.24833566563E+02  0.28660085220E+02  0.20794628400E+02  0.43249544314E+02  0.00000000000E+00 0.  1.
</event>
<event>
 7    1  0.4639347E-015  0.9000777E+02  0.7816164E-02  0.1186339E+00
        -11   -1    0    0    0    0  0.00000000000E+00  0.00000000000E+00  0.45593999997E+02  0.45594000000E+02  0.51100000000E-03 0. -1.
         11   -1    0    0    0    0 -0.00000000000E+00 -0.00000000000E+00 -0.45593999997E+02  0.45594000000E+02  0.51100000000E-03 0.  1.
    9900012    2    1    2    0    0  0.46162265108E+00 -0.86273973700E+00 -0.65993748056E+00  0.90007774257E+02  0.90000036077E+02 0.  0.
         12    1    1    2    0    0 -0.46162265108E+00  0.86273973700E+00  0.65993748056E+00  0.11802257428E+01  0.00000000000E+00 0. -1.
         11    1    3    3    0    0  0.15302727153E+02 -0.67171116386E+01  0.31591011467E+02  0.35739124959E+02  0.51100000000E-03 0. -1.
        -11    1    3    3    0    0 -0.54888433110E+01 -0.14580502986E+02 -0.78208170921E+00  0.15599042287E+02  0.51100000000E-03 0.  1.
        -12    1    3    3    0    0 -0.93522611909E+01  0.20434874888E+02 -0.31468867239E+02  0.38669607010E+02  0.00000000000E+00 0.  1.
</event>
<event>
 7    1  0.4639347E-015  0.9000767E+02  0.7816164E-02  0.1186339E+00
        -11   -1    0    0    0    0  0.00000000000E+00  0.00000000000E+00  0.45593999997E+02  0.45594000000E+02  0.51100000000E-03 0.  1.
         11   -1    0    0    0    0 -0.00000000000E+00 -0.00000000000E+00 -0.45593999997E+02  0.45594000000E+02  0.51100000000E-03 0. -1.
    9900012    2    1    2    0    0  0.10392012576E+01 -0.47574765178E+00  0.29479110348E+00  0.90007670861E+02  0.89999931316E+02 0.  0.
         12    1    1    2    0    0 -0.10392012576E+01  0.47574765178E+00 -0.29479110348E+00  0.11803291391E+01  0.00000000000E+00 0. -1.
         11    1    3    3    0    0  0.54110972373E+01  0.65714986322E+01  0.38548764939E+01  0.93447654133E+01  0.51100000000E-03 0. -1.
        -11    1    3    3    0    0 -0.16600908102E+02  0.29855747539E+02 -0.18697994505E+02  0.38943174109E+02  0.51100000000E-03 0.  1.
         12    1    3    3    0    0  0.12229012123E+02 -0.36902993823E+02  0.15137909114E+02  0.41719731338E+02  0.00000000000E+00 0. -1.
</event>
<event>
 7    1  0.4639347E-015  0.9000772E+02  0.7816164E-02  0.1186339E+00
        -11   -1    0    0    0    0  0.00000000000E+00  0.00000000000E+00  0.45593999997E+02  0.45594000000E+02  0.51100000000E-03 0.  1.
         11   -1    0    0    0    0 -0.00000000000E+00 -0.00000000000E+00 -0.45593999997E+02  0.45594000000E+02  0.51100000000E-03 0. -1.
    9900012    2    1    2    0    0  0.31690373642E+00 -0.67226208636E+00  0.91689572171E+00  0.90007719501E+02  0.89999980599E+02 0.  0.
         12    1    1    2    0    0 -0.31690373642E+00  0.67226208636E+00 -0.91689572171E+00  0.11802804986E+01  0.00000000000E+00 0. -1.
         11    1    3    3    0    0 -0.16174551733E+02 -0.71066016979E+01  0.23366254261E+02  0.29293373823E+02  0.51100000000E-03 0. -1.
        -11    1    3    3    0    0  0.21495949742E+02  0.11002465653E+02  0.11035933360E+02  0.26550365933E+02  0.51100000000E-03 0.  1.
         12    1    3    3    0    0 -0.50044942728E+01 -0.45681260415E+01 -0.33485291900E+02  0.34163979746E+02  0.00000000000E+00 0. -1.
</event>
<event>
 7    1  0.4639347E-015  0.9000768E+02  0.7816164E-02  0.1186339E+00
        -11   -1    0    0    0    0  0.00000000000E+00  0.00000000000E+00  0.45593999997E+02  0.45594000000E+02  0.51100000000E-03 0.  1.
         11   -1    0    0    0    0 -0.00000000000E+00 -0.00000000000E+00 -0.45593999997E+02  0.45594000000E+02  0.51100000000E-03 0. -1.
    9900012    2    1    2    0    0  0.36607236915E-01 -0.74185118787E+00  0.91732043168E+00  0.90007677989E+02  0.89999938539E+02 0.  0.
         12    1    1    2    0    0 -0.36607236915E-01  0.74185118787E+00 -0.91732043168E+00  0.11803220108E+01  0.00000000000E+00 0. -1.
         11    1    3    3    0    0 -0.33685819380E+00 -0.91800158705E+01 -0.88546286922E+01  0.12758942525E+02  0.51100000000E-03 0. -1.
        -11    1    3    3    0    0  0.13482930364E+02  0.63478258972E+01  0.40834270546E+02  0.43468631864E+02  0.51100000000E-03 0.  1.
         12    1    3    3    0    0 -0.13109464933E+02  0.20903387854E+01 -0.31062321422E+02  0.33780103600E+02  0.00000000000E+00 0. -1.
</event>
<event>
 7    1  0.4639347E-015  0.9000779E+02  0.7816164E-02  0.1186339E+00
        -11   -1    0    0    0    0  0.00000000000E+00  0.00000000000E+00  0.45593999997E+02  0.45594000000E+02  0.51100000000E-03 0. -1.
         11   -1    0    0    0    0 -0.00000000000E+00 -0.00000000000E+00 -0.45593999997E+02  0.45594000000E+02  0.51100000000E-03 0.  1.
    9900012    2    1    2    0    0  0.53297727569E+00  0.10511308616E+01 -0.62942128343E-01  0.90007787063E+02  0.90000049052E+02 0.  0.
         12    1    1    2    0    0 -0.53297727569E+00 -0.10511308616E+01  0.62942128343E-01  0.11802129368E+01  0.00000000000E+00 0. -1.
         11    1    3    3    0    0 -0.22993499158E+01 -0.20259413408E+02  0.16093523805E+02  0.25975610684E+02  0.51100000000E-03 0. -1.
        -11    1    3    3    0    0  0.27758840743E+02  0.19837894937E+02 -0.18743877522E+02  0.38928501895E+02  0.51100000000E-03 0.  1.
         12    1    3    3    0    0 -0.24926513552E+02  0.14726493327E+01  0.25874115890E+01  0.25103674485E+02  0.00000000000E+00 0. -1.
</event>
<event>
 7    1  0.4639347E-015  0.9000780E+02  0.7816164E-02  0.1186339E+00
        -11   -1    0    0    0    0  0.00000000000E+00  0.00000000000E+00  0.45593999997E+02  0.45594000000E+02  0.51100000000E-03 0.  1.
         11   -1    0    0    0    0 -0.00000000000E+00 -0.00000000000E+00 -0.45593999997E+02  0.45594000000E+02  0.51100000000E-03 0. -1.
    9900012    2    1    2    0    0 -0.78774950316E+00  0.67700661382E+00 -0.56034985469E+00  0.90007796969E+02  0.90000059089E+02 0.  0.
         12    1    1    2    0    0  0.78774950316E+00 -0.67700661382E+00  0.56034985469E+00  0.11802030311E+01  0.00000000000E+00 0. -1.
         11    1    3    3    0    0 -0.10278231303E+02  0.31538040807E+02 -0.10403642994E+02  0.34763858308E+02  0.51100000000E-03 0. -1.
        -11    1    3    3    0    0  0.15467443231E+02  0.61937684152E+01  0.50215810293E+01  0.17401748291E+02  0.51100000000E-03 0.  1.
        -12    1    3    3    0    0 -0.59769614316E+01 -0.37054802608E+02  0.48217121104E+01  0.37842190370E+02  0.00000000000E+00 0.  1.
</event>
<event>
 7    1  0.4639347E-015  0.9000770E+02  0.7816164E-02  0.1186339E+00
        -11   -1    0    0    0    0  0.00000000000E+00  0.00000000000E+00  0.45593999997E+02  0.45594000000E+02  0.51100000000E-03 0. -1.
         11   -1    0    0    0    0 -0.00000000000E+00 -0.00000000000E+00 -0.45593999997E+02  0.45594000000E+02  0.51100000000E-03 0.  1.
    9900012    2    1    2    0    0 -0.15407103287E+00  0.10944740039E+01 -0.41413400119E+00  0.90007695717E+02  0.89999956501E+02 0.  0.
         12    1    1    2    0    0  0.15407103287E+00 -0.10944740039E+01  0.41413400119E+00  0.11803042825E+01  0.00000000000E+00 0. -1.
         11    1    3    3    0    0  0.46766637042E+01 -0.21163473467E+01  0.47072854051E+01  0.69648148318E+01  0.51100000000E-03 0. -1.
        -11    1    3    3    0    0  0.20529105623E+02 -0.23054968512E+02  0.21704535923E+02  0.37736754374E+02  0.51100000000E-03 0.  1.
         12    1    3    3    0    0 -0.25359840360E+02  0.26265789863E+02 -0.26825955329E+02  0.45306126512E+02  0.00000000000E+00 0. -1.
</event>
<event>
 7    1  0.4639347E-015  0.9000780E+02  0.7816164E-02  0.1186339E+00
        -11   -1    0    0    0    0  0.00000000000E+00  0.00000000000E+00  0.45593999997E+02  0.45594000000E+02  0.51100000000E-03 0.  1.
         11   -1    0    0    0    0 -0.00000000000E+00 -0.00000000000E+00 -0.45593999997E+02  0.45594000000E+02  0.51100000000E-03 0. -1.
    9900012    2    1    2    0    0 -0.51989975242E+00  0.18981049090E-02  0.10595160872E+01  0.90007799299E+02  0.90000061450E+02 0.  0.
         12    1    1    2    0    0  0.51989975242E+00 -0.18981049090E-02 -0.10595160872E+01  0.11802007009E+01  0.00000000000E+00 0. -1.
         11    1    3    3    0    0  0.99028162837E+01  0.18356290930E+01  0.27019345073E+01  0.10427643783E+02  0.51100000000E-03 0. -1.
        -11    1    3    3    0    0  0.24562253076E+02 -0.43589506846E+01  0.25164171468E+02  0.35433603446E+02  0.51100000000E-03 0.  1.
         12    1    3    3    0    0 -0.34984969112E+02  0.25252196966E+01 -0.26806589888E+02  0.44146552070E+02  0.00000000000E+00 0. -1.
</event>
<event>
 7    1  0.4639347E-015  0.9000781E+02  0.7816164E-02  0.1186339E+00
        -11   -1    0    0    0    0  0.00000000000E+00  0.00000000000E+00  0.45593999997E+02  0.45594000000E+02  0.51100000000E-03 0. -1.
         11   -1    0    0    0    0 -0.00000000000E+00 -0.00000000000E+00 -0.45593999997E+02  0.45594000000E+02  0.51100000000E-03 0.  1.
    9900012    2    1    2    0    0 -0.69603987461E+00 -0.49261904185E+00 -0.81590539596E+00  0.90007810760E+02  0.90000073062E+02 0.  0.
         12    1    1    2    0    0  0.69603987461E+00  0.49261904185E+00  0.81590539596E+00  0.11801892402E+01  0.00000000000E+00 0. -1.
         11    1    3    3    0    0 -0.12841439935E+02 -0.14467358722E+01 -0.10714047728E+02  0.16786495861E+02  0.51100000000E-03 0. -1.
        -11    1    3    3    0    0 -0.75099605237E+01  0.17063814371E+02 -0.24291450234E+02  0.30621035624E+02  0.51100000000E-03 0.  1.
         12    1    3    3    0    0  0.19655360584E+02 -0.16109697540E+02  0.34189592566E+02  0.42600279276E+02  0.00000000000E+00 0. -1.
</event>
<event>
 7    1  0.4639347E-015  0.9000779E+02  0.7816164E-02  0.1186339E+00
        -11   -1    0    0    0    0  0.00000000000E+00  0.00000000000E+00  0.45593999997E+02  0.45594000000E+02  0.51100000000E-03 0.  1.
         11   -1    0    0    0    0 -0.00000000000E+00 -0.00000000000E+00 -0.45593999997E+02  0.45594000000E+02  0.51100000000E-03 0. -1.
    9900012    2    1    2    0    0  0.11415434149E+00  0.19181388728E+00  0.11589117719E+01  0.90007788038E+02  0.90000050040E+02 0.  0.
         12    1    1    2    0    0 -0.11415434149E+00 -0.19181388728E+00 -0.11589117719E+01  0.11802119624E+01  0.00000000000E+00 0. -1.
         11    1    3    3    0    0 -0.21211113978E+02  0.29515954568E+02  0.13815183297E+02  0.38883958390E+02  0.51100000000E-03 0. -1.
        -11    1    3    3    0    0  0.91630943882E+01  0.67648876368E+01 -0.18673147241E+01  0.11541787905E+02  0.51100000000E-03 0.  1.
        -12    1    3    3    0    0  0.12162173931E+02 -0.36089028318E+02 -0.10788956801E+02  0.39582041743E+02  0.00000000000E+00 0.  1.
</event>
<event>
 7    1  0.4639347E-015  0.9000783E+02  0.7816164E-02  0.1186339E+00
        -11   -1    0    0    0    0  0.00000000000E+00  0.00000000000E+00  0.45593999997E+02  0.45594000000E+02  0.51100000000E-03 0. -1.
         11   -1    0    0    0    0 -0.00000000000E+00 -0.00000000000E+00 -0.45593999997E+02  0.45594000000E+02  0.51100000000E-03 0.  1.
    9900012    2    1    2    0    0 -0.50628541554E+00  0.49015006528E+00 -0.94669771728E+00  0.90007826887E+02  0.90000089402E+02 0.  0.
         12    1    1    2    0    0  0.50628541554E+00 -0.49015006528E+00  0.94669771728E+00  0.11801731129E+01  0.00000000000E+00 0. -1.
         11    1    3    3    0    0 -0.36584083081E+01 -0.69330344571E+01  0.92462551275E-02  0.78390690701E+01  0.51100000000E-03 0. -1.
        -11    1    3    3    0    0 -0.10345567923E+01 -0.16149218276E+02 -0.36148118601E+02  0.39604974907E+02  0.51100000000E-03 0.  1.
         12    1    3    3    0    0  0.41866796849E+01  0.23572402799E+02  0.35192174629E+02  0.42563782910E+02  0.00000000000E+00 0. -1.
</event>
<event>
 7    1  0.4639347E-015  0.9000771E+02  0.7816164E-02  0.1186339E+00
        -11   -1    0    0    0    0  0.00000000000E+00  0.00000000000E+00  0.45593999997E+02  0.45594000000E+02  0.51100000000E-03 0. -1.
         11   -1    0    0    0    0 -0.00000000000E+00 -0.00000000000E+00 -0.45593999997E+02  0.45594000000E+02  0.51100000000E-03 0.  1.
    9900012    2    1    2    0    0 -0.24625354039E+00 -0.10173464355E+01 -0.54538920746E+00  0.90007710221E+02  0.89999971195E+02 0.  0.
         12    1    1    2    0    0  0.24625354039E+00  0.10173464355E+01  0.54538920746E+00  0.11802897795E+01  0.00000000000E+00 0. -1.
         11    1    3    3    0    0  0.89015320438E+01 -0.19517627438E+01  0.65048776401E+01  0.11196431749E+02  0.51100000000E-03 0. -1.
        -11    1    3    3    0    0 -0.39558968076E+02  0.14820850496E+02 -0.14307048318E+02  0.44601134475E+02  0.51100000000E-03 0.  1.
         12    1    3    3    0    0  0.30411182491E+02 -0.13886434187E+02  0.72567814703E+01  0.34210143997E+02  0.00000000000E+00 0. -1.
</event>
<event>
 7    1  0.4639347E-015  0.9000779E+02  0.7816164E-02  0.1186339E+00
        -11   -1    0    0    0    0  0.00000000000E+00  0.00000000000E+00  0.45593999997E+02  0.45594000000E+02  0.51100000000E-03 0. -1.
         11   -1    0    0    0    0 -0.00000000000E+00 -0.00000000000E+00 -0.45593999997E+02  0.45594000000E+02  0.51100000000E-03 0.  1.
    9900012    2    1    2    0    0 -0.79820440970E+00 -0.15719452354E+00 -0.85501481909E+00  0.90007792078E+02  0.90000054134E+02 0.  0.
         12    1    1    2    0    0  0.79820440970E+00  0.15719452354E+00  0.85501481909E+00  0.11802079218E+01  0.00000000000E+00 0. -1.
         11    1    3    3    0    0 -0.22582587416E+02  0.35372962176E+02 -0.77259793608E-01  0.41966959347E+02  0.51100000000E-03 0. -1.
        -11    1    3    3    0    0  0.48482998995E+01 -0.21856569498E+01  0.80180067737E+01  0.96214105567E+01  0.51100000000E-03 0.  1.
        -12    1    3    3    0    0  0.16936083107E+02 -0.33344499750E+02 -0.87957617992E+01  0.38419422174E+02  0.00000000000E+00 0.  1.
</event>
<event>
 7    1  0.4639347E-015  0.9000769E+02  0.7816164E-02  0.1186339E+00
        -11   -1    0    0    0    0  0.00000000000E+00  0.00000000000E+00  0.45593999997E+02  0.45594000000E+02  0.51100000000E-03 0.  1.
         11   -1    0    0    0    0 -0.00000000000E+00 -0.00000000000E+00 -0.45593999997E+02  0.45594000000E+02  0.51100000000E-03 0. -1.
    9900012    2    1    2    0    0 -0.45443991435E+00 -0.97298610155E+00 -0.48980558482E+00  0.90007691947E+02  0.89999952680E+02 0.  0.
         12    1    1    2    0    0  0.45443991435E+00  0.97298610155E+00  0.48980558482E+00  0.11803080532E+01  0.00000000000E+00 0. -1.
         11    1    3    3    0    0  0.11748179962E+02 -0.39921749953E+01  0.48134329547E+01  0.13308881647E+02  0.51100000000E-03 0. -1.
        -11    1    3    3    0    0  0.30675753676E+02 -0.80077080744E+01 -0.66970299341E+01  0.32403324867E+02  0.51100000000E-03 0.  1.
        -12    1    3    3    0    0 -0.42878373553E+02  0.11026896968E+02  0.13937913946E+01  0.44295485433E+02  0.00000000000E+00 0.  1.
</event>
<event>
 7    1  0.4639347E-015  0.9000863E+02  0.7816164E-02  0.1186337E+00
        -11   -1    0    0    0    0  0.00000000000E+00  0.00000000000E+00  0.45593999997E+02  0.45594000000E+02  0.51100000000E-03 0.  1.
         11   -1    0    0    0    0 -0.00000000000E+00 -0.00000000000E+00 -0.45593999997E+02  0.45594000000E+02  0.51100000000E-03 0. -1.
    9900012    2    1    2    0    0 -0.11255647589E+01 -0.34667999837E+00 -0.61797151909E-01  0.90008634944E+02  0.90000908121E+02 0.  0.
         12    1    1    2    0    0  0.11255647589E+01  0.34667999837E+00  0.61797151909E-01  0.11793650562E+01  0.00000000000E+00 0. -1.
         11    1    3    3    0    0  0.27698239796E+01 -0.80666743565E+01 -0.32097219567E+01  0.91129290216E+01  0.51100000000E-03 0. -1.
        -11    1    3    3    0    0 -0.26065909550E+02  0.23203251051E+02  0.27557735256E+02  0.44466293669E+02  0.51100000000E-03 0.  1.
         12    1    3    3    0    0  0.22170520811E+02 -0.15483256693E+02 -0.24409810451E+02  0.36429412253E+02  0.00000000000E+00 0. -1.
</event>
<event>
 7    1  0.4639347E-015  0.9000764E+02  0.7816164E-02  0.1186339E+00
        -11   -1    0    0    0    0  0.00000000000E+00  0.00000000000E+00  0.45593999997E+02  0.45594000000E+02  0.51100000000E-03 0.  1.
         11   -1    0    0    0    0 -0.00000000000E+00 -0.00000000000E+00 -0.45593999997E+02  0.45594000000E+02  0.51100000000E-03 0. -1.
    9900012    2    1    2    0    0 -0.11464544587E+01 -0.87875723786E-01 -0.26677250052E+00  0.90007640929E+02  0.89999900990E+02 0.  0.
         12    1    1    2    0    0  0.11464544587E+01  0.87875723786E-01  0.26677250052E+00  0.11803590707E+01  0.00000000000E+00 0. -1.
         11    1    3    3    0    0  0.52519653650E+01 -0.43510998423E+02 -0.88282283751E+01  0.44707132993E+02  0.51100000000E-03 0. -1.
        -11    1    3    3    0    0 -0.34003090268E+01  0.97097523074E+01 -0.37315629910E+00  0.10294689759E+02  0.51100000000E-03 0.  1.
        -12    1    3    3    0    0 -0.29981107968E+01  0.33713370392E+02  0.89346121737E+01  0.35005818177E+02  0.00000000000E+00 0.  1.
</event>
<event>
 7    1  0.4639347E-015  0.9000775E+02  0.7816164E-02  0.1186339E+00
        -11   -1    0    0    0    0  0.00000000000E+00  0.00000000000E+00  0.45593999997E+02  0.45594000000E+02  0.51100000000E-03 0. -1.
         11   -1    0    0    0    0 -0.00000000000E+00 -0.00000000000E+00 -0.45593999997E+02  0.45594000000E+02  0.51100000000E-03 0.  1.
    9900012    2    1    2    0    0  0.57320468656E+00  0.91125616358E+00  0.48377609702E+00  0.90007749721E+02  0.90000011218E+02 0.  0.
         12    1    1    2    0    0 -0.57320468656E+00 -0.91125616358E+00 -0.48377609702E+00  0.11802502787E+01  0.00000000000E+00 0. -1.
         11    1    3    3    0    0  0.12559622075E+02 -0.33661120758E+02  0.40835456208E+00  0.35930236724E+02  0.51100000000E-03 0. -1.
        -11    1    3    3    0    0 -0.11292050758E-02 -0.65891516150E+01  0.81212529121E+01  0.10458091098E+02  0.51100000000E-03 0.  1.
        -12    1    3    3    0    0 -0.11985288184E+02  0.41161528536E+02 -0.80458313772E+01  0.43619421900E+02  0.00000000000E+00 0.  1.
</event>
<event>
 7    1  0.4639347E-015  0.9000809E+02  0.7816164E-02  0.1186338E+00
        -11   -1    0    0    0    0  0.00000000000E+00  0.00000000000E+00  0.45593999997E+02  0.45594000000E+02  0.51100000000E-03 0. -1.
         11   -1    0    0    0    0 -0.00000000000E+00 -0.00000000000E+00 -0.45593999997E+02  0.45594000000E+02  0.51100000000E-03 0.  1.
    9900012    2    1    2    0    0 -0.10614718483E+01 -0.42409816609E+00  0.29257507137E+00  0.90008092414E+02  0.90000358433E+02 0.  0.
         12    1    1    2    0    0  0.10614718483E+01  0.42409816609E+00 -0.29257507137E+00  0.11799075861E+01  0.00000000000E+00 0. -1.
         11    1    3    3    0    0  0.24465123575E+02  0.12638731769E+01  0.32839078060E+02  0.40970046315E+02  0.51100000000E-03 0. -1.
        -11    1    3    3    0    0  0.39395433798E+01 -0.56254707170E+01 -0.48527834202E+01  0.84092466972E+01  0.51100000000E-03 0.  1.
        -12    1    3    3    0    0 -0.29466138803E+02  0.39374993740E+01 -0.27693719569E+02  0.40628799402E+02  0.00000000000E+00 0.  1.
</event>
<event>
 7    1  0.4639347E-015  0.9000777E+02  0.7816164E-02  0.1186339E+00
        -11   -1    0    0    0    0  0.00000000000E+00  0.00000000000E+00  0.45593999997E+02  0.45594000000E+02  0.51100000000E-03 0.  1.
         11   -1    0    0    0    0 -0.00000000000E+00 -0.00000000000E+00 -0.45593999997E+02  0.45594000000E+02  0.51100000000E-03 0. -1.
    9900012    2    1    2    0    0 -0.70687450334E+00 -0.41262222408E+00  0.85030676159E+00  0.90007766865E+02  0.90000028588E+02 0.  0.
         12    1    1    2    0    0  0.70687450334E+00  0.41262222408E+00 -0.85030676159E+00  0.11802331346E+01  0.00000000000E+00 0. -1.
         11    1    3    3    0    0  0.12052837403E+02 -0.36090865336E+02  0.11266037670E+02  0.39683057533E+02  0.51100000000E-03 0. -1.
        -11    1    3    3    0    0 -0.34176386885E+01  0.22969029228E+00  0.84343444703E+01  0.91033608486E+01  0.51100000000E-03 0.  1.
        -12    1    3    3    0    0 -0.93420732179E+01  0.35448552820E+02 -0.18850075379E+02  0.41221348483E+02  0.00000000000E+00 0.  1.
</event>
<event>
 7    1  0.4639347E-015  0.9000772E+02  0.7816164E-02  0.1186339E+00
        -11   -1    0    0    0    0  0.00000000000E+00  0.00000000000E+00  0.45593999997E+02  0.45594000000E+02  0.51100000000E-03 0. -1.
         11   -1    0    0    0    0 -0.00000000000E+00 -0.00000000000E+00 -0.45593999997E+02  0.45594000000E+02  0.51100000000E-03 0.  1.
    9900012    2    1    2    0    0  0.82844533524E+00 -0.96248636225E-01 -0.83514766920E+00  0.90007721599E+02  0.89999982725E+02 0.  0.
         12    1    1    2    0    0 -0.82844533524E+00  0.96248636225E-01  0.83514766920E+00  0.11802784006E+01  0.00000000000E+00 0. -1.
         11    1    3    3    0    0  0.52024569240E+01  0.60167839128E+01 -0.74648756193E+01  0.10908327781E+02  0.51100000000E-03 0. -1.
        -11    1    3    3    0    0 -0.18186751945E+02  0.13215127625E+02 -0.28742399478E+02  0.36490040730E+02  0.51100000000E-03 0.  1.
         12    1    3    3    0    0  0.13812740356E+02 -0.19328160174E+02  0.35372127428E+02  0.42609353089E+02  0.00000000000E+00 0. -1.
</event>
<event>
 7    1  0.4639347E-015  0.9000772E+02  0.7816164E-02  0.1186339E+00
        -11   -1    0    0    0    0  0.00000000000E+00  0.00000000000E+00  0.45593999997E+02  0.45594000000E+02  0.51100000000E-03 0.  1.
         11   -1    0    0    0    0 -0.00000000000E+00 -0.00000000000E+00 -0.45593999997E+02  0.45594000000E+02  0.51100000000E-03 0. -1.
    9900012    2    1    2    0    0 -0.76219173531E+00  0.38635739678E-01  0.90035258463E+00  0.90007718788E+02  0.89999979876E+02 0.  0.
         12    1    1    2    0    0  0.76219173531E+00 -0.38635739678E-01 -0.90035258463E+00  0.11802812116E+01  0.00000000000E+00 0. -1.
         11    1    3    3    0    0  0.12901933413E+02 -0.33520883863E+01  0.75562371759E+01  0.15322959990E+02  0.51100000000E-03 0. -1.
        -11    1    3    3    0    0  0.16934258396E+01 -0.16810870765E+02  0.27414193524E+02  0.32202656316E+02  0.51100000000E-03 0.  1.
         12    1    3    3    0    0 -0.15357550988E+02  0.20201594891E+02 -0.34070078116E+02  0.42482102482E+02  0.00000000000E+00 0. -1.
</event>
<event>
 7    1  0.4639347E-015  0.9000779E+02  0.7816164E-02  0.1186339E+00
        -11   -1    0    0    0    0  0.00000000000E+00  0.00000000000E+00  0.45593999997E+02  0.45594000000E+02  0.51100000000E-03 0.  1.
         11   -1    0    0    0    0 -0.00000000000E+00 -0.00000000000E+00 -0.45593999997E+02  0.45594000000E+02  0.51100000000E-03 0. -1.
    9900012    2    1    2    0    0 -0.44825402237E+00  0.62919822439E+00  0.89222597572E+00  0.90007792702E+02  0.90000054766E+02 0.  0.
         12    1    1    2    0    0  0.44825402237E+00 -0.62919822439E+00 -0.89222597572E+00  0.11802072978E+01  0.00000000000E+00 0. -1.
         11    1    3    3    0    0  0.84946184732E+01  0.23446577990E+00  0.11143606792E+01  0.85706077493E+01  0.51100000000E-03 0. -1.
        -11    1    3    3    0    0  0.24243808799E+02  0.26904980730E+01  0.28481608353E+02  0.37499374122E+02  0.51100000000E-03 0.  1.
         12    1    3    3    0    0 -0.33186681294E+02 -0.22957656285E+01 -0.28703743056E+02  0.43937810831E+02  0.00000000000E+00 0. -1.
</event>
<event>
 7    1  0.4639347E-015  0.9000772E+02  0.7816164E-02  0.1186339E+00
        -11   -1    0    0    0    0  0.00000000000E+00  0.00000000000E+00  0.45593999997E+02  0.45594000000E+02  0.51100000000E-03 0. -1.
         11   -1    0    0    0    0 -0.00000000000E+00 -0.00000000000E+00 -0.45593999997E+02  0.45594000000E+02  0.51100000000E-03 0.  1.
    9900012    2    1    2    0    0 -0.78719592928E+00 -0.83225555150E+00 -0.28411879903E+00  0.90007724513E+02  0.89999985676E+02 0.  0.
         12    1    1    2    0    0  0.78719592928E+00  0.83225555150E+00  0.28411879903E+00  0.11802754874E+01  0.00000000000E+00 0. -1.
         11    1    3    3    0    0  0.22767112994E+01  0.92352408390E+01 -0.19863451490E+00  0.95138080508E+01  0.51100000000E-03 0. -1.
        -11    1    3    3    0    0 -0.57810032330E+01  0.18629508263E+02 -0.32007807887E+02  0.37483040732E+02  0.51100000000E-03 0.  1.
         12    1    3    3    0    0  0.27170960043E+01 -0.28697004654E+02  0.31922323603E+02  0.43010875730E+02  0.00000000000E+00 0. -1.
</event>
<event>
 7    1  0.8376059E-015  0.9000777E+02  0.7816164E-02  0.1186339E+00
        -11   -1    0    0    0    0  0.00000000000E+00  0.00000000000E+00  0.45593999997E+02  0.45594000000E+02  0.51100000000E-03 0. -1.
         11   -1    0    0    0    0 -0.00000000000E+00 -0.00000000000E+00 -0.45593999997E+02  0.45594000000E+02  0.51100000000E-03 0.  1.
    9900012    2    1    2    0    0 -0.37559525849E+00  0.83679515983E+00 -0.74272973775E+00  0.90007768920E+02  0.90000030670E+02 0.  0.
         12    1    1    2    0    0  0.37559525849E+00 -0.83679515983E+00  0.74272973775E+00  0.11802310795E+01  0.00000000000E+00 0. -1.
         11    1    3    3    0    0 -0.72658281415E+01  0.56658864620E+01  0.77863486871E+00  0.92466642905E+01  0.51100000000E-03 0. -1.
        -11    1    3    3    0    0 -0.20792521298E+02  0.16694673571E+02 -0.26589078265E+02  0.37656608328E+02  0.51100000000E-03 0.  1.
         12    1    3    3    0    0  0.27682754181E+02 -0.21523764873E+02  0.25067713658E+02  0.43104496302E+02  0.00000000000E+00 0. -1.
</event>
<event>
 7    1  0.4639347E-015  0.9000766E+02  0.7816164E-02  0.1186339E+00
        -11   -1    0    0    0    0  0.00000000000E+00  0.00000000000E+00  0.45593999997E+02  0.45594000000E+02  0.51100000000E-03 0.  1.
         11   -1    0    0    0    0 -0.00000000000E+00 -0.00000000000E+00 -0.45593999997E+02  0.45594000000E+02  0.51100000000E-03 0. -1.
    9900012    2    1    2    0    0  0.98693673811E+00  0.29134874330E+00  0.57816831749E+00  0.90007658177E+02  0.89999918465E+02 0.  0.
         12    1    1    2    0    0 -0.98693673811E+00 -0.29134874330E+00 -0.57816831749E+00  0.11803418228E+01  0.00000000000E+00 0. -1.
         11    1    3    3    0    0  0.63783708639E+01 -0.23423633386E+02 -0.35756731831E+02  0.43219140290E+02  0.51100000000E-03 0. -1.
        -11    1    3    3    0    0  0.47741496919E+01  0.55358068333E+01  0.40193283659E+01  0.83422217275E+01  0.51100000000E-03 0.  1.
        -12    1    3    3    0    0 -0.10165583818E+02  0.18179175296E+02  0.32315571783E+02  0.38446296160E+02  0.00000000000E+00 0.  1.
</event>
<event>
 7    1  0.4639347E-015  0.9000776E+02  0.7816164E-02  0.1186339E+00
        -11   -1    0    0    0    0  0.00000000000E+00  0.00000000000E+00  0.45593999997E+02  0.45594000000E+02  0.51100000000E-03 0.  1.
         11   -1    0    0    0    0 -0.00000000000E+00 -0.00000000000E+00 -0.45593999997E+02  0.45594000000E+02  0.51100000000E-03 0. -1.
    9900012    2    1    2    0    0  0.11069098274E+01  0.25772373817E+00  0.31828074017E+00  0.90007757008E+02  0.90000018600E+02 0.  0.
         12    1    1    2    0    0 -0.11069098274E+01 -0.25772373817E+00 -0.31828074017E+00  0.11802429922E+01  0.00000000000E+00 0. -1.
         11    1    3    3    0    0 -0.37088606982E+02  0.15269332596E+02 -0.41872286198E+00  0.40111003664E+02  0.51100000000E-03 0. -1.
        -11    1    3    3    0    0  0.27928064609E+01  0.21711374473E+01 -0.87319927580E+01  0.94213217507E+01  0.51100000000E-03 0.  1.
        -12    1    3    3    0    0  0.35402710349E+02 -0.17182746305E+02  0.94689963602E+01  0.40475431593E+02  0.00000000000E+00 0.  1.
</event>
<event>
 7    1  0.4639347E-015  0.9000776E+02  0.7816164E-02  0.1186339E+00
        -11   -1    0    0    0    0  0.00000000000E+00  0.00000000000E+00  0.45593999997E+02  0.45594000000E+02  0.51100000000E-03 0. -1.
         11   -1    0    0    0    0 -0.00000000000E+00 -0.00000000000E+00 -0.45593999997E+02  0.45594000000E+02  0.51100000000E-03 0.  1.
    9900012    2    1    2    0    0 -0.28345226720E+00 -0.79387433405E+00 -0.82606037507E+00  0.90007763842E+02  0.90000025524E+02 0.  0.
         12    1    1    2    0    0  0.28345226720E+00  0.79387433405E+00  0.82606037507E+00  0.11802361583E+01  0.00000000000E+00 0. -1.
         11    1    3    3    0    0  0.12345254993E+02 -0.35189410932E+01  0.33873250081E+02  0.36224098865E+02  0.51100000000E-03 0. -1.
        -11    1    3    3    0    0 -0.61442659372E+01 -0.66486550527E+01  0.64300652910E+01  0.11104159483E+02  0.51100000000E-03 0.  1.
        -12    1    3    3    0    0 -0.64844413229E+01  0.93737218119E+01 -0.41129375747E+02  0.42679505494E+02  0.00000000000E+00 0.  1.
</event>
<event>
 7    1  0.4639347E-015  0.9000761E+02  0.7816164E-02  0.1186339E+00
        -11   -1    0    0    0    0  0.00000000000E+00  0.00000000000E+00  0.45593999997E+02  0.45594000000E+02  0.51100000000E-03 0.  1.
         11   -1    0    0    0    0 -0.00000000000E+00 -0.00000000000E+00 -0.45593999997E+02  0.45594000000E+02  0.51100000000E-03 0. -1.
    9900012    2    1    2    0    0 -0.67216307648E+00  0.42809018916E+00  0.87078269486E+00  0.90007607306E+02  0.89999866922E+02 0.  0.
         12    1    1    2    0    0  0.67216307648E+00 -0.42809018916E+00 -0.87078269486E+00  0.11803926945E+01  0.00000000000E+00 0. -1.
         11    1    3    3    0    0 -0.65688115041E+01 -0.15597934869E+00  0.69821432489E+01  0.95876972597E+01  0.51100000000E-03 0. -1.
        -11    1    3    3    0    0 -0.22039367882E+02  0.17604050384E+02 -0.29030789665E+02  0.40477439091E+02  0.51100000000E-03 0.  1.
         12    1    3    3    0    0  0.27936016309E+02 -0.17019980846E+02  0.22919429111E+02  0.39942470955E+02  0.00000000000E+00 0. -1.
</event>
<event>
 7    1  0.4639347E-015  0.9000777E+02  0.7816164E-02  0.1186339E+00
        -11   -1    0    0    0    0  0.00000000000E+00  0.00000000000E+00  0.45593999997E+02  0.45594000000E+02  0.51100000000E-03 0. -1.
         11   -1    0    0    0    0 -0.00000000000E+00 -0.00000000000E+00 -0.45593999997E+02  0.45594000000E+02  0.51100000000E-03 0.  1.
    9900012    2    1    2    0    0 -0.10477338613E+01 -0.54305137368E+00 -0.17316228823E-01  0.90007766595E+02  0.90000028314E+02 0.  0.
         12    1    1    2    0    0  0.10477338613E+01  0.54305137368E+00  0.17316228823E-01  0.11802334050E+01  0.00000000000E+00 0. -1.
         11    1    3    3    0    0  0.36990369833E+02 -0.12819530615E+02  0.85305931572E+00  0.39158083917E+02  0.51100000000E-03 0. -1.
        -11    1    3    3    0    0 -0.22151934313E+01 -0.62772443409E+01 -0.74317208623E+01  0.99770413295E+01  0.51100000000E-03 0.  1.
        -12    1    3    3    0    0 -0.35822910263E+02  0.18553723582E+02  0.65613453178E+01  0.40872641349E+02  0.00000000000E+00 0.  1.
</event>
<event>
 7    1  0.4639347E-015  0.9000776E+02  0.7816164E-02  0.1186339E+00
        -11   -1    0    0    0    0  0.00000000000E+00  0.00000000000E+00  0.45593999997E+02  0.45594000000E+02  0.51100000000E-03 0.  1.
         11   -1    0    0    0    0 -0.00000000000E+00 -0.00000000000E+00 -0.45593999997E+02  0.45594000000E+02  0.51100000000E-03 0. -1.
    9900012    2    1    2    0    0  0.53770557627E+00 -0.34564885936E+00  0.99215189111E+00  0.90007760280E+02  0.90000021916E+02 0.  0.
         12    1    1    2    0    0 -0.53770557627E+00  0.34564885936E+00 -0.99215189111E+00  0.11802397196E+01  0.00000000000E+00 0. -1.
         11    1    3    3    0    0  0.89270158946E+01  0.82975438474E+01 -0.36299671370E+02  0.38291082363E+02  0.51100000000E-03 0. -1.
        -11    1    3    3    0    0 -0.86474605748E+01  0.11532117533E+01 -0.37684541815E+01  0.95031425812E+01  0.51100000000E-03 0.  1.
        -12    1    3    3    0    0  0.25815025645E+00 -0.97964044601E+01  0.41060277443E+02  0.42213535336E+02  0.00000000000E+00 0.  1.
</event>
<event>
 7    1  0.4639347E-015  0.9000730E+02  0.7816164E-02  0.1186340E+00
        -11   -1    0    0    0    0  0.00000000000E+00  0.00000000000E+00  0.45593999997E+02  0.45594000000E+02  0.51100000000E-03 0.  1.
         11   -1    0    0    0    0 -0.00000000000E+00 -0.00000000000E+00 -0.45593999997E+02  0.45594000000E+02  0.51100000000E-03 0. -1.
    9900012    2    1    2    0    0  0.13581927933E+00 -0.10124215825E+01  0.59212730452E+00  0.90007297208E+02  0.89999552730E+02 0.  0.
         12    1    1    2    0    0 -0.13581927933E+00  0.10124215825E+01 -0.59212730452E+00  0.11807027916E+01  0.00000000000E+00 0. -1.
         11    1    3    3    0    0 -0.13831116324E+02 -0.86034410573E+01 -0.14364463199E+01  0.16351830328E+02  0.51100000000E-03 0. -1.
        -11    1    3    3    0    0 -0.23816259056E+02 -0.15083514368E+02 -0.61099700404E+01  0.28845421392E+02  0.51100000000E-03 0.  1.
         12    1    3    3    0    0  0.37783194659E+02  0.22674533843E+02  0.81385436649E+01  0.44810045488E+02  0.00000000000E+00 0. -1.
</event>
<event>
 7    1  0.4639347E-015  0.9000780E+02  0.7816164E-02  0.1186339E+00
        -11   -1    0    0    0    0  0.00000000000E+00  0.00000000000E+00  0.45593999997E+02  0.45594000000E+02  0.51100000000E-03 0.  1.
         11   -1    0    0    0    0 -0.00000000000E+00 -0.00000000000E+00 -0.45593999997E+02  0.45594000000E+02  0.51100000000E-03 0. -1.
    9900012    2    1    2    0    0 -0.37881010198E-02  0.11496032114E+01  0.26694840783E+00  0.90007803683E+02  0.90000065892E+02 0.  0.
         12    1    1    2    0    0  0.37881010197E-02 -0.11496032114E+01 -0.26694840783E+00  0.11801963167E+01  0.00000000000E+00 0. -1.
         11    1    3    3    0    0  0.16250232844E+02 -0.28631449167E+01  0.49425614424E+00  0.16507936143E+02  0.51100000000E-03 0. -1.
        -11    1    3    3    0    0  0.17083933824E+02 -0.19826819445E+02  0.14535626768E+02  0.29937401524E+02  0.51100000000E-03 0.  1.
         12    1    3    3    0    0 -0.33337954769E+02  0.23839567573E+02 -0.14762934504E+02  0.43562466017E+02  0.00000000000E+00 0. -1.
</event>
<event>
 7    1  0.4639347E-015  0.9000773E+02  0.7816164E-02  0.1186339E+00
        -11   -1    0    0    0    0  0.00000000000E+00  0.00000000000E+00  0.45593999997E+02  0.45594000000E+02  0.51100000000E-03 0.  1.
         11   -1    0    0    0    0 -0.00000000000E+00 -0.00000000000E+00 -0.45593999997E+02  0.45594000000E+02  0.51100000000E-03 0. -1.
    9900012    2    1    2    0    0 -0.10907191370E+01 -0.43789821407E+00 -0.10779952907E+00  0.90007727226E+02  0.89999988426E+02 0.  0.
         12    1    1    2    0    0  0.10907191370E+01  0.43789821407E+00  0.10779952907E+00  0.11802727737E+01  0.00000000000E+00 0. -1.
         11    1    3    3    0    0  0.16677737785E+02 -0.26526805502E+02 -0.21490801965E+02  0.37995696034E+02  0.51100000000E-03 0. -1.
        -11    1    3    3    0    0 -0.68421717245E+01 -0.84255878973E+01  0.23275120092E+01  0.11100592675E+02  0.51100000000E-03 0.  1.
        -12    1    3    3    0    0 -0.10926285198E+02  0.34514495186E+02  0.19055490426E+02  0.40911438517E+02  0.00000000000E+00 0.  1.
</event>
<event>
 7    1  0.4639347E-015  0.9000771E+02  0.7816164E-02  0.1186339E+00
        -11   -1    0    0    0    0  0.00000000000E+00  0.00000000000E+00  0.45593999997E+02  0.45594000000E+02  0.51100000000E-03 0.  1.
         11   -1    0    0    0    0 -0.00000000000E+00 -0.00000000000E+00 -0.45593999997E+02  0.45594000000E+02  0.51100000000E-03 0. -1.
    9900012    2    1    2    0    0 -0.10423354893E+01 -0.36020755771E+00  0.42055554199E+00  0.90007712018E+02  0.89999973016E+02 0.  0.
         12    1    1    2    0    0  0.10423354893E+01  0.36020755771E+00 -0.42055554199E+00  0.11802879821E+01  0.00000000000E+00 0. -1.
         11    1    3    3    0    0  0.15431815193E+01 -0.34790377527E+02 -0.24976065749E+02  0.42855053824E+02  0.51100000000E-03 0. -1.
        -11    1    3    3    0    0 -0.23406891435E+00  0.57092715134E+01  0.15765100914E+02  0.16768690365E+02  0.51100000000E-03 0.  1.
        -12    1    3    3    0    0 -0.23514480942E+01  0.28720898456E+02  0.96315203777E+01  0.30383967829E+02  0.00000000000E+00 0.  1.
</event>
<event>
 7    1  0.4639347E-015  0.9000772E+02  0.7816164E-02  0.1186339E+00
        -11   -1    0    0    0    0  0.00000000000E+00  0.00000000000E+00  0.45593999997E+02  0.45594000000E+02  0.51100000000E-03 0.  1.
         11   -1    0    0    0    0 -0.00000000000E+00 -0.00000000000E+00 -0.45593999997E+02  0.45594000000E+02  0.51100000000E-03 0. -1.
    9900012    2    1    2    0    0  0.10622618191E+01 -0.88049116369E-01  0.50686920844E+00  0.90007716469E+02  0.89999977526E+02 0.  0.
         12    1    1    2    0    0 -0.10622618191E+01  0.88049116369E-01 -0.50686920844E+00  0.11802835310E+01  0.00000000000E+00 0. -1.
         11    1    3    3    0    0  0.18689840243E+02 -0.30760234359E+02 -0.15692850851E+02  0.39265350046E+02  0.51100000000E-03 0. -1.
        -11    1    3    3    0    0 -0.36623316150E+01 -0.70030303033E+01  0.24239803939E+01  0.82662438567E+01  0.51100000000E-03 0.  1.
        -12    1    3    3    0    0 -0.13965246809E+02  0.37675215546E+02  0.13775739666E+02  0.42476122566E+02  0.00000000000E+00 0.  1.
</event>
<event>
 7    1  0.4639347E-015  0.9000805E+02  0.7816164E-02  0.1186338E+00
        -11   -1    0    0    0    0  0.00000000000E+00  0.00000000000E+00  0.45593999997E+02  0.45594000000E+02  0.51100000000E-03 0.  1.
         11   -1    0    0    0    0 -0.00000000000E+00 -0.00000000000E+00 -0.45593999997E+02  0.45594000000E+02  0.51100000000E-03 0. -1.
    9900012    2    1    2    0    0 -0.94895016363E+00 -0.49870624138E+00  0.49302406532E+00  0.90008047858E+02  0.90000313289E+02 0.  0.
         12    1    1    2    0    0  0.94895016363E+00  0.49870624138E+00 -0.49302406532E+00  0.11799521419E+01  0.00000000000E+00 0. -1.
         11    1    3    3    0    0  0.12213700651E+02  0.69288629547E+01 -0.35271769473E+02  0.37964211404E+02  0.51100000000E-03 0. -1.
        -11    1    3    3    0    0  0.99157089108E+01  0.25307092273E+01  0.28380092713E+01  0.10619796104E+02  0.51100000000E-03 0.  1.
        -12    1    3    3    0    0 -0.23078359726E+02 -0.99582784234E+01  0.32926784268E+02  0.41424040351E+02  0.00000000000E+00 0.  1.
</event>
<event>
 7    1  0.4639347E-015  0.9000775E+02  0.7816164E-02  0.1186339E+00
        -11   -1    0    0    0    0  0.00000000000E+00  0.00000000000E+00  0.45593999997E+02  0.45594000000E+02  0.51100000000E-03 0. -1.
         11   -1    0    0    0    0 -0.00000000000E+00 -0.00000000000E+00 -0.45593999997E+02  0.45594000000E+02  0.51100000000E-03 0.  1.
    9900012    2    1    2    0    0 -0.10302030743E+01  0.33793479923E+00  0.46634234993E+00  0.90007748548E+02  0.90000010029E+02 0.  0.
         12    1    1    2    0    0  0.10302030743E+01 -0.33793479923E+00 -0.46634234993E+00  0.11802514521E+01  0.00000000000E+00 0. -1.
         11    1    3    3    0    0 -0.80479675085E+01 -0.34374583066E+01 -0.43748919969E+01  0.97839450567E+01  0.51100000000E-03 0. -1.
        -11    1    3    3    0    0 -0.25886467552E+02  0.18168894732E+02 -0.19206678742E+02  0.37001546544E+02  0.51100000000E-03 0.  1.
         12    1    3    3    0    0  0.32904231986E+02 -0.14393501627E+02  0.24047913088E+02  0.43222256947E+02  0.00000000000E+00 0. -1.
</event>
<event>
 7    1  0.4639347E-015  0.9000777E+02  0.7816164E-02  0.1186339E+00
        -11   -1    0    0    0    0  0.00000000000E+00  0.00000000000E+00  0.45593999997E+02  0.45594000000E+02  0.51100000000E-03 0.  1.
         11   -1    0    0    0    0 -0.00000000000E+00 -0.00000000000E+00 -0.45593999997E+02  0.45594000000E+02  0.51100000000E-03 0. -1.
    9900012    2    1    2    0    0  0.19403157199E+00 -0.11641305093E+01 -0.95580284936E-02  0.90007771442E+02  0.90000033225E+02 0.  0.
         12    1    1    2    0    0 -0.19403157199E+00  0.11641305093E+01  0.95580284936E-02  0.11802285581E+01  0.00000000000E+00 0. -1.
         11    1    3    3    0    0  0.10858797471E+01 -0.15657703360E+01 -0.99706187702E+01  0.10151059575E+02  0.51100000000E-03 0. -1.
        -11    1    3    3    0    0  0.35815151262E+02 -0.54179037285E+01 -0.10124547449E+02  0.37610971830E+02  0.51100000000E-03 0.  1.
         12    1    3    3    0    0 -0.36706999437E+02  0.58195435552E+01  0.20085608191E+02  0.42245740037E+02  0.00000000000E+00 0. -1.
</event>
<event>
 7    1  0.4639347E-015  0.9000756E+02  0.7816164E-02  0.1186339E+00
        -11   -1    0    0    0    0  0.00000000000E+00  0.00000000000E+00  0.45593999997E+02  0.45594000000E+02  0.51100000000E-03 0. -1.
         11   -1    0    0    0    0 -0.00000000000E+00 -0.00000000000E+00 -0.45593999997E+02  0.45594000000E+02  0.51100000000E-03 0.  1.
    9900012    2    1    2    0    0  0.10616268907E+01 -0.38994804838E+00  0.33811237464E+00  0.90007563168E+02  0.89999822202E+02 0.  0.
         12    1    1    2    0    0 -0.10616268907E+01  0.38994804838E+00 -0.33811237464E+00  0.11804368316E+01  0.00000000000E+00 0. -1.
         11    1    3    3    0    0 -0.47028399302E+00 -0.84825896137E+01  0.55227673605E+01  0.10132939019E+02  0.51100000000E-03 0. -1.
        -11    1    3    3    0    0 -0.14305123834E+02 -0.20678200806E+02 -0.29683697281E+02  0.38901753701E+02  0.51100000000E-03 0.  1.
         12    1    3    3    0    0  0.15837034718E+02  0.28770842371E+02  0.24499042295E+02  0.40972870448E+02  0.00000000000E+00 0. -1.
</event>
<event>
 7    1  0.4639347E-015  0.9000769E+02  0.7816164E-02  0.1186339E+00
        -11   -1    0    0    0    0  0.00000000000E+00  0.00000000000E+00  0.45593999997E+02  0.45594000000E+02  0.51100000000E-03 0. -1.
         11   -1    0    0    0    0 -0.00000000000E+00 -0.00000000000E+00 -0.45593999997E+02  0.45594000000E+02  0.51100000000E-03 0.  1.
    9900012    2    1    2    0    0  0.78178393990E-01 -0.15574138442E+00 -0.11673732459E+01  0.90007691763E+02  0.89999952494E+02 0.  0.
         12    1    1    2    0    0 -0.78178393990E-01  0.15574138442E+00  0.11673732459E+01  0.11803082374E+01  0.00000000000E+00 0. -1.
         11    1    3    3    0    0 -0.59461127605E+01 -0.24470565747E+02 -0.36493601582E+01  0.25445680866E+02  0.51100000000E-03 0. -1.
        -11    1    3    3    0    0  0.25802138981E+01 -0.48616429516E+00  0.28402040634E+02  0.28523144495E+02  0.51100000000E-03 0.  1.
        -12    1    3    3    0    0  0.34440772563E+01  0.24800988658E+02 -0.25920053721E+02  0.36038866401E+02  0.00000000000E+00 0.  1.
</event>
<event>
 7    1  0.4639347E-015  0.9000752E+02  0.7816164E-02  0.1186339E+00
        -11   -1    0    0    0    0  0.00000000000E+00  0.00000000000E+00  0.45593999997E+02  0.45594000000E+02  0.51100000000E-03 0. -1.
         11   -1    0    0    0    0 -0.00000000000E+00 -0.00000000000E+00 -0.45593999997E+02  0.45594000000E+02  0.51100000000E-03 0.  1.
    9900012    2    1    2    0    0 -0.26172193881E+00 -0.23639393584E+00 -0.11265628917E+01  0.90007523649E+02  0.89999782161E+02 0.  0.
         12    1    1    2    0    0  0.26172193881E+00  0.23639393584E+00  0.11265628917E+01  0.11804763509E+01  0.00000000000E+00 0. -1.
         11    1    3    3    0    0  0.22378220403E+01 -0.93522425822E+01 -0.47341967747E+01  0.10718437767E+02  0.51100000000E-03 0. -1.
        -11    1    3    3    0    0 -0.71663191311E+01  0.31381519591E+02 -0.26401451048E+02  0.41631628834E+02  0.51100000000E-03 0.  1.
         12    1    3    3    0    0  0.46667751520E+01 -0.22265670944E+02  0.30009084931E+02  0.37657457048E+02  0.00000000000E+00 0. -1.
</event>
<event>
 7    1  0.4639347E-015  0.9000778E+02  0.7816164E-02  0.1186339E+00
        -11   -1    0    0    0    0  0.00000000000E+00  0.00000000000E+00  0.45593999997E+02  0.45594000000E+02  0.51100000000E-03 0.  1.
         11   -1    0    0    0    0 -0.00000000000E+00 -0.00000000000E+00 -0.45593999997E+02  0.45594000000E+02  0.51100000000E-03 0. -1.
    9900012    2    1    2    0    0 -0.86630456950E-01  0.54523232370E+00  0.10431429677E+01  0.90007775287E+02  0.90000037120E+02 0.  0.
         12    1    1    2    0    0  0.86630456950E-01 -0.54523232370E+00 -0.10431429677E+01  0.11802247133E+01  0.00000000000E+00 0. -1.
         11    1    3    3    0    0  0.77062848842E+01 -0.41947862098E+01  0.72755120220E+01  0.11398075869E+02  0.51100000000E-03 0. -1.
        -11    1    3    3    0    0  0.20470304285E+02  0.77280405935E+01  0.27083905087E+02  0.34818010913E+02  0.51100000000E-03 0.  1.
         12    1    3    3    0    0 -0.28263219626E+02 -0.29880220600E+01 -0.33316274141E+02  0.43791688505E+02  0.00000000000E+00 0. -1.
</event>
<event>
 7    1  0.4639347E-015  0.9000771E+02  0.7816164E-02  0.1186339E+00
        -11   -1    0    0    0    0  0.00000000000E+00  0.00000000000E+00  0.45593999997E+02  0.45594000000E+02  0.51100000000E-03 0.  1.
         11   -1    0    0    0    0 -0.00000000000E+00 -0.00000000000E+00 -0.45593999997E+02  0.45594000000E+02  0.51100000000E-03 0. -1.
    9900012    2    1    2    0    0  0.43898802820E-01 -0.10941562442E+01  0.44042940505E+00  0.90007710606E+02  0.89999971586E+02 0.  0.
         12    1    1    2    0    0 -0.43898802820E-01  0.10941562442E+01 -0.44042940505E+00  0.11802893935E+01  0.00000000000E+00 0. -1.
         11    1    3    3    0    0 -0.25261009261E+02  0.13420652739E+02 -0.20767554616E+02  0.35348604412E+02  0.51100000000E-03 0. -1.
        -11    1    3    3    0    0 -0.79836511856E+01 -0.30177437371E+01 -0.57642070724E+01  0.10299104182E+02  0.51100000000E-03 0.  1.
        -12    1    3    3    0    0  0.33288559250E+02 -0.11497065246E+02  0.26972191094E+02  0.44360002013E+02  0.00000000000E+00 0.  1.
</event>
<event>
 7    1  0.4639347E-015  0.9000780E+02  0.7816164E-02  0.1186339E+00
        -11   -1    0    0    0    0  0.00000000000E+00  0.00000000000E+00  0.45593999997E+02  0.45594000000E+02  0.51100000000E-03 0. -1.
         11   -1    0    0    0    0 -0.00000000000E+00 -0.00000000000E+00 -0.45593999997E+02  0.45594000000E+02  0.51100000000E-03 0.  1.
    9900012    2    1    2    0    0  0.15610029170E+00 -0.70202808103E+00 -0.93576919306E+00  0.90007798869E+02  0.90000061014E+02 0.  0.
         12    1    1    2    0    0 -0.15610029170E+00  0.70202808103E+00  0.93576919306E+00  0.11802011313E+01  0.00000000000E+00 0. -1.
         11    1    3    3    0    0 -0.94247006365E+00 -0.11615310417E+02 -0.51938785171E+01  0.12758528920E+02  0.51100000000E-03 0. -1.
        -11    1    3    3    0    0  0.29865991311E+02 -0.82546889222E+01  0.22376186627E+02  0.38220558008E+02  0.51100000000E-03 0.  1.
         12    1    3    3    0    0 -0.28767420956E+02  0.19167971258E+02 -0.18118077303E+02  0.39028711941E+02  0.00000000000E+00 0. -1.
</event>
<event>
 7    1  0.4639347E-015  0.9000779E+02  0.7816164E-02  0.1186339E+00
        -11   -1    0    0    0    0  0.00000000000E+00  0.00000000000E+00  0.45593999997E+02  0.45594000000E+02  0.51100000000E-03 0. -1.
         11   -1    0    0    0    0 -0.00000000000E+00 -0.00000000000E+00 -0.45593999997E+02  0.45594000000E+02  0.51100000000E-03 0.  1.
    9900012    2    1    2    0    0  0.15735416715E+00 -0.11634954260E+01 -0.12008816107E+00  0.90007786838E+02  0.90000048825E+02 0.  0.
         12    1    1    2    0    0 -0.15735416715E+00  0.11634954260E+01  0.12008816107E+00  0.11802131615E+01  0.00000000000E+00 0. -1.
         11    1    3    3    0    0  0.19139047061E+02  0.24362325600E+02  0.17896598011E+02  0.35778684320E+02  0.51100000000E-03 0. -1.
        -11    1    3    3    0    0 -0.28075437737E+01  0.33158367825E+01  0.99908894178E+01  0.10894721072E+02  0.51100000000E-03 0.  1.
        -12    1    3    3    0    0 -0.16174149120E+02 -0.28841657809E+02 -0.28007575590E+02  0.43334381447E+02  0.00000000000E+00 0.  1.
</event>
<event>
 7    1  0.4639347E-015  0.9000770E+02  0.7816164E-02  0.1186339E+00
        -11   -1    0    0    0    0  0.00000000000E+00  0.00000000000E+00  0.45593999997E+02  0.45594000000E+02  0.51100000000E-03 0.  1.
         11   -1    0    0    0    0 -0.00000000000E+00 -0.00000000000E+00 -0.45593999997E+02  0.45594000000E+02  0.51100000000E-03 0. -1.
    9900012    2    1    2    0    0  0.33515302652E+00  0.54115969898E-01  0.11304250442E+01  0.90007696281E+02  0.89999957072E+02 0.  0.
         12    1    1    2    0    0 -0.33515302652E+00 -0.54115969898E-01 -0.11304250442E+01  0.11803037194E+01  0.00000000000E+00 0. -1.
         11    1    3    3    0    0 -0.17463951155E+02  0.18167432695E+02 -0.27609742100E+02  0.37381052149E+02  0.51100000000E-03 0. -1.
        -11    1    3    3    0    0  0.49795312536E+00 -0.78818968935E-01 -0.80966503428E+01  0.81123311557E+01  0.51100000000E-03 0.  1.
        -12    1    3    3    0    0  0.17301151056E+02 -0.18034497757E+02  0.36836817487E+02  0.44514312976E+02  0.00000000000E+00 0.  1.
</event>
<event>
 7    1  0.4639347E-015  0.9000774E+02  0.7816164E-02  0.1186339E+00
        -11   -1    0    0    0    0  0.00000000000E+00  0.00000000000E+00  0.45593999997E+02  0.45594000000E+02  0.51100000000E-03 0. -1.
         11   -1    0    0    0    0 -0.00000000000E+00 -0.00000000000E+00 -0.45593999997E+02  0.45594000000E+02  0.51100000000E-03 0.  1.
    9900012    2    1    2    0    0 -0.45696081110E+00  0.42630568284E+00 -0.10012345270E+01  0.90007737192E+02  0.89999998523E+02 0.  0.
         12    1    1    2    0    0  0.45696081110E+00 -0.42630568284E+00  0.10012345270E+01  0.11802628081E+01  0.00000000000E+00 0. -1.
         11    1    3    3    0    0 -0.28720748563E+02  0.26271282047E+02  0.50910888258E+01  0.39255328863E+02  0.51100000000E-03 0. -1.
        -11    1    3    3    0    0  0.31514041659E+01  0.69034868668E+01 -0.56846996693E+01  0.94818399970E+01  0.51100000000E-03 0.  1.
        -12    1    3    3    0    0  0.25112383586E+02 -0.32748463231E+02 -0.40762368353E+00  0.41270568332E+02  0.00000000000E+00 0.  1.
</event>
<event>
 7    1  0.4639347E-015  0.9000777E+02  0.7816164E-02  0.1186339E+00
        -11   -1    0    0    0    0  0.00000000000E+00  0.00000000000E+00  0.45593999997E+02  0.45594000000E+02  0.51100000000E-03 0. -1.
         11   -1    0    0    0    0 -0.00000000000E+00 -0.00000000000E+00 -0.45593999997E+02  0.45594000000E+02  0.51100000000E-03 0.  1.
    9900012    2    1    2    0    0  0.33900675127E+00 -0.11103390600E+01  0.21253276486E+00  0.90007767573E+02  0.90000029305E+02 0.  0.
         12    1    1    2    0    0 -0.33900675127E+00  0.11103390600E+01 -0.21253276486E+00  0.11802324270E+01  0.00000000000E+00 0. -1.
         11    1    3    3    0    0 -0.14303854739E+02 -0.13384622750E+02  0.35486827581E+02  0.40534717448E+02  0.51100000000E-03 0. -1.
        -11    1    3    3    0    0 -0.51790422989E+01 -0.57314196699E+01 -0.58689062212E+01  0.97013252218E+01  0.51100000000E-03 0.  1.
        -12    1    3    3    0    0  0.19821903789E+02  0.18005703360E+02 -0.29405388595E+02  0.39771724903E+02  0.00000000000E+00 0.  1.
</event>
<event>
 7    1  0.4639347E-015  0.9000772E+02  0.7816164E-02  0.1186339E+00
        -11   -1    0    0    0    0  0.00000000000E+00  0.00000000000E+00  0.45593999997E+02  0.45594000000E+02  0.51100000000E-03 0.  1.
         11   -1    0    0    0    0 -0.00000000000E+00 -0.00000000000E+00 -0.45593999997E+02  0.45594000000E+02  0.51100000000E-03 0. -1.
    9900012    2    1    2    0    0 -0.17573007449E+00  0.10557923877E+01  0.49747985885E+00  0.90007718324E+02  0.89999979406E+02 0.  0.
         12    1    1    2    0    0  0.17573007449E+00 -0.10557923877E+01 -0.49747985885E+00  0.11802816761E+01  0.00000000000E+00 0. -1.
         11    1    3    3    0    0 -0.31244996850E+02 -0.55476338389E+01  0.17468230227E+02  0.36223820021E+02  0.51100000000E-03 0. -1.
        -11    1    3    3    0    0 -0.91580005184E+01  0.28806816601E+01  0.83142029113E+00  0.96363146629E+01  0.51100000000E-03 0.  1.
        -12    1    3    3    0    0  0.40227267294E+02  0.37227445666E+01 -0.17802170659E+02  0.44147583640E+02  0.00000000000E+00 0.  1.
</event>
<event>
 7    1  0.4639347E-015  0.9000771E+02  0.7816164E-02  0.1186339E+00
        -11   -1    0    0    0    0  0.00000000000E+00  0.00000000000E+00  0.45593999997E+02  0.45594000000E+02  0.51100000000E-03 0.  1.
         11   -1    0    0    0    0 -0.00000000000E+00 -0.00000000000E+00 -0.45593999997E+02  0.45594000000E+02  0.51100000000E-03 0. -1.
    9900012    2    1    2    0    0  0.62964826214E+00 -0.99792870447E+00 -0.27514970009E-01  0.90007713718E+02  0.89999974739E+02 0.  0.
         12    1    1    2    0    0 -0.62964826214E+00  0.99792870447E+00  0.27514970009E-01  0.11802862817E+01  0.00000000000E+00 0. -1.
         11    1    3    3    0    0 -0.15401165461E+02  0.90413338257E+01  0.33878218204E+02  0.38297196815E+02  0.51100000000E-03 0. -1.
        -11    1    3    3    0    0  0.66588871459E+01  0.62397769874E+00  0.62286852708E+01  0.91392913650E+01  0.51100000000E-03 0.  1.
        -12    1    3    3    0    0  0.93719265773E+01 -0.10663240229E+02 -0.40134418445E+02  0.42571225539E+02  0.00000000000E+00 0.  1.
</event>
<event>
 7    1  0.4894835E-015  0.9000838E+02  0.7816164E-02  0.1186338E+00
        -11   -1    0    0    0    0  0.00000000000E+00  0.00000000000E+00  0.45593999997E+02  0.45594000000E+02  0.51100000000E-03 0. -1.
         11   -1    0    0    0    0 -0.00000000000E+00 -0.00000000000E+00 -0.45593999997E+02  0.45594000000E+02  0.51100000000E-03 0.  1.
    9900012    2    1    2    0    0 -0.36171124167E-01 -0.10135220853E+00 -0.11747054143E+01  0.90008375725E+02  0.90000645482E+02 0.  0.
         12    1    1    2    0    0  0.36171124167E-01  0.10135220853E+00  0.11747054143E+01  0.11796242753E+01  0.00000000000E+00 0. -1.
         11    1    3    3    0    0  0.74438021101E+01  0.49549078176E+01  0.53106862351E+01  0.10400225473E+02  0.51100000000E-03 0. -1.
        -11    1    3    3    0    0  0.15131012068E+02  0.11245133382E+02 -0.34986306710E+02  0.39742196825E+02  0.51100000000E-03 0.  1.
         12    1    3    3    0    0 -0.22610985302E+02 -0.16301393408E+02  0.28500915061E+02  0.39865953427E+02  0.00000000000E+00 0. -1.
</event>
<event>
 7    1  0.4639347E-015  0.9000775E+02  0.7816164E-02  0.1186339E+00
        -11   -1    0    0    0    0  0.00000000000E+00  0.00000000000E+00  0.45593999997E+02  0.45594000000E+02  0.51100000000E-03 0. -1.
         11   -1    0    0    0    0 -0.00000000000E+00 -0.00000000000E+00 -0.45593999997E+02  0.45594000000E+02  0.51100000000E-03 0.  1.
    9900012    2    1    2    0    0  0.54651563510E+00  0.27979290629E+00 -0.10079843055E+01  0.90007747582E+02  0.90000009050E+02 0.  0.
         12    1    1    2    0    0 -0.54651563510E+00 -0.27979290629E+00  0.10079843055E+01  0.11802524179E+01  0.00000000000E+00 0. -1.
         11    1    3    3    0    0 -0.33351953466E+01  0.30733631019E+02  0.18730731750E+02  0.36145814637E+02  0.51100000000E-03 0. -1.
        -11    1    3    3    0    0  0.33750915252E+01  0.44033439916E+01  0.77051700497E+01  0.94947525964E+01  0.51100000000E-03 0.  1.
        -12    1    3    3    0    0  0.50661945653E+00 -0.34857182105E+02 -0.27443886105E+02  0.44367180349E+02  0.00000000000E+00 0.  1.
</event>
<event>
 7    1  0.4639347E-015  0.9000770E+02  0.7816164E-02  0.1186339E+00
        -11   -1    0    0    0    0  0.00000000000E+00  0.00000000000E+00  0.45593999997E+02  0.45594000000E+02  0.51100000000E-03 0.  1.
         11   -1    0    0    0    0 -0.00000000000E+00 -0.00000000000E+00 -0.45593999997E+02  0.45594000000E+02  0.51100000000E-03 0. -1.
    9900012    2    1    2    0    0 -0.37079658031E+00 -0.10852551631E+01 -0.27897975281E+00  0.90007704031E+02  0.89999964924E+02 0.  0.
         12    1    1    2    0    0  0.37079658031E+00  0.10852551631E+01  0.27897975281E+00  0.11802959694E+01  0.00000000000E+00 0. -1.
         11    1    3    3    0    0 -0.89367497712E+01  0.21246359907E+02  0.20487161609E+02  0.30838240819E+02  0.51100000000E-03 0.  1.
        -11    1    3    3    0    0 -0.98611786131E+00  0.10822046320E+02 -0.22115173252E+02  0.24640819857E+02  0.51100000000E-03 0. -1.
        -12    1    3    3    0    0  0.95520710522E+01 -0.33153661389E+02  0.13490318910E+01  0.34528643355E+02  0.00000000000E+00 0.  1.
</event>
<event>
 7    1  0.4639347E-015  0.9000785E+02  0.7816164E-02  0.1186339E+00
        -11   -1    0    0    0    0  0.00000000000E+00  0.00000000000E+00  0.45593999997E+02  0.45594000000E+02  0.51100000000E-03 0. -1.
         11   -1    0    0    0    0 -0.00000000000E+00 -0.00000000000E+00 -0.45593999997E+02  0.45594000000E+02  0.51100000000E-03 0.  1.
    9900012    2    1    2    0    0  0.11730985532E+01 -0.11944558484E+00 -0.48269496690E-01  0.90007848566E+02  0.90000111367E+02 0.  0.
         12    1    1    2    0    0 -0.11730985532E+01  0.11944558484E+00  0.48269496690E-01  0.11801514341E+01  0.00000000000E+00 0. -1.
         11    1    3    3    0    0  0.12735139661E+02  0.30475593103E+02 -0.80719499881E+01  0.34001498997E+02  0.51100000000E-03 0. -1.
        -11    1    3    3    0    0  0.13259227050E+02 -0.38199770109E+01  0.13242555179E+02  0.19124973053E+02  0.51100000000E-03 0.  1.
         12    1    3    3    0    0 -0.24821268158E+02 -0.26775061677E+02 -0.52188746877E+01  0.36881376517E+02  0.00000000000E+00 0. -1.
</event>
<event>
 7    1  0.4639347E-015  0.9000775E+02  0.7816164E-02  0.1186339E+00
        -11   -1    0    0    0    0  0.00000000000E+00  0.00000000000E+00  0.45593999997E+02  0.45594000000E+02  0.51100000000E-03 0.  1.
         11   -1    0    0    0    0 -0.00000000000E+00 -0.00000000000E+00 -0.45593999997E+02  0.45594000000E+02  0.51100000000E-03 0. -1.
    9900012    2    1    2    0    0 -0.86739543432E+00 -0.18145367472E+00 -0.77954954895E+00  0.90007746733E+02  0.90000008190E+02 0.  0.
         12    1    1    2    0    0  0.86739543432E+00  0.18145367472E+00  0.77954954895E+00  0.11802532672E+01  0.00000000000E+00 0. -1.
         11    1    3    3    0    0 -0.19095730736E+01  0.10207730595E+02 -0.34040043174E+01  0.10928471022E+02  0.51100000000E-03 0. -1.
        -11    1    3    3    0    0 -0.18007744401E+02  0.20960925968E+02  0.24017810444E+02  0.36612764095E+02  0.51100000000E-03 0.  1.
         12    1    3    3    0    0  0.19049922041E+02 -0.31350110238E+02 -0.21393355676E+02  0.42466511616E+02  0.00000000000E+00 0. -1.
</event>
<event>
 7    1  0.4639347E-015  0.9000778E+02  0.7816164E-02  0.1186339E+00
        -11   -1    0    0    0    0  0.00000000000E+00  0.00000000000E+00  0.45593999997E+02  0.45594000000E+02  0.51100000000E-03 0. -1.
         11   -1    0    0    0    0 -0.00000000000E+00 -0.00000000000E+00 -0.45593999997E+02  0.45594000000E+02  0.51100000000E-03 0.  1.
    9900012    2    1    2    0    0  0.11235441717E+01  0.34591043981E-02 -0.36131270297E+00  0.90007783774E+02  0.90000045720E+02 0.  0.
         12    1    1    2    0    0 -0.11235441717E+01 -0.34591043981E-02  0.36131270297E+00  0.11802162262E+01  0.00000000000E+00 0. -1.
         11    1    3    3    0    0  0.12744740034E+02 -0.24732024010E+01  0.36180578105E+02  0.38439294491E+02  0.51100000000E-03 0. -1.
        -11    1    3    3    0    0  0.43890615694E+00  0.54693022168E+01  0.54758999919E+01  0.77518634105E+01  0.51100000000E-03 0.  1.
        -12    1    3    3    0    0 -0.12060102019E+02 -0.29926407113E+01 -0.42017790800E+02  0.43816625873E+02  0.00000000000E+00 0.  1.
</event>
<event>
 7    1  0.4639347E-015  0.9000784E+02  0.7816164E-02  0.1186339E+00
        -11   -1    0    0    0    0  0.00000000000E+00  0.00000000000E+00  0.45593999997E+02  0.45594000000E+02  0.51100000000E-03 0.  1.
         11   -1    0    0    0    0 -0.00000000000E+00 -0.00000000000E+00 -0.45593999997E+02  0.45594000000E+02  0.51100000000E-03 0. -1.
    9900012    2    1    2    0    0  0.70124159798E+00 -0.67989234458E+00  0.66240541102E+00  0.90007841406E+02  0.90000104112E+02 0.  0.
         12    1    1    2    0    0 -0.70124159798E+00  0.67989234458E+00 -0.66240541102E+00  0.11801585942E+01  0.00000000000E+00 0. -1.
         11    1    3    3    0    0  0.24822018462E+01  0.15547932313E+02  0.16534994649E+02  0.22832117150E+02  0.51100000000E-03 0. -1.
        -11    1    3    3    0    0 -0.22166159891E+02 -0.15061007614E+02  0.14582405742E+02  0.30509328936E+02  0.51100000000E-03 0.  1.
         12    1    3    3    0    0  0.20385199642E+02 -0.11668170436E+01 -0.30454994980E+02  0.36666395320E+02  0.00000000000E+00 0. -1.
</event>
<event>
 7    1  0.4639347E-015  0.9000762E+02  0.7816164E-02  0.1186339E+00
        -11   -1    0    0    0    0  0.00000000000E+00  0.00000000000E+00  0.45593999997E+02  0.45594000000E+02  0.51100000000E-03 0.  1.
         11   -1    0    0    0    0 -0.00000000000E+00 -0.00000000000E+00 -0.45593999997E+02  0.45594000000E+02  0.51100000000E-03 0. -1.
    9900012    2    1    2    0    0  0.43622675921E+00 -0.15930500828E+00  0.10851794727E+01  0.90007624484E+02  0.89999884327E+02 0.  0.
         12    1    1    2    0    0 -0.43622675921E+00  0.15930500828E+00 -0.10851794727E+01  0.11803755162E+01  0.00000000000E+00 0. -1.
         11    1    3    3    0    0 -0.97583618837E+01  0.36190072630E+02 -0.21016546629E+02  0.42972575162E+02  0.51100000000E-03 0. -1.
        -11    1    3    3    0    0  0.11978366959E+02 -0.11599939061E+02  0.80005717084E+01  0.18494567017E+02  0.51100000000E-03 0.  1.
        -12    1    3    3    0    0 -0.17837783158E+01 -0.24749438577E+02  0.14101154393E+02  0.28540482305E+02  0.00000000000E+00 0.  1.
</event>
<event>
 7    1  0.4639347E-015  0.9000781E+02  0.7816164E-02  0.1186339E+00
        -11   -1    0    0    0    0  0.00000000000E+00  0.00000000000E+00  0.45593999997E+02  0.45594000000E+02  0.51100000000E-03 0.  1.
         11   -1    0    0    0    0 -0.00000000000E+00 -0.00000000000E+00 -0.45593999997E+02  0.45594000000E+02  0.51100000000E-03 0. -1.
    9900012    2    1    2    0    0  0.11048605800E+01 -0.14542790514E+00 -0.38856328340E+00  0.90007810353E+02  0.90000072650E+02 0.  0.
         12    1    1    2    0    0 -0.11048605800E+01  0.14542790514E+00  0.38856328340E+00  0.11801896467E+01  0.00000000000E+00 0. -1.
         11    1    3    3    0    0 -0.11561086040E+02 -0.32323807999E+02 -0.22260245712E+01  0.34401198520E+02  0.51100000000E-03 0. -1.
        -11    1    3    3    0    0 -0.11284681627E+02 -0.60815863846E+00 -0.79790317130E+01  0.13833974255E+02  0.51100000000E-03 0.  1.
        -12    1    3    3    0    0  0.23950628246E+02  0.32786538732E+02  0.98164930007E+01  0.41772637578E+02  0.00000000000E+00 0.  1.
</event>
<event>
 7    1  0.4639347E-015  0.9000774E+02  0.7816164E-02  0.1186339E+00
        -11   -1    0    0    0    0  0.00000000000E+00  0.00000000000E+00  0.45593999997E+02  0.45594000000E+02  0.51100000000E-03 0.  1.
         11   -1    0    0    0    0 -0.00000000000E+00 -0.00000000000E+00 -0.45593999997E+02  0.45594000000E+02  0.51100000000E-03 0. -1.
    9900012    2    1    2    0    0 -0.10310893436E+01 -0.57336361726E+00 -0.33604902948E-01  0.90007737164E+02  0.89999998495E+02 0.  0.
         12    1    1    2    0    0  0.10310893436E+01  0.57336361726E+00  0.33604902948E-01  0.11802628358E+01  0.00000000000E+00 0. -1.
         11    1    3    3    0    0 -0.52884390321E+01  0.54302446405E+01 -0.94536370206E+01  0.12117194289E+02  0.51100000000E-03 0. -1.
        -11    1    3    3    0    0 -0.61534591936E+01  0.32738626972E+02  0.16466888102E+02  0.37159671151E+02  0.51100000000E-03 0.  1.
         12    1    3    3    0    0  0.10410808882E+02 -0.38742235230E+02 -0.70468559841E+01  0.40730871724E+02  0.00000000000E+00 0. -1.
</event>
<event>
 7    1  0.4639347E-015  0.9000769E+02  0.7816164E-02  0.1186339E+00
        -11   -1    0    0    0    0  0.00000000000E+00  0.00000000000E+00  0.45593999997E+02  0.45594000000E+02  0.51100000000E-03 0. -1.
         11   -1    0    0    0    0 -0.00000000000E+00 -0.00000000000E+00 -0.45593999997E+02  0.45594000000E+02  0.51100000000E-03 0.  1.
    9900012    2    1    2    0    0 -0.95898877838E+00 -0.26460151463E+00 -0.63519238526E+00  0.90007685294E+02  0.89999945940E+02 0.  0.
         12    1    1    2    0    0  0.95898877838E+00  0.26460151463E+00  0.63519238526E+00  0.11803147059E+01  0.00000000000E+00 0. -1.
         11    1    3    3    0    0  0.12934247797E+02  0.15537846671E+02  0.31757834690E+02  0.37646772899E+02  0.51100000000E-03 0. -1.
        -11    1    3    3    0    0 -0.37581214445E+01 -0.52539030408E+01  0.74835164490E+01  0.98858481000E+01  0.51100000000E-03 0.  1.
        -12    1    3    3    0    0 -0.10135115131E+02 -0.10548545145E+02 -0.39876543525E+02  0.42475064295E+02  0.00000000000E+00 0.  1.
</event>
<event>
 7    1  0.4639347E-015  0.9000774E+02  0.7816164E-02  0.1186339E+00
        -11   -1    0    0    0    0  0.00000000000E+00  0.00000000000E+00  0.45593999997E+02  0.45594000000E+02  0.51100000000E-03 0. -1.
         11   -1    0    0    0    0 -0.00000000000E+00 -0.00000000000E+00 -0.45593999997E+02  0.45594000000E+02  0.51100000000E-03 0.  1.
    9900012    2    1    2    0    0  0.67294391471E+00 -0.80605165599E+00 -0.53892618591E+00  0.90007739767E+02  0.90000001132E+02 0.  0.
         12    1    1    2    0    0 -0.67294391471E+00  0.80605165599E+00  0.53892618591E+00  0.11802602333E+01  0.00000000000E+00 0. -1.
         11    1    3    3    0    0  0.21303254743E+02 -0.85702314554E+01 -0.29442872142E+02  0.37338455379E+02  0.51100000000E-03 0. -1.
        -11    1    3    3    0    0  0.71256327272E-01 -0.40517598024E+01 -0.78664074253E+01  0.88488530897E+01  0.51100000000E-03 0.  1.
        -12    1    3    3    0    0 -0.20701567156E+02  0.11815939602E+02  0.36770353381E+02  0.43820431298E+02  0.00000000000E+00 0.  1.
</event>
<event>
 7    1  0.4639347E-015  0.9000775E+02  0.7816164E-02  0.1186339E+00
        -11   -1    0    0    0    0  0.00000000000E+00  0.00000000000E+00  0.45593999997E+02  0.45594000000E+02  0.51100000000E-03 0.  1.
         11   -1    0    0    0    0 -0.00000000000E+00 -0.00000000000E+00 -0.45593999997E+02  0.45594000000E+02  0.51100000000E-03 0. -1.
    9900012    2    1    2    0    0 -0.50862092140E+00  0.55081415999E+00  0.91153307928E+00  0.90007752553E+02  0.90000014087E+02 0.  0.
         12    1    1    2    0    0  0.50862092140E+00 -0.55081415999E+00 -0.91153307928E+00  0.11802474466E+01  0.00000000000E+00 0. -1.
         11    1    3    3    0    0 -0.45611519717E+01  0.52715815400E+01  0.75607874455E+01  0.10283928544E+02  0.51100000000E-03 0. -1.
        -11    1    3    3    0    0 -0.31280599900E+02  0.19225182196E+02 -0.17109865507E+01  0.36756102021E+02  0.51100000000E-03 0.  1.
         12    1    3    3    0    0  0.35333130950E+02 -0.23945949576E+02 -0.49382678156E+01  0.42967721988E+02  0.00000000000E+00 0. -1.
</event>
<event>
 7    1  0.4639347E-015  0.9000788E+02  0.7816164E-02  0.1186339E+00
        -11   -1    0    0    0    0  0.00000000000E+00  0.00000000000E+00  0.45593999997E+02  0.45594000000E+02  0.51100000000E-03 0. -1.
         11   -1    0    0    0    0 -0.00000000000E+00 -0.00000000000E+00 -0.45593999997E+02  0.45594000000E+02  0.51100000000E-03 0.  1.
    9900012    2    1    2    0    0  0.10400557872E+01 -0.51492887400E+00 -0.21405036649E+00  0.90007879097E+02  0.90000142301E+02 0.  0.
         12    1    1    2    0    0 -0.10400557872E+01  0.51492887400E+00  0.21405036649E+00  0.11801209028E+01  0.00000000000E+00 0. -1.
         11    1    3    3    0    0  0.34163304115E+01 -0.74083628614E+01 -0.42259199183E+01  0.91876848653E+01  0.51100000000E-03 0. -1.
        -11    1    3    3    0    0  0.21259934866E+02 -0.28845678503E+02 -0.71546120189E+01  0.36541024509E+02  0.51100000000E-03 0.  1.
         12    1    3    3    0    0 -0.23636209490E+02  0.35739112490E+02  0.11166481571E+02  0.44279169723E+02  0.00000000000E+00 0. -1.
</event>
<event>
 7    1  0.4639347E-015  0.9000772E+02  0.7816164E-02  0.1186339E+00
        -11   -1    0    0    0    0  0.00000000000E+00  0.00000000000E+00  0.45593999997E+02  0.45594000000E+02  0.51100000000E-03 0. -1.
         11   -1    0    0    0    0 -0.00000000000E+00 -0.00000000000E+00 -0.45593999997E+02  0.45594000000E+02  0.51100000000E-03 0.  1.
    9900012    2    1    2    0    0 -0.24667663541E+00 -0.74944680121E+00  0.87781054359E+00  0.90007715619E+02  0.89999976665E+02 0.  0.
         12    1    1    2    0    0  0.24667663541E+00  0.74944680121E+00 -0.87781054359E+00  0.11802843813E+01  0.00000000000E+00 0. -1.
         11    1    3    3    0    0 -0.72573067499E+01  0.11614401826E+02  0.86098280339E+01  0.16176896182E+02  0.51100000000E-03 0. -1.
        -11    1    3    3    0    0 -0.87410679288E+01 -0.33539618498E+02  0.16149717316E+02  0.38237751597E+02  0.51100000000E-03 0.  1.
         12    1    3    3    0    0  0.15751698043E+02  0.21175769871E+02 -0.23881734806E+02  0.35593067840E+02  0.00000000000E+00 0. -1.
</event>
<event>
 7    1  0.4639347E-015  0.9000767E+02  0.7816164E-02  0.1186339E+00
        -11   -1    0    0    0    0  0.00000000000E+00  0.00000000000E+00  0.45593999997E+02  0.45594000000E+02  0.51100000000E-03 0.  1.
         11   -1    0    0    0    0 -0.00000000000E+00 -0.00000000000E+00 -0.45593999997E+02  0.45594000000E+02  0.51100000000E-03 0. -1.
    9900012    2    1    2    0    0  0.40509479702E+00  0.10856129548E+01 -0.22474736353E+00  0.90007674342E+02  0.89999934843E+02 0.  0.
         12    1    1    2    0    0 -0.40509479702E+00 -0.10856129548E+01  0.22474736353E+00  0.11803256583E+01  0.00000000000E+00 0. -1.
         11    1    3    3    0    0  0.32294441321E+02 -0.16811668151E+02  0.77415517943E+01  0.37222234628E+02  0.51100000000E-03 0. -1.
        -11    1    3    3    0    0  0.38097934476E+01 -0.38254959526E+00  0.85828262154E+01  0.93981794201E+01  0.51100000000E-03 0.  1.
        -12    1    3    3    0    0 -0.35699139972E+02  0.18279830701E+02 -0.16549125373E+02  0.43387260294E+02  0.00000000000E+00 0.  1.
</event>
<event>
 7    1  0.4639347E-015  0.9000776E+02  0.7816164E-02  0.1186339E+00
        -11   -1    0    0    0    0  0.00000000000E+00  0.00000000000E+00  0.45593999997E+02  0.45594000000E+02  0.51100000000E-03 0.  1.
         11   -1    0    0    0    0 -0.00000000000E+00 -0.00000000000E+00 -0.45593999997E+02  0.45594000000E+02  0.51100000000E-03 0. -1.
    9900012    2    1    2    0    0  0.40091971000E+00  0.10753765410E+01 -0.27531134613E+00  0.90007759492E+02  0.90000021118E+02 0.  0.
         12    1    1    2    0    0 -0.40091971000E+00 -0.10753765410E+01  0.27531134613E+00  0.11802405077E+01  0.00000000000E+00 0. -1.
         11    1    3    3    0    0 -0.23905004050E+01  0.72352149836E+01  0.42182074697E+01  0.87095408929E+01  0.51100000000E-03 0. -1.
        -11    1    3    3    0    0 -0.29947480918E+02  0.21544375512E+02 -0.95649111848E+01  0.38111668236E+02  0.51100000000E-03 0.  1.
         12    1    3    3    0    0  0.32738901033E+02 -0.27704213955E+02  0.50713923689E+01  0.43186550363E+02  0.00000000000E+00 0. -1.
</event>
<event>
 7    1  0.4639347E-015  0.9000779E+02  0.7816164E-02  0.1186339E+00
        -11   -1    0    0    0    0  0.00000000000E+00  0.00000000000E+00  0.45593999997E+02  0.45594000000E+02  0.51100000000E-03 0.  1.
         11   -1    0    0    0    0 -0.00000000000E+00 -0.00000000000E+00 -0.45593999997E+02  0.45594000000E+02  0.51100000000E-03 0. -1.
    9900012    2    1    2    0    0  0.44512872019E+00 -0.10883087005E+01  0.10169856163E+00  0.90007789001E+02  0.90000051016E+02 0.  0.
         12    1    1    2    0    0 -0.44512872019E+00  0.10883087005E+01 -0.10169856163E+00  0.11802109992E+01  0.00000000000E+00 0. -1.
         11    1    3    3    0    0 -0.13892866268E+02  0.31962544631E+02  0.10897627242E+02  0.36515397742E+02  0.51100000000E-03 0. -1.
        -11    1    3    3    0    0 -0.41364288579E+01  0.35512335053E+01  0.69359695140E+01  0.88220732521E+01  0.51100000000E-03 0.  1.
        -12    1    3    3    0    0  0.18474423846E+02 -0.36602086837E+02 -0.17731898194E+02  0.44670318007E+02  0.00000000000E+00 0.  1.
</event>
<event>
 7    1  0.4639347E-015  0.9000727E+02  0.7816164E-02  0.1186340E+00
        -11   -1    0    0    0    0  0.00000000000E+00  0.00000000000E+00  0.45593999997E+02  0.45594000000E+02  0.51100000000E-03 0. -1.
         11   -1    0    0    0    0 -0.00000000000E+00 -0.00000000000E+00 -0.45593999997E+02  0.45594000000E+02  0.51100000000E-03 0.  1.
    9900012    2    1    2    0    0 -0.10214972645E+01  0.15745490502E+00 -0.57084710044E+00  0.90007273478E+02  0.89999528686E+02 0.  0.
         12    1    1    2    0    0  0.10214972645E+01 -0.15745490502E+00  0.57084710044E+00  0.11807265224E+01  0.00000000000E+00 0. -1.
         11    1    3    3    0    0 -0.99049799416E+00  0.36488331720E+00  0.10299004309E+02  0.10352956878E+02  0.51100000000E-03 0. -1.
        -11    1    3    3    0    0  0.14757825909E+02 -0.10107605835E+02 -0.40959887256E+02  0.44695296012E+02  0.51100000000E-03 0.  1.
         12    1    3    3    0    0 -0.14788825179E+02  0.99001774224E+01  0.30090035847E+02  0.34959020588E+02  0.00000000000E+00 0. -1.
</event>
<event>
 7    1  0.6607191E-015  0.9000837E+02  0.7816164E-02  0.1186338E+00
        -11   -1    0    0    0    0  0.00000000000E+00  0.00000000000E+00  0.45593999997E+02  0.45594000000E+02  0.51100000000E-03 0. -1.
         11   -1    0    0    0    0 -0.00000000000E+00 -0.00000000000E+00 -0.45593999997E+02  0.45594000000E+02  0.51100000000E-03 0.  1.
    9900012    2    1    2    0    0  0.96243924206E+00  0.46598413310E+00 -0.49810416642E+00  0.90008365197E+02  0.90000634816E+02 0.  0.
         12    1    1    2    0    0 -0.96243924206E+00 -0.46598413310E+00  0.49810416642E+00  0.11796348026E+01  0.00000000000E+00 0. -1.
         11    1    3    3    0    0  0.59930895153E+01  0.79343853447E+01 -0.68883587748E+00  0.99672507675E+01  0.51100000000E-03 0. -1.
        -11    1    3    3    0    0  0.30710206848E+02  0.62037908101E+01 -0.19603464340E+02  0.36958079488E+02  0.51100000000E-03 0.  1.
         12    1    3    3    0    0 -0.35740857121E+02 -0.13672192022E+02  0.19794196051E+02  0.43083034941E+02  0.00000000000E+00 0. -1.
</event>
<event>
 7    1  0.4639347E-015  0.9000766E+02  0.7816164E-02  0.1186339E+00
        -11   -1    0    0    0    0  0.00000000000E+00  0.00000000000E+00  0.45593999997E+02  0.45594000000E+02  0.51100000000E-03 0.  1.
         11   -1    0    0    0    0 -0.00000000000E+00 -0.00000000000E+00 -0.45593999997E+02  0.45594000000E+02  0.51100000000E-03 0. -1.
    9900012    2    1    2    0    0  0.10438725914E+01  0.24266817624E+00 -0.49462465938E+00  0.90007656243E+02  0.89999916505E+02 0.  0.
         12    1    1    2    0    0 -0.10438725914E+01 -0.24266817624E+00  0.49462465938E+00  0.11803437570E+01  0.00000000000E+00 0. -1.
         11    1    3    3    0    0 -0.12438300340E+02 -0.18694502560E+02 -0.25578694133E+01  0.22599522949E+02  0.51100000000E-03 0. -1.
        -11    1    3    3    0    0  0.27172106143E+02 -0.63486380315E+01  0.19258872986E+02  0.33904759932E+02  0.51100000000E-03 0.  1.
         12    1    3    3    0    0 -0.13689933211E+02  0.25285808768E+02 -0.17195628232E+02  0.33503373362E+02  0.00000000000E+00 0. -1.
</event>
<event>
 7    1  0.4639347E-015  0.9000777E+02  0.7816164E-02  0.1186339E+00
        -11   -1    0    0    0    0  0.00000000000E+00  0.00000000000E+00  0.45593999997E+02  0.45594000000E+02  0.51100000000E-03 0. -1.
         11   -1    0    0    0    0 -0.00000000000E+00 -0.00000000000E+00 -0.45593999997E+02  0.45594000000E+02  0.51100000000E-03 0.  1.
    9900012    2    1    2    0    0 -0.11009797620E+01  0.38797365712E+00 -0.17396466817E+00  0.90007769641E+02  0.90000031400E+02 0.  0.
         12    1    1    2    0    0  0.11009797620E+01 -0.38797365712E+00  0.17396466817E+00  0.11802303592E+01  0.00000000000E+00 0. -1.
         11    1    3    3    0    0  0.18724710377E+02  0.17125982436E+02  0.28593835604E+02  0.38229850744E+02  0.51100000000E-03 0. -1.
        -11    1    3    3    0    0  0.33789522419E+01  0.79267549838E+01 -0.26608240849E+01  0.90183561639E+01  0.51100000000E-03 0.  1.
        -12    1    3    3    0    0 -0.23204642381E+02 -0.24664763762E+02 -0.26106976187E+02  0.42759562733E+02  0.00000000000E+00 0.  1.
</event>
<event>
 7    1  0.4639347E-015  0.9000790E+02  0.7816164E-02  0.1186339E+00
        -11   -1    0    0    0    0  0.00000000000E+00  0.00000000000E+00  0.45593999997E+02  0.45594000000E+02  0.51100000000E-03 0.  1.
         11   -1    0    0    0    0 -0.00000000000E+00 -0.00000000000E+00 -0.45593999997E+02  0.45594000000E+02  0.51100000000E-03 0. -1.
    9900012    2    1    2    0    0 -0.50085831739E-01  0.26911612917E+00  0.11479165777E+01  0.90007896381E+02  0.90000159813E+02 0.  0.
         12    1    1    2    0    0  0.50085831739E-01 -0.26911612917E+00 -0.11479165777E+01  0.11801036187E+01  0.00000000000E+00 0. -1.
         11    1    3    3    0    0 -0.22578428134E+02  0.56624573856E+01 -0.27953159051E+02  0.36376200212E+02  0.51100000000E-03 0. -1.
        -11    1    3    3    0    0 -0.78184961399E+01 -0.44469216110E+01 -0.29664066643E+01  0.94711964642E+01  0.51100000000E-03 0.  1.
        -12    1    3    3    0    0  0.30346838442E+02 -0.94641964543E+00  0.32067482293E+02  0.44160499705E+02  0.00000000000E+00 0.  1.
</event>
<event>
 7    1  0.4639347E-015  0.9000769E+02  0.7816164E-02  0.1186339E+00
        -11   -1    0    0    0    0  0.00000000000E+00  0.00000000000E+00  0.45593999997E+02  0.45594000000E+02  0.51100000000E-03 0.  1.
         11   -1    0    0    0    0 -0.00000000000E+00 -0.00000000000E+00 -0.45593999997E+02  0.45594000000E+02  0.51100000000E-03 0. -1.
    9900012    2    1    2    0    0  0.11602261343E+00  0.79425552152E+00  0.86535221510E+00  0.90007687526E+02  0.89999948201E+02 0.  0.
         12    1    1    2    0    0 -0.11602261343E+00 -0.79425552152E+00 -0.86535221510E+00  0.11803124741E+01  0.00000000000E+00 0. -1.
         11    1    3    3    0    0  0.12411823545E+02 -0.15947533136E+01 -0.10138749249E+02  0.16105615121E+02  0.51100000000E-03 0. -1.
        -11    1    3    3    0    0 -0.28189884543E+02  0.29992262922E+02  0.77513894192E+01  0.41884238848E+02  0.51100000000E-03 0.  1.
         12    1    3    3    0    0  0.15894083611E+02 -0.27603254087E+02  0.32527120452E+01  0.32017833557E+02  0.00000000000E+00 0. -1.
</event>
<event>
 7    1  0.4639347E-015  0.9000763E+02  0.7816164E-02  0.1186339E+00
        -11   -1    0    0    0    0  0.00000000000E+00  0.00000000000E+00  0.45593999997E+02  0.45594000000E+02  0.51100000000E-03 0. -1.
         11   -1    0    0    0    0 -0.00000000000E+00 -0.00000000000E+00 -0.45593999997E+02  0.45594000000E+02  0.51100000000E-03 0.  1.
    9900012    2    1    2    0    0  0.11117136930E+01  0.33016874268E+00 -0.21989309550E+00  0.90007630690E+02  0.89999890615E+02 0.  0.
         12    1    1    2    0    0 -0.11117136930E+01 -0.33016874268E+00  0.21989309550E+00  0.11803693097E+01  0.00000000000E+00 0. -1.
         11    1    3    3    0    0 -0.68403368820E+01  0.56481785612E+01  0.19114772999E+01  0.90744628187E+01  0.51100000000E-03 0. -1.
        -11    1    3    3    0    0 -0.31970187072E+02 -0.20624913220E+02 -0.30436287220E+01  0.38167310395E+02  0.51100000000E-03 0.  1.
         12    1    3    3    0    0  0.39922237647E+02  0.15306903401E+02  0.91225832667E+00  0.42765857477E+02  0.00000000000E+00 0. -1.
</event>
<event>
 7    1  0.4639347E-015  0.9000776E+02  0.7816164E-02  0.1186339E+00
        -11   -1    0    0    0    0  0.00000000000E+00  0.00000000000E+00  0.45593999997E+02  0.45594000000E+02  0.51100000000E-03 0. -1.
         11   -1    0    0    0    0 -0.00000000000E+00 -0.00000000000E+00 -0.45593999997E+02  0.45594000000E+02  0.51100000000E-03 0.  1.
    9900012    2    1    2    0    0  0.22881764652E+00 -0.84931226502E+00 -0.78694842908E+00  0.90007755674E+02  0.90000017249E+02 0.  0.
         12    1    1    2    0    0 -0.22881764652E+00  0.84931226502E+00  0.78694842908E+00  0.11802443259E+01  0.00000000000E+00 0. -1.
         11    1    3    3    0    0  0.16204180709E+02  0.61692406550E+01  0.36089258430E+02  0.40038351327E+02  0.51100000000E-03 0. -1.
        -11    1    3    3    0    0  0.13969366138E+01 -0.96236860315E+01 -0.69515498975E+00  0.97493592331E+01  0.51100000000E-03 0.  1.
        -12    1    3    3    0    0 -0.17372299676E+02  0.26051331114E+01 -0.36181051869E+02  0.40220045114E+02  0.00000000000E+00 0.  1.
</event>
<event>
 7    1  0.4639347E-015  0.9000776E+02  0.7816164E-02  0.1186339E+00
        -11   -1    0    0    0    0  0.00000000000E+00  0.00000000000E+00  0.45593999997E+02  0.45594000000E+02  0.51100000000E-03 0. -1.
         11   -1    0    0    0    0 -0.00000000000E+00 -0.00000000000E+00 -0.45593999997E+02  0.45594000000E+02  0.51100000000E-03 0.  1.
    9900012    2    1    2    0    0 -0.47232796704E+00 -0.76716833279E+00 -0.76245309775E+00  0.90007756091E+02  0.90000017671E+02 0.  0.
         12    1    1    2    0    0  0.47232796704E+00  0.76716833279E+00  0.76245309775E+00  0.11802439093E+01  0.00000000000E+00 0. -1.
         11    1    3    3    0    0  0.58286579890E+01  0.16079888483E+01 -0.35885170509E+01  0.70310978499E+01  0.51100000000E-03 0. -1.
        -11    1    3    3    0    0  0.31338395600E+02 -0.22308898807E+02  0.10091143139E+02  0.39769500561E+02  0.51100000000E-03 0.  1.
         12    1    3    3    0    0 -0.37639381556E+02  0.19933741626E+02 -0.72650791856E+01  0.43207157679E+02  0.00000000000E+00 0. -1.
</event>
<event>
 7    1  0.4639347E-015  0.9000772E+02  0.7816164E-02  0.1186339E+00
        -11   -1    0    0    0    0  0.00000000000E+00  0.00000000000E+00  0.45593999997E+02  0.45594000000E+02  0.51100000000E-03 0.  1.
         11   -1    0    0    0    0 -0.00000000000E+00 -0.00000000000E+00 -0.45593999997E+02  0.45594000000E+02  0.51100000000E-03 0. -1.
    9900012    2    1    2    0    0 -0.30501234239E+00  0.11331921108E+01 -0.12615769774E+00  0.90007715012E+02  0.89999976050E+02 0.  0.
         12    1    1    2    0    0  0.30501234239E+00 -0.11331921108E+01  0.12615769774E+00  0.11802849884E+01  0.00000000000E+00 0. -1.
         11    1    3    3    0    0  0.27845950523E+02 -0.16957550903E+02 -0.17486301247E+02  0.36996300149E+02  0.51100000000E-03 0. -1.
        -11    1    3    3    0    0  0.65690837958E+01 -0.50775160668E+01  0.37303993573E+01  0.91021926452E+01  0.51100000000E-03 0.  1.
        -12    1    3    3    0    0 -0.34720046661E+02  0.23168259081E+02  0.13629744192E+02  0.43909222217E+02  0.00000000000E+00 0.  1.
</event>
<event>
 7    1  0.4639347E-015  0.9000776E+02  0.7816164E-02  0.1186339E+00
        -11   -1    0    0    0    0  0.00000000000E+00  0.00000000000E+00  0.45593999997E+02  0.45594000000E+02  0.51100000000E-03 0. -1.
         11   -1    0    0    0    0 -0.00000000000E+00 -0.00000000000E+00 -0.45593999997E+02  0.45594000000E+02  0.51100000000E-03 0.  1.
    9900012    2    1    2    0    0  0.20096548055E+00 -0.99484161794E+00 -0.60238528389E+00  0.90007760618E+02  0.90000022258E+02 0.  0.
         12    1    1    2    0    0 -0.20096548055E+00  0.99484161794E+00  0.60238528389E+00  0.11802393823E+01  0.00000000000E+00 0. -1.
         11    1    3    3    0    0  0.93714618776E+00 -0.42706590388E+00 -0.13970291995E+02  0.14008200704E+02  0.51100000000E-03 0. -1.
        -11    1    3    3    0    0 -0.80064081288E+01 -0.24518407905E+02  0.34615009817E+02  0.43167740295E+02  0.51100000000E-03 0.  1.
         12    1    3    3    0    0  0.72702274216E+01  0.23950632191E+02 -0.21247103106E+02  0.32831819619E+02  0.00000000000E+00 0. -1.
</event>
<event>
 7    1  0.4989900E-015  0.9000805E+02  0.7816164E-02  0.1186338E+00
        -11   -1    0    0    0    0  0.00000000000E+00  0.00000000000E+00  0.45593999997E+02  0.45594000000E+02  0.51100000000E-03 0.  1.
         11   -1    0    0    0    0 -0.00000000000E+00 -0.00000000000E+00 -0.45593999997E+02  0.45594000000E+02  0.51100000000E-03 0. -1.
    9900012    2    1    2    0    0  0.28323737085E+00 -0.10344857021E+01  0.49182779120E+00  0.90008051420E+02  0.90000316898E+02 0.  0.
         12    1    1    2    0    0 -0.28323737085E+00  0.10344857021E+01 -0.49182779120E+00  0.11799485804E+01  0.00000000000E+00 0. -1.
         11    1    3    3    0    0 -0.16881027990E+01 -0.64794453896E+01  0.65464742422E+01  0.93642527134E+01  0.51100000000E-03 0. -1.
        -11    1    3    3    0    0  0.30118343928E+02  0.26628789985E+02  0.10747744578E+02  0.41613953319E+02  0.51100000000E-03 0.  1.
         12    1    3    3    0    0 -0.28147003759E+02 -0.21183830298E+02 -0.16802391029E+02  0.39029845387E+02  0.00000000000E+00 0. -1.
</event>
<event>
 7    1  0.4639347E-015  0.9000785E+02  0.7816164E-02  0.1186339E+00
        -11   -1    0    0    0    0  0.00000000000E+00  0.00000000000E+00  0.45593999997E+02  0.45594000000E+02  0.51100000000E-03 0.  1.
         11   -1    0    0    0    0 -0.00000000000E+00 -0.00000000000E+00 -0.45593999997E+02  0.45594000000E+02  0.51100000000E-03 0. -1.
    9900012    2    1    2    0    0 -0.83517290806E+00  0.62761609651E+00  0.54894879905E+00  0.90007847241E+02  0.90000110024E+02 0.  0.
         12    1    1    2    0    0  0.83517290806E+00 -0.62761609651E+00 -0.54894879905E+00  0.11801527592E+01  0.00000000000E+00 0. -1.
         11    1    3    3    0    0 -0.22733808613E+02 -0.17630901246E+02 -0.25996589841E+02  0.38774958626E+02  0.51100000000E-03 0. -1.
        -11    1    3    3    0    0  0.11904073291E+02  0.21454172256E+00 -0.55060494216E+01  0.13117529095E+02  0.51100000000E-03 0.  1.
        -12    1    3    3    0    0  0.99945624135E+01  0.18043975620E+02  0.32051588062E+02  0.38115359520E+02  0.00000000000E+00 0.  1.
</event>
<event>
 7    1  0.4639347E-015  0.9000774E+02  0.7816164E-02  0.1186339E+00
        -11   -1    0    0    0    0  0.00000000000E+00  0.00000000000E+00  0.45593999997E+02  0.45594000000E+02  0.51100000000E-03 0.  1.
         11   -1    0    0    0    0 -0.00000000000E+00 -0.00000000000E+00 -0.45593999997E+02  0.45594000000E+02  0.51100000000E-03 0. -1.
    9900012    2    1    2    0    0  0.55542851093E+00 -0.99980867241E+00  0.29138601841E+00  0.90007735613E+02  0.89999996923E+02 0.  0.
         12    1    1    2    0    0 -0.55542851093E+00  0.99980867241E+00 -0.29138601841E+00  0.11802643873E+01  0.00000000000E+00 0. -1.
         11    1    3    3    0    0 -0.15125484576E+02 -0.29165115850E+01 -0.18552254585E+01  0.15515417662E+02  0.51100000000E-03 0. -1.
        -11    1    3    3    0    0 -0.99403702914E+01  0.62866241910E+01  0.32481568416E+02  0.34545403345E+02  0.51100000000E-03 0.  1.
         12    1    3    3    0    0  0.25621283378E+02 -0.43699212784E+01 -0.30334956939E+02  0.39946914605E+02  0.00000000000E+00 0. -1.
</event>
<event>
 7    1  0.4639347E-015  0.9000773E+02  0.7816164E-02  0.1186339E+00
        -11   -1    0    0    0    0  0.00000000000E+00  0.00000000000E+00  0.45593999997E+02  0.45594000000E+02  0.51100000000E-03 0.  1.
         11   -1    0    0    0    0 -0.00000000000E+00 -0.00000000000E+00 -0.45593999997E+02  0.45594000000E+02  0.51100000000E-03 0. -1.
    9900012    2    1    2    0    0  0.88982460942E+00 -0.72832572257E+00 -0.26606270897E+00  0.90007730726E+02  0.89999991972E+02 0.  0.
         12    1    1    2    0    0 -0.88982460942E+00  0.72832572257E+00  0.26606270897E+00  0.11802692739E+01  0.00000000000E+00 0. -1.
         11    1    3    3    0    0  0.34370914692E+01 -0.82285649780E+01  0.58156177440E+01  0.10646327506E+02  0.51100000000E-03 0. -1.
        -11    1    3    3    0    0  0.31061626453E+02 -0.17693179240E+02  0.45441913360E+01  0.36035023306E+02  0.51100000000E-03 0.  1.
         12    1    3    3    0    0 -0.33608893312E+02  0.25193418496E+02 -0.10625871789E+02  0.43326379914E+02  0.00000000000E+00 0. -1.
</event>
<event>
 7    1  0.4639347E-015  0.9000762E+02  0.7816164E-02  0.1186339E+00
        -11   -1    0    0    0    0  0.00000000000E+00  0.00000000000E+00  0.45593999997E+02  0.45594000000E+02  0.51100000000E-03 0. -1.
         11   -1    0    0    0    0 -0.00000000000E+00 -0.00000000000E+00 -0.45593999997E+02  0.45594000000E+02  0.51100000000E-03 0.  1.
    9900012    2    1    2    0    0 -0.67227545094E+00  0.55155666978E-01 -0.96865441172E+00  0.90007623874E+02  0.89999883709E+02 0.  0.
         12    1    1    2    0    0  0.67227545094E+00 -0.55155666978E-01  0.96865441172E+00  0.11803761260E+01  0.00000000000E+00 0. -1.
         11    1    3    3    0    0 -0.70852464381E+01 -0.28198605241E+02  0.23290372734E+02  0.37253234987E+02  0.51100000000E-03 0. -1.
        -11    1    3    3    0    0  0.34396736702E+01 -0.87750571027E+01 -0.27025507824E+01  0.98049356502E+01  0.51100000000E-03 0.  1.
        -12    1    3    3    0    0  0.29732973170E+01  0.37028818010E+02 -0.21556476363E+02  0.42949453237E+02  0.00000000000E+00 0.  1.
</event>
<event>
 7    1  0.4639347E-015  0.9000781E+02  0.7816164E-02  0.1186339E+00
        -11   -1    0    0    0    0  0.00000000000E+00  0.00000000000E+00  0.45593999997E+02  0.45594000000E+02  0.51100000000E-03 0. -1.
         11   -1    0    0    0    0 -0.00000000000E+00 -0.00000000000E+00 -0.45593999997E+02  0.45594000000E+02  0.51100000000E-03 0.  1.
    9900012    2    1    2    0    0 -0.31632668634E+00  0.11364936271E+01  0.34019397310E-01  0.90007814567E+02  0.90000076919E+02 0.  0.
         12    1    1    2    0    0  0.31632668634E+00 -0.11364936271E+01 -0.34019397310E-01  0.11801854330E+01  0.00000000000E+00 0. -1.
         11    1    3    3    0    0  0.32867640386E+02 -0.16777951193E+02 -0.41223306172E+01  0.37131860185E+02  0.51100000000E-03 0. -1.
        -11    1    3    3    0    0  0.25739535175E+01 -0.74167213896E+01 -0.31328142722E+01  0.84526633913E+01  0.51100000000E-03 0.  1.
        -12    1    3    3    0    0 -0.35757920590E+02  0.25331166210E+02  0.72891642867E+01  0.44423290991E+02  0.00000000000E+00 0.  1.
</event>
<event>
 7    1  0.4639347E-015  0.9000773E+02  0.7816164E-02  0.1186339E+00
        -11   -1    0    0    0    0  0.00000000000E+00  0.00000000000E+00  0.45593999997E+02  0.45594000000E+02  0.51100000000E-03 0. -1.
         11   -1    0    0    0    0 -0.00000000000E+00 -0.00000000000E+00 -0.45593999997E+02  0.45594000000E+02  0.51100000000E-03 0.  1.
    9900012    2    1    2    0    0  0.61955010425E+00  0.80239266192E+00 -0.60444740063E+00  0.90007731820E+02  0.89999993080E+02 0.  0.
         12    1    1    2    0    0 -0.61955010425E+00 -0.80239266192E+00  0.60444740063E+00  0.11802681796E+01  0.00000000000E+00 0. -1.
         11    1    3    3    0    0  0.44914586235E+01  0.93200733122E+01 -0.69538158181E+00  0.10369210332E+02  0.51100000000E-03 0. -1.
        -11    1    3    3    0    0  0.30310789490E+02  0.17058088952E+02  0.92185999614E+01  0.35982008612E+02  0.51100000000E-03 0.  1.
         12    1    3    3    0    0 -0.34182698010E+02 -0.25575769602E+02 -0.91276657802E+01  0.43656512877E+02  0.00000000000E+00 0. -1.
</event>
<event>
 7    1  0.4639347E-015  0.9000791E+02  0.7816164E-02  0.1186339E+00
        -11   -1    0    0    0    0  0.00000000000E+00  0.00000000000E+00  0.45593999997E+02  0.45594000000E+02  0.51100000000E-03 0.  1.
         11   -1    0    0    0    0 -0.00000000000E+00 -0.00000000000E+00 -0.45593999997E+02  0.45594000000E+02  0.51100000000E-03 0. -1.
    9900012    2    1    2    0    0  0.10018026892E+01 -0.62336282573E+00  0.20579657032E-01  0.90007909595E+02  0.90000173202E+02 0.  0.
         12    1    1    2    0    0 -0.10018026892E+01  0.62336282573E+00 -0.20579657032E-01  0.11800904045E+01  0.00000000000E+00 0. -1.
         11    1    3    3    0    0  0.71283350824E+01  0.27471808949E+02 -0.27850806350E+02  0.39764064966E+02  0.51100000000E-03 0. -1.
        -11    1    3    3    0    0 -0.80690496190E+01 -0.76263315225E+01 -0.44299417801E+01  0.11953864592E+02  0.51100000000E-03 0.  1.
        -12    1    3    3    0    0  0.19425172258E+01 -0.20468840253E+02  0.32301327787E+02  0.38289980038E+02  0.00000000000E+00 0.  1.
</event>
<event>
 7    1  0.4639347E-015  0.9000776E+02  0.7816164E-02  0.1186339E+00
        -11   -1    0    0    0    0  0.00000000000E+00  0.00000000000E+00  0.45593999997E+02  0.45594000000E+02  0.51100000000E-03 0. -1.
         11   -1    0    0    0    0 -0.00000000000E+00 -0.00000000000E+00 -0.45593999997E+02  0.45594000000E+02  0.51100000000E-03 0.  1.
    9900012    2    1    2    0    0  0.17301805168E+00 -0.33777447479E+00 -0.11175588230E+01  0.90007760802E+02  0.90000022444E+02 0.  0.
         12    1    1    2    0    0 -0.17301805168E+00  0.33777447479E+00  0.11175588230E+01  0.11802391981E+01  0.00000000000E+00 0. -1.
         11    1    3    3    0    0 -0.64603943628E+01  0.34802211802E+01  0.48025963384E+01  0.87700380066E+01  0.51100000000E-03 0. -1.
        -11    1    3    3    0    0  0.35831407886E+02  0.21278640105E+02 -0.89277407762E+01  0.42618949676E+02  0.51100000000E-03 0.  1.
         12    1    3    3    0    0 -0.29197995472E+02 -0.25096635760E+02  0.30075856149E+01  0.38618773120E+02  0.00000000000E+00 0. -1.
</event>
<event>
 7    1  0.4639347E-015  0.9000777E+02  0.7816164E-02  0.1186339E+00
        -11   -1    0    0    0    0  0.00000000000E+00  0.00000000000E+00  0.45593999997E+02  0.45594000000E+02  0.51100000000E-03 0.  1.
         11   -1    0    0    0    0 -0.00000000000E+00 -0.00000000000E+00 -0.45593999997E+02  0.45594000000E+02  0.51100000000E-03 0. -1.
    9900012    2    1    2    0    0  0.78203840099E+00  0.87745609426E+00  0.10686851007E+00  0.90007773693E+02  0.90000035505E+02 0.  0.
         12    1    1    2    0    0 -0.78203840099E+00 -0.87745609426E+00 -0.10686851007E+00  0.11802263073E+01  0.00000000000E+00 0. -1.
         11    1    3    3    0    0 -0.69357857687E+01 -0.17323391015E+01  0.47795190234E+01  0.85994142445E+01  0.51100000000E-03 0. -1.
        -11    1    3    3    0    0 -0.15096560419E+02 -0.29604854967E+02  0.15960852360E+02  0.36866005783E+02  0.51100000000E-03 0.  1.
         12    1    3    3    0    0  0.22814384588E+02  0.32214650163E+02 -0.20633502873E+02  0.44542353665E+02  0.00000000000E+00 0. -1.
</event>
<event>
 7    1  0.4639347E-015  0.9000784E+02  0.7816164E-02  0.1186339E+00
        -11   -1    0    0    0    0  0.00000000000E+00  0.00000000000E+00  0.45593999997E+02  0.45594000000E+02  0.51100000000E-03 0. -1.
         11   -1    0    0    0    0 -0.00000000000E+00 -0.00000000000E+00 -0.45593999997E+02  0.45594000000E+02  0.51100000000E-03 0.  1.
    9900012    2    1    2    0    0  0.48243918101E+00  0.65676398010E+00  0.85363518080E+00  0.90007839201E+02  0.90000101879E+02 0.  0.
         12    1    1    2    0    0 -0.48243918101E+00 -0.65676398010E+00 -0.85363518080E+00  0.11801607987E+01  0.00000000000E+00 0. -1.
         11    1    3    3    0    0  0.29178259117E+01 -0.95049777830E+01 -0.22459740311E+01  0.10193267892E+02  0.51100000000E-03 0. -1.
        -11    1    3    3    0    0 -0.31039487581E+02 -0.59115145110E+01  0.25063609437E+02  0.40330885329E+02  0.51100000000E-03 0.  1.
         12    1    3    3    0    0  0.28604100851E+02  0.16073256274E+02 -0.21964000225E+02  0.39483685981E+02  0.00000000000E+00 0. -1.
</event>
<event>
 7    1  0.4639347E-015  0.9000763E+02  0.7816164E-02  0.1186339E+00
        -11   -1    0    0    0    0  0.00000000000E+00  0.00000000000E+00  0.45593999997E+02  0.45594000000E+02  0.51100000000E-03 0.  1.
         11   -1    0    0    0    0 -0.00000000000E+00 -0.00000000000E+00 -0.45593999997E+02  0.45594000000E+02  0.51100000000E-03 0. -1.
    9900012    2    1    2    0    0  0.76277896262E+00  0.80077767207E+00  0.41253734882E+00  0.90007634086E+02  0.89999894056E+02 0.  0.
         12    1    1    2    0    0 -0.76277896262E+00 -0.80077767207E+00 -0.41253734882E+00  0.11803659136E+01  0.00000000000E+00 0. -1.
         11    1    3    3    0    0  0.19846578019E+02 -0.21776477029E+02  0.24612631544E+02  0.38391187044E+02  0.51100000000E-03 0. -1.
        -11    1    3    3    0    0 -0.18102129158E+01  0.36546025006E+01  0.88816963339E+01  0.97733065165E+01  0.51100000000E-03 0.  1.
        -12    1    3    3    0    0 -0.17273586140E+02  0.18922652200E+02 -0.33081790529E+02  0.41843140526E+02  0.00000000000E+00 0.  1.
</event>
<event>
 7    1  0.4639347E-015  0.9000775E+02  0.7816164E-02  0.1186339E+00
        -11   -1    0    0    0    0  0.00000000000E+00  0.00000000000E+00  0.45593999997E+02  0.45594000000E+02  0.51100000000E-03 0. -1.
         11   -1    0    0    0    0 -0.00000000000E+00 -0.00000000000E+00 -0.45593999997E+02  0.45594000000E+02  0.51100000000E-03 0.  1.
    9900012    2    1    2    0    0  0.11299521849E+01  0.34005893380E+00 -0.23823550053E-01  0.90007745968E+02  0.90000007415E+02 0.  0.
         12    1    1    2    0    0 -0.11299521849E+01 -0.34005893380E+00  0.23823550053E-01  0.11802540320E+01  0.00000000000E+00 0. -1.
         11    1    3    3    0    0 -0.26723296752E+00 -0.53627925611E+01  0.46708576937E+01  0.71167316493E+01  0.51100000000E-03 0. -1.
        -11    1    3    3    0    0  0.39348048472E+02 -0.46633115532E+01  0.10049106205E+02  0.40877866003E+02  0.51100000000E-03 0.  1.
         12    1    3    3    0    0 -0.37950863320E+02  0.10366163048E+02 -0.14743787448E+02  0.42013148315E+02  0.00000000000E+00 0. -1.
</event>
<event>
 7    1  0.4639347E-015  0.9000756E+02  0.7816164E-02  0.1186339E+00
        -11   -1    0    0    0    0  0.00000000000E+00  0.00000000000E+00  0.45593999997E+02  0.45594000000E+02  0.51100000000E-03 0.  1.
         11   -1    0    0    0    0 -0.00000000000E+00 -0.00000000000E+00 -0.45593999997E+02  0.45594000000E+02  0.51100000000E-03 0. -1.
    9900012    2    1    2    0    0 -0.74428554282E+00 -0.91105234258E+00  0.97240065482E-01  0.90007562382E+02  0.89999821405E+02 0.  0.
         12    1    1    2    0    0  0.74428554282E+00  0.91105234258E+00 -0.97240065482E-01  0.11804376182E+01  0.00000000000E+00 0. -1.
         11    1    3    3    0    0 -0.43074629073E+00 -0.24058125109E+02 -0.34471951376E+02  0.42039200255E+02  0.51100000000E-03 0. -1.
        -11    1    3    3    0    0  0.12773520209E+01  0.98371903979E+01 -0.98755125549E+00  0.99688114063E+01  0.51100000000E-03 0.  1.
        -12    1    3    3    0    0 -0.15908912730E+01  0.13309882369E+02  0.35556742697E+02  0.37999550720E+02  0.00000000000E+00 0.  1.
</event>
<event>
 7    1  0.4639347E-015  0.9000884E+02  0.7816164E-02  0.1186337E+00
        -11   -1    0    0    0    0  0.00000000000E+00  0.00000000000E+00  0.45593999997E+02  0.45594000000E+02  0.51100000000E-03 0.  1.
         11   -1    0    0    0    0 -0.00000000000E+00 -0.00000000000E+00 -0.45593999997E+02  0.45594000000E+02  0.51100000000E-03 0. -1.
    9900012    2    1    2    0    0  0.40783545901E+00  0.59839469403E+00 -0.93059896341E+00  0.90008839111E+02  0.90001114980E+02 0.  0.
         12    1    1    2    0    0 -0.40783545901E+00 -0.59839469403E+00  0.93059896341E+00  0.11791608890E+01  0.00000000000E+00 0. -1.
         11    1    3    3    0    0  0.19819580697E+02  0.26977712457E+02  0.14357220541E+02  0.36424477077E+02  0.51100000000E-03 0. -1.
        -11    1    3    3    0    0  0.78795022550E+01  0.17229101271E+01  0.49792258318E+01  0.94788008333E+01  0.51100000000E-03 0.  1.
        -12    1    3    3    0    0 -0.27291247493E+02 -0.28102227890E+02 -0.20267045337E+02  0.44105561200E+02  0.00000000000E+00 0.  1.
</event>
<event>
 7    1  0.4639347E-015  0.9000689E+02  0.7816164E-02  0.1186341E+00
        -11   -1    0    0    0    0  0.00000000000E+00  0.00000000000E+00  0.45593999997E+02  0.45594000000E+02  0.51100000000E-03 0. -1.
         11   -1    0    0    0    0 -0.00000000000E+00 -0.00000000000E+00 -0.45593999997E+02  0.45594000000E+02  0.51100000000E-03 0.  1.
    9900012    2    1    2    0    0 -0.12487251734E+00 -0.10550740412E+01 -0.51597951961E+00  0.90006894906E+02  0.89999145115E+02 0.  0.
         12    1    1    2    0    0  0.12487251734E+00  0.10550740412E+01  0.51597951961E+00  0.11811050939E+01  0.00000000000E+00 0. -1.
         11    1    3    3    0    0  0.29024835590E+02  0.23644107348E+02 -0.82254492822E+01  0.38329400067E+02  0.51100000000E-03 0. -1.
        -11    1    3    3    0    0  0.31955634466E+01  0.40593398186E+01 -0.43432655167E+01  0.67493570890E+01  0.51100000000E-03 0.  1.
        -12    1    3    3    0    0 -0.32345271554E+02 -0.28758521208E+02  0.12052735279E+02  0.44928137750E+02  0.00000000000E+00 0.  1.
</event>
<event>
 7    1  0.4639347E-015  0.9000769E+02  0.7816164E-02  0.1186339E+00
        -11   -1    0    0    0    0  0.00000000000E+00  0.00000000000E+00  0.45593999997E+02  0.45594000000E+02  0.51100000000E-03 0.  1.
         11   -1    0    0    0    0 -0.00000000000E+00 -0.00000000000E+00 -0.45593999997E+02  0.45594000000E+02  0.51100000000E-03 0. -1.
    9900012    2    1    2    0    0  0.11669772621E+01 -0.12382853861E+00 -0.12637754733E+00  0.90007686177E+02  0.89999946834E+02 0.  0.
         12    1    1    2    0    0 -0.11669772621E+01  0.12382853861E+00  0.12637754733E+00  0.11803138234E+01  0.00000000000E+00 0. -1.
         11    1    3    3    0    0  0.58616375105E+01 -0.47662637140E+01  0.28443368236E+01  0.80725656592E+01  0.51100000000E-03 0. -1.
        -11    1    3    3    0    0 -0.42230972197E+02  0.39540055696E+01  0.72390477202E+01  0.43028978432E+02  0.51100000000E-03 0.  1.
         12    1    3    3    0    0  0.37536311949E+02  0.68842960574E+00 -0.10209762091E+02  0.38906142085E+02  0.00000000000E+00 0. -1.
</event>
<event>
 7    1  0.4639347E-015  0.9000781E+02  0.7816164E-02  0.1186339E+00
        -11   -1    0    0    0    0  0.00000000000E+00  0.00000000000E+00  0.45593999997E+02  0.45594000000E+02  0.51100000000E-03 0. -1.
         11   -1    0    0    0    0 -0.00000000000E+00 -0.00000000000E+00 -0.45593999997E+02  0.45594000000E+02  0.51100000000E-03 0.  1.
    9900012    2    1    2    0    0  0.52672798180E+00 -0.33424217215E-01 -0.10556031107E+01  0.90007806172E+02  0.90000068413E+02 0.  0.
         12    1    1    2    0    0 -0.52672798180E+00  0.33424217215E-01  0.10556031107E+01  0.11801938283E+01  0.00000000000E+00 0. -1.
         11    1    3    3    0    0  0.35542035619E+01 -0.44304664384E+01 -0.90395061039E+01  0.10675863744E+02  0.51100000000E-03 0. -1.
        -11    1    3    3    0    0  0.35782986746E+02  0.14241573555E+02  0.45129415898E-01  0.38512940614E+02  0.51100000000E-03 0.  1.
         12    1    3    3    0    0 -0.38810462326E+02 -0.98445313339E+01  0.79387735773E+01  0.40819001814E+02  0.00000000000E+00 0. -1.
</event>
<event>
 7    1  0.4639347E-015  0.9000773E+02  0.7816164E-02  0.1186339E+00
        -11   -1    0    0    0    0  0.00000000000E+00  0.00000000000E+00  0.45593999997E+02  0.45594000000E+02  0.51100000000E-03 0.  1.
         11   -1    0    0    0    0 -0.00000000000E+00 -0.00000000000E+00 -0.45593999997E+02  0.45594000000E+02  0.51100000000E-03 0. -1.
    9900012    2    1    2    0    0 -0.82558633473E+00 -0.41422131406E+00 -0.73476314344E+00  0.90007725045E+02  0.89999986215E+02 0.  0.
         12    1    1    2    0    0  0.82558633473E+00  0.41422131406E+00  0.73476314344E+00  0.11802749553E+01  0.00000000000E+00 0. -1.
         11    1    3    3    0    0 -0.70585606785E+01 -0.35956963928E+01  0.40498432935E+01  0.88968276573E+01  0.51100000000E-03 0. -1.
        -11    1    3    3    0    0 -0.12063992580E+02 -0.13259972787E+02  0.32105619189E+02  0.36771423402E+02  0.51100000000E-03 0.  1.
         12    1    3    3    0    0  0.18296966924E+02  0.16441447865E+02 -0.36890225626E+02  0.44339473985E+02  0.00000000000E+00 0. -1.
</event>
<event>
 7    1  0.4639347E-015  0.9000776E+02  0.7816164E-02  0.1186339E+00
        -11   -1    0    0    0    0  0.00000000000E+00  0.00000000000E+00  0.45593999997E+02  0.45594000000E+02  0.51100000000E-03 0.  1.
         11   -1    0    0    0    0 -0.00000000000E+00 -0.00000000000E+00 -0.45593999997E+02  0.45594000000E+02  0.51100000000E-03 0. -1.
    9900012    2    1    2    0    0  0.11900204094E+00 -0.56053490969E+00  0.10317971642E+01  0.90007760084E+02  0.90000021717E+02 0.  0.
         12    1    1    2    0    0 -0.11900204094E+00  0.56053490969E+00 -0.10317971642E+01  0.11802399158E+01  0.00000000000E+00 0. -1.
         11    1    3    3    0    0 -0.57717264883E+01 -0.39764265856E+02 -0.34199871662E+00  0.40182416915E+02  0.51100000000E-03 0. -1.
        -11    1    3    3    0    0  0.80967273381E+01  0.43111941259E+00  0.68390771624E+01  0.10607348124E+02  0.51100000000E-03 0.  1.
        -12    1    3    3    0    0 -0.22059988088E+01  0.38772611534E+02 -0.54652812815E+01  0.39217995045E+02  0.00000000000E+00 0.  1.
</event>
<event>
 7    1  0.4639347E-015  0.9000779E+02  0.7816164E-02  0.1186339E+00
        -11   -1    0    0    0    0  0.00000000000E+00  0.00000000000E+00  0.45593999997E+02  0.45594000000E+02  0.51100000000E-03 0.  1.
         11   -1    0    0    0    0 -0.00000000000E+00 -0.00000000000E+00 -0.45593999997E+02  0.45594000000E+02  0.51100000000E-03 0. -1.
    9900012    2    1    2    0    0 -0.99830245697E+00  0.54641412894E+00 -0.31261220632E+00  0.90007787058E+02  0.90000049048E+02 0.  0.
         12    1    1    2    0    0  0.99830245697E+00 -0.54641412894E+00  0.31261220632E+00  0.11802129416E+01  0.00000000000E+00 0. -1.
         11    1    3    3    0    0 -0.18445495074E+02 -0.37355103430E+01 -0.31874872785E+02  0.37016183506E+02  0.51100000000E-03 0. -1.
        -11    1    3    3    0    0 -0.90392590639E+01  0.27137955039E+01 -0.25492052622E+01  0.97760594409E+01  0.51100000000E-03 0.  1.
        -12    1    3    3    0    0  0.26486451681E+02  0.15681289680E+01  0.34111465840E+02  0.43215544112E+02  0.00000000000E+00 0.  1.
</event>
<event>
 7    1  0.4639347E-015  0.9000789E+02  0.7816164E-02  0.1186339E+00
        -11   -1    0    0    0    0  0.00000000000E+00  0.00000000000E+00  0.45593999997E+02  0.45594000000E+02  0.51100000000E-03 0.  1.
         11   -1    0    0    0    0 -0.00000000000E+00 -0.00000000000E+00 -0.45593999997E+02  0.45594000000E+02  0.51100000000E-03 0. -1.
    9900012    2    1    2    0    0  0.81729105064E+00 -0.81912695165E+00  0.23179369068E+00  0.90007889014E+02  0.90000152349E+02 0.  0.
         12    1    1    2    0    0 -0.81729105064E+00  0.81912695165E+00 -0.23179369068E+00  0.11801109861E+01  0.00000000000E+00 0. -1.
         11    1    3    3    0    0 -0.46698983928E+01  0.30653755934E+01  0.64837936282E+01  0.85582742771E+01  0.51100000000E-03 0. -1.
        -11    1    3    3    0    0 -0.77170618376E+01 -0.13355716393E+02  0.34383800453E+02  0.37685195205E+02  0.51100000000E-03 0.  1.
         12    1    3    3    0    0  0.13204251281E+02  0.94712138477E+01 -0.40635800390E+02  0.43764419532E+02  0.00000000000E+00 0. -1.
</event>
<event>
 7    1  0.4639347E-015  0.9000768E+02  0.7816164E-02  0.1186339E+00
        -11   -1    0    0    0    0  0.00000000000E+00  0.00000000000E+00  0.45593999997E+02  0.45594000000E+02  0.51100000000E-03 0.  1.
         11   -1    0    0    0    0 -0.00000000000E+00 -0.00000000000E+00 -0.45593999997E+02  0.45594000000E+02  0.51100000000E-03 0. -1.
    9900012    2    1    2    0    0 -0.22833665619E+00 -0.93780196134E+00  0.67937267971E+00  0.90007679118E+02  0.89999939682E+02 0.  0.
         12    1    1    2    0    0  0.22833665619E+00  0.93780196134E+00 -0.67937267971E+00  0.11803208823E+01  0.00000000000E+00 0. -1.
         11    1    3    3    0    0  0.10777718589E+02  0.91656232230E+01 -0.31526435110E+02  0.34555520225E+02  0.51100000000E-03 0. -1.
        -11    1    3    3    0    0 -0.48016113422E+01  0.10575889323E+02 -0.48329790395E+01  0.12580246147E+02  0.51100000000E-03 0.  1.
        -12    1    3    3    0    0 -0.62044439027E+01 -0.20679314508E+02  0.37038786829E+02  0.42871912745E+02  0.00000000000E+00 0.  1.
</event>
<event>
 7    1  0.4639347E-015  0.9000792E+02  0.7816164E-02  0.1186339E+00
        -11   -1    0    0    0    0  0.00000000000E+00  0.00000000000E+00  0.45593999997E+02  0.45594000000E+02  0.51100000000E-03 0.  1.
         11   -1    0    0    0    0 -0.00000000000E+00 -0.00000000000E+00 -0.45593999997E+02  0.45594000000E+02  0.51100000000E-03 0. -1.
    9900012    2    1    2    0    0 -0.84056122216E+00 -0.45779885680E+00  0.69025657082E+00  0.90007924962E+02  0.90000188771E+02 0.  0.
         12    1    1    2    0    0  0.84056122216E+00  0.45779885680E+00 -0.69025657082E+00  0.11800750379E+01  0.00000000000E+00 0. -1.
         11    1    3    3    0    0 -0.54418516673E+00 -0.94521096395E-01  0.95385112988E+01  0.95544895098E+01  0.51100000000E-03 0. -1.
        -11    1    3    3    0    0  0.32818710112E+02  0.21156486358E+02 -0.11960866679E+02  0.40837813120E+02  0.51100000000E-03 0.  1.
         12    1    3    3    0    0 -0.33115086168E+02 -0.21519764119E+02  0.31126119511E+01  0.39615622332E+02  0.00000000000E+00 0. -1.
</event>
<event>
 7    1  0.4639347E-015  0.9000700E+02  0.7816164E-02  0.1186341E+00
        -11   -1    0    0    0    0  0.00000000000E+00  0.00000000000E+00  0.45593999997E+02  0.45594000000E+02  0.51100000000E-03 0.  1.
         11   -1    0    0    0    0 -0.00000000000E+00 -0.00000000000E+00 -0.45593999997E+02  0.45594000000E+02  0.51100000000E-03 0. -1.
    9900012    2    1    2    0    0 -0.11421543007E+01  0.27459776293E+00  0.12179056128E+00  0.90007003252E+02  0.89999254892E+02 0.  0.
         12    1    1    2    0    0  0.11421543007E+01 -0.27459776293E+00 -0.12179056128E+00  0.11809967481E+01  0.00000000000E+00 0. -1.
         11    1    3    3    0    0 -0.31880864217E+01  0.10488125010E+02 -0.33020282235E+02  0.34792293693E+02  0.51100000000E-03 0. -1.
        -11    1    3    3    0    0  0.15952694568E+02  0.10551981352E+02  0.15579328586E+02  0.24668770822E+02  0.51100000000E-03 0.  1.
        -12    1    3    3    0    0 -0.13906762447E+02 -0.20765508599E+02  0.17562744211E+02  0.30545938737E+02  0.00000000000E+00 0.  1.
</event>
<event>
 7    1  0.4639347E-015  0.9000776E+02  0.7816164E-02  0.1186339E+00
        -11   -1    0    0    0    0  0.00000000000E+00  0.00000000000E+00  0.45593999997E+02  0.45594000000E+02  0.51100000000E-03 0.  1.
         11   -1    0    0    0    0 -0.00000000000E+00 -0.00000000000E+00 -0.45593999997E+02  0.45594000000E+02  0.51100000000E-03 0. -1.
    9900012    2    1    2    0    0  0.34829316490E+00 -0.20997426683E-01  0.11274858331E+01  0.90007757091E+02  0.90000018685E+02 0.  0.
         12    1    1    2    0    0 -0.34829316490E+00  0.20997426683E-01 -0.11274858331E+01  0.11802429091E+01  0.00000000000E+00 0. -1.
         11    1    3    3    0    0  0.16615769387E+01 -0.86309913576E+01 -0.40349015421E+01  0.96713639397E+01  0.51100000000E-03 0. -1.
        -11    1    3    3    0    0 -0.37216909734E+02 -0.97041541834E+01 -0.49603823196E+01  0.38779819128E+02  0.51100000000E-03 0.  1.
        -12    1    3    3    0    0  0.35903625960E+02  0.18314148114E+02  0.10122769695E+02  0.41556574023E+02  0.00000000000E+00 0.  1.
</event>
<event>
 7    1  0.4639347E-015  0.9000770E+02  0.7816164E-02  0.1186339E+00
        -11   -1    0    0    0    0  0.00000000000E+00  0.00000000000E+00  0.45593999997E+02  0.45594000000E+02  0.51100000000E-03 0.  1.
         11   -1    0    0    0    0 -0.00000000000E+00 -0.00000000000E+00 -0.45593999997E+02  0.45594000000E+02  0.51100000000E-03 0. -1.
    9900012    2    1    2    0    0 -0.89682016651E+00 -0.71364064674E+00  0.28203542715E+00  0.90007697765E+02  0.89999958576E+02 0.  0.
         12    1    1    2    0    0  0.89682016651E+00  0.71364064674E+00 -0.28203542715E+00  0.11803022350E+01  0.00000000000E+00 0. -1.
         11    1    3    3    0    0  0.59050035748E+01 -0.21847368774E+02 -0.25629222878E+02  0.34191134160E+02  0.51100000000E-03 0. -1.
        -11    1    3    3    0    0 -0.11650583949E+02 -0.50317873041E+01 -0.61897790068E+01  0.14119785913E+02  0.51100000000E-03 0.  1.
        -12    1    3    3    0    0  0.48487602075E+01  0.26165515432E+02  0.32101037312E+02  0.41696777692E+02  0.00000000000E+00 0.  1.
</event>
<event>
 7    1  0.4639347E-015  0.9000768E+02  0.7816164E-02  0.1186339E+00
        -11   -1    0    0    0    0  0.00000000000E+00  0.00000000000E+00  0.45593999997E+02  0.45594000000E+02  0.51100000000E-03 0. -1.
         11   -1    0    0    0    0 -0.00000000000E+00 -0.00000000000E+00 -0.45593999997E+02  0.45594000000E+02  0.51100000000E-03 0.  1.
    9900012    2    1    2    0    0  0.70031180032E-01 -0.10240204644E+01  0.58277261403E+00  0.90007683857E+02  0.89999944484E+02 0.  0.
         12    1    1    2    0    0 -0.70031180032E-01  0.10240204644E+01 -0.58277261403E+00  0.11803161430E+01  0.00000000000E+00 0. -1.
         11    1    3    3    0    0 -0.29687757893E+02 -0.17438497631E+02  0.14326330825E+02  0.37292196550E+02  0.51100000000E-03 0. -1.
        -11    1    3    3    0    0 -0.54018514835E+00 -0.10401557902E+02 -0.33520979300E+01  0.10941698569E+02  0.51100000000E-03 0.  1.
        -12    1    3    3    0    0  0.30297974221E+02  0.26816035069E+02 -0.10391460281E+02  0.41773788738E+02  0.00000000000E+00 0.  1.
</event>
<event>
 7    1  0.4639347E-015  0.9000769E+02  0.7816164E-02  0.1186339E+00
        -11   -1    0    0    0    0  0.00000000000E+00  0.00000000000E+00  0.45593999997E+02  0.45594000000E+02  0.51100000000E-03 0.  1.
         11   -1    0    0    0    0 -0.00000000000E+00 -0.00000000000E+00 -0.45593999997E+02  0.45594000000E+02  0.51100000000E-03 0. -1.
    9900012    2    1    2    0    0 -0.86156743373E+00 -0.66353018338E+00  0.45886215134E+00  0.90007692743E+02  0.89999953487E+02 0.  0.
         12    1    1    2    0    0  0.86156743373E+00  0.66353018338E+00 -0.45886215134E+00  0.11803072571E+01  0.00000000000E+00 0. -1.
         11    1    3    3    0    0  0.43924873801E+01  0.76898865215E+01 -0.41321328127E+00  0.88656102765E+01  0.51100000000E-03 0. -1.
        -11    1    3    3    0    0  0.16882309512E+02 -0.39482262484E+02  0.49007936737E+00  0.42943004126E+02  0.51100000000E-03 0.  1.
         12    1    3    3    0    0 -0.22136364326E+02  0.31128845779E+02  0.38199606524E+00  0.38199078341E+02  0.00000000000E+00 0. -1.
</event>
<event>
 7    1  0.4639347E-015  0.9000770E+02  0.7816164E-02  0.1186339E+00
        -11   -1    0    0    0    0  0.00000000000E+00  0.00000000000E+00  0.45593999997E+02  0.45594000000E+02  0.51100000000E-03 0. -1.
         11   -1    0    0    0    0 -0.00000000000E+00 -0.00000000000E+00 -0.45593999997E+02  0.45594000000E+02  0.51100000000E-03 0.  1.
    9900012    2    1    2    0    0 -0.76082985759E+00  0.25986129564E+00 -0.86412385223E+00  0.90007703428E+02  0.89999964314E+02 0.  0.
         12    1    1    2    0    0  0.76082985759E+00 -0.25986129564E+00  0.86412385223E+00  0.11802965717E+01  0.00000000000E+00 0. -1.
         11    1    3    3    0    0  0.86231175038E+01  0.32384437803E+02 -0.98527002560E+01  0.34931156149E+02  0.51100000000E-03 0. -1.
        -11    1    3    3    0    0  0.52111126384E+01  0.90202916718E+01 -0.38627360937E+00  0.10424517463E+02  0.51100000000E-03 0.  1.
        -12    1    3    3    0    0 -0.14595060000E+02 -0.41144868180E+02  0.93748500131E+01  0.44652029816E+02  0.00000000000E+00 0.  1.
</event>
<event>
 7    1  0.4639347E-015  0.9000731E+02  0.7816164E-02  0.1186340E+00
        -11   -1    0    0    0    0  0.00000000000E+00  0.00000000000E+00  0.45593999997E+02  0.45594000000E+02  0.51100000000E-03 0.  1.
         11   -1    0    0    0    0 -0.00000000000E+00 -0.00000000000E+00 -0.45593999997E+02  0.45594000000E+02  0.51100000000E-03 0. -1.
    9900012    2    1    2    0    0  0.92408186999E+00  0.62046399042E+00  0.39387283841E+00  0.90007305849E+02  0.89999561485E+02 0.  0.
         12    1    1    2    0    0 -0.92408186999E+00 -0.62046399042E+00 -0.39387283841E+00  0.11806941512E+01  0.00000000000E+00 0. -1.
         11    1    3    3    0    0  0.42878670174E+02 -0.33463992056E+01  0.55233595561E+01  0.43362267522E+02  0.51100000000E-03 0. -1.
        -11    1    3    3    0    0 -0.45134984765E+01  0.74706652126E+01 -0.32080597199E+00  0.87341527322E+01  0.51100000000E-03 0.  1.
        -12    1    3    3    0    0 -0.37441089828E+02 -0.35038020166E+01 -0.48086807457E+01  0.37910885595E+02  0.00000000000E+00 0.  1.
</event>
<event>
 7    1  0.4639347E-015  0.9000774E+02  0.7816164E-02  0.1186339E+00
        -11   -1    0    0    0    0  0.00000000000E+00  0.00000000000E+00  0.45593999997E+02  0.45594000000E+02  0.51100000000E-03 0.  1.
         11   -1    0    0    0    0 -0.00000000000E+00 -0.00000000000E+00 -0.45593999997E+02  0.45594000000E+02  0.51100000000E-03 0. -1.
    9900012    2    1    2    0    0  0.10826834280E+01 -0.44294532053E+00  0.15684672914E+00  0.90007743732E+02  0.90000005149E+02 0.  0.
         12    1    1    2    0    0 -0.10826834280E+01  0.44294532053E+00 -0.15684672914E+00  0.11802562682E+01  0.00000000000E+00 0. -1.
         11    1    3    3    0    0 -0.32687148703E+01  0.64903295196E+01  0.51158568646E+01  0.88871179748E+01  0.51100000000E-03 0. -1.
        -11    1    3    3    0    0  0.11720975441E+02  0.22394457129E+02  0.27094549322E+02  0.37054116891E+02  0.51100000000E-03 0.  1.
         12    1    3    3    0    0 -0.73695771423E+01 -0.29327731969E+02 -0.32053559457E+02  0.44066508866E+02  0.00000000000E+00 0. -1.
</event>
<event>
 7    1  0.4639347E-015  0.9000773E+02  0.7816164E-02  0.1186339E+00
        -11   -1    0    0    0    0  0.00000000000E+00  0.00000000000E+00  0.45593999997E+02  0.45594000000E+02  0.51100000000E-03 0. -1.
         11   -1    0    0    0    0 -0.00000000000E+00 -0.00000000000E+00 -0.45593999997E+02  0.45594000000E+02  0.51100000000E-03 0.  1.
    9900012    2    1    2    0    0 -0.32952115869E+00 -0.75519496680E+00  0.84505956371E+00  0.90007733378E+02  0.89999994659E+02 0.  0.
         12    1    1    2    0    0  0.32952115869E+00  0.75519496680E+00 -0.84505956371E+00  0.11802666216E+01  0.00000000000E+00 0. -1.
         11    1    3    3    0    0 -0.35678664893E+01 -0.84676558018E+01 -0.32647228224E+01  0.97513733100E+01  0.51100000000E-03 0. -1.
        -11    1    3    3    0    0  0.89898071243E+01  0.82023370257E+01 -0.36893511126E+02  0.38848759675E+02  0.51100000000E-03 0.  1.
         12    1    3    3    0    0 -0.57514617937E+01 -0.48987619071E+00  0.41003293512E+02  0.41407600393E+02  0.00000000000E+00 0. -1.
</event>
<event>
 7    1  0.4639347E-015  0.9000782E+02  0.7816164E-02  0.1186339E+00
        -11   -1    0    0    0    0  0.00000000000E+00  0.00000000000E+00  0.45593999997E+02  0.45594000000E+02  0.51100000000E-03 0. -1.
         11   -1    0    0    0    0 -0.00000000000E+00 -0.00000000000E+00 -0.45593999997E+02  0.45594000000E+02  0.51100000000E-03 0.  1.
    9900012    2    1    2    0    0 -0.74450883546E+00 -0.87873120616E+00 -0.25762953953E+00  0.90007815727E+02  0.90000078094E+02 0.  0.
         12    1    1    2    0    0  0.74450883546E+00  0.87873120616E+00  0.25762953953E+00  0.11801842731E+01  0.00000000000E+00 0. -1.
         11    1    3    3    0    0  0.35557872492E+01  0.18491229830E+01 -0.10827591053E+02  0.11545544900E+02  0.51100000000E-03 0. -1.
        -11    1    3    3    0    0 -0.79504243786E+01  0.25248981100E+02 -0.22677708168E+02  0.34856832077E+02  0.51100000000E-03 0.  1.
         12    1    3    3    0    0  0.36501282939E+01 -0.27976835289E+02  0.33247669681E+02  0.43605438750E+02  0.00000000000E+00 0. -1.
</event>
<event>
 7    1  0.4706381E-015  0.9000758E+02  0.7816164E-02  0.1186339E+00
        -11   -1    0    0    0    0  0.00000000000E+00  0.00000000000E+00  0.45593999997E+02  0.45594000000E+02  0.51100000000E-03 0.  1.
         11   -1    0    0    0    0 -0.00000000000E+00 -0.00000000000E+00 -0.45593999997E+02  0.45594000000E+02  0.51100000000E-03 0. -1.
    9900012    2    1    2    0    0 -0.90493914194E+00  0.33384005450E+00 -0.68046248370E+00  0.90007579217E+02  0.89999838463E+02 0.  0.
         12    1    1    2    0    0  0.90493914194E+00 -0.33384005450E+00  0.68046248370E+00  0.11804207827E+01  0.00000000000E+00 0. -1.
         11    1    3    3    0    0  0.62634449421E+01  0.67251223451E+01  0.28834279300E+01  0.96318310818E+01  0.51100000000E-03 0. -1.
        -11    1    3    3    0    0  0.35410617881E+02  0.56934554161E+01 -0.41996876824E+01  0.36110450983E+02  0.51100000000E-03 0.  1.
         12    1    3    3    0    0 -0.42579001965E+02 -0.12084737707E+02  0.63579726873E+00  0.44265297152E+02  0.00000000000E+00 0. -1.
</event>
<event>
 7    1  0.4639347E-015  0.9000806E+02  0.7816164E-02  0.1186338E+00
        -11   -1    0    0    0    0  0.00000000000E+00  0.00000000000E+00  0.45593999997E+02  0.45594000000E+02  0.51100000000E-03 0.  1.
         11   -1    0    0    0    0 -0.00000000000E+00 -0.00000000000E+00 -0.45593999997E+02  0.45594000000E+02  0.51100000000E-03 0. -1.
    9900012    2    1    2    0    0  0.79498351568E+00  0.86825995068E+00  0.79863883786E-01  0.90008062556E+02  0.90000328181E+02 0.  0.
         12    1    1    2    0    0 -0.79498351568E+00 -0.86825995068E+00 -0.79863883786E-01  0.11799374441E+01  0.00000000000E+00 0. -1.
         11    1    3    3    0    0  0.30601486836E+02 -0.20747501725E+02 -0.83160415524E+01  0.37895466374E+02  0.51100000000E-03 0. -1.
        -11    1    3    3    0    0  0.83692440154E+01  0.41174922183E+01  0.22422712976E+00  0.93299660034E+01  0.51100000000E-03 0.  1.
        -12    1    3    3    0    0 -0.38175747335E+02  0.17498269457E+02  0.81716783065E+01  0.42782630178E+02  0.00000000000E+00 0.  1.
</event>
<event>
 7    1  0.4639347E-015  0.9000777E+02  0.7816164E-02  0.1186339E+00
        -11   -1    0    0    0    0  0.00000000000E+00  0.00000000000E+00  0.45593999997E+02  0.45594000000E+02  0.51100000000E-03 0.  1.
         11   -1    0    0    0    0 -0.00000000000E+00 -0.00000000000E+00 -0.45593999997E+02  0.45594000000E+02  0.51100000000E-03 0. -1.
    9900012    2    1    2    0    0  0.40049208828E-01 -0.89293076890E+00  0.77072115729E+00  0.90007771039E+02  0.90000032817E+02 0.  0.
         12    1    1    2    0    0 -0.40049208828E-01  0.89293076890E+00 -0.77072115729E+00  0.11802289606E+01  0.00000000000E+00 0. -1.
         11    1    3    3    0    0  0.30208665452E+02 -0.18798620385E+02  0.16289462617E+02  0.39131805343E+02  0.51100000000E-03 0. -1.
        -11    1    3    3    0    0  0.61044933238E+01  0.76375116740E+01  0.77287714173E+00  0.98078418955E+01  0.51100000000E-03 0.  1.
        -12    1    3    3    0    0 -0.36273109567E+02  0.10268177942E+02 -0.16291618601E+02  0.41068123801E+02  0.00000000000E+00 0.  1.
</event>
<event>
 7    1  0.4639347E-015  0.9000774E+02  0.7816164E-02  0.1186339E+00
        -11   -1    0    0    0    0  0.00000000000E+00  0.00000000000E+00  0.45593999997E+02  0.45594000000E+02  0.51100000000E-03 0.  1.
         11   -1    0    0    0    0 -0.00000000000E+00 -0.00000000000E+00 -0.45593999997E+02  0.45594000000E+02  0.51100000000E-03 0. -1.
    9900012    2    1    2    0    0  0.11142003471E+01 -0.18483702197E+00  0.34263304910E+00  0.90007743865E+02  0.90000005284E+02 0.  0.
         12    1    1    2    0    0 -0.11142003471E+01  0.18483702197E+00 -0.34263304910E+00  0.11802561352E+01  0.00000000000E+00 0. -1.
         11    1    3    3    0    0  0.56924333497E+01  0.64325942628E+00  0.19115322739E+01  0.60391668321E+01  0.51100000000E-03 0. -1.
        -11    1    3    3    0    0  0.23466181214E+02  0.29355645688E+02  0.13740062798E+02  0.40015058672E+02  0.51100000000E-03 0.  1.
         12    1    3    3    0    0 -0.28044414217E+02 -0.30183742136E+02 -0.15308962023E+02  0.43953518361E+02  0.00000000000E+00 0. -1.
</event>
<event>
 7    1  0.4639347E-015  0.9000779E+02  0.7816164E-02  0.1186339E+00
        -11   -1    0    0    0    0  0.00000000000E+00  0.00000000000E+00  0.45593999997E+02  0.45594000000E+02  0.51100000000E-03 0. -1.
         11   -1    0    0    0    0 -0.00000000000E+00 -0.00000000000E+00 -0.45593999997E+02  0.45594000000E+02  0.51100000000E-03 0.  1.
    9900012    2    1    2    0    0 -0.48523144555E+00 -0.50311179339E+00 -0.95096520872E+00  0.90007785672E+02  0.90000047643E+02 0.  0.
         12    1    1    2    0    0  0.48523144555E+00  0.50311179339E+00  0.95096520872E+00  0.11802143282E+01  0.00000000000E+00 0. -1.
         11    1    3    3    0    0  0.33483490752E+02  0.14748224138E+02  0.11059820950E+02  0.38222688391E+02  0.51100000000E-03 0. -1.
        -11    1    3    3    0    0  0.29328033564E+01 -0.76988861943E+01  0.58442821022E+01  0.10100981027E+02  0.51100000000E-03 0.  1.
        -12    1    3    3    0    0 -0.36901525554E+02 -0.75524497372E+01 -0.17855068260E+02  0.41684116253E+02  0.00000000000E+00 0.  1.
</event>
<event>
 7    1  0.4639347E-015  0.9000780E+02  0.7816164E-02  0.1186339E+00
        -11   -1    0    0    0    0  0.00000000000E+00  0.00000000000E+00  0.45593999997E+02  0.45594000000E+02  0.51100000000E-03 0.  1.
         11   -1    0    0    0    0 -0.00000000000E+00 -0.00000000000E+00 -0.45593999997E+02  0.45594000000E+02  0.51100000000E-03 0. -1.
    9900012    2    1    2    0    0 -0.25478132799E+00 -0.91426118474E+00  0.70149436789E+00  0.90007796040E+02  0.90000058148E+02 0.  0.
         12    1    1    2    0    0  0.25478132799E+00  0.91426118474E+00 -0.70149436789E+00  0.11802039600E+01  0.00000000000E+00 0. -1.
         11    1    3    3    0    0 -0.81510424697E+01 -0.76132883140E+01 -0.11624480819E+01  0.11213961749E+02  0.51100000000E-03 0. -1.
        -11    1    3    3    0    0 -0.18511186813E+02  0.24566136373E+02  0.24804327470E+02  0.39514728330E+02  0.51100000000E-03 0.  1.
         12    1    3    3    0    0  0.26407447955E+02 -0.17867109243E+02 -0.22940385020E+02  0.39279105961E+02  0.00000000000E+00 0. -1.
</event>
<event>
 7    1  0.5610898E-015  0.9000772E+02  0.7816164E-02  0.1186339E+00
        -11   -1    0    0    0    0  0.00000000000E+00  0.00000000000E+00  0.45593999997E+02  0.45594000000E+02  0.51100000000E-03 0.  1.
         11   -1    0    0    0    0 -0.00000000000E+00 -0.00000000000E+00 -0.45593999997E+02  0.45594000000E+02  0.51100000000E-03 0. -1.
    9900012    2    1    2    0    0 -0.97708556585E+00  0.36200330213E+00  0.55436790885E+00  0.90007717673E+02  0.89999978746E+02 0.  0.
         12    1    1    2    0    0  0.97708556585E+00 -0.36200330213E+00 -0.55436790885E+00  0.11802823273E+01  0.00000000000E+00 0. -1.
         11    1    3    3    0    0 -0.15179235931E+01  0.39416292109E+01  0.87050229873E+01  0.96756373610E+01  0.51100000000E-03 0. -1.
        -11    1    3    3    0    0  0.36821232593E+02  0.12786382870E+02 -0.10789165640E+02  0.40443798685E+02  0.51100000000E-03 0.  1.
         12    1    3    3    0    0 -0.36280394566E+02 -0.16366008779E+02  0.26385105619E+01  0.39888281627E+02  0.00000000000E+00 0. -1.
</event>
<event>
 7    1  0.4639347E-015  0.9000770E+02  0.7816164E-02  0.1186339E+00
        -11   -1    0    0    0    0  0.00000000000E+00  0.00000000000E+00  0.45593999997E+02  0.45594000000E+02  0.51100000000E-03 0. -1.
         11   -1    0    0    0    0 -0.00000000000E+00 -0.00000000000E+00 -0.45593999997E+02  0.45594000000E+02  0.51100000000E-03 0.  1.
    9900012    2    1    2    0    0 -0.85745319510E+00  0.76459285328E+00  0.27070041393E+00  0.90007700493E+02  0.89999961339E+02 0.  0.
         12    1    1    2    0    0  0.85745319510E+00 -0.76459285328E+00 -0.27070041393E+00  0.11802995074E+01  0.00000000000E+00 0. -1.
         11    1    3    3    0    0 -0.34408271512E+01  0.28709912644E+01 -0.40132415816E+01  0.60156454831E+01  0.51100000000E-03 0. -1.
        -11    1    3    3    0    0 -0.90521967153E+01  0.39501777354E+02  0.46040362292E+01  0.40786392699E+02  0.51100000000E-03 0.  1.
         12    1    3    3    0    0  0.11635570671E+02 -0.41608175766E+02 -0.32009423361E+00  0.43205662311E+02  0.00000000000E+00 0. -1.
</event>
<event>
 7    1  0.4639347E-015  0.9000771E+02  0.7816164E-02  0.1186339E+00
        -11   -1    0    0    0    0  0.00000000000E+00  0.00000000000E+00  0.45593999997E+02  0.45594000000E+02  0.51100000000E-03 0.  1.
         11   -1    0    0    0    0 -0.00000000000E+00 -0.00000000000E+00 -0.45593999997E+02  0.45594000000E+02  0.51100000000E-03 0. -1.
    9900012    2    1    2    0    0 -0.68909720512E-01 -0.94831862455E+00 -0.69931298324E+00  0.90007705371E+02  0.89999966282E+02 0.  0.
         12    1    1    2    0    0  0.68909720512E-01  0.94831862455E+00  0.69931298324E+00  0.11802946292E+01  0.00000000000E+00 0. -1.
         11    1    3    3    0    0  0.39341321332E+02 -0.12029562476E+01 -0.12795767339E+02  0.41387417532E+02  0.51100000000E-03 0. -1.
        -11    1    3    3    0    0 -0.29192701504E+01  0.69325079128E+00 -0.68668692578E+01  0.74937726504E+01  0.51100000000E-03 0.  1.
        -12    1    3    3    0    0 -0.36490960902E+02 -0.43861316825E+00  0.18963323613E+02  0.41126515189E+02  0.00000000000E+00 0.  1.
</event>
<event>
 7    1  0.4639347E-015  0.9000769E+02  0.7816164E-02  0.1186339E+00
        -11   -1    0    0    0    0  0.00000000000E+00  0.00000000000E+00  0.45593999997E+02  0.45594000000E+02  0.51100000000E-03 0.  1.
         11   -1    0    0    0    0 -0.00000000000E+00 -0.00000000000E+00 -0.45593999997E+02  0.45594000000E+02  0.51100000000E-03 0. -1.
    9900012    2    1    2    0    0  0.79342568776E+00  0.58554421694E+00  0.64864555652E+00  0.90007691816E+02  0.89999952548E+02 0.  0.
         12    1    1    2    0    0 -0.79342568776E+00 -0.58554421694E+00 -0.64864555652E+00  0.11803081843E+01  0.00000000000E+00 0. -1.
         11    1    3    3    0    0 -0.76655855615E+01 -0.26816807935E+01 -0.55245187501E+01  0.98220629992E+01  0.51100000000E-03 0. -1.
        -11    1    3    3    0    0  0.50586376934E+01 -0.31879272186E+02  0.24386331578E+02  0.40454554484E+02  0.51100000000E-03 0.  1.
         12    1    3    3    0    0  0.34003735559E+01  0.35146497197E+02 -0.18213167271E+02  0.39731074332E+02  0.00000000000E+00 0. -1.
</event>
<event>
 7    1  0.4639347E-015  0.9000764E+02  0.7816164E-02  0.1186339E+00
        -11   -1    0    0    0    0  0.00000000000E+00  0.00000000000E+00  0.45593999997E+02  0.45594000000E+02  0.51100000000E-03 0.  1.
         11   -1    0    0    0    0 -0.00000000000E+00 -0.00000000000E+00 -0.45593999997E+02  0.45594000000E+02  0.51100000000E-03 0. -1.
    9900012    2    1    2    0    0 -0.80277213077E+00  0.49934623719E+00  0.70673105958E+00  0.90007636264E+02  0.89999896263E+02 0.  0.
         12    1    1    2    0    0  0.80277213077E+00 -0.49934623719E+00 -0.70673105958E+00  0.11803637359E+01  0.00000000000E+00 0. -1.
         11    1    3    3    0    0  0.14558133835E+01  0.15405326264E+01 -0.98910948649E+01  0.10115650808E+02  0.51100000000E-03 0. -1.
        -11    1    3    3    0    0 -0.36686624923E+02 -0.17711459874E+02  0.26569335408E+01  0.40824790939E+02  0.51100000000E-03 0.  1.
         12    1    3    3    0    0  0.34428039409E+02  0.16670273485E+02  0.79408923837E+01  0.39067194517E+02  0.00000000000E+00 0. -1.
</event>
<event>
 7    1  0.4639347E-015  0.9000775E+02  0.7816164E-02  0.1186339E+00
        -11   -1    0    0    0    0  0.00000000000E+00  0.00000000000E+00  0.45593999997E+02  0.45594000000E+02  0.51100000000E-03 0.  1.
         11   -1    0    0    0    0 -0.00000000000E+00 -0.00000000000E+00 -0.45593999997E+02  0.45594000000E+02  0.51100000000E-03 0. -1.
    9900012    2    1    2    0    0  0.38767744919E+00  0.89470382527E+00  0.66498457354E+00  0.90007748661E+02  0.90000010144E+02 0.  0.
         12    1    1    2    0    0 -0.38767744919E+00 -0.89470382527E+00 -0.66498457354E+00  0.11802513387E+01  0.00000000000E+00 0. -1.
         11    1    3    3    0    0  0.31725973735E+02  0.67615239025E+01 -0.66559482233E+01  0.33114306001E+02  0.51100000000E-03 0. -1.
        -11    1    3    3    0    0  0.87820045137E+01 -0.11410482749E+02 -0.38023012771E+01  0.14892287101E+02  0.51100000000E-03 0.  1.
        -12    1    3    3    0    0 -0.40120300799E+02  0.55436626718E+01  0.11123234074E+02  0.42001155559E+02  0.00000000000E+00 0.  1.
</event>
<event>
 7    1  0.4639347E-015  0.9000774E+02  0.7816164E-02  0.1186339E+00
        -11   -1    0    0    0    0  0.00000000000E+00  0.00000000000E+00  0.45593999997E+02  0.45594000000E+02  0.51100000000E-03 0. -1.
         11   -1    0    0    0    0 -0.00000000000E+00 -0.00000000000E+00 -0.45593999997E+02  0.45594000000E+02  0.51100000000E-03 0.  1.
    9900012    2    1    2    0    0 -0.17569199873E-01 -0.11274288696E+01 -0.34872221236E+00  0.90007740828E+02  0.90000002206E+02 0.  0.
         12    1    1    2    0    0  0.17569199873E-01  0.11274288696E+01  0.34872221236E+00  0.11802591725E+01  0.00000000000E+00 0. -1.
         11    1    3    3    0    0  0.18262007305E+02  0.10677244442E+02  0.34139308569E+01  0.21428004663E+02  0.51100000000E-03 0. -1.
        -11    1    3    3    0    0 -0.50667434641E+01  0.19782463612E+02 -0.21807762353E+02  0.29876349425E+02  0.51100000000E-03 0.  1.
         12    1    3    3    0    0 -0.13212833041E+02 -0.31587136924E+02  0.18045109284E+02  0.38703386739E+02  0.00000000000E+00 0. -1.
</event>
<event>
 7    1  0.4639347E-015  0.9000795E+02  0.7816164E-02  0.1186339E+00
        -11   -1    0    0    0    0  0.00000000000E+00  0.00000000000E+00  0.45593999997E+02  0.45594000000E+02  0.51100000000E-03 0. -1.
         11   -1    0    0    0    0 -0.00000000000E+00 -0.00000000000E+00 -0.45593999997E+02  0.45594000000E+02  0.51100000000E-03 0.  1.
    9900012    2    1    2    0    0  0.11432126258E+01  0.27953845654E+00  0.86218228301E-01  0.90007953205E+02  0.90000217387E+02 0.  0.
         12    1    1    2    0    0 -0.11432126258E+01 -0.27953845654E+00 -0.86218228301E-01  0.11800467954E+01  0.00000000000E+00 0. -1.
         11    1    3    3    0    0 -0.22238659595E+02 -0.77222454135E+01  0.14045559866E+02  0.27412931383E+02  0.51100000000E-03 0. -1.
        -11    1    3    3    0    0  0.20927456033E+02 -0.22297658160E+02 -0.81308983097E+01  0.31642621304E+02  0.51100000000E-03 0.  1.
        -12    1    3    3    0    0  0.24544161881E+01  0.30299442030E+02 -0.58284433278E+01  0.30952400517E+02  0.00000000000E+00 0.  1.
</event>
<event>
 7    1  0.4639347E-015  0.9000776E+02  0.7816164E-02  0.1186339E+00
        -11   -1    0    0    0    0  0.00000000000E+00  0.00000000000E+00  0.45593999997E+02  0.45594000000E+02  0.51100000000E-03 0.  1.
         11   -1    0    0    0    0 -0.00000000000E+00 -0.00000000000E+00 -0.45593999997E+02  0.45594000000E+02  0.51100000000E-03 0. -1.
    9900012    2    1    2    0    0  0.52154010806E+00  0.10531478193E+01  0.10885845793E+00  0.90007756560E+02  0.90000018147E+02 0.  0.
         12    1    1    2    0    0 -0.52154010806E+00 -0.10531478193E+01 -0.10885845793E+00  0.11802434399E+01  0.00000000000E+00 0. -1.
         11    1    3    3    0    0 -0.22960430890E+02 -0.81036441662E+01  0.29631356694E+01  0.24528159505E+02  0.51100000000E-03 0. -1.
        -11    1    3    3    0    0  0.29763480988E+02 -0.19448669710E+02 -0.58775490281E+01  0.36036941281E+02  0.51100000000E-03 0.  1.
         12    1    3    3    0    0 -0.62815099904E+01  0.28605461696E+02  0.30232718166E+01  0.29442655775E+02  0.00000000000E+00 0. -1.
</event>
<event>
 7    1  0.4639347E-015  0.9000762E+02  0.7816164E-02  0.1186339E+00
        -11   -1    0    0    0    0  0.00000000000E+00  0.00000000000E+00  0.45593999997E+02  0.45594000000E+02  0.51100000000E-03 0. -1.
         11   -1    0    0    0    0 -0.00000000000E+00 -0.00000000000E+00 -0.45593999997E+02  0.45594000000E+02  0.51100000000E-03 0.  1.
    9900012    2    1    2    0    0 -0.76367335646E-01  0.10852144465E+01  0.45801516708E+00  0.90007618596E+02  0.89999878362E+02 0.  0.
         12    1    1    2    0    0  0.76367335646E-01 -0.10852144465E+01 -0.45801516708E+00  0.11803814037E+01  0.00000000000E+00 0. -1.
         11    1    3    3    0    0  0.99179667705E+01  0.12113491035E+02  0.33035869138E+02  0.36557781386E+02  0.51100000000E-03 0. -1.
        -11    1    3    3    0    0  0.90434311445E+01  0.10433622155E+01  0.44244449566E+01  0.10121658215E+02  0.51100000000E-03 0.  1.
        -12    1    3    3    0    0 -0.19037765251E+02 -0.12071638804E+02 -0.37002298927E+02  0.43328178996E+02  0.00000000000E+00 0.  1.
</event>
<event>
 7    1  0.4639347E-015  0.9000763E+02  0.7816164E-02  0.1186339E+00
        -11   -1    0    0    0    0  0.00000000000E+00  0.00000000000E+00  0.45593999997E+02  0.45594000000E+02  0.51100000000E-03 0. -1.
         11   -1    0    0    0    0 -0.00000000000E+00 -0.00000000000E+00 -0.45593999997E+02  0.45594000000E+02  0.51100000000E-03 0.  1.
    9900012    2    1    2    0    0 -0.59882777633E+00 -0.97017972428E+00 -0.30565026412E+00  0.90007633325E+02  0.89999893285E+02 0.  0.
         12    1    1    2    0    0  0.59882777633E+00  0.97017972428E+00  0.30565026412E+00  0.11803666748E+01  0.00000000000E+00 0. -1.
         11    1    3    3    0    0  0.33841565532E+01 -0.40652241702E+01 -0.97610843070E+01  0.11102131788E+02  0.51100000000E-03 0. -1.
        -11    1    3    3    0    0 -0.26551610067E+02 -0.19020544379E+02 -0.17782064704E+02  0.37188317131E+02  0.51100000000E-03 0.  1.
         12    1    3    3    0    0  0.22568625738E+02  0.22115588825E+02  0.27237498747E+02  0.41717184406E+02  0.00000000000E+00 0. -1.
</event>
<event>
 7    1  0.4639347E-015  0.9000775E+02  0.7816164E-02  0.1186339E+00
        -11   -1    0    0    0    0  0.00000000000E+00  0.00000000000E+00  0.45593999997E+02  0.45594000000E+02  0.51100000000E-03 0. -1.
         11   -1    0    0    0    0 -0.00000000000E+00 -0.00000000000E+00 -0.45593999997E+02  0.45594000000E+02  0.51100000000E-03 0.  1.
    9900012    2    1    2    0    0  0.75043250653E+00  0.91065219624E+00 -0.23504959490E-01  0.90007750513E+02  0.90000012019E+02 0.  0.
         12    1    1    2    0    0 -0.75043250653E+00 -0.91065219624E+00  0.23504959490E-01  0.11802494874E+01  0.00000000000E+00 0. -1.
         11    1    3    3    0    0 -0.77235043287E+01  0.69029250350E+00  0.56374629998E+01  0.95869709602E+01  0.51100000000E-03 0. -1.
        -11    1    3    3    0    0  0.10286968306E+02  0.39075296611E+02  0.31795170401E+01  0.40531590778E+02  0.51100000000E-03 0.  1.
         12    1    3    3    0    0 -0.18130314708E+01 -0.38854936918E+02 -0.88404849994E+01  0.39889188774E+02  0.00000000000E+00 0. -1.
</event>
<event>
 7    1  0.4639347E-015  0.9000776E+02  0.7816164E-02  0.1186339E+00
        -11   -1    0    0    0    0  0.00000000000E+00  0.00000000000E+00  0.45593999997E+02  0.45594000000E+02  0.51100000000E-03 0. -1.
         11   -1    0    0    0    0 -0.00000000000E+00 -0.00000000000E+00 -0.45593999997E+02  0.45594000000E+02  0.51100000000E-03 0.  1.
    9900012    2    1    2    0    0  0.51676498766E+00 -0.16471667465E+00 -0.10482294296E+01  0.90007761646E+02  0.90000023300E+02 0.  0.
         12    1    1    2    0    0 -0.51676498766E+00  0.16471667465E+00  0.10482294296E+01  0.11802383541E+01  0.00000000000E+00 0. -1.
         11    1    3    3    0    0  0.38781372163E+00 -0.51184281913E+01 -0.79661159534E+01  0.94766930032E+01  0.51100000000E-03 0. -1.
        -11    1    3    3    0    0  0.38299543279E+02 -0.14863596817E+01  0.14692586270E+02  0.41047976467E+02  0.51100000000E-03 0.  1.
         12    1    3    3    0    0 -0.38170592013E+02  0.64400711984E+01 -0.77746997460E+01  0.39483092176E+02  0.00000000000E+00 0. -1.
</event>
<event>
 7    1  0.4639347E-015  0.9000761E+02  0.7816164E-02  0.1186339E+00
        -11   -1    0    0    0    0  0.00000000000E+00  0.00000000000E+00  0.45593999997E+02  0.45594000000E+02  0.51100000000E-03 0. -1.
         11   -1    0    0    0    0 -0.00000000000E+00 -0.00000000000E+00 -0.45593999997E+02  0.45594000000E+02  0.51100000000E-03 0.  1.
    9900012    2    1    2    0    0 -0.10787172916E+01 -0.15997736053E+00  0.45177102953E+00  0.90007609889E+02  0.89999869539E+02 0.  0.
         12    1    1    2    0    0  0.10787172916E+01  0.15997736053E+00 -0.45177102953E+00  0.11803901110E+01  0.00000000000E+00 0. -1.
         11    1    3    3    0    0  0.81720031677E+01 -0.41251202942E+02 -0.42188919618E+01  0.42263961357E+02  0.51100000000E-03 0. -1.
        -11    1    3    3    0    0 -0.11265322586E+02  0.81523565859E+01 -0.20783870355E+01  0.14060160162E+02  0.51100000000E-03 0.  1.
        -12    1    3    3    0    0  0.20146021263E+01  0.32938868996E+02  0.67490500268E+01  0.33683488369E+02  0.00000000000E+00 0.  1.
</event>
<event>
 7    1  0.4639347E-015  0.9000765E+02  0.7816164E-02  0.1186339E+00
        -11   -1    0    0    0    0  0.00000000000E+00  0.00000000000E+00  0.45593999997E+02  0.45594000000E+02  0.51100000000E-03 0. -1.
         11   -1    0    0    0    0 -0.00000000000E+00 -0.00000000000E+00 -0.45593999997E+02  0.45594000000E+02  0.51100000000E-03 0.  1.
    9900012    2    1    2    0    0  0.58775831597E+00  0.10603002140E+00 -0.10181029107E+01  0.90007645926E+02  0.89999906052E+02 0.  0.
         12    1    1    2    0    0 -0.58775831597E+00 -0.10603002140E+00  0.10181029107E+01  0.11803540741E+01  0.00000000000E+00 0. -1.
         11    1    3    3    0    0 -0.32220513457E+02 -0.16512480576E+02 -0.80696310045E+01  0.37093698211E+02  0.51100000000E-03 0. -1.
        -11    1    3    3    0    0 -0.88192096131E-01 -0.78279909850E+01 -0.60407643971E+01  0.98881775606E+01  0.51100000000E-03 0.  1.
        -12    1    3    3    0    0  0.32896463869E+02  0.24446501582E+02  0.13092292491E+02  0.43025770154E+02  0.00000000000E+00 0.  1.
</event>
<event>
 7    1  0.4639347E-015  0.9000776E+02  0.7816164E-02  0.1186339E+00
        -11   -1    0    0    0    0  0.00000000000E+00  0.00000000000E+00  0.45593999997E+02  0.45594000000E+02  0.51100000000E-03 0.  1.
         11   -1    0    0    0    0 -0.00000000000E+00 -0.00000000000E+00 -0.45593999997E+02  0.45594000000E+02  0.51100000000E-03 0. -1.
    9900012    2    1    2    0    0  0.87244093290E+00 -0.74554887004E+00 -0.27562512104E+00  0.90007760403E+02  0.90000022040E+02 0.  0.
         12    1    1    2    0    0 -0.87244093290E+00  0.74554887004E+00  0.27562512104E+00  0.11802395970E+01  0.00000000000E+00 0. -1.
         11    1    3    3    0    0  0.49937716836E-03  0.10911190592E+02 -0.13699063046E+01  0.10996850637E+02  0.51100000000E-03 0. -1.
        -11    1    3    3    0    0  0.33767008385E+02 -0.14646195437E+02  0.19019107292E+02  0.41430041498E+02  0.51100000000E-03 0.  1.
         12    1    3    3    0    0 -0.32895066830E+02  0.29894559750E+01 -0.17924826108E+02  0.37580868268E+02  0.00000000000E+00 0. -1.
</event>
<event>
 7    1  0.4639347E-015  0.9000772E+02  0.7816164E-02  0.1186339E+00
        -11   -1    0    0    0    0  0.00000000000E+00  0.00000000000E+00  0.45593999997E+02  0.45594000000E+02  0.51100000000E-03 0. -1.
         11   -1    0    0    0    0 -0.00000000000E+00 -0.00000000000E+00 -0.45593999997E+02  0.45594000000E+02  0.51100000000E-03 0.  1.
    9900012    2    1    2    0    0 -0.94299855913E+00  0.48699308919E+00 -0.51637514934E+00  0.90007723826E+02  0.89999984981E+02 0.  0.
         12    1    1    2    0    0  0.94299855913E+00 -0.48699308919E+00  0.51637514934E+00  0.11802761737E+01  0.00000000000E+00 0. -1.
         11    1    3    3    0    0  0.31033397214E+01 -0.37329146449E+01  0.18301101008E+02  0.18933981819E+02  0.51100000000E-03 0. -1.
        -11    1    3    3    0    0 -0.20670070651E+02 -0.26365301286E+02 -0.12103128806E+02  0.35621154667E+02  0.51100000000E-03 0.  1.
         12    1    3    3    0    0  0.16623732370E+02  0.30585209021E+02 -0.67143473515E+01  0.35452587340E+02  0.00000000000E+00 0. -1.
</event>
<event>
 7    1  0.4639347E-015  0.9000772E+02  0.7816164E-02  0.1186339E+00
        -11   -1    0    0    0    0  0.00000000000E+00  0.00000000000E+00  0.45593999997E+02  0.45594000000E+02  0.51100000000E-03 0. -1.
         11   -1    0    0    0    0 -0.00000000000E+00 -0.00000000000E+00 -0.45593999997E+02  0.45594000000E+02  0.51100000000E-03 0.  1.
    9900012    2    1    2    0    0 -0.10366877860E+01 -0.21580182027E+00 -0.52131552184E+00  0.90007719582E+02  0.89999980681E+02 0.  0.
         12    1    1    2    0    0  0.10366877860E+01  0.21580182027E+00  0.52131552184E+00  0.11802804178E+01  0.00000000000E+00 0. -1.
         11    1    3    3    0    0  0.39940438992E+01  0.43051497694E+01  0.32454652346E+02  0.32981679162E+02  0.51100000000E-03 0. -1.
        -11    1    3    3    0    0 -0.54466924359E+01 -0.92395390302E+00  0.11312712950E+02  0.12589583943E+02  0.51100000000E-03 0.  1.
        -12    1    3    3    0    0  0.41596075077E+00 -0.35969976867E+01 -0.44288680817E+02  0.44436456477E+02  0.00000000000E+00 0.  1.
</event>
<event>
 7    1  0.4639347E-015  0.9000780E+02  0.7816164E-02  0.1186339E+00
        -11   -1    0    0    0    0  0.00000000000E+00  0.00000000000E+00  0.45593999997E+02  0.45594000000E+02  0.51100000000E-03 0.  1.
         11   -1    0    0    0    0 -0.00000000000E+00 -0.00000000000E+00 -0.45593999997E+02  0.45594000000E+02  0.51100000000E-03 0. -1.
    9900012    2    1    2    0    0 -0.15039063594E-02 -0.45637398353E+00  0.10883874741E+01  0.90007802233E+02  0.90000064423E+02 0.  0.
         12    1    1    2    0    0  0.15039063594E-02  0.45637398353E+00 -0.10883874741E+01  0.11801977666E+01  0.00000000000E+00 0. -1.
         11    1    3    3    0    0  0.99493008791E+00  0.31752194814E+01  0.85613529099E+01  0.91852418882E+01  0.51100000000E-03 0. -1.
        -11    1    3    3    0    0 -0.18244277362E+02 -0.26833782300E+02  0.22260979769E+02  0.39350435188E+02  0.51100000000E-03 0.  1.
         12    1    3    3    0    0  0.17247843368E+02  0.23202188835E+02 -0.29733945205E+02  0.41472125157E+02  0.00000000000E+00 0. -1.
</event>
<event>
 7    1  0.4639347E-015  0.9000771E+02  0.7816164E-02  0.1186339E+00
        -11   -1    0    0    0    0  0.00000000000E+00  0.00000000000E+00  0.45593999997E+02  0.45594000000E+02  0.51100000000E-03 0. -1.
         11   -1    0    0    0    0 -0.00000000000E+00 -0.00000000000E+00 -0.45593999997E+02  0.45594000000E+02  0.51100000000E-03 0.  1.
    9900012    2    1    2    0    0 -0.10391365236E+00 -0.91263800920E+00  0.74120842650E+00  0.90007705073E+02  0.89999965980E+02 0.  0.
         12    1    1    2    0    0  0.10391365236E+00  0.91263800920E+00 -0.74120842650E+00  0.11802949269E+01  0.00000000000E+00 0. -1.
         11    1    3    3    0    0 -0.32055739068E+01  0.39650827264E+01 -0.11887823001E+02  0.12935142870E+02  0.51100000000E-03 0. -1.
        -11    1    3    3    0    0 -0.28869171802E+01 -0.28356066731E+02 -0.21156626201E+02  0.35496530024E+02  0.51100000000E-03 0.  1.
         12    1    3    3    0    0  0.59885774346E+01  0.23478345995E+02  0.33785657629E+02  0.41576032179E+02  0.00000000000E+00 0. -1.
</event>
<event>
 7    1  0.4639347E-015  0.9000779E+02  0.7816164E-02  0.1186339E+00
        -11   -1    0    0    0    0  0.00000000000E+00  0.00000000000E+00  0.45593999997E+02  0.45594000000E+02  0.51100000000E-03 0. -1.
         11   -1    0    0    0    0 -0.00000000000E+00 -0.00000000000E+00 -0.45593999997E+02  0.45594000000E+02  0.51100000000E-03 0.  1.
    9900012    2    1    2    0    0  0.10496336266E+01 -0.22066250960E+00 -0.49242231191E+00  0.90007787127E+02  0.90000049117E+02 0.  0.
         12    1    1    2    0    0 -0.10496336266E+01  0.22066250960E+00  0.49242231191E+00  0.11802128734E+01  0.00000000000E+00 0. -1.
         11    1    3    3    0    0  0.54209174036E+01  0.27930118223E+02  0.18624823498E+02  0.34005321643E+02  0.51100000000E-03 0. -1.
        -11    1    3    3    0    0  0.48383104620E+01  0.34966373692E+01  0.10247057423E+02  0.11859085425E+02  0.51100000000E-03 0.  1.
        -12    1    3    3    0    0 -0.92095942390E+01 -0.31647418102E+02 -0.29364303234E+02  0.44143380058E+02  0.00000000000E+00 0.  1.
</event>
<event>
 7    1  0.4639347E-015  0.9000759E+02  0.7816164E-02  0.1186339E+00
        -11   -1    0    0    0    0  0.00000000000E+00  0.00000000000E+00  0.45593999997E+02  0.45594000000E+02  0.51100000000E-03 0. -1.
         11   -1    0    0    0    0 -0.00000000000E+00 -0.00000000000E+00 -0.45593999997E+02  0.45594000000E+02  0.51100000000E-03 0.  1.
    9900012    2    1    2    0    0  0.66536613771E+00  0.38332696441E+00 -0.89650402306E+00  0.90007588579E+02  0.89999847948E+02 0.  0.
         12    1    1    2    0    0 -0.66536613771E+00 -0.38332696441E+00  0.89650402306E+00  0.11804114207E+01  0.00000000000E+00 0. -1.
         11    1    3    3    0    0  0.34394333360E+01  0.24102859254E+01  0.38401865448E+02  0.38630848426E+02  0.51100000000E-03 0. -1.
        -11    1    3    3    0    0 -0.40980186782E+01  0.17034130476E+01  0.51238074666E+01  0.67785526710E+01  0.51100000000E-03 0.  1.
        -12    1    3    3    0    0  0.13239514799E+01 -0.37303720086E+01 -0.44422176938E+02  0.44598187483E+02  0.00000000000E+00 0.  1.
</event>
<event>
 7    1  0.4639347E-015  0.9000772E+02  0.7816164E-02  0.1186339E+00
        -11   -1    0    0    0    0  0.00000000000E+00  0.00000000000E+00  0.45593999997E+02  0.45594000000E+02  0.51100000000E-03 0. -1.
         11   -1    0    0    0    0 -0.00000000000E+00 -0.00000000000E+00 -0.45593999997E+02  0.45594000000E+02  0.51100000000E-03 0.  1.
    9900012    2    1    2    0    0 -0.95805991469E+00  0.60386265029E+00 -0.33246768169E+00  0.90007718822E+02  0.89999979910E+02 0.  0.
         12    1    1    2    0    0  0.95805991469E+00 -0.60386265029E+00  0.33246768169E+00  0.11802811783E+01  0.00000000000E+00 0. -1.
         11    1    3    3    0    0 -0.32805129330E+01 -0.39668375585E+01  0.67779907748E+01  0.85110942025E+01  0.51100000000E-03 0. -1.
        -11    1    3    3    0    0 -0.38380568495E+02  0.10284405496E+02  0.27899210661E+00  0.39735561797E+02  0.51100000000E-03 0.  1.
         12    1    3    3    0    0  0.40703021514E+02 -0.57137052868E+01 -0.73894505631E+01  0.41761062823E+02  0.00000000000E+00 0. -1.
</event>
<event>
 7    1  0.4639347E-015  0.9000773E+02  0.7816164E-02  0.1186339E+00
        -11   -1    0    0    0    0  0.00000000000E+00  0.00000000000E+00  0.45593999997E+02  0.45594000000E+02  0.51100000000E-03 0. -1.
         11   -1    0    0    0    0 -0.00000000000E+00 -0.00000000000E+00 -0.45593999997E+02  0.45594000000E+02  0.51100000000E-03 0.  1.
    9900012    2    1    2    0    0  0.10831860748E+01  0.20306889049E+00 -0.42251336988E+00  0.90007726051E+02  0.89999987235E+02 0.  0.
         12    1    1    2    0    0 -0.10831860748E+01 -0.20306889049E+00  0.42251336988E+00  0.11802739489E+01  0.00000000000E+00 0. -1.
         11    1    3    3    0    0  0.29987790121E+02  0.26650390312E+02  0.12401879719E+01  0.40137873967E+02  0.51100000000E-03 0. -1.
        -11    1    3    3    0    0  0.43641796796E+01 -0.19111759827E+01 -0.67051143347E+01  0.82254006842E+01  0.51100000000E-03 0.  1.
        -12    1    3    3    0    0 -0.33268783726E+02 -0.24536145439E+02  0.50424129929E+01  0.41644451400E+02  0.00000000000E+00 0.  1.
</event>
<event>
 7    1  0.4639347E-015  0.9000782E+02  0.7816164E-02  0.1186339E+00
        -11   -1    0    0    0    0  0.00000000000E+00  0.00000000000E+00  0.45593999997E+02  0.45594000000E+02  0.51100000000E-03 0.  1.
         11   -1    0    0    0    0 -0.00000000000E+00 -0.00000000000E+00 -0.45593999997E+02  0.45594000000E+02  0.51100000000E-03 0. -1.
    9900012    2    1    2    0    0  0.26627781607E+00 -0.10868815835E+01  0.37498012660E+00  0.90007819697E+02  0.90000082117E+02 0.  0.
         12    1    1    2    0    0 -0.26627781607E+00  0.10868815835E+01 -0.37498012660E+00  0.11801803028E+01  0.00000000000E+00 0. -1.
         11    1    3    3    0    0 -0.51923317446E+01 -0.39045772163E+02 -0.81152606702E+01  0.40216788643E+02  0.51100000000E-03 0. -1.
        -11    1    3    3    0    0 -0.76448836460E+00 -0.12657769323E+01  0.99399357699E+01  0.10049326200E+02  0.51100000000E-03 0.  1.
        -12    1    3    3    0    0  0.62230979253E+01  0.39224667512E+02 -0.14496949731E+01  0.39741704854E+02  0.00000000000E+00 0.  1.
</event>
<event>
 7    1  0.4639347E-015  0.9000761E+02  0.7816164E-02  0.1186339E+00
        -11   -1    0    0    0    0  0.00000000000E+00  0.00000000000E+00  0.45593999997E+02  0.45594000000E+02  0.51100000000E-03 0. -1.
         11   -1    0    0    0    0 -0.00000000000E+00 -0.00000000000E+00 -0.45593999997E+02  0.45594000000E+02  0.51100000000E-03 0.  1.
    9900012    2    1    2    0    0 -0.11610023802E+01  0.77623778695E-01 -0.19840468530E+00  0.90007611760E+02  0.89999871435E+02 0.  0.
         12    1    1    2    0    0  0.11610023802E+01 -0.77623778695E-01  0.19840468530E+00  0.11803882399E+01  0.00000000000E+00 0. -1.
         11    1    3    3    0    0  0.30336975181E+00  0.91349246751E+01  0.20593885392E+01  0.93690961913E+01  0.51100000000E-03 0. -1.
        -11    1    3    3    0    0 -0.25654626217E+02  0.25543942159E+02 -0.10345618698E+02  0.37652153376E+02  0.51100000000E-03 0.  1.
         12    1    3    3    0    0  0.24190254085E+02 -0.34601243055E+02  0.80878254738E+01  0.42986362193E+02  0.00000000000E+00 0. -1.
</event>
<event>
 7    1  0.4639347E-015  0.9000782E+02  0.7816164E-02  0.1186339E+00
        -11   -1    0    0    0    0  0.00000000000E+00  0.00000000000E+00  0.45593999997E+02  0.45594000000E+02  0.51100000000E-03 0.  1.
         11   -1    0    0    0    0 -0.00000000000E+00 -0.00000000000E+00 -0.45593999997E+02  0.45594000000E+02  0.51100000000E-03 0. -1.
    9900012    2    1    2    0    0 -0.10598157848E+01 -0.15543228328E+00 -0.49544082581E+00  0.90007817682E+02  0.90000080075E+02 0.  0.
         12    1    1    2    0    0  0.10598157848E+01  0.15543228328E+00  0.49544082581E+00  0.11801823183E+01  0.00000000000E+00 0. -1.
         11    1    3    3    0    0  0.21161367455E+01 -0.51369923548E+01 -0.78405669100E+01  0.96094336415E+01  0.51100000000E-03 0. -1.
        -11    1    3    3    0    0  0.19634235788E+02 -0.31387319488E+02  0.13063104182E+01  0.37045559609E+02  0.51100000000E-03 0.  1.
         12    1    3    3    0    0 -0.22810188318E+02  0.36368879559E+02  0.60388156660E+01  0.43352824431E+02  0.00000000000E+00 0. -1.
</event>
<event>
 7    1  0.9500610E-015  0.9000780E+02  0.7816164E-02  0.1186339E+00
        -11   -1    0    0    0    0  0.00000000000E+00  0.00000000000E+00  0.45593999997E+02  0.45594000000E+02  0.51100000000E-03 0. -1.
         11   -1    0    0    0    0 -0.00000000000E+00 -0.00000000000E+00 -0.45593999997E+02  0.45594000000E+02  0.51100000000E-03 0.  1.
    9900012    2    1    2    0    0  0.62238276512E+00  0.40932929671E-01 -0.10019163586E+01  0.90007799932E+02  0.90000062091E+02 0.  0.
         12    1    1    2    0    0 -0.62238276512E+00 -0.40932929671E-01  0.10019163586E+01  0.11802000680E+01  0.00000000000E+00 0. -1.
         11    1    3    3    0    0 -0.38850811215E+01  0.76445501605E+01  0.34842026629E+01  0.92559532699E+01  0.51100000000E-03 0. -1.
        -11    1    3    3    0    0  0.35512665975E+02  0.12596669543E+02 -0.17472176112E+02  0.41534352849E+02  0.51100000000E-03 0.  1.
         12    1    3    3    0    0 -0.31005202088E+02 -0.20200286774E+02  0.12986057090E+02  0.39217493814E+02  0.00000000000E+00 0. -1.
</event>
<event>
 7    1  0.4639347E-015  0.9000775E+02  0.7816164E-02  0.1186339E+00
        -11   -1    0    0    0    0  0.00000000000E+00  0.00000000000E+00  0.45593999997E+02  0.45594000000E+02  0.51100000000E-03 0. -1.
         11   -1    0    0    0    0 -0.00000000000E+00 -0.00000000000E+00 -0.45593999997E+02  0.45594000000E+02  0.51100000000E-03 0.  1.
    9900012    2    1    2    0    0 -0.60156856432E+00 -0.53233699799E-03 -0.10154356587E+01  0.90007748079E+02  0.90000009553E+02 0.  0.
         12    1    1    2    0    0  0.60156856432E+00  0.53233699799E-03  0.10154356587E+01  0.11802519214E+01  0.00000000000E+00 0. -1.
         11    1    3    3    0    0 -0.59665595418E+01  0.42402385482E+01 -0.49507885168E+01  0.88368412292E+01  0.51100000000E-03 0. -1.
        -11    1    3    3    0    0  0.31029718006E+02  0.26037405157E+02  0.79399632465E+01  0.41277510626E+02  0.51100000000E-03 0.  1.
         12    1    3    3    0    0 -0.25664727029E+02 -0.30278176042E+02 -0.40046103884E+01  0.39893396224E+02  0.00000000000E+00 0. -1.
</event>
<event>
 7    1  0.4639347E-015  0.9000771E+02  0.7816164E-02  0.1186339E+00
        -11   -1    0    0    0    0  0.00000000000E+00  0.00000000000E+00  0.45593999997E+02  0.45594000000E+02  0.51100000000E-03 0. -1.
         11   -1    0    0    0    0 -0.00000000000E+00 -0.00000000000E+00 -0.45593999997E+02  0.45594000000E+02  0.51100000000E-03 0.  1.
    9900012    2    1    2    0    0  0.76624643064E+00 -0.58805902547E+00 -0.67834145017E+00  0.90007705913E+02  0.89999966831E+02 0.  0.
         12    1    1    2    0    0 -0.76624643064E+00  0.58805902547E+00  0.67834145017E+00  0.11802940875E+01  0.00000000000E+00 0. -1.
         11    1    3    3    0    0  0.67137490822E+00  0.20919475745E+01 -0.11036118879E+02  0.11252684528E+02  0.51100000000E-03 0. -1.
        -11    1    3    3    0    0 -0.21149884561E+02  0.22018445943E+02 -0.18104162413E+02  0.35494933098E+02  0.51100000000E-03 0.  1.
         12    1    3    3    0    0  0.21244756083E+02 -0.24698452543E+02  0.28461939841E+02  0.43260088287E+02  0.00000000000E+00 0. -1.
</event>
<event>
 7    1  0.4639347E-015  0.9000768E+02  0.7816164E-02  0.1186339E+00
        -11   -1    0    0    0    0  0.00000000000E+00  0.00000000000E+00  0.45593999997E+02  0.45594000000E+02  0.51100000000E-03 0.  1.
         11   -1    0    0    0    0 -0.00000000000E+00 -0.00000000000E+00 -0.45593999997E+02  0.45594000000E+02  0.51100000000E-03 0. -1.
    9900012    2    1    2    0    0  0.78973615724E+00 -0.14852169297E+00  0.86452842678E+00  0.90007681699E+02  0.89999942297E+02 0.  0.
         12    1    1    2    0    0 -0.78973615724E+00  0.14852169297E+00 -0.86452842678E+00  0.11803183012E+01  0.00000000000E+00 0. -1.
         11    1    3    3    0    0  0.16817722118E+02  0.27179076610E+02 -0.19372280004E+02  0.37374098189E+02  0.51100000000E-03 0. -1.
        -11    1    3    3    0    0 -0.78326811207E+00  0.90760185994E+01  0.42392204505E+01  0.10047816322E+02  0.51100000000E-03 0.  1.
        -12    1    3    3    0    0 -0.15244717849E+02 -0.36403616902E+02  0.15997587980E+02  0.42585767188E+02  0.00000000000E+00 0.  1.
</event>
<event>
 7    1  0.4639347E-015  0.9000770E+02  0.7816164E-02  0.1186339E+00
        -11   -1    0    0    0    0  0.00000000000E+00  0.00000000000E+00  0.45593999997E+02  0.45594000000E+02  0.51100000000E-03 0.  1.
         11   -1    0    0    0    0 -0.00000000000E+00 -0.00000000000E+00 -0.45593999997E+02  0.45594000000E+02  0.51100000000E-03 0. -1.
    9900012    2    1    2    0    0 -0.37783083693E+00 -0.10738052004E+01  0.31191949687E+00  0.90007700240E+02  0.89999961084E+02 0.  0.
         12    1    1    2    0    0  0.37783083693E+00  0.10738052004E+01 -0.31191949687E+00  0.11802997595E+01  0.00000000000E+00 0. -1.
         11    1    3    3    0    0 -0.35402607401E+01  0.72376723270E+01  0.67014200114E+01  0.10479808073E+02  0.51100000000E-03 0. -1.
        -11    1    3    3    0    0  0.33551738805E+02 -0.96194897590E+01  0.19148701354E+02  0.39811135676E+02  0.51100000000E-03 0.  1.
         12    1    3    3    0    0 -0.30389308901E+02  0.13080122316E+01 -0.25538201868E+02  0.39716756491E+02  0.00000000000E+00 0. -1.
</event>
<event>
 7    1  0.4639347E-015  0.9000824E+02  0.7816164E-02  0.1186338E+00
        -11   -1    0    0    0    0  0.00000000000E+00  0.00000000000E+00  0.45593999997E+02  0.45594000000E+02  0.51100000000E-03 0.  1.
         11   -1    0    0    0    0 -0.00000000000E+00 -0.00000000000E+00 -0.45593999997E+02  0.45594000000E+02  0.51100000000E-03 0. -1.
    9900012    2    1    2    0    0  0.47824336811E+00  0.39894842859E+00  0.10019711664E+01  0.90008244608E+02  0.90000512635E+02 0.  0.
         12    1    1    2    0    0 -0.47824336811E+00 -0.39894842859E+00 -0.10019711664E+01  0.11797553925E+01  0.00000000000E+00 0. -1.
         11    1    3    3    0    0  0.67848087422E+01  0.57598982052E+01 -0.62585747294E+00  0.89219815534E+01  0.51100000000E-03 0. -1.
        -11    1    3    3    0    0 -0.12671152855E+02  0.28767196675E+02 -0.22631415199E+02  0.38733585858E+02  0.51100000000E-03 0.  1.
         12    1    3    3    0    0  0.63645874813E+01 -0.34128146452E+02  0.24259243839E+02  0.42352677196E+02  0.00000000000E+00 0. -1.
</event>
<event>
 7    1  0.4639347E-015  0.9000766E+02  0.7816164E-02  0.1186339E+00
        -11   -1    0    0    0    0  0.00000000000E+00  0.00000000000E+00  0.45593999997E+02  0.45594000000E+02  0.51100000000E-03 0. -1.
         11   -1    0    0    0    0 -0.00000000000E+00 -0.00000000000E+00 -0.45593999997E+02  0.45594000000E+02  0.51100000000E-03 0.  1.
    9900012    2    1    2    0    0 -0.11993940374E+00 -0.11588258731E+01 -0.18957562826E+00  0.90007660310E+02  0.89999920626E+02 0.  0.
         12    1    1    2    0    0  0.11993940374E+00  0.11588258731E+01  0.18957562826E+00  0.11803396899E+01  0.00000000000E+00 0. -1.
         11    1    3    3    0    0 -0.27092488094E+01  0.83961192567E+01  0.51528868218E+01  0.10217000076E+02  0.51100000000E-03 0. -1.
        -11    1    3    3    0    0 -0.91035239706E+01 -0.39872498848E+02  0.12440365462E+02  0.42748719351E+02  0.51100000000E-03 0.  1.
         12    1    3    3    0    0  0.11692833376E+02  0.30317553719E+02 -0.17782827912E+02  0.37041940883E+02  0.00000000000E+00 0. -1.
</event>
<event>
 7    1  0.4639347E-015  0.9000770E+02  0.7816164E-02  0.1186339E+00
        -11   -1    0    0    0    0  0.00000000000E+00  0.00000000000E+00  0.45593999997E+02  0.45594000000E+02  0.51100000000E-03 0.  1.
         11   -1    0    0    0    0 -0.00000000000E+00 -0.00000000000E+00 -0.45593999997E+02  0.45594000000E+02  0.51100000000E-03 0. -1.
    9900012    2    1    2    0    0  0.93781297230E+00 -0.68466234348E+00 -0.21178228922E+00  0.90007700278E+02  0.89999961122E+02 0.  0.
         12    1    1    2    0    0 -0.93781297230E+00  0.68466234348E+00  0.21178228922E+00  0.11802997219E+01  0.00000000000E+00 0. -1.
         11    1    3    3    0    0  0.30702163725E+01  0.89598517016E+01 -0.12167726574E+01  0.95491207475E+01  0.51100000000E-03 0. -1.
        -11    1    3    3    0    0  0.28187917078E+02 -0.27023221257E+02 -0.15242963710E+02  0.41918505451E+02  0.51100000000E-03 0.  1.
         12    1    3    3    0    0 -0.30320320479E+02  0.17378707212E+02  0.16247954079E+02  0.38540074079E+02  0.00000000000E+00 0. -1.
</event>
<event>
 7    1  0.4639347E-015  0.9000773E+02  0.7816164E-02  0.1186339E+00
        -11   -1    0    0    0    0  0.00000000000E+00  0.00000000000E+00  0.45593999997E+02  0.45594000000E+02  0.51100000000E-03 0.  1.
         11   -1    0    0    0    0 -0.00000000000E+00 -0.00000000000E+00 -0.45593999997E+02  0.45594000000E+02  0.51100000000E-03 0. -1.
    9900012    2    1    2    0    0 -0.11192182299E+01 -0.24670283721E+00  0.28201596319E+00  0.90007726837E+02  0.89999988031E+02 0.  0.
         12    1    1    2    0    0  0.11192182299E+01  0.24670283721E+00 -0.28201596319E+00  0.11802731631E+01  0.00000000000E+00 0. -1.
         11    1    3    3    0    0  0.24256098727E+01  0.12851615806E+02 -0.34230240821E+02  0.36643648822E+02  0.51100000000E-03 0. -1.
        -11    1    3    3    0    0  0.54602201113E+01  0.71921529215E+01 -0.32192395892E+01  0.95866871808E+01  0.51100000000E-03 0.  1.
        -12    1    3    3    0    0 -0.90050482138E+01 -0.20290471565E+02  0.37731496373E+02  0.43777390834E+02  0.00000000000E+00 0.  1.
</event>
<event>
 7    1  0.4639347E-015  0.9000776E+02  0.7816164E-02  0.1186339E+00
        -11   -1    0    0    0    0  0.00000000000E+00  0.00000000000E+00  0.45593999997E+02  0.45594000000E+02  0.51100000000E-03 0.  1.
         11   -1    0    0    0    0 -0.00000000000E+00 -0.00000000000E+00 -0.45593999997E+02  0.45594000000E+02  0.51100000000E-03 0. -1.
    9900012    2    1    2    0    0 -0.94097293642E+00  0.65724245443E+00  0.27488581724E+00  0.90007762768E+02  0.90000024437E+02 0.  0.
         12    1    1    2    0    0  0.94097293642E+00 -0.65724245443E+00 -0.27488581724E+00  0.11802372319E+01  0.00000000000E+00 0. -1.
         11    1    3    3    0    0 -0.19461134142E+01  0.82342613772E+01  0.27491339673E+01  0.88965249216E+01  0.51100000000E-03 0. -1.
        -11    1    3    3    0    0  0.14075523567E+01 -0.43368281384E+02  0.73145816911E+01  0.44003319641E+02  0.51100000000E-03 0.  1.
         12    1    3    3    0    0 -0.40241187891E+00  0.35791262461E+02 -0.97888298412E+01  0.37107918206E+02  0.00000000000E+00 0. -1.
</event>
<event>
 7    1  0.4639347E-015  0.9000779E+02  0.7816164E-02  0.1186339E+00
        -11   -1    0    0    0    0  0.00000000000E+00  0.00000000000E+00  0.45593999997E+02  0.45594000000E+02  0.51100000000E-03 0. -1.
         11   -1    0    0    0    0 -0.00000000000E+00 -0.00000000000E+00 -0.45593999997E+02  0.45594000000E+02  0.51100000000E-03 0.  1.
    9900012    2    1    2    0    0  0.73478902554E+00 -0.78764801273E+00 -0.48228144129E+00  0.90007788285E+02  0.90000050290E+02 0.  0.
         12    1    1    2    0    0 -0.73478902554E+00  0.78764801273E+00  0.48228144129E+00  0.11802117152E+01  0.00000000000E+00 0. -1.
         11    1    3    3    0    0 -0.59831928638E+01 -0.47215761391E+01  0.76084197198E+01  0.10769397800E+02  0.51100000000E-03 0. -1.
        -11    1    3    3    0    0 -0.26997103305E+02 -0.16261524881E+02 -0.20999627312E+02  0.37871692935E+02  0.51100000000E-03 0.  1.
         12    1    3    3    0    0  0.33715085194E+02  0.20195453007E+02  0.12908926150E+02  0.41366697550E+02  0.00000000000E+00 0. -1.
</event>
<event>
 7    1  0.4639347E-015  0.9000772E+02  0.7816164E-02  0.1186339E+00
        -11   -1    0    0    0    0  0.00000000000E+00  0.00000000000E+00  0.45593999997E+02  0.45594000000E+02  0.51100000000E-03 0. -1.
         11   -1    0    0    0    0 -0.00000000000E+00 -0.00000000000E+00 -0.45593999997E+02  0.45594000000E+02  0.51100000000E-03 0.  1.
    9900012    2    1    2    0    0  0.82009836072E+00 -0.40682770196E+00 -0.74498288657E+00  0.90007716305E+02  0.89999977360E+02 0.  0.
         12    1    1    2    0    0 -0.82009836072E+00  0.40682770196E+00  0.74498288657E+00  0.11802836954E+01  0.00000000000E+00 0. -1.
         11    1    3    3    0    0 -0.30615050407E+01 -0.94618968785E+01 -0.47637839026E+01  0.11026964360E+02  0.51100000000E-03 0. -1.
        -11    1    3    3    0    0  0.39444859198E+02  0.15870830322E+02 -0.25628046620E+00  0.42518770587E+02  0.51100000000E-03 0.  1.
         12    1    3    3    0    0 -0.35563255797E+02 -0.68157611452E+01  0.42750814822E+01  0.36461981358E+02  0.00000000000E+00 0. -1.
</event>
<event>
 7    1  0.4639347E-015  0.9000775E+02  0.7816164E-02  0.1186339E+00
        -11   -1    0    0    0    0  0.00000000000E+00  0.00000000000E+00  0.45593999997E+02  0.45594000000E+02  0.51100000000E-03 0.  1.
         11   -1    0    0    0    0 -0.00000000000E+00 -0.00000000000E+00 -0.45593999997E+02  0.45594000000E+02  0.51100000000E-03 0. -1.
    9900012    2    1    2    0    0  0.54756547554E+00  0.10269724821E+01  0.19617803613E+00  0.90007751615E+02  0.90000013136E+02 0.  0.
         12    1    1    2    0    0 -0.54756547554E+00 -0.10269724821E+01 -0.19617803613E+00  0.11802483852E+01  0.00000000000E+00 0. -1.
         11    1    3    3    0    0  0.54364611684E+01 -0.16663055468E+01 -0.74117201030E+01  0.93415886956E+01  0.51100000000E-03 0. -1.
        -11    1    3    3    0    0 -0.53038022973E+01  0.16967339581E+02 -0.33075089705E+02  0.37549733561E+02  0.51100000000E-03 0.  1.
         12    1    3    3    0    0  0.41490660438E+00 -0.14274061552E+02  0.40682987844E+02  0.43116429358E+02  0.00000000000E+00 0. -1.
</event>
<event>
 7    1  0.4639347E-015  0.9000772E+02  0.7816164E-02  0.1186339E+00
        -11   -1    0    0    0    0  0.00000000000E+00  0.00000000000E+00  0.45593999997E+02  0.45594000000E+02  0.51100000000E-03 0. -1.
         11   -1    0    0    0    0 -0.00000000000E+00 -0.00000000000E+00 -0.45593999997E+02  0.45594000000E+02  0.51100000000E-03 0.  1.
    9900012    2    1    2    0    0 -0.59454285010E+00 -0.78542376058E+00 -0.65014041510E+00  0.90007722811E+02  0.89999983952E+02 0.  0.
         12    1    1    2    0    0  0.59454285010E+00  0.78542376058E+00  0.65014041510E+00  0.11802771893E+01  0.00000000000E+00 0. -1.
         11    1    3    3    0    0 -0.67301335073E+01 -0.59656419075E+01  0.37010475666E+02  0.38087516192E+02  0.51100000000E-03 0. -1.
        -11    1    3    3    0    0  0.76260733712E+01 -0.22673817677E+01  0.44596169781E+01  0.91206468518E+01  0.51100000000E-03 0.  1.
        -12    1    3    3    0    0 -0.14904827140E+01  0.74475999146E+01 -0.42120233060E+02  0.42799559766E+02  0.00000000000E+00 0.  1.
</event>
<event>
 7    1  0.4639347E-015  0.9000770E+02  0.7816164E-02  0.1186339E+00
        -11   -1    0    0    0    0  0.00000000000E+00  0.00000000000E+00  0.45593999997E+02  0.45594000000E+02  0.51100000000E-03 0. -1.
         11   -1    0    0    0    0 -0.00000000000E+00 -0.00000000000E+00 -0.45593999997E+02  0.45594000000E+02  0.51100000000E-03 0.  1.
    9900012    2    1    2    0    0 -0.32012384413E+00 -0.10968452907E+01 -0.29590062977E+00  0.90007700864E+02  0.89999961716E+02 0.  0.
         12    1    1    2    0    0  0.32012384413E+00  0.10968452907E+01  0.29590062977E+00  0.11802991358E+01  0.00000000000E+00 0. -1.
         11    1    3    3    0    0  0.23216860288E+02 -0.29647608817E+02 -0.62470547833E+01  0.38171049290E+02  0.51100000000E-03 0. -1.
        -11    1    3    3    0    0  0.93827372617E+01  0.31060525985E+01  0.13782004759E+01  0.99791160971E+01  0.51100000000E-03 0.  1.
        -12    1    3    3    0    0 -0.32919721394E+02  0.25444710928E+02  0.45729536776E+01  0.41857535477E+02  0.00000000000E+00 0.  1.
</event>
<event>
 7    1  0.4639347E-015  0.9000793E+02  0.7816164E-02  0.1186339E+00
        -11   -1    0    0    0    0  0.00000000000E+00  0.00000000000E+00  0.45593999997E+02  0.45594000000E+02  0.51100000000E-03 0. -1.
         11   -1    0    0    0    0 -0.00000000000E+00 -0.00000000000E+00 -0.45593999997E+02  0.45594000000E+02  0.51100000000E-03 0.  1.
    9900012    2    1    2    0    0  0.55048874080E+00 -0.75854245144E+00 -0.71703535961E+00  0.90007930421E+02  0.90000194302E+02 0.  0.
         12    1    1    2    0    0 -0.55048874080E+00  0.75854245144E+00  0.71703535961E+00  0.11800695790E+01  0.00000000000E+00 0. -1.
         11    1    3    3    0    0 -0.92567052118E+00  0.38930125863E+02 -0.18103485495E+02  0.42943541458E+02  0.51100000000E-03 0. -1.
        -11    1    3    3    0    0  0.35324506850E+01 -0.32804284919E+01  0.81134859478E+01  0.94375883264E+01  0.51100000000E-03 0.  1.
        -12    1    3    3    0    0 -0.20562914231E+01 -0.36408239822E+02  0.92729641874E+01  0.37626800637E+02  0.00000000000E+00 0.  1.
</event>
<event>
 7    1  0.4639347E-015  0.9000766E+02  0.7816164E-02  0.1186339E+00
        -11   -1    0    0    0    0  0.00000000000E+00  0.00000000000E+00  0.45593999997E+02  0.45594000000E+02  0.51100000000E-03 0. -1.
         11   -1    0    0    0    0 -0.00000000000E+00 -0.00000000000E+00 -0.45593999997E+02  0.45594000000E+02  0.51100000000E-03 0.  1.
    9900012    2    1    2    0    0  0.10507637309E+01  0.12524209355E+00 -0.52288855564E+00  0.90007660031E+02  0.89999920344E+02 0.  0.
         12    1    1    2    0    0 -0.10507637309E+01 -0.12524209355E+00  0.52288855564E+00  0.11803399688E+01  0.00000000000E+00 0. -1.
         11    1    3    3    0    0  0.34313156942E+02  0.14827389745E+02  0.15858478763E+02  0.40604625043E+02  0.51100000000E-03 0. -1.
        -11    1    3    3    0    0 -0.44340558490E+01 -0.39591718781E+01  0.81272182974E+01  0.10069139524E+02  0.51100000000E-03 0.  1.
        -12    1    3    3    0    0 -0.28828337362E+02 -0.10742975774E+02 -0.24508585616E+02  0.39333895464E+02  0.00000000000E+00 0.  1.
</event>
<event>
 7    1  0.4639347E-015  0.9000774E+02  0.7816164E-02  0.1186339E+00
        -11   -1    0    0    0    0  0.00000000000E+00  0.00000000000E+00  0.45593999997E+02  0.45594000000E+02  0.51100000000E-03 0.  1.
         11   -1    0    0    0    0 -0.00000000000E+00 -0.00000000000E+00 -0.45593999997E+02  0.45594000000E+02  0.51100000000E-03 0. -1.
    9900012    2    1    2    0    0  0.51507665317E+00 -0.95859811691E+00 -0.45694811839E+00  0.90007739058E+02  0.90000000414E+02 0.  0.
         12    1    1    2    0    0 -0.51507665317E+00  0.95859811691E+00  0.45694811839E+00  0.11802609420E+01  0.00000000000E+00 0. -1.
         11    1    3    3    0    0 -0.28708259215E+02  0.17465272316E+02 -0.17942926711E+02  0.38093943134E+02  0.51100000000E-03 0. -1.
        -11    1    3    3    0    0 -0.42206118964E+01  0.58003601902E+01  0.50976185591E+01  0.88001964950E+01  0.51100000000E-03 0.  1.
        -12    1    3    3    0    0  0.33443947765E+02 -0.24224230623E+02  0.12388360034E+02  0.43113599429E+02  0.00000000000E+00 0.  1.
</event>
<event>
 7    1  0.4639347E-015  0.9000771E+02  0.7816164E-02  0.1186339E+00
        -11   -1    0    0    0    0  0.00000000000E+00  0.00000000000E+00  0.45593999997E+02  0.45594000000E+02  0.51100000000E-03 0.  1.
         11   -1    0    0    0    0 -0.00000000000E+00 -0.00000000000E+00 -0.45593999997E+02  0.45594000000E+02  0.51100000000E-03 0. -1.
    9900012    2    1    2    0    0  0.94969580870E+00 -0.63818898550E+00  0.28962827653E+00  0.90007706880E+02  0.89999967811E+02 0.  0.
         12    1    1    2    0    0 -0.94969580870E+00  0.63818898550E+00 -0.28962827653E+00  0.11802931199E+01  0.00000000000E+00 0. -1.
         11    1    3    3    0    0  0.10705125862E+02 -0.32499454210E+02 -0.25852988962E+02  0.42885793477E+02  0.51100000000E-03 0. -1.
        -11    1    3    3    0    0 -0.76157720323E+01  0.22721889439E+01  0.59235129391E+00  0.79695487050E+01  0.51100000000E-03 0.  1.
        -12    1    3    3    0    0 -0.21396580208E+01  0.29589076280E+02  0.25550265945E+02  0.39152364698E+02  0.00000000000E+00 0.  1.
</event>
<event>
 7    1  0.4639347E-015  0.9000773E+02  0.7816164E-02  0.1186339E+00
        -11   -1    0    0    0    0  0.00000000000E+00  0.00000000000E+00  0.45593999997E+02  0.45594000000E+02  0.51100000000E-03 0.  1.
         11   -1    0    0    0    0 -0.00000000000E+00 -0.00000000000E+00 -0.45593999997E+02  0.45594000000E+02  0.51100000000E-03 0. -1.
    9900012    2    1    2    0    0  0.18470241881E+00  0.10074672617E+01  0.58644889378E+00  0.90007734110E+02  0.89999995400E+02 0.  0.
         12    1    1    2    0    0 -0.18470241881E+00 -0.10074672617E+01 -0.58644889378E+00  0.11802658904E+01  0.00000000000E+00 0. -1.
         11    1    3    3    0    0  0.23291008945E+02  0.27558049092E+02 -0.17760166349E+02  0.40216174314E+02  0.51100000000E-03 0. -1.
        -11    1    3    3    0    0 -0.98517338799E+00  0.61405312613E+01  0.54407523708E+01  0.82630791716E+01  0.51100000000E-03 0.  1.
        -12    1    3    3    0    0 -0.22121133138E+02 -0.32691113091E+02  0.12905862873E+02  0.41528480624E+02  0.00000000000E+00 0.  1.
</event>
<event>
 7    1  0.4639347E-015  0.9000775E+02  0.7816164E-02  0.1186339E+00
        -11   -1    0    0    0    0  0.00000000000E+00  0.00000000000E+00  0.45593999997E+02  0.45594000000E+02  0.51100000000E-03 0.  1.
         11   -1    0    0    0    0 -0.00000000000E+00 -0.00000000000E+00 -0.45593999997E+02  0.45594000000E+02  0.51100000000E-03 0. -1.
    9900012    2    1    2    0    0  0.88872822438E+00  0.34516742075E+00 -0.69571020631E+00  0.90007749562E+02  0.90000011056E+02 0.  0.
         12    1    1    2    0    0 -0.88872822438E+00 -0.34516742075E+00  0.69571020631E+00  0.11802504380E+01  0.00000000000E+00 0. -1.
         11    1    3    3    0    0  0.20121570656E+02  0.24641011335E+02 -0.21256737538E+02  0.38261023722E+02  0.51100000000E-03 0. -1.
        -11    1    3    3    0    0  0.83288444214E+00 -0.11578060326E+01 -0.90407183900E+01  0.91525297362E+01  0.51100000000E-03 0.  1.
        -12    1    3    3    0    0 -0.20065726874E+02 -0.23138037881E+02  0.29601745721E+02  0.42594196104E+02  0.00000000000E+00 0.  1.
</event>
<event>
 7    1  0.4639347E-015  0.9000773E+02  0.7816164E-02  0.1186339E+00
        -11   -1    0    0    0    0  0.00000000000E+00  0.00000000000E+00  0.45593999997E+02  0.45594000000E+02  0.51100000000E-03 0.  1.
         11   -1    0    0    0    0 -0.00000000000E+00 -0.00000000000E+00 -0.45593999997E+02  0.45594000000E+02  0.51100000000E-03 0. -1.
    9900012    2    1    2    0    0  0.35733992844E+00 -0.93443973192E+00  0.62623705012E+00  0.90007727879E+02  0.89999989087E+02 0.  0.
         12    1    1    2    0    0 -0.35733992844E+00  0.93443973192E+00 -0.62623705012E+00  0.11802721212E+01  0.00000000000E+00 0. -1.
         11    1    3    3    0    0  0.11828445468E+02  0.40299062329E+01  0.13244326736E+01  0.12566080877E+02  0.51100000000E-03 0. -1.
        -11    1    3    3    0    0  0.83594948193E+01  0.17174096239E+02  0.29452964615E+02  0.35104242765E+02  0.51100000000E-03 0.  1.
         12    1    3    3    0    0 -0.19830600359E+02 -0.22138442204E+02 -0.30151160238E+02  0.42337404237E+02  0.00000000000E+00 0. -1.
</event>
<event>
 7    1  0.4639347E-015  0.9000801E+02  0.7816164E-02  0.1186339E+00
        -11   -1    0    0    0    0  0.00000000000E+00  0.00000000000E+00  0.45593999997E+02  0.45594000000E+02  0.51100000000E-03 0.  1.
         11   -1    0    0    0    0 -0.00000000000E+00 -0.00000000000E+00 -0.45593999997E+02  0.45594000000E+02  0.51100000000E-03 0. -1.
    9900012    2    1    2    0    0 -0.90314510406E+00 -0.48202633331E+00  0.58682737397E+00  0.90008005580E+02  0.90000270453E+02 0.  0.
         12    1    1    2    0    0  0.90314510406E+00  0.48202633331E+00 -0.58682737397E+00  0.11799944203E+01  0.00000000000E+00 0. -1.
         11    1    3    3    0    0  0.11418838952E+01  0.90221571821E+01 -0.51951130930E-01  0.90942794233E+01  0.51100000000E-03 0. -1.
        -11    1    3    3    0    0  0.23625258595E+02 -0.35432944336E+02 -0.82064010163E+01  0.43370397806E+02  0.51100000000E-03 0.  1.
         12    1    3    3    0    0 -0.25670287594E+02  0.25928760820E+02  0.88451795212E+01  0.37543328350E+02  0.00000000000E+00 0. -1.
</event>
<event>
 7    1  0.4639347E-015  0.9000778E+02  0.7816164E-02  0.1186339E+00
        -11   -1    0    0    0    0  0.00000000000E+00  0.00000000000E+00  0.45593999997E+02  0.45594000000E+02  0.51100000000E-03 0.  1.
         11   -1    0    0    0    0 -0.00000000000E+00 -0.00000000000E+00 -0.45593999997E+02  0.45594000000E+02  0.51100000000E-03 0. -1.
    9900012    2    1    2    0    0 -0.77396980712E+00 -0.10577636119E+00  0.88470819680E+00  0.90007776930E+02  0.90000038786E+02 0.  0.
         12    1    1    2    0    0  0.77396980712E+00  0.10577636119E+00 -0.88470819680E+00  0.11802230698E+01  0.00000000000E+00 0. -1.
         11    1    3    3    0    0  0.10108872542E+02  0.71441990676E+01 -0.10256249212E+01  0.12420981891E+02  0.51100000000E-03 0. -1.
        -11    1    3    3    0    0 -0.53642763645E+01  0.24679031872E+02  0.26727768607E+02  0.36772322337E+02  0.51100000000E-03 0.  1.
         12    1    3    3    0    0 -0.55185659846E+01 -0.31929007301E+02 -0.24817435489E+02  0.40814472703E+02  0.00000000000E+00 0. -1.
</event>
<event>
 7    1  0.4639347E-015  0.9000775E+02  0.7816164E-02  0.1186339E+00
        -11   -1    0    0    0    0  0.00000000000E+00  0.00000000000E+00  0.45593999997E+02  0.45594000000E+02  0.51100000000E-03 0.  1.
         11   -1    0    0    0    0 -0.00000000000E+00 -0.00000000000E+00 -0.45593999997E+02  0.45594000000E+02  0.51100000000E-03 0. -1.
    9900012    2    1    2    0    0 -0.94484533556E+00  0.21882622404E+00  0.67259387905E+00  0.90007745726E+02  0.90000007170E+02 0.  0.
         12    1    1    2    0    0  0.94484533556E+00 -0.21882622404E+00 -0.67259387905E+00  0.11802542737E+01  0.00000000000E+00 0. -1.
         11    1    3    3    0    0  0.30293776047E+01 -0.58630089671E+01 -0.81806860020E+01  0.10510738630E+02  0.51100000000E-03 0. -1.
        -11    1    3    3    0    0 -0.11066228465E+02  0.33983941334E+02  0.27587307522E+02  0.45148966960E+02  0.51100000000E-03 0.  1.
         12    1    3    3    0    0  0.70920055247E+01 -0.27902106143E+02 -0.18734027641E+02  0.34348040136E+02  0.00000000000E+00 0. -1.
</event>
<event>
 7    1  0.4639347E-015  0.9000772E+02  0.7816164E-02  0.1186339E+00
        -11   -1    0    0    0    0  0.00000000000E+00  0.00000000000E+00  0.45593999997E+02  0.45594000000E+02  0.51100000000E-03 0. -1.
         11   -1    0    0    0    0 -0.00000000000E+00 -0.00000000000E+00 -0.45593999997E+02  0.45594000000E+02  0.51100000000E-03 0.  1.
    9900012    2    1    2    0    0 -0.11388458834E+01  0.30682327193E+00 -0.44093307971E-01  0.90007722623E+02  0.89999983762E+02 0.  0.
         12    1    1    2    0    0  0.11388458834E+01 -0.30682327193E+00  0.44093307971E-01  0.11802773767E+01  0.00000000000E+00 0. -1.
         11    1    3    3    0    0  0.13434912578E+01  0.80533948807E+01 -0.33679547813E+01  0.88320585106E+01  0.51100000000E-03 0. -1.
        -11    1    3    3    0    0 -0.18467147683E+02  0.23466683803E+02 -0.22696710255E+02  0.37508151766E+02  0.51100000000E-03 0.  1.
         12    1    3    3    0    0  0.15984810541E+02 -0.31213255412E+02  0.26020571729E+02  0.43667512347E+02  0.00000000000E+00 0. -1.
</event>
<event>
 7    1  0.4639347E-015  0.9000809E+02  0.7816164E-02  0.1186338E+00
        -11   -1    0    0    0    0  0.00000000000E+00  0.00000000000E+00  0.45593999997E+02  0.45594000000E+02  0.51100000000E-03 0. -1.
         11   -1    0    0    0    0 -0.00000000000E+00 -0.00000000000E+00 -0.45593999997E+02  0.45594000000E+02  0.51100000000E-03 0.  1.
    9900012    2    1    2    0    0 -0.25227770204E+00 -0.32804015818E+00 -0.11049606980E+01  0.90008087915E+02  0.90000353875E+02 0.  0.
         12    1    1    2    0    0  0.25227770204E+00  0.32804015818E+00  0.11049606980E+01  0.11799120851E+01  0.00000000000E+00 0. -1.
         11    1    3    3    0    0  0.29694783896E+02  0.27992646317E+01  0.26174735969E+02  0.39682904082E+02  0.51100000000E-03 0. -1.
        -11    1    3    3    0    0  0.52974476129E+01 -0.28201947374E+01 -0.42871579989E+00  0.60166641145E+01  0.51100000000E-03 0.  1.
        -12    1    3    3    0    0 -0.35244509211E+02 -0.30711005243E+00 -0.26850980867E+02  0.44308519718E+02  0.00000000000E+00 0.  1.
</event>
<event>
 7    1  0.4639347E-015  0.9000815E+02  0.7816164E-02  0.1186338E+00
        -11   -1    0    0    0    0  0.00000000000E+00  0.00000000000E+00  0.45593999997E+02  0.45594000000E+02  0.51100000000E-03 0. -1.
         11   -1    0    0    0    0 -0.00000000000E+00 -0.00000000000E+00 -0.45593999997E+02  0.45594000000E+02  0.51100000000E-03 0.  1.
    9900012    2    1    2    0    0  0.39883537730E+00 -0.54897512714E+00 -0.96519125226E+00  0.90008153611E+02  0.90000420438E+02 0.  0.
         12    1    1    2    0    0 -0.39883537730E+00  0.54897512714E+00  0.96519125226E+00  0.11798463891E+01  0.00000000000E+00 0. -1.
         11    1    3    3    0    0 -0.24864828867E+01 -0.10285366847E+02 -0.11287061679E+01  0.10641679670E+02  0.51100000000E-03 0. -1.
        -11    1    3    3    0    0  0.26501145213E+02  0.26823928118E+02  0.21349099791E+02  0.43331488313E+02  0.51100000000E-03 0.  1.
         12    1    3    3    0    0 -0.23615826949E+02 -0.17087536398E+02 -0.21185584876E+02  0.36034985627E+02  0.00000000000E+00 0. -1.
</event>
<event>
 7    1  0.4639347E-015  0.9000776E+02  0.7816164E-02  0.1186339E+00
        -11   -1    0    0    0    0  0.00000000000E+00  0.00000000000E+00  0.45593999997E+02  0.45594000000E+02  0.51100000000E-03 0.  1.
         11   -1    0    0    0    0 -0.00000000000E+00 -0.00000000000E+00 -0.45593999997E+02  0.45594000000E+02  0.51100000000E-03 0. -1.
    9900012    2    1    2    0    0  0.10895633402E+01  0.55886119359E-02  0.45363421823E+00  0.90007761249E+02  0.90000022898E+02 0.  0.
         12    1    1    2    0    0 -0.10895633402E+01 -0.55886119359E-02 -0.45363421823E+00  0.11802387508E+01  0.00000000000E+00 0. -1.
         11    1    3    3    0    0 -0.87443543234E+01  0.27789746700E+02 -0.22068976795E+02  0.36548235132E+02  0.51100000000E-03 0. -1.
        -11    1    3    3    0    0  0.62830472849E+01  0.80231043665E+01 -0.13472754373E+01  0.10279204163E+02  0.51100000000E-03 0.  1.
        -12    1    3    3    0    0  0.35508703788E+01 -0.35807262454E+02  0.23869886451E+02  0.43180321955E+02  0.00000000000E+00 0.  1.
</event>
<event>
 7    1  0.4639347E-015  0.9000768E+02  0.7816164E-02  0.1186339E+00
        -11   -1    0    0    0    0  0.00000000000E+00  0.00000000000E+00  0.45593999997E+02  0.45594000000E+02  0.51100000000E-03 0.  1.
         11   -1    0    0    0    0 -0.00000000000E+00 -0.00000000000E+00 -0.45593999997E+02  0.45594000000E+02  0.51100000000E-03 0. -1.
    9900012    2    1    2    0    0 -0.46324892989E+00  0.53231720871E+00  0.94614698259E+00  0.90007680003E+02  0.89999940579E+02 0.  0.
         12    1    1    2    0    0  0.46324892989E+00 -0.53231720871E+00 -0.94614698259E+00  0.11803199966E+01  0.00000000000E+00 0. -1.
         11    1    3    3    0    0 -0.26735827570E+02  0.24180623254E+02 -0.20866805288E+02  0.41652497884E+02  0.51100000000E-03 0. -1.
        -11    1    3    3    0    0  0.58606844516E+01 -0.78734838299E+01 -0.51118548549E+01  0.11066635902E+02  0.51100000000E-03 0.  1.
        -12    1    3    3    0    0  0.20411894188E+02 -0.15774822215E+02  0.26924807125E+02  0.37288546218E+02  0.00000000000E+00 0.  1.
</event>
<event>
 7    1  0.4639347E-015  0.9000774E+02  0.7816164E-02  0.1186339E+00
        -11   -1    0    0    0    0  0.00000000000E+00  0.00000000000E+00  0.45593999997E+02  0.45594000000E+02  0.51100000000E-03 0. -1.
         11   -1    0    0    0    0 -0.00000000000E+00 -0.00000000000E+00 -0.45593999997E+02  0.45594000000E+02  0.51100000000E-03 0.  1.
    9900012    2    1    2    0    0  0.11322896994E+01  0.17170160363E-01 -0.33263384491E+00  0.90007737295E+02  0.89999998627E+02 0.  0.
         12    1    1    2    0    0 -0.11322896994E+01 -0.17170160363E-01  0.33263384491E+00  0.11802627049E+01  0.00000000000E+00 0. -1.
         11    1    3    3    0    0  0.34661887753E+00 -0.28502330181E+01 -0.20260298512E+01  0.35140816898E+01  0.51100000000E-03 0. -1.
        -11    1    3    3    0    0 -0.11441312979E+02  0.29386655301E+02 -0.29910314299E+02  0.43463847669E+02  0.51100000000E-03 0.  1.
         12    1    3    3    0    0  0.12226983801E+02 -0.26519252123E+02  0.31603710305E+02  0.43029807936E+02  0.00000000000E+00 0. -1.
</event>
<event>
 7    1  0.4639347E-015  0.9000774E+02  0.7816164E-02  0.1186339E+00
        -11   -1    0    0    0    0  0.00000000000E+00  0.00000000000E+00  0.45593999997E+02  0.45594000000E+02  0.51100000000E-03 0.  1.
         11   -1    0    0    0    0 -0.00000000000E+00 -0.00000000000E+00 -0.45593999997E+02  0.45594000000E+02  0.51100000000E-03 0. -1.
    9900012    2    1    2    0    0  0.45207971875E+00  0.98712533347E+00  0.46284994532E+00  0.90007736229E+02  0.89999997548E+02 0.  0.
         12    1    1    2    0    0 -0.45207971875E+00 -0.98712533347E+00 -0.46284994532E+00  0.11802637705E+01  0.00000000000E+00 0. -1.
         11    1    3    3    0    0  0.29643999890E+01 -0.96621051808E+01 -0.20298939410E+01  0.10308463197E+02  0.51100000000E-03 0. -1.
        -11    1    3    3    0    0 -0.60700078886E+01 -0.16378015885E+02  0.33885561806E+02  0.38122377933E+02  0.51100000000E-03 0.  1.
         12    1    3    3    0    0  0.35576876184E+01  0.27027246399E+02 -0.31392817920E+02  0.41576895099E+02  0.00000000000E+00 0. -1.
</event>
<event>
 7    1  0.4639347E-015  0.9000782E+02  0.7816164E-02  0.1186339E+00
        -11   -1    0    0    0    0  0.00000000000E+00  0.00000000000E+00  0.45593999997E+02  0.45594000000E+02  0.51100000000E-03 0.  1.
         11   -1    0    0    0    0 -0.00000000000E+00 -0.00000000000E+00 -0.45593999997E+02  0.45594000000E+02  0.51100000000E-03 0. -1.
    9900012    2    1    2    0    0 -0.16207737363E+00  0.53327579692E+00  0.10402779266E+01  0.90007817677E+02  0.90000080070E+02 0.  0.
         12    1    1    2    0    0  0.16207737363E+00 -0.53327579692E+00 -0.10402779266E+01  0.11801823229E+01  0.00000000000E+00 0. -1.
         11    1    3    3    0    0  0.34785739782E+02  0.18794492142E+00 -0.37998943063E+01  0.34993173798E+02  0.51100000000E-03 0. -1.
        -11    1    3    3    0    0 -0.70462710190E+01 -0.18459661203E+02 -0.41443159389E+01  0.20188719174E+02  0.51100000000E-03 0.  1.
        -12    1    3    3    0    0 -0.27901546136E+02  0.18804992079E+02  0.89844881718E+01  0.34825924705E+02  0.00000000000E+00 0.  1.
</event>
<event>
 7    1  0.4639347E-015  0.9000775E+02  0.7816164E-02  0.1186339E+00
        -11   -1    0    0    0    0  0.00000000000E+00  0.00000000000E+00  0.45593999997E+02  0.45594000000E+02  0.51100000000E-03 0.  1.
         11   -1    0    0    0    0 -0.00000000000E+00 -0.00000000000E+00 -0.45593999997E+02  0.45594000000E+02  0.51100000000E-03 0. -1.
    9900012    2    1    2    0    0 -0.60633838407E+00 -0.77428090224E+00 -0.65256245029E+00  0.90007747949E+02  0.90000009422E+02 0.  0.
         12    1    1    2    0    0  0.60633838407E+00  0.77428090224E+00  0.65256245029E+00  0.11802520507E+01  0.00000000000E+00 0. -1.
         11    1    3    3    0    0  0.29598084700E+02 -0.18871459841E+02  0.12398205479E+02  0.37227598819E+02  0.51100000000E-03 0. -1.
        -11    1    3    3    0    0  0.41291092036E+01  0.34163083442E+01  0.82150804281E+01  0.98085805405E+01  0.51100000000E-03 0.  1.
        -12    1    3    3    0    0 -0.34333532288E+02  0.14680870595E+02 -0.21265848357E+02  0.42971568590E+02  0.00000000000E+00 0.  1.
</event>
<event>
 7    1  0.4639347E-015  0.9000759E+02  0.7816164E-02  0.1186339E+00
        -11   -1    0    0    0    0  0.00000000000E+00  0.00000000000E+00  0.45593999997E+02  0.45594000000E+02  0.51100000000E-03 0.  1.
         11   -1    0    0    0    0 -0.00000000000E+00 -0.00000000000E+00 -0.45593999997E+02  0.45594000000E+02  0.51100000000E-03 0. -1.
    9900012    2    1    2    0    0  0.93600869675E+00 -0.66814157468E+00  0.26616329425E+00  0.90007589756E+02  0.89999849141E+02 0.  0.
         12    1    1    2    0    0 -0.93600869675E+00  0.66814157468E+00 -0.26616329425E+00  0.11804102437E+01  0.00000000000E+00 0. -1.
         11    1    3    3    0    0 -0.74393305663E+01  0.20020136190E+01 -0.66819338161E+01  0.10198035967E+02  0.51100000000E-03 0. -1.
        -11    1    3    3    0    0 -0.31121052456E+02  0.16806924364E+02  0.50789504319E+01  0.35732175280E+02  0.51100000000E-03 0.  1.
         12    1    3    3    0    0  0.39496391719E+02 -0.19477079557E+02  0.18691466784E+01  0.44077378509E+02  0.00000000000E+00 0. -1.
</event>
<event>
 7    1  0.4639347E-015  0.9000773E+02  0.7816164E-02  0.1186339E+00
        -11   -1    0    0    0    0  0.00000000000E+00  0.00000000000E+00  0.45593999997E+02  0.45594000000E+02  0.51100000000E-03 0.  1.
         11   -1    0    0    0    0 -0.00000000000E+00 -0.00000000000E+00 -0.45593999997E+02  0.45594000000E+02  0.51100000000E-03 0. -1.
    9900012    2    1    2    0    0  0.69809498472E+00  0.64242513080E+00  0.70213840310E+00  0.90007726729E+02  0.89999987922E+02 0.  0.
         12    1    1    2    0    0 -0.69809498472E+00 -0.64242513080E+00 -0.70213840310E+00  0.11802732707E+01  0.00000000000E+00 0. -1.
         11    1    3    3    0    0  0.33386971681E+02  0.95289097307E+00 -0.20954838199E+02  0.39429723857E+02  0.51100000000E-03 0. -1.
        -11    1    3    3    0    0 -0.13525838769E+01 -0.82708131269E+01 -0.40160059848E+01  0.92932307221E+01  0.51100000000E-03 0.  1.
        -12    1    3    3    0    0 -0.31336292819E+02  0.79603472846E+01  0.25672982587E+02  0.41284772150E+02  0.00000000000E+00 0.  1.
</event>
<event>
 7    1  0.4639347E-015  0.9000777E+02  0.7816164E-02  0.1186339E+00
        -11   -1    0    0    0    0  0.00000000000E+00  0.00000000000E+00  0.45593999997E+02  0.45594000000E+02  0.51100000000E-03 0.  1.
         11   -1    0    0    0    0 -0.00000000000E+00 -0.00000000000E+00 -0.45593999997E+02  0.45594000000E+02  0.51100000000E-03 0. -1.
    9900012    2    1    2    0    0 -0.78697317410E+00 -0.50746705896E+00  0.71838845643E+00  0.90007774781E+02  0.90000036608E+02 0.  0.
         12    1    1    2    0    0  0.78697317410E+00  0.50746705896E+00 -0.71838845643E+00  0.11802252188E+01  0.00000000000E+00 0. -1.
         11    1    3    3    0    0 -0.30519820143E+01 -0.26089249644E+01 -0.81838084331E+01  0.91156900132E+01  0.51100000000E-03 0. -1.
        -11    1    3    3    0    0  0.33801822379E+02 -0.14669983886E+02 -0.12904840649E+02  0.39042368471E+02  0.51100000000E-03 0.  1.
         12    1    3    3    0    0 -0.31536813539E+02  0.16771441792E+02  0.21807037539E+02  0.41849716297E+02  0.00000000000E+00 0. -1.
</event>
<event>
 7    1  0.4639347E-015  0.9000765E+02  0.7816164E-02  0.1186339E+00
        -11   -1    0    0    0    0  0.00000000000E+00  0.00000000000E+00  0.45593999997E+02  0.45594000000E+02  0.51100000000E-03 0.  1.
         11   -1    0    0    0    0 -0.00000000000E+00 -0.00000000000E+00 -0.45593999997E+02  0.45594000000E+02  0.51100000000E-03 0. -1.
    9900012    2    1    2    0    0  0.42196739679E-01  0.94765572444E+00  0.70242535732E+00  0.90007646951E+02  0.89999907091E+02 0.  0.
         12    1    1    2    0    0 -0.42196739679E-01 -0.94765572444E+00 -0.70242535732E+00  0.11803530487E+01  0.00000000000E+00 0. -1.
         11    1    3    3    0    0 -0.35757056638E+01  0.69297839541E+01  0.33599150920E+01  0.84909720487E+01  0.51100000000E-03 0. -1.
        -11    1    3    3    0    0  0.89594647055E+01  0.26916704535E+02  0.25301907408E+02  0.38012728258E+02  0.51100000000E-03 0.  1.
         12    1    3    3    0    0 -0.53415623020E+01 -0.32898832764E+02 -0.27959397143E+02  0.43503946645E+02  0.00000000000E+00 0. -1.
</event>
<event>
 7    1  0.4639347E-015  0.9000783E+02  0.7816164E-02  0.1186339E+00
        -11   -1    0    0    0    0  0.00000000000E+00  0.00000000000E+00  0.45593999997E+02  0.45594000000E+02  0.51100000000E-03 0.  1.
         11   -1    0    0    0    0 -0.00000000000E+00 -0.00000000000E+00 -0.45593999997E+02  0.45594000000E+02  0.51100000000E-03 0. -1.
    9900012    2    1    2    0    0 -0.10998925763E+01 -0.33305966700E+00  0.26851682605E+00  0.90007833187E+02  0.90000095785E+02 0.  0.
         12    1    1    2    0    0  0.10998925763E+01  0.33305966700E+00 -0.26851682605E+00  0.11801668132E+01  0.00000000000E+00 0. -1.
         11    1    3    3    0    0 -0.72028536082E+01  0.35877625412E+01 -0.39735349545E+01  0.89745261964E+01  0.51100000000E-03 0. -1.
        -11    1    3    3    0    0 -0.37499719058E+01  0.37587567824E+02  0.64206109312E+01  0.38315946931E+02  0.51100000000E-03 0.  1.
         12    1    3    3    0    0  0.98529329378E+01 -0.41508390032E+02 -0.21785591506E+01  0.42717360060E+02  0.00000000000E+00 0. -1.
</event>
<event>
 7    1  0.4639347E-015  0.9000860E+02  0.7816164E-02  0.1186337E+00
        -11   -1    0    0    0    0  0.00000000000E+00  0.00000000000E+00  0.45593999997E+02  0.45594000000E+02  0.51100000000E-03 0.  1.
         11   -1    0    0    0    0 -0.00000000000E+00 -0.00000000000E+00 -0.45593999997E+02  0.45594000000E+02  0.51100000000E-03 0. -1.
    9900012    2    1    2    0    0  0.19555050198E+00 -0.10765414035E+01 -0.44022959945E+00  0.90008600368E+02  0.90000873088E+02 0.  0.
         12    1    1    2    0    0 -0.19555050198E+00  0.10765414035E+01  0.44022959945E+00  0.11793996322E+01  0.00000000000E+00 0. -1.
         11    1    3    3    0    0  0.33935004424E+02 -0.23798855015E+01 -0.14193193550E+02  0.36860481870E+02  0.51100000000E-03 0. -1.
        -11    1    3    3    0    0  0.70432054755E+01 -0.66972999382E+01  0.16191936904E+01  0.98530380239E+01  0.51100000000E-03 0.  1.
        -12    1    3    3    0    0 -0.40782659398E+02  0.80006440362E+01  0.12133770260E+02  0.43295080474E+02  0.00000000000E+00 0.  1.
</event>
<event>
 7    1  0.4639347E-015  0.9000774E+02  0.7816164E-02  0.1186339E+00
        -11   -1    0    0    0    0  0.00000000000E+00  0.00000000000E+00  0.45593999997E+02  0.45594000000E+02  0.51100000000E-03 0.  1.
         11   -1    0    0    0    0 -0.00000000000E+00 -0.00000000000E+00 -0.45593999997E+02  0.45594000000E+02  0.51100000000E-03 0. -1.
    9900012    2    1    2    0    0  0.14724535293E+00  0.68819515713E-01  0.11690124865E+01  0.90007742607E+02  0.90000004010E+02 0.  0.
         12    1    1    2    0    0 -0.14724535293E+00 -0.68819515713E-01 -0.11690124865E+01  0.11802573928E+01  0.00000000000E+00 0. -1.
         11    1    3    3    0    0  0.60604687570E+01  0.12398276452E+02  0.11362342296E+02  0.17875943702E+02  0.51100000000E-03 0. -1.
        -11    1    3    3    0    0  0.46936013431E+01 -0.21027360627E+02  0.25800273335E+02  0.33613001843E+02  0.51100000000E-03 0.  1.
         12    1    3    3    0    0 -0.10606824747E+02  0.86979036904E+01 -0.35993603144E+02  0.38518797062E+02  0.00000000000E+00 0. -1.
</event>
<event>
 7    1  0.4639347E-015  0.9000777E+02  0.7816164E-02  0.1186339E+00
        -11   -1    0    0    0    0  0.00000000000E+00  0.00000000000E+00  0.45593999997E+02  0.45594000000E+02  0.51100000000E-03 0. -1.
         11   -1    0    0    0    0 -0.00000000000E+00 -0.00000000000E+00 -0.45593999997E+02  0.45594000000E+02  0.51100000000E-03 0.  1.
    9900012    2    1    2    0    0  0.46548171534E+00 -0.83540657977E+00 -0.69164636113E+00  0.90007766095E+02  0.90000027808E+02 0.  0.
         12    1    1    2    0    0 -0.46548171534E+00  0.83540657977E+00  0.69164636113E+00  0.11802339047E+01  0.00000000000E+00 0. -1.
         11    1    3    3    0    0  0.19824685264E+02 -0.10417570339E+02  0.30465016521E+02  0.37810860206E+02  0.51100000000E-03 0. -1.
        -11    1    3    3    0    0 -0.44079556209E+01 -0.66117673365E+01  0.53310708684E+01  0.95690050127E+01  0.51100000000E-03 0.  1.
        -12    1    3    3    0    0 -0.14951247928E+02  0.16193931096E+02 -0.36487733751E+02  0.42627900877E+02  0.00000000000E+00 0.  1.
</event>
<event>
 7    1  0.4639347E-015  0.9000778E+02  0.7816164E-02  0.1186339E+00
        -11   -1    0    0    0    0  0.00000000000E+00  0.00000000000E+00  0.45593999997E+02  0.45594000000E+02  0.51100000000E-03 0. -1.
         11   -1    0    0    0    0 -0.00000000000E+00 -0.00000000000E+00 -0.45593999997E+02  0.45594000000E+02  0.51100000000E-03 0.  1.
    9900012    2    1    2    0    0 -0.11952797995E+00  0.39365887102E+00 -0.11061892771E+01  0.90007784358E+02  0.90000046312E+02 0.  0.
         12    1    1    2    0    0  0.11952797995E+00 -0.39365887102E+00  0.11061892771E+01  0.11802156420E+01  0.00000000000E+00 0. -1.
         11    1    3    3    0    0 -0.22074226131E+01  0.45577638140E+01  0.64210786873E+01  0.81777856016E+01  0.51100000000E-03 0. -1.
        -11    1    3    3    0    0  0.31993776985E+02  0.19973529006E+02  0.10827873086E+02  0.39240112928E+02  0.51100000000E-03 0.  1.
         12    1    3    3    0    0 -0.29905882352E+02 -0.24137633949E+02 -0.18355141050E+02  0.42589885829E+02  0.00000000000E+00 0. -1.
</event>
<event>
 7    1  0.4639347E-015  0.9000774E+02  0.7816164E-02  0.1186339E+00
        -11   -1    0    0    0    0  0.00000000000E+00  0.00000000000E+00  0.45593999997E+02  0.45594000000E+02  0.51100000000E-03 0. -1.
         11   -1    0    0    0    0 -0.00000000000E+00 -0.00000000000E+00 -0.45593999997E+02  0.45594000000E+02  0.51100000000E-03 0.  1.
    9900012    2    1    2    0    0 -0.10788986913E+01 -0.10490287448E+00 -0.46687930159E+00  0.90007744400E+02  0.90000005826E+02 0.  0.
         12    1    1    2    0    0  0.10788986913E+01  0.10490287448E+00  0.46687930159E+00  0.11802556000E+01  0.00000000000E+00 0. -1.
         11    1    3    3    0    0  0.70879370442E+01 -0.93961353947E+01  0.10985615387E+01  0.11820873471E+02  0.51100000000E-03 0. -1.
        -11    1    3    3    0    0 -0.37373203743E+02 -0.14880736372E+02  0.32503305589E+00  0.40228078748E+02  0.51100000000E-03 0.  1.
         12    1    3    3    0    0  0.29206368008E+02  0.24171968892E+02 -0.18904738962E+01  0.37958792181E+02  0.00000000000E+00 0. -1.
</event>
<event>
 7    1  0.4639347E-015  0.9000778E+02  0.7816164E-02  0.1186339E+00
        -11   -1    0    0    0    0  0.00000000000E+00  0.00000000000E+00  0.45593999997E+02  0.45594000000E+02  0.51100000000E-03 0.  1.
         11   -1    0    0    0    0 -0.00000000000E+00 -0.00000000000E+00 -0.45593999997E+02  0.45594000000E+02  0.51100000000E-03 0. -1.
    9900012    2    1    2    0    0  0.40591959279E+00 -0.16109879321E+00  0.10964437039E+01  0.90007782930E+02  0.90000044864E+02 0.  0.
         12    1    1    2    0    0 -0.40591959279E+00  0.16109879321E+00 -0.10964437039E+01  0.11802170702E+01  0.00000000000E+00 0. -1.
         11    1    3    3    0    0  0.13929642152E+02  0.35622778698E+01 -0.16528948938E+02  0.21907325427E+02  0.51100000000E-03 0. -1.
        -11    1    3    3    0    0 -0.27147879969E+02 -0.23810673433E+02 -0.30193435139E+01  0.36236335240E+02  0.51100000000E-03 0.  1.
         12    1    3    3    0    0  0.13624157409E+02  0.20087296770E+02  0.20644736156E+02  0.31864122263E+02  0.00000000000E+00 0. -1.
</event>
<event>
 7    1  0.4639347E-015  0.9000706E+02  0.7816164E-02  0.1186340E+00
        -11   -1    0    0    0    0  0.00000000000E+00  0.00000000000E+00  0.45593999997E+02  0.45594000000E+02  0.51100000000E-03 0.  1.
         11   -1    0    0    0    0 -0.00000000000E+00 -0.00000000000E+00 -0.45593999997E+02  0.45594000000E+02  0.51100000000E-03 0. -1.
    9900012    2    1    2    0    0 -0.52314191156E+00 -0.69814723711E+00 -0.79594428471E+00  0.90007062098E+02  0.89999314515E+02 0.  0.
         12    1    1    2    0    0  0.52314191156E+00  0.69814723711E+00  0.79594428471E+00  0.11809379021E+01  0.00000000000E+00 0. -1.
         11    1    3    3    0    0  0.29764623103E+00 -0.31778656925E+01 -0.57072880175E+01  0.65391559405E+01  0.51100000000E-03 0. -1.
        -11    1    3    3    0    0  0.32708487838E+02 -0.11733416295E+01  0.27604719828E+02  0.42816380794E+02  0.51100000000E-03 0.  1.
         12    1    3    3    0    0 -0.33529275981E+02  0.36530600849E+01 -0.22693376095E+02  0.40651525364E+02  0.00000000000E+00 0. -1.
</event>
<event>
 7    1  0.4639347E-015  0.9000728E+02  0.7816164E-02  0.1186340E+00
        -11   -1    0    0    0    0  0.00000000000E+00  0.00000000000E+00  0.45593999997E+02  0.45594000000E+02  0.51100000000E-03 0.  1.
         11   -1    0    0    0    0 -0.00000000000E+00 -0.00000000000E+00 -0.45593999997E+02  0.45594000000E+02  0.51100000000E-03 0. -1.
    9900012    2    1    2    0    0 -0.79743789856E+00 -0.63233050904E+00 -0.59863032985E+00  0.90007276770E+02  0.89999532022E+02 0.  0.
         12    1    1    2    0    0  0.79743789856E+00  0.63233050904E+00  0.59863032985E+00  0.11807232303E+01  0.00000000000E+00 0. -1.
         11    1    3    3    0    0 -0.34350596150E+01 -0.23842527114E+02 -0.36769187298E+02  0.43957239091E+02  0.51100000000E-03 0. -1.
        -11    1    3    3    0    0  0.62322312128E+01  0.58488912632E+01  0.42711876891E+01  0.95547516679E+01  0.51100000000E-03 0.  1.
        -12    1    3    3    0    0 -0.35946094964E+01  0.17361305342E+02  0.31899369279E+02  0.36495286010E+02  0.00000000000E+00 0.  1.
</event>
<event>
 7    1  0.4639347E-015  0.9000772E+02  0.7816164E-02  0.1186339E+00
        -11   -1    0    0    0    0  0.00000000000E+00  0.00000000000E+00  0.45593999997E+02  0.45594000000E+02  0.51100000000E-03 0.  1.
         11   -1    0    0    0    0 -0.00000000000E+00 -0.00000000000E+00 -0.45593999997E+02  0.45594000000E+02  0.51100000000E-03 0. -1.
    9900012    2    1    2    0    0 -0.11301370287E+01  0.33970408117E+00  0.21149458837E-01  0.90007722123E+02  0.89999983255E+02 0.  0.
         12    1    1    2    0    0  0.11301370287E+01 -0.33970408117E+00 -0.21149458837E-01  0.11802778766E+01  0.00000000000E+00 0. -1.
         11    1    3    3    0    0  0.25703373815E+02 -0.17805786510E+02 -0.23784615856E+02  0.39286351452E+02  0.51100000000E-03 0. -1.
        -11    1    3    3    0    0 -0.37780499033E+01  0.18147897720E+02  0.14284089359E+01  0.18591939250E+02  0.51100000000E-03 0.  1.
        -12    1    3    3    0    0 -0.23055460941E+02 -0.24071290039E-02  0.22377356379E+02  0.32129431422E+02  0.00000000000E+00 0.  1.
</event>
<event>
 7    1  0.4639347E-015  0.9000784E+02  0.7816164E-02  0.1186339E+00
        -11   -1    0    0    0    0  0.00000000000E+00  0.00000000000E+00  0.45593999997E+02  0.45594000000E+02  0.51100000000E-03 0.  1.
         11   -1    0    0    0    0 -0.00000000000E+00 -0.00000000000E+00 -0.45593999997E+02  0.45594000000E+02  0.51100000000E-03 0. -1.
    9900012    2    1    2    0    0  0.40877698043E+00 -0.52782775162E+00  0.97317309444E+00  0.90007844660E+02  0.90000107409E+02 0.  0.
         12    1    1    2    0    0 -0.40877698043E+00  0.52782775162E+00 -0.97317309444E+00  0.11801553401E+01  0.00000000000E+00 0. -1.
         11    1    3    3    0    0 -0.22231167718E+00  0.42424667834E+01 -0.62630725951E+01  0.75679604573E+01  0.51100000000E-03 0. -1.
        -11    1    3    3    0    0  0.12275787659E+02  0.19232110367E+02  0.36371666280E+02  0.42935616219E+02  0.51100000000E-03 0.  1.
         12    1    3    3    0    0 -0.11644699002E+02 -0.24002404902E+02 -0.29135420591E+02  0.39504267984E+02  0.00000000000E+00 0. -1.
</event>
<event>
 7    1  0.4639347E-015  0.9000775E+02  0.7816164E-02  0.1186339E+00
        -11   -1    0    0    0    0  0.00000000000E+00  0.00000000000E+00  0.45593999997E+02  0.45594000000E+02  0.51100000000E-03 0.  1.
         11   -1    0    0    0    0 -0.00000000000E+00 -0.00000000000E+00 -0.45593999997E+02  0.45594000000E+02  0.51100000000E-03 0. -1.
    9900012    2    1    2    0    0 -0.94656023566E+00 -0.31554568782E+00  0.63042371301E+00  0.90007754509E+02  0.90000016069E+02 0.  0.
         12    1    1    2    0    0  0.94656023566E+00  0.31554568782E+00 -0.63042371301E+00  0.11802454909E+01  0.00000000000E+00 0. -1.
         11    1    3    3    0    0 -0.42150074913E+01  0.84671361070E+01 -0.31817260096E+01  0.99790812537E+01  0.51100000000E-03 0. -1.
        -11    1    3    3    0    0 -0.21247136911E+02 -0.19376358774E+01  0.34249476388E+02  0.40351231615E+02  0.51100000000E-03 0.  1.
         12    1    3    3    0    0  0.24515584167E+02 -0.68450459174E+01 -0.30437326665E+02  0.39677441641E+02  0.00000000000E+00 0. -1.
</event>
<event>
 7    1  0.4639347E-015  0.9000691E+02  0.7816164E-02  0.1186341E+00
        -11   -1    0    0    0    0  0.00000000000E+00  0.00000000000E+00  0.45593999997E+02  0.45594000000E+02  0.51100000000E-03 0. -1.
         11   -1    0    0    0    0 -0.00000000000E+00 -0.00000000000E+00 -0.45593999997E+02  0.45594000000E+02  0.51100000000E-03 0.  1.
    9900012    2    1    2    0    0  0.40758583926E+00 -0.11063689341E+01  0.69188076873E-01  0.90006913456E+02  0.89999163910E+02 0.  0.
         12    1    1    2    0    0 -0.40758583926E+00  0.11063689341E+01 -0.69188076873E-01  0.11810865441E+01  0.00000000000E+00 0. -1.
         11    1    3    3    0    0  0.17851873633E+01  0.22944674995E+02  0.32933485108E+02  0.40177847705E+02  0.51100000000E-03 0. -1.
        -11    1    3    3    0    0 -0.49812029375E+01  0.54111478539E+01 -0.37646297626E+01  0.82622842672E+01  0.51100000000E-03 0.  1.
        -12    1    3    3    0    0  0.36036014135E+01 -0.29462191783E+02 -0.29099667268E+02  0.41566781484E+02  0.00000000000E+00 0.  1.
</event>
<event>
 7    1  0.4639347E-015  0.9000769E+02  0.7816164E-02  0.1186339E+00
        -11   -1    0    0    0    0  0.00000000000E+00  0.00000000000E+00  0.45593999997E+02  0.45594000000E+02  0.51100000000E-03 0.  1.
         11   -1    0    0    0    0 -0.00000000000E+00 -0.00000000000E+00 -0.45593999997E+02  0.45594000000E+02  0.51100000000E-03 0. -1.
    9900012    2    1    2    0    0 -0.10354568034E+01  0.50743373439E+00 -0.25192752007E+00  0.90007691878E+02  0.89999952611E+02 0.  0.
         12    1    1    2    0    0  0.10354568034E+01 -0.50743373439E+00  0.25192752007E+00  0.11803081216E+01  0.00000000000E+00 0. -1.
         11    1    3    3    0    0 -0.31195879892E+02  0.87939317643E+01 -0.20484414162E+02  0.38342240179E+02  0.51100000000E-03 0. -1.
        -11    1    3    3    0    0 -0.58784147764E+00 -0.48192115103E+01 -0.82738222367E+01  0.95930439303E+01  0.51100000000E-03 0.  1.
        -12    1    3    3    0    0  0.30748264566E+02 -0.34672865197E+01  0.28506308879E+02  0.42072407769E+02  0.00000000000E+00 0.  1.
</event>
<event>
 7    1  0.4639347E-015  0.9000774E+02  0.7816164E-02  0.1186339E+00
        -11   -1    0    0    0    0  0.00000000000E+00  0.00000000000E+00  0.45593999997E+02  0.45594000000E+02  0.51100000000E-03 0.  1.
         11   -1    0    0    0    0 -0.00000000000E+00 -0.00000000000E+00 -0.45593999997E+02  0.45594000000E+02  0.51100000000E-03 0. -1.
    9900012    2    1    2    0    0 -0.91323432889E+00 -0.14860776223E+00  0.73275887760E+00  0.90007738682E+02  0.90000000032E+02 0.  0.
         12    1    1    2    0    0  0.91323432889E+00  0.14860776223E+00 -0.73275887760E+00  0.11802613182E+01  0.00000000000E+00 0. -1.
         11    1    3    3    0    0 -0.12731989583E+02 -0.13711221231E+01 -0.34094811983E+02  0.36420320414E+02  0.51100000000E-03 0. -1.
        -11    1    3    3    0    0  0.12461249732E+01 -0.49411304353E+01 -0.77559571516E+01  0.92802192337E+01  0.51100000000E-03 0.  1.
        -12    1    3    3    0    0  0.10572630281E+02  0.61636447962E+01  0.42583528013E+02  0.44307199034E+02  0.00000000000E+00 0.  1.
</event>
<event>
 7    1  0.4639347E-015  0.9000794E+02  0.7816164E-02  0.1186339E+00
        -11   -1    0    0    0    0  0.00000000000E+00  0.00000000000E+00  0.45593999997E+02  0.45594000000E+02  0.51100000000E-03 0. -1.
         11   -1    0    0    0    0 -0.00000000000E+00 -0.00000000000E+00 -0.45593999997E+02  0.45594000000E+02  0.51100000000E-03 0.  1.
    9900012    2    1    2    0    0 -0.10269043263E+01 -0.49271646461E+00  0.30862283723E+00  0.90007936415E+02  0.90000200375E+02 0.  0.
         12    1    1    2    0    0  0.10269043263E+01  0.49271646461E+00 -0.30862283723E+00  0.11800635854E+01  0.00000000000E+00 0. -1.
         11    1    3    3    0    0  0.25347440594E+01  0.34734085359E+02  0.78001421575E+01  0.35689267730E+02  0.51100000000E-03 0. -1.
        -11    1    3    3    0    0  0.11297017302E+01  0.58201406777E+01  0.82052771505E+01  0.10123084356E+02  0.51100000000E-03 0.  1.
        -12    1    3    3    0    0 -0.46913501160E+01 -0.41046942502E+02 -0.15696796471E+02  0.44195584328E+02  0.00000000000E+00 0.  1.
</event>
<event>
 7    1  0.4639347E-015  0.9000797E+02  0.7816164E-02  0.1186339E+00
        -11   -1    0    0    0    0  0.00000000000E+00  0.00000000000E+00  0.45593999997E+02  0.45594000000E+02  0.51100000000E-03 0. -1.
         11   -1    0    0    0    0 -0.00000000000E+00 -0.00000000000E+00 -0.45593999997E+02  0.45594000000E+02  0.51100000000E-03 0.  1.
    9900012    2    1    2    0    0 -0.75453720825E+00  0.57800642947E+00 -0.69931557398E+00  0.90007974533E+02  0.90000238996E+02 0.  0.
         12    1    1    2    0    0  0.75453720825E+00 -0.57800642947E+00  0.69931557398E+00  0.11800254672E+01  0.00000000000E+00 0. -1.
         11    1    3    3    0    0 -0.38787414513E+01  0.75464524633E+01  0.36838061444E+01  0.92500815130E+01  0.51100000000E-03 0. -1.
        -11    1    3    3    0    0 -0.36496086384E+02  0.58374862050E+01 -0.11078410430E+02  0.38584605019E+02  0.51100000000E-03 0.  1.
         12    1    3    3    0    0  0.39620290627E+02 -0.12805932239E+02  0.66952887115E+01  0.42173288001E+02  0.00000000000E+00 0. -1.
</event>
<event>
 7    1  0.4639347E-015  0.9000774E+02  0.7816164E-02  0.1186339E+00
        -11   -1    0    0    0    0  0.00000000000E+00  0.00000000000E+00  0.45593999997E+02  0.45594000000E+02  0.51100000000E-03 0. -1.
         11   -1    0    0    0    0 -0.00000000000E+00 -0.00000000000E+00 -0.45593999997E+02  0.45594000000E+02  0.51100000000E-03 0.  1.
    9900012    2    1    2    0    0 -0.66691288052E+00 -0.70700420286E+00 -0.66961959855E+00  0.90007738105E+02  0.89999999448E+02 0.  0.
         12    1    1    2    0    0  0.66691288052E+00  0.70700420286E+00  0.66961959855E+00  0.11802618946E+01  0.00000000000E+00 0. -1.
         11    1    3    3    0    0  0.14075659955E+01 -0.86162114909E+01 -0.54329991358E+01  0.10282889786E+02  0.51100000000E-03 0. -1.
        -11    1    3    3    0    0 -0.34699223773E+02 -0.15068257193E+02 -0.62179116186E+01  0.38337330768E+02  0.51100000000E-03 0.  1.
         12    1    3    3    0    0  0.32624744897E+02  0.22977464481E+02  0.10981291156E+02  0.41387517551E+02  0.00000000000E+00 0. -1.
</event>
<event>
 7    1  0.4639347E-015  0.9000774E+02  0.7816164E-02  0.1186339E+00
        -11   -1    0    0    0    0  0.00000000000E+00  0.00000000000E+00  0.45593999997E+02  0.45594000000E+02  0.51100000000E-03 0.  1.
         11   -1    0    0    0    0 -0.00000000000E+00 -0.00000000000E+00 -0.45593999997E+02  0.45594000000E+02  0.51100000000E-03 0. -1.
    9900012    2    1    2    0    0  0.99597939121E+00 -0.34053943221E+00  0.53392212223E+00  0.90007739484E+02  0.90000000845E+02 0.  0.
         12    1    1    2    0    0 -0.99597939121E+00  0.34053943221E+00 -0.53392212223E+00  0.11802605158E+01  0.00000000000E+00 0. -1.
         11    1    3    3    0    0  0.12056919751E+00 -0.20638220859E+02  0.68813005704E+01  0.21755527918E+02  0.51100000000E-03 0. -1.
        -11    1    3    3    0    0  0.60377911747E+01 -0.13452209226E+02 -0.25239882831E+02  0.29231293864E+02  0.51100000000E-03 0.  1.
         12    1    3    3    0    0 -0.51623809810E+01  0.33749890653E+02  0.18892504383E+02  0.39020917703E+02  0.00000000000E+00 0. -1.
</event>
<event>
 7    1  0.4639347E-015  0.9000772E+02  0.7816164E-02  0.1186339E+00
        -11   -1    0    0    0    0  0.00000000000E+00  0.00000000000E+00  0.45593999997E+02  0.45594000000E+02  0.51100000000E-03 0.  1.
         11   -1    0    0    0    0 -0.00000000000E+00 -0.00000000000E+00 -0.45593999997E+02  0.45594000000E+02  0.51100000000E-03 0. -1.
    9900012    2    1    2    0    0 -0.36651813621E+00  0.58308407353E-01  0.11204118388E+01  0.90007721176E+02  0.89999982295E+02 0.  0.
         12    1    1    2    0    0  0.36651813621E+00 -0.58308407353E-01 -0.11204118388E+01  0.11802788243E+01  0.00000000000E+00 0. -1.
         11    1    3    3    0    0  0.61346964952E+01  0.15420084699E+01 -0.70078928999E+01  0.94404901551E+01  0.51100000000E-03 0. -1.
        -11    1    3    3    0    0 -0.42584690620E+02 -0.43892810949E+01 -0.23686532953E+01  0.42875776173E+02  0.51100000000E-03 0.  1.
         12    1    3    3    0    0  0.36083475989E+02  0.29055810324E+01  0.10496958034E+02  0.37691454848E+02  0.00000000000E+00 0. -1.
</event>
<event>
 7    1  0.4639347E-015  0.9000766E+02  0.7816164E-02  0.1186339E+00
        -11   -1    0    0    0    0  0.00000000000E+00  0.00000000000E+00  0.45593999997E+02  0.45594000000E+02  0.51100000000E-03 0.  1.
         11   -1    0    0    0    0 -0.00000000000E+00 -0.00000000000E+00 -0.45593999997E+02  0.45594000000E+02  0.51100000000E-03 0. -1.
    9900012    2    1    2    0    0 -0.48551456391E+00  0.40573390769E+00  0.99642328114E+00  0.90007659477E+02  0.89999919782E+02 0.  0.
         12    1    1    2    0    0  0.48551456391E+00 -0.40573390769E+00 -0.99642328114E+00  0.11803405232E+01  0.00000000000E+00 0. -1.
         11    1    3    3    0    0  0.54299463890E+01  0.26773316253E+01  0.41961171167E+01  0.73661266306E+01  0.51100000000E-03 0. -1.
        -11    1    3    3    0    0  0.19454196563E+02 -0.11845476050E+02  0.31331871458E+02  0.38735864984E+02  0.51100000000E-03 0.  1.
         12    1    3    3    0    0 -0.25369657516E+02  0.95738783327E+01 -0.34531565294E+02  0.43905667862E+02  0.00000000000E+00 0. -1.
</event>
<event>
 7    1  0.4639347E-015  0.9000775E+02  0.7816164E-02  0.1186339E+00
        -11   -1    0    0    0    0  0.00000000000E+00  0.00000000000E+00  0.45593999997E+02  0.45594000000E+02  0.51100000000E-03 0. -1.
         11   -1    0    0    0    0 -0.00000000000E+00 -0.00000000000E+00 -0.45593999997E+02  0.45594000000E+02  0.51100000000E-03 0.  1.
    9900012    2    1    2    0    0 -0.33979048852E+00  0.11302724074E+01  0.47412378937E-02  0.90007747582E+02  0.90000009050E+02 0.  0.
         12    1    1    2    0    0  0.33979048852E+00 -0.11302724074E+01 -0.47412378937E-02  0.11802524180E+01  0.00000000000E+00 0. -1.
         11    1    3    3    0    0  0.47540827005E+01  0.48796187314E+01 -0.39167091803E+02  0.39755163964E+02  0.51100000000E-03 0. -1.
        -11    1    3    3    0    0  0.17478456572E+01 -0.91124318505E+01 -0.83135987339E+00  0.93157145819E+01  0.51100000000E-03 0.  1.
        -12    1    3    3    0    0 -0.68417188462E+01  0.53630855264E+01  0.40003192914E+02  0.40936869036E+02  0.00000000000E+00 0.  1.
</event>
<event>
 7    1  0.4639347E-015  0.9000782E+02  0.7816164E-02  0.1186339E+00
        -11   -1    0    0    0    0  0.00000000000E+00  0.00000000000E+00  0.45593999997E+02  0.45594000000E+02  0.51100000000E-03 0.  1.
         11   -1    0    0    0    0 -0.00000000000E+00 -0.00000000000E+00 -0.45593999997E+02  0.45594000000E+02  0.51100000000E-03 0. -1.
    9900012    2    1    2    0    0 -0.21596600742E-01 -0.10807295384E+01  0.47368818579E+00  0.90007820672E+02  0.90000083105E+02 0.  0.
         12    1    1    2    0    0  0.21596600742E-01  0.10807295384E+01 -0.47368818579E+00  0.11801793278E+01  0.00000000000E+00 0. -1.
         11    1    3    3    0    0  0.13215821993E+02 -0.25187546698E+02 -0.74510423949E+01  0.29403885673E+02  0.51100000000E-03 0. -1.
        -11    1    3    3    0    0 -0.21372992480E+01 -0.11474210313E+01  0.26972079697E+02  0.27080947298E+02  0.51100000000E-03 0.  1.
        -12    1    3    3    0    0 -0.11100119345E+02  0.25254238191E+02 -0.19047349116E+02  0.33522987702E+02  0.00000000000E+00 0.  1.
</event>
<event>
 7    1  0.4639347E-015  0.9000772E+02  0.7816164E-02  0.1186339E+00
        -11   -1    0    0    0    0  0.00000000000E+00  0.00000000000E+00  0.45593999997E+02  0.45594000000E+02  0.51100000000E-03 0.  1.
         11   -1    0    0    0    0 -0.00000000000E+00 -0.00000000000E+00 -0.45593999997E+02  0.45594000000E+02  0.51100000000E-03 0. -1.
    9900012    2    1    2    0    0 -0.21579311674E+00 -0.88688749977E+00  0.74828301365E+00  0.90007718858E+02  0.89999979947E+02 0.  0.
         12    1    1    2    0    0  0.21579311674E+00  0.88688749977E+00 -0.74828301365E+00  0.11802811424E+01  0.00000000000E+00 0. -1.
         11    1    3    3    0    0  0.27584634162E+02  0.20013191495E+02  0.13308081900E+02  0.36586130156E+02  0.51100000000E-03 0. -1.
        -11    1    3    3    0    0  0.49908571005E+01  0.68537261335E+01  0.57748934056E+00  0.84979827436E+01  0.51100000000E-03 0.  1.
        -12    1    3    3    0    0 -0.32791284379E+02 -0.27753805129E+02 -0.13137288227E+02  0.44923605958E+02  0.00000000000E+00 0.  1.
</event>
<event>
 7    1  0.4639347E-015  0.9000776E+02  0.7816164E-02  0.1186339E+00
        -11   -1    0    0    0    0  0.00000000000E+00  0.00000000000E+00  0.45593999997E+02  0.45594000000E+02  0.51100000000E-03 0.  1.
         11   -1    0    0    0    0 -0.00000000000E+00 -0.00000000000E+00 -0.45593999997E+02  0.45594000000E+02  0.51100000000E-03 0. -1.
    9900012    2    1    2    0    0  0.10272492691E+01  0.58088674586E+00  0.17045273672E-01  0.90007762306E+02  0.90000023969E+02 0.  0.
         12    1    1    2    0    0 -0.10272492691E+01 -0.58088674586E+00 -0.17045273672E-01  0.11802376938E+01  0.00000000000E+00 0. -1.
         11    1    3    3    0    0 -0.28206630356E+02 -0.27797887490E+02  0.98798668314E+01  0.40816030108E+02  0.51100000000E-03 0. -1.
        -11    1    3    3    0    0 -0.34039244117E+01  0.99442429520E+01 -0.33666832082E+00  0.10516083639E+02  0.51100000000E-03 0.  1.
        -12    1    3    3    0    0  0.32637804037E+02  0.18434531283E+02 -0.95261532369E+01  0.38675648559E+02  0.00000000000E+00 0.  1.
</event>
<event>
 7    1  0.4639347E-015  0.9000786E+02  0.7816164E-02  0.1186339E+00
        -11   -1    0    0    0    0  0.00000000000E+00  0.00000000000E+00  0.45593999997E+02  0.45594000000E+02  0.51100000000E-03 0. -1.
         11   -1    0    0    0    0 -0.00000000000E+00 -0.00000000000E+00 -0.45593999997E+02  0.45594000000E+02  0.51100000000E-03 0.  1.
    9900012    2    1    2    0    0 -0.43249753625E-01  0.48529068622E+00 -0.10748691378E+01  0.90007863883E+02  0.90000126886E+02 0.  0.
         12    1    1    2    0    0  0.43249753625E-01 -0.48529068622E+00  0.10748691378E+01  0.11801361170E+01  0.00000000000E+00 0. -1.
         11    1    3    3    0    0  0.14717707710E+02 -0.18220474174E+02  0.23650706495E+02  0.33285920707E+02  0.51100000000E-03 0. -1.
        -11    1    3    3    0    0 -0.57233759064E+01 -0.13603567111E+02  0.46835484201E+00  0.14765954979E+02  0.51100000000E-03 0.  1.
        -12    1    3    3    0    0 -0.90375815569E+01  0.32309331972E+02 -0.25193930474E+02  0.41955988197E+02  0.00000000000E+00 0.  1.
</event>
<event>
 7    1  0.4639347E-015  0.9000773E+02  0.7816164E-02  0.1186339E+00
        -11   -1    0    0    0    0  0.00000000000E+00  0.00000000000E+00  0.45593999997E+02  0.45594000000E+02  0.51100000000E-03 0.  1.
         11   -1    0    0    0    0 -0.00000000000E+00 -0.00000000000E+00 -0.45593999997E+02  0.45594000000E+02  0.51100000000E-03 0. -1.
    9900012    2    1    2    0    0  0.51340896803E+00  0.67429453763E+00  0.82145393099E+00  0.90007725264E+02  0.89999986437E+02 0.  0.
         12    1    1    2    0    0 -0.51340896803E+00 -0.67429453763E+00 -0.82145393099E+00  0.11802747361E+01  0.00000000000E+00 0. -1.
         11    1    3    3    0    0  0.17641959180E+02 -0.12450330240E+02 -0.29674308068E+02  0.36698964650E+02  0.51100000000E-03 0. -1.
        -11    1    3    3    0    0  0.77657882632E+01  0.35993613541E+01 -0.42180378821E+01  0.95422593416E+01  0.51100000000E-03 0.  1.
        -12    1    3    3    0    0 -0.24894338475E+02  0.95252634234E+01  0.34713799881E+02  0.43766501272E+02  0.00000000000E+00 0.  1.
</event>
<event>
 7    1  0.4639347E-015  0.9000772E+02  0.7816164E-02  0.1186339E+00
        -11   -1    0    0    0    0  0.00000000000E+00  0.00000000000E+00  0.45593999997E+02  0.45594000000E+02  0.51100000000E-03 0.  1.
         11   -1    0    0    0    0 -0.00000000000E+00 -0.00000000000E+00 -0.45593999997E+02  0.45594000000E+02  0.51100000000E-03 0. -1.
    9900012    2    1    2    0    0  0.11206805816E+01  0.45863584176E-01 -0.36745619124E+00  0.90007723555E+02  0.89999984706E+02 0.  0.
         12    1    1    2    0    0 -0.11206805816E+01 -0.45863584176E-01  0.36745619124E+00  0.11802764451E+01  0.00000000000E+00 0. -1.
         11    1    3    3    0    0  0.18824974766E+02  0.14451913713E+02  0.42154125851E+01  0.24104090699E+02  0.51100000000E-03 0. -1.
        -11    1    3    3    0    0 -0.26636900702E+02  0.11388351095E+02  0.14697073388E+02  0.32484195943E+02  0.51100000000E-03 0.  1.
         12    1    3    3    0    0  0.89326065177E+01 -0.25794401224E+02 -0.19279942164E+02  0.33419436912E+02  0.00000000000E+00 0. -1.
</event>
<event>
 7    1  0.4639347E-015  0.9000759E+02  0.7816164E-02  0.1186339E+00
        -11   -1    0    0    0    0  0.00000000000E+00  0.00000000000E+00  0.45593999997E+02  0.45594000000E+02  0.51100000000E-03 0.  1.
         11   -1    0    0    0    0 -0.00000000000E+00 -0.00000000000E+00 -0.45593999997E+02  0.45594000000E+02  0.51100000000E-03 0. -1.
    9900012    2    1    2    0    0  0.55192728071E+00  0.10108240700E+01  0.25879066837E+00  0.90007592598E+02  0.89999852021E+02 0.  0.
         12    1    1    2    0    0 -0.55192728071E+00 -0.10108240700E+01 -0.25879066837E+00  0.11804074016E+01  0.00000000000E+00 0. -1.
         11    1    3    3    0    0 -0.47549015501E+01  0.27592785807E+00 -0.45395322446E+01  0.65797095829E+01  0.51100000000E-03 0. -1.
        -11    1    3    3    0    0 -0.36192761158E+02  0.14969566844E+02  0.54909799361E+01  0.39549396362E+02  0.51100000000E-03 0.  1.
         12    1    3    3    0    0  0.41499589989E+02 -0.14234670632E+02 -0.69265702305E+00  0.43878486653E+02  0.00000000000E+00 0. -1.
</event>
<event>
 7    1  0.4639347E-015  0.9000780E+02  0.7816164E-02  0.1186339E+00
        -11   -1    0    0    0    0  0.00000000000E+00  0.00000000000E+00  0.45593999997E+02  0.45594000000E+02  0.51100000000E-03 0.  1.
         11   -1    0    0    0    0 -0.00000000000E+00 -0.00000000000E+00 -0.45593999997E+02  0.45594000000E+02  0.51100000000E-03 0. -1.
    9900012    2    1    2    0    0  0.94705732169E+00  0.41834399113E+00  0.56651921691E+00  0.90007799471E+02  0.90000061624E+02 0.  0.
         12    1    1    2    0    0 -0.94705732169E+00 -0.41834399113E+00 -0.56651921691E+00  0.11802005290E+01  0.00000000000E+00 0. -1.
         11    1    3    3    0    0  0.54383774508E+01  0.88154982603E+01  0.57469300447E+01  0.11845512402E+02  0.51100000000E-03 0. -1.
        -11    1    3    3    0    0  0.17333643032E+02 -0.23639564824E+01  0.30932928038E+02  0.35537156728E+02  0.51100000000E-03 0.  1.
         12    1    3    3    0    0 -0.21824963161E+02 -0.60331977867E+01 -0.36113338866E+02  0.42625130341E+02  0.00000000000E+00 0. -1.
</event>
<event>
 7    1  0.4639347E-015  0.9000777E+02  0.7816164E-02  0.1186339E+00
        -11   -1    0    0    0    0  0.00000000000E+00  0.00000000000E+00  0.45593999997E+02  0.45594000000E+02  0.51100000000E-03 0.  1.
         11   -1    0    0    0    0 -0.00000000000E+00 -0.00000000000E+00 -0.45593999997E+02  0.45594000000E+02  0.51100000000E-03 0. -1.
    9900012    2    1    2    0    0  0.76476995573E+00  0.73154068326E+00  0.52240903353E+00  0.90007772880E+02  0.90000034682E+02 0.  0.
         12    1    1    2    0    0 -0.76476995573E+00 -0.73154068326E+00 -0.52240903353E+00  0.11802271200E+01  0.00000000000E+00 0. -1.
         11    1    3    3    0    0 -0.32891669879E+02  0.74055650023E+01 -0.17379189152E+02  0.37930733664E+02  0.51100000000E-03 0. -1.
        -11    1    3    3    0    0 -0.49121011532E+01 -0.83345017089E+01  0.37807039602E+00  0.96817144122E+01  0.51100000000E-03 0.  1.
        -12    1    3    3    0    0  0.38568540987E+02  0.16604773898E+01  0.17523527790E+02  0.42395324804E+02  0.00000000000E+00 0.  1.
</event>
<event>
 7    1  0.4639347E-015  0.9000763E+02  0.7816164E-02  0.1186339E+00
        -11   -1    0    0    0    0  0.00000000000E+00  0.00000000000E+00  0.45593999997E+02  0.45594000000E+02  0.51100000000E-03 0.  1.
         11   -1    0    0    0    0 -0.00000000000E+00 -0.00000000000E+00 -0.45593999997E+02  0.45594000000E+02  0.51100000000E-03 0. -1.
    9900012    2    1    2    0    0  0.99882120830E+00  0.38144150862E+00 -0.50013316707E+00  0.90007629458E+02  0.89999889367E+02 0.  0.
         12    1    1    2    0    0 -0.99882120830E+00 -0.38144150862E+00  0.50013316707E+00  0.11803705416E+01  0.00000000000E+00 0. -1.
         11    1    3    3    0    0  0.92251189709E+01  0.22380693436E+01  0.33741210938E+01  0.10074545540E+02  0.51100000000E-03 0. -1.
        -11    1    3    3    0    0 -0.57143156179E+01  0.24980624356E+02  0.28155206376E+02  0.38070994767E+02  0.51100000000E-03 0.  1.
         12    1    3    3    0    0 -0.25119821448E+01 -0.26837252191E+02 -0.32029460637E+02  0.41862089152E+02  0.00000000000E+00 0. -1.
</event>
<event>
 7    1  0.4639347E-015  0.9000776E+02  0.7816164E-02  0.1186339E+00
        -11   -1    0    0    0    0  0.00000000000E+00  0.00000000000E+00  0.45593999997E+02  0.45594000000E+02  0.51100000000E-03 0.  1.
         11   -1    0    0    0    0 -0.00000000000E+00 -0.00000000000E+00 -0.45593999997E+02  0.45594000000E+02  0.51100000000E-03 0. -1.
    9900012    2    1    2    0    0  0.53347828093E+00  0.57988861682E+00  0.87868376789E+00  0.90007764834E+02  0.90000026529E+02 0.  0.
         12    1    1    2    0    0 -0.53347828093E+00 -0.57988861682E+00 -0.87868376789E+00  0.11802351664E+01  0.00000000000E+00 0. -1.
         11    1    3    3    0    0 -0.64090534386E+01  0.32772877722E+02 -0.20291024941E+02  0.39075096590E+02  0.51100000000E-03 0. -1.
        -11    1    3    3    0    0  0.11905242767E-01 -0.36495292174E+01 -0.84585030565E+01  0.92122461681E+01  0.51100000000E-03 0.  1.
        -12    1    3    3    0    0  0.69306264767E+01 -0.28543459888E+02  0.29628211765E+02  0.41720422075E+02  0.00000000000E+00 0.  1.
</event>
<event>
 7    1  0.4639347E-015  0.9000794E+02  0.7816164E-02  0.1186339E+00
        -11   -1    0    0    0    0  0.00000000000E+00  0.00000000000E+00  0.45593999997E+02  0.45594000000E+02  0.51100000000E-03 0. -1.
         11   -1    0    0    0    0 -0.00000000000E+00 -0.00000000000E+00 -0.45593999997E+02  0.45594000000E+02  0.51100000000E-03 0.  1.
    9900012    2    1    2    0    0 -0.10488891490E+01  0.26962284964E+00 -0.46870077373E+00  0.90007938415E+02  0.90000202402E+02 0.  0.
         12    1    1    2    0    0  0.10488891490E+01 -0.26962284964E+00  0.46870077373E+00  0.11800615845E+01  0.00000000000E+00 0. -1.
         11    1    3    3    0    0  0.56567186180E-01  0.26002297889E+02  0.24507015490E+02  0.35731169920E+02  0.51100000000E-03 0. -1.
        -11    1    3    3    0    0 -0.23381250166E+01 -0.17883420424E+02  0.84519409498E+01  0.19917802608E+02  0.51100000000E-03 0.  1.
        -12    1    3    3    0    0  0.12326686814E+01 -0.78492546154E+01 -0.33427657214E+02  0.34358965888E+02  0.00000000000E+00 0.  1.
</event>
<event>
 7    1  0.4639347E-015  0.9000779E+02  0.7816164E-02  0.1186339E+00
        -11   -1    0    0    0    0  0.00000000000E+00  0.00000000000E+00  0.45593999997E+02  0.45594000000E+02  0.51100000000E-03 0.  1.
         11   -1    0    0    0    0 -0.00000000000E+00 -0.00000000000E+00 -0.45593999997E+02  0.45594000000E+02  0.51100000000E-03 0. -1.
    9900012    2    1    2    0    0  0.10658364765E+01  0.48617831680E+00 -0.14322579522E+00  0.90007792231E+02  0.90000054288E+02 0.  0.
         12    1    1    2    0    0 -0.10658364765E+01 -0.48617831680E+00  0.14322579522E+00  0.11802077693E+01  0.00000000000E+00 0. -1.
         11    1    3    3    0    0 -0.92843630914E+01  0.17077337250E+02  0.12898309752E+02  0.23328121234E+02  0.51100000000E-03 0. -1.
        -11    1    3    3    0    0 -0.15107684794E+02  0.17205606453E+02 -0.69675408094E+01  0.23933692955E+02  0.51100000000E-03 0.  1.
         12    1    3    3    0    0  0.25457884362E+02 -0.33796765386E+02 -0.60739947381E+01  0.42745978043E+02  0.00000000000E+00 0. -1.
</event>
<event>
 7    1  0.4639347E-015  0.9000786E+02  0.7816164E-02  0.1186339E+00
        -11   -1    0    0    0    0  0.00000000000E+00  0.00000000000E+00  0.45593999997E+02  0.45594000000E+02  0.51100000000E-03 0.  1.
         11   -1    0    0    0    0 -0.00000000000E+00 -0.00000000000E+00 -0.45593999997E+02  0.45594000000E+02  0.51100000000E-03 0. -1.
    9900012    2    1    2    0    0  0.53358592224E+00 -0.79947360826E+00 -0.68472973367E+00  0.90007861536E+02  0.90000124508E+02 0.  0.
         12    1    1    2    0    0 -0.53358592224E+00  0.79947360826E+00  0.68472973367E+00  0.11801384643E+01  0.00000000000E+00 0. -1.
         11    1    3    3    0    0  0.35753228606E+02 -0.97700768420E+01 -0.16964465647E+02  0.40762002554E+02  0.51100000000E-03 0. -1.
        -11    1    3    3    0    0  0.37558766896E+01  0.40781467881E+01  0.69158825858E+01  0.88638210233E+01  0.51100000000E-03 0.  1.
        -12    1    3    3    0    0 -0.38975519374E+02  0.48924564457E+01  0.93638533274E+01  0.40382037958E+02  0.00000000000E+00 0.  1.
</event>
<event>
 7    1  0.4639347E-015  0.9000777E+02  0.7816164E-02  0.1186339E+00
        -11   -1    0    0    0    0  0.00000000000E+00  0.00000000000E+00  0.45593999997E+02  0.45594000000E+02  0.51100000000E-03 0.  1.
         11   -1    0    0    0    0 -0.00000000000E+00 -0.00000000000E+00 -0.45593999997E+02  0.45594000000E+02  0.51100000000E-03 0. -1.
    9900012    2    1    2    0    0  0.80344734202E+00 -0.58963638913E+00  0.63225013015E+00  0.90007771662E+02  0.90000033448E+02 0.  0.
         12    1    1    2    0    0 -0.80344734202E+00  0.58963638913E+00 -0.63225013015E+00  0.11802283380E+01  0.00000000000E+00 0. -1.
         11    1    3    3    0    0 -0.10636761383E+02 -0.13497633692E+01 -0.89157167016E+00  0.10759063815E+02  0.51100000000E-03 0. -1.
        -11    1    3    3    0    0 -0.32992802199E+01 -0.29372357026E+02  0.24665068353E+02  0.38496573930E+02  0.51100000000E-03 0.  1.
         12    1    3    3    0    0  0.14739488945E+02  0.30132484006E+02 -0.23141246553E+02  0.40752133917E+02  0.00000000000E+00 0. -1.
</event>
<event>
 7    1  0.4639347E-015  0.9000781E+02  0.7816164E-02  0.1186339E+00
        -11   -1    0    0    0    0  0.00000000000E+00  0.00000000000E+00  0.45593999997E+02  0.45594000000E+02  0.51100000000E-03 0.  1.
         11   -1    0    0    0    0 -0.00000000000E+00 -0.00000000000E+00 -0.45593999997E+02  0.45594000000E+02  0.51100000000E-03 0. -1.
    9900012    2    1    2    0    0  0.11183543444E+01  0.36418460546E-01  0.37524654961E+00  0.90007808186E+02  0.90000070454E+02 0.  0.
         12    1    1    2    0    0 -0.11183543444E+01 -0.36418460546E-01 -0.37524654961E+00  0.11801918137E+01  0.00000000000E+00 0. -1.
         11    1    3    3    0    0  0.36397699980E+02  0.60394425460E+01 -0.86038226760E+01  0.37885263560E+02  0.51100000000E-03 0. -1.
        -11    1    3    3    0    0  0.47235161759E+01  0.33764020225E+01 -0.60378257027E+01  0.83765765775E+01  0.51100000000E-03 0.  1.
        -12    1    3    3    0    0 -0.40002861812E+02 -0.93794261079E+01  0.15016894928E+02  0.43745968049E+02  0.00000000000E+00 0.  1.
</event>
<event>
 7    1  0.4639347E-015  0.9000772E+02  0.7816164E-02  0.1186339E+00
        -11   -1    0    0    0    0  0.00000000000E+00  0.00000000000E+00  0.45593999997E+02  0.45594000000E+02  0.51100000000E-03 0. -1.
         11   -1    0    0    0    0 -0.00000000000E+00 -0.00000000000E+00 -0.45593999997E+02  0.45594000000E+02  0.51100000000E-03 0.  1.
    9900012    2    1    2    0    0  0.12634869450E+00 -0.28206028987E+00 -0.11390985203E+01  0.90007717221E+02  0.89999978288E+02 0.  0.
         12    1    1    2    0    0 -0.12634869450E+00  0.28206028987E+00  0.11390985203E+01  0.11802827791E+01  0.00000000000E+00 0. -1.
         11    1    3    3    0    0 -0.32122683296E+01 -0.32672494770E+02  0.15721165057E+02  0.36400077106E+02  0.51100000000E-03 0. -1.
        -11    1    3    3    0    0 -0.28317933273E+01 -0.42580382083E+01  0.75680516381E+01  0.91337477899E+01  0.51100000000E-03 0.  1.
        -12    1    3    3    0    0  0.61704103515E+01  0.36648472688E+02 -0.24428315215E+02  0.44473892325E+02  0.00000000000E+00 0.  1.
</event>
<event>
 7    1  0.4639347E-015  0.9000776E+02  0.7816164E-02  0.1186339E+00
        -11   -1    0    0    0    0  0.00000000000E+00  0.00000000000E+00  0.45593999997E+02  0.45594000000E+02  0.51100000000E-03 0. -1.
         11   -1    0    0    0    0 -0.00000000000E+00 -0.00000000000E+00 -0.45593999997E+02  0.45594000000E+02  0.51100000000E-03 0.  1.
    9900012    2    1    2    0    0  0.98484870505E+00  0.29181470647E+00 -0.58127792028E+00  0.90007759848E+02  0.90000021478E+02 0.  0.
         12    1    1    2    0    0 -0.98484870505E+00 -0.29181470647E+00  0.58127792028E+00  0.11802401516E+01  0.00000000000E+00 0. -1.
         11    1    3    3    0    0 -0.24570759204E+02  0.17690220379E+01  0.23868283930E+02  0.34300825425E+02  0.51100000000E-03 0. -1.
        -11    1    3    3    0    0 -0.93916828461E+01 -0.96788918577E+01 -0.27590342708E+01  0.13765788196E+02  0.51100000000E-03 0.  1.
        -12    1    3    3    0    0  0.34947290755E+02  0.82016845263E+01 -0.21690527580E+02  0.41941146227E+02  0.00000000000E+00 0.  1.
</event>
<event>
 7    1  0.4639347E-015  0.9000803E+02  0.7816164E-02  0.1186338E+00
        -11   -1    0    0    0    0  0.00000000000E+00  0.00000000000E+00  0.45593999997E+02  0.45594000000E+02  0.51100000000E-03 0. -1.
         11   -1    0    0    0    0 -0.00000000000E+00 -0.00000000000E+00 -0.45593999997E+02  0.45594000000E+02  0.51100000000E-03 0.  1.
    9900012    2    1    2    0    0  0.57140723235E+00  0.40988100481E+00 -0.94753758038E+00  0.90008027064E+02  0.90000292221E+02 0.  0.
         12    1    1    2    0    0 -0.57140723235E+00 -0.40988100481E+00  0.94753758038E+00  0.11799729359E+01  0.00000000000E+00 0. -1.
         11    1    3    3    0    0 -0.44528768723E+01 -0.47593142743E+01 -0.64201968321E+01  0.91486672486E+01  0.51100000000E-03 0. -1.
        -11    1    3    3    0    0 -0.36053201217E+02  0.12614449301E+02 -0.28076031322E+01  0.38299350970E+02  0.51100000000E-03 0.  1.
         12    1    3    3    0    0  0.41077485321E+02 -0.74452540220E+01  0.82802623839E+01  0.42560008845E+02  0.00000000000E+00 0. -1.
</event>
<event>
 7    1  0.4639347E-015  0.9000800E+02  0.7816164E-02  0.1186339E+00
        -11   -1    0    0    0    0  0.00000000000E+00  0.00000000000E+00  0.45593999997E+02  0.45594000000E+02  0.51100000000E-03 0. -1.
         11   -1    0    0    0    0 -0.00000000000E+00 -0.00000000000E+00 -0.45593999997E+02  0.45594000000E+02  0.51100000000E-03 0.  1.
    9900012    2    1    2    0    0  0.45825503899E+00  0.10637338939E+01 -0.22554084102E+00  0.90008001632E+02  0.90000266453E+02 0.  0.
         12    1    1    2    0    0 -0.45825503899E+00 -0.10637338939E+01  0.22554084102E+00  0.11799983682E+01  0.00000000000E+00 0. -1.
         11    1    3    3    0    0 -0.44361923464E+01  0.48906862999E+01 -0.13558579415E+01  0.67406947741E+01  0.51100000000E-03 0. -1.
        -11    1    3    3    0    0  0.33146984330E+02  0.14148073057E+02  0.23474540140E+02  0.43010982045E+02  0.51100000000E-03 0.  1.
         12    1    3    3    0    0 -0.28252536945E+02 -0.17975025463E+02 -0.22344223039E+02  0.40256324813E+02  0.00000000000E+00 0. -1.
</event>
<event>
 7    1  0.4639347E-015  0.9000778E+02  0.7816164E-02  0.1186339E+00
        -11   -1    0    0    0    0  0.00000000000E+00  0.00000000000E+00  0.45593999997E+02  0.45594000000E+02  0.51100000000E-03 0.  1.
         11   -1    0    0    0    0 -0.00000000000E+00 -0.00000000000E+00 -0.45593999997E+02  0.45594000000E+02  0.51100000000E-03 0. -1.
    9900012    2    1    2    0    0  0.73236924769E+00  0.67851538832E+00  0.62942571402E+00  0.90007777743E+02  0.90000039609E+02 0.  0.
         12    1    1    2    0    0 -0.73236924769E+00 -0.67851538832E+00 -0.62942571402E+00  0.11802222573E+01  0.00000000000E+00 0. -1.
         11    1    3    3    0    0 -0.34296742317E+00  0.74807966012E+01  0.78087328163E+01  0.10819253805E+02  0.51100000000E-03 0. -1.
        -11    1    3    3    0    0 -0.62201590798E+00 -0.21142878238E+02  0.31476581219E+02  0.37923388160E+02  0.51100000000E-03 0.  1.
         12    1    3    3    0    0  0.16973525788E+01  0.14340597026E+02 -0.38655888322E+02  0.41265135778E+02  0.00000000000E+00 0. -1.
</event>
<event>
 7    1  0.4639347E-015  0.9000776E+02  0.7816164E-02  0.1186339E+00
        -11   -1    0    0    0    0  0.00000000000E+00  0.00000000000E+00  0.45593999997E+02  0.45594000000E+02  0.51100000000E-03 0. -1.
         11   -1    0    0    0    0 -0.00000000000E+00 -0.00000000000E+00 -0.45593999997E+02  0.45594000000E+02  0.51100000000E-03 0.  1.
    9900012    2    1    2    0    0 -0.76213435031E+00 -0.40154677568E+00 -0.80676517749E+00  0.90007763315E+02  0.90000024991E+02 0.  0.
         12    1    1    2    0    0  0.76213435031E+00  0.40154677568E+00  0.80676517749E+00  0.11802366850E+01  0.00000000000E+00 0. -1.
         11    1    3    3    0    0  0.59438789357E+01  0.19788263937E+01  0.41039412005E+02  0.41514802043E+02  0.51100000000E-03 0. -1.
        -11    1    3    3    0    0 -0.54102129913E+01 -0.36449889906E+01  0.83649901897E-01  0.65240590831E+01  0.51100000000E-03 0.  1.
        -12    1    3    3    0    0 -0.12958002947E+01  0.12646158212E+01 -0.41929827085E+02  0.41968902189E+02  0.00000000000E+00 0.  1.
</event>
<event>
 7    1  0.4639347E-015  0.9000730E+02  0.7816164E-02  0.1186340E+00
        -11   -1    0    0    0    0  0.00000000000E+00  0.00000000000E+00  0.45593999997E+02  0.45594000000E+02  0.51100000000E-03 0. -1.
         11   -1    0    0    0    0 -0.00000000000E+00 -0.00000000000E+00 -0.45593999997E+02  0.45594000000E+02  0.51100000000E-03 0.  1.
    9900012    2    1    2    0    0 -0.22810369991E+00  0.60490887208E+00 -0.98798129370E+00  0.90007299751E+02  0.89999555307E+02 0.  0.
         12    1    1    2    0    0  0.22810369991E+00 -0.60490887208E+00  0.98798129370E+00  0.11807002491E+01  0.00000000000E+00 0. -1.
         11    1    3    3    0    0  0.25457566573E+02  0.76935076502E+01  0.20457814067E+02  0.33552941934E+02  0.51100000000E-03 0. -1.
        -11    1    3    3    0    0  0.29868098381E+01  0.13472754717E+02  0.22093275437E+01  0.13975595913E+02  0.51100000000E-03 0.  1.
        -12    1    3    3    0    0 -0.28672480111E+02 -0.20561353495E+02 -0.23655122905E+02  0.42478761904E+02  0.00000000000E+00 0.  1.
</event>
<event>
 7    1  0.4639347E-015  0.9000781E+02  0.7816164E-02  0.1186339E+00
        -11   -1    0    0    0    0  0.00000000000E+00  0.00000000000E+00  0.45593999997E+02  0.45594000000E+02  0.51100000000E-03 0. -1.
         11   -1    0    0    0    0 -0.00000000000E+00 -0.00000000000E+00 -0.45593999997E+02  0.45594000000E+02  0.51100000000E-03 0.  1.
    9900012    2    1    2    0    0 -0.88690625040E+00  0.75713078395E+00  0.18166610631E+00  0.90007808365E+02  0.90000070635E+02 0.  0.
         12    1    1    2    0    0  0.88690625040E+00 -0.75713078395E+00 -0.18166610631E+00  0.11801916349E+01  0.00000000000E+00 0. -1.
         11    1    3    3    0    0  0.20184430111E+02  0.28988853645E+02 -0.89083689224E+01  0.36429711661E+02  0.51100000000E-03 0. -1.
        -11    1    3    3    0    0 -0.19464684873E+02  0.19354202449E+01 -0.50807020055E+01  0.20209733839E+02  0.51100000000E-03 0.  1.
        -12    1    3    3    0    0 -0.16066514880E+01 -0.30167143106E+02  0.14170737034E+02  0.33368362865E+02  0.00000000000E+00 0.  1.
</event>
<event>
 7    1  0.4639347E-015  0.9000783E+02  0.7816164E-02  0.1186339E+00
        -11   -1    0    0    0    0  0.00000000000E+00  0.00000000000E+00  0.45593999997E+02  0.45594000000E+02  0.51100000000E-03 0. -1.
         11   -1    0    0    0    0 -0.00000000000E+00 -0.00000000000E+00 -0.45593999997E+02  0.45594000000E+02  0.51100000000E-03 0.  1.
    9900012    2    1    2    0    0 -0.73022140048E-01 -0.40971467157E+00 -0.11043545956E+01  0.90007831615E+02  0.90000094192E+02 0.  0.
         12    1    1    2    0    0  0.73022140048E-01  0.40971467157E+00  0.11043545956E+01  0.11801683854E+01  0.00000000000E+00 0. -1.
         11    1    3    3    0    0 -0.19044638943E+02 -0.32663175712E+01  0.31930251371E+02  0.37321683454E+02  0.51100000000E-03 0. -1.
        -11    1    3    3    0    0 -0.55373533934E+01  0.57520386224E+01  0.34014963485E+01  0.86786178961E+01  0.51100000000E-03 0.  1.
        -12    1    3    3    0    0  0.24508970197E+02 -0.28954357228E+01 -0.36436102315E+02  0.44007530265E+02  0.00000000000E+00 0.  1.
</event>
<event>
 7    1  0.4639347E-015  0.9000752E+02  0.7816164E-02  0.1186339E+00
        -11   -1    0    0    0    0  0.00000000000E+00  0.00000000000E+00  0.45593999997E+02  0.45594000000E+02  0.51100000000E-03 0.  1.
         11   -1    0    0    0    0 -0.00000000000E+00 -0.00000000000E+00 -0.45593999997E+02  0.45594000000E+02  0.51100000000E-03 0. -1.
    9900012    2    1    2    0    0 -0.88242267362E+00  0.78268860183E+00  0.47629332240E-01  0.90007517143E+02  0.89999775569E+02 0.  0.
         12    1    1    2    0    0  0.88242267362E+00 -0.78268860183E+00 -0.47629332240E-01  0.11804828570E+01  0.00000000000E+00 0. -1.
         11    1    3    3    0    0  0.60702507042E+01 -0.65055012825E+01 -0.73366271221E+01  0.11532371323E+02  0.51100000000E-03 0. -1.
        -11    1    3    3    0    0  0.98805671802E+01  0.32011503640E+02 -0.19066403674E+02  0.38547240140E+02  0.51100000000E-03 0.  1.
         12    1    3    3    0    0 -0.16833240558E+02 -0.24723313756E+02  0.26450660128E+02  0.39927905680E+02  0.00000000000E+00 0. -1.
</event>
<event>
 7    1  0.4639347E-015  0.9000773E+02  0.7816164E-02  0.1186339E+00
        -11   -1    0    0    0    0  0.00000000000E+00  0.00000000000E+00  0.45593999997E+02  0.45594000000E+02  0.51100000000E-03 0.  1.
         11   -1    0    0    0    0 -0.00000000000E+00 -0.00000000000E+00 -0.45593999997E+02  0.45594000000E+02  0.51100000000E-03 0. -1.
    9900012    2    1    2    0    0  0.42553889219E+00 -0.10875349533E+01 -0.17091795325E+00  0.90007733687E+02  0.89999994971E+02 0.  0.
         12    1    1    2    0    0 -0.42553889219E+00  0.10875349533E+01  0.17091795325E+00  0.11802663133E+01  0.00000000000E+00 0. -1.
         11    1    3    3    0    0  0.37007111786E+02 -0.36347937039E+01 -0.32104958227E+01  0.37323522498E+02  0.51100000000E-03 0. -1.
        -11    1    3    3    0    0  0.29432769180E+01  0.16977790378E+01  0.11724991381E+02  0.12207405778E+02  0.51100000000E-03 0.  1.
        -12    1    3    3    0    0 -0.39524849812E+02  0.84947971274E+00 -0.86854135114E+01  0.40476805411E+02  0.00000000000E+00 0.  1.
</event>
<event>
 7    1  0.4639347E-015  0.9000770E+02  0.7816164E-02  0.1186339E+00
        -11   -1    0    0    0    0  0.00000000000E+00  0.00000000000E+00  0.45593999997E+02  0.45594000000E+02  0.51100000000E-03 0. -1.
         11   -1    0    0    0    0 -0.00000000000E+00 -0.00000000000E+00 -0.45593999997E+02  0.45594000000E+02  0.51100000000E-03 0.  1.
    9900012    2    1    2    0    0 -0.49846760160E+00 -0.98861083461E+00 -0.40899411249E+00  0.90007704479E+02  0.89999965378E+02 0.  0.
         12    1    1    2    0    0  0.49846760160E+00  0.98861083461E+00  0.40899411249E+00  0.11802955207E+01  0.00000000000E+00 0. -1.
         11    1    3    3    0    0  0.49524609939E+01 -0.18822313168E+00 -0.72041802839E+01  0.87442845143E+01  0.51100000000E-03 0. -1.
        -11    1    3    3    0    0  0.36649604861E+02  0.51514168383E+01 -0.44657788371E+01  0.37278328996E+02  0.51100000000E-03 0.  1.
         12    1    3    3    0    0 -0.42100533456E+02 -0.59518045412E+01  0.11260965009E+02  0.43985090969E+02  0.00000000000E+00 0. -1.
</event>
<event>
 7    1  0.4639347E-015  0.9000776E+02  0.7816164E-02  0.1186339E+00
        -11   -1    0    0    0    0  0.00000000000E+00  0.00000000000E+00  0.45593999997E+02  0.45594000000E+02  0.51100000000E-03 0.  1.
         11   -1    0    0    0    0 -0.00000000000E+00 -0.00000000000E+00 -0.45593999997E+02  0.45594000000E+02  0.51100000000E-03 0. -1.
    9900012    2    1    2    0    0  0.89195573766E-01  0.72730009242E+00  0.92523196058E+00  0.90007756188E+02  0.90000017770E+02 0.  0.
         12    1    1    2    0    0 -0.89195573766E-01 -0.72730009242E+00 -0.92523196058E+00  0.11802438120E+01  0.00000000000E+00 0. -1.
         11    1    3    3    0    0 -0.63540258639E+01 -0.49319288518E+00 -0.52637487093E+01  0.82658293375E+01  0.51100000000E-03 0. -1.
        -11    1    3    3    0    0 -0.19868419777E+02  0.24196697112E+02 -0.20809103460E+02  0.37593257941E+02  0.51100000000E-03 0.  1.
         12    1    3    3    0    0  0.26311641214E+02 -0.22976204135E+02  0.26998084129E+02  0.44148668910E+02  0.00000000000E+00 0. -1.
</event>
<event>
 7    1  0.4639347E-015  0.9000780E+02  0.7816164E-02  0.1186339E+00
        -11   -1    0    0    0    0  0.00000000000E+00  0.00000000000E+00  0.45593999997E+02  0.45594000000E+02  0.51100000000E-03 0. -1.
         11   -1    0    0    0    0 -0.00000000000E+00 -0.00000000000E+00 -0.45593999997E+02  0.45594000000E+02  0.51100000000E-03 0.  1.
    9900012    2    1    2    0    0 -0.68092788654E+00 -0.53420246502E+00  0.80238978441E+00  0.90007803226E+02  0.90000065428E+02 0.  0.
         12    1    1    2    0    0  0.68092788654E+00  0.53420246502E+00 -0.80238978441E+00  0.11801967744E+01  0.00000000000E+00 0. -1.
         11    1    3    3    0    0 -0.22220872564E+02  0.10439064572E+02 -0.25225898468E+02  0.35200670454E+02  0.51100000000E-03 0. -1.
        -11    1    3    3    0    0 -0.84947426737E+01 -0.51152885888E+01 -0.51050918967E+01  0.11152972428E+02  0.51100000000E-03 0.  1.
        -12    1    3    3    0    0  0.30034687351E+02 -0.58579784482E+01  0.31133380149E+02  0.43654160344E+02  0.00000000000E+00 0.  1.
</event>
<event>
 7    1  0.4639347E-015  0.9000743E+02  0.7816164E-02  0.1186340E+00
        -11   -1    0    0    0    0  0.00000000000E+00  0.00000000000E+00  0.45593999997E+02  0.45594000000E+02  0.51100000000E-03 0.  1.
         11   -1    0    0    0    0 -0.00000000000E+00 -0.00000000000E+00 -0.45593999997E+02  0.45594000000E+02  0.51100000000E-03 0. -1.
    9900012    2    1    2    0    0 -0.18083244269E+00 -0.42596113306E+00  0.10860999169E+01  0.90007425441E+02  0.89999682657E+02 0.  0.
         12    1    1    2    0    0  0.18083244269E+00  0.42596113306E+00 -0.10860999169E+01  0.11805745587E+01  0.00000000000E+00 0. -1.
         11    1    3    3    0    0 -0.28530169736E+02 -0.22602871626E+02 -0.12892624468E+01  0.36421457808E+02  0.51100000000E-03 0. -1.
        -11    1    3    3    0    0 -0.85566984690E+01 -0.21753330923E+01  0.31182260880E+01  0.93633592769E+01  0.51100000000E-03 0.  1.
        -12    1    3    3    0    0  0.36906035762E+02  0.24352243586E+02 -0.74286372426E+00  0.44222608357E+02  0.00000000000E+00 0.  1.
</event>
<event>
 7    1  0.4639347E-015  0.9000716E+02  0.7816164E-02  0.1186340E+00
        -11   -1    0    0    0    0  0.00000000000E+00  0.00000000000E+00  0.45593999997E+02  0.45594000000E+02  0.51100000000E-03 0. -1.
         11   -1    0    0    0    0 -0.00000000000E+00 -0.00000000000E+00 -0.45593999997E+02  0.45594000000E+02  0.51100000000E-03 0.  1.
    9900012    2    1    2    0    0 -0.38918834207E+00 -0.88043748352E+00  0.68391232983E+00  0.90007163939E+02  0.89999417701E+02 0.  0.
         12    1    1    2    0    0  0.38918834207E+00  0.88043748352E+00 -0.68391232983E+00  0.11808360610E+01  0.00000000000E+00 0. -1.
         11    1    3    3    0    0  0.10355282344E+02  0.35540339392E+01  0.32885148355E+01  0.11431419848E+02  0.51100000000E-03 0. -1.
        -11    1    3    3    0    0  0.26888607005E+02 -0.23899889479E+02 -0.39066871473E+01  0.36186518325E+02  0.51100000000E-03 0.  1.
         12    1    3    3    0    0 -0.37633077691E+02  0.19465418057E+02  0.13020846417E+01  0.42389225766E+02  0.00000000000E+00 0. -1.
</event>
<event>
 7    1  0.4639347E-015  0.9000768E+02  0.7816164E-02  0.1186339E+00
        -11   -1    0    0    0    0  0.00000000000E+00  0.00000000000E+00  0.45593999997E+02  0.45594000000E+02  0.51100000000E-03 0. -1.
         11   -1    0    0    0    0 -0.00000000000E+00 -0.00000000000E+00 -0.45593999997E+02  0.45594000000E+02  0.51100000000E-03 0.  1.
    9900012    2    1    2    0    0  0.51492500985E+00 -0.15291673058E+00 -0.10510071953E+01  0.90007683340E+02  0.89999943961E+02 0.  0.
         12    1    1    2    0    0 -0.51492500985E+00  0.15291673058E+00  0.10510071953E+01  0.11803166596E+01  0.00000000000E+00 0. -1.
         11    1    3    3    0    0  0.14688901210E+02 -0.35540863442E+01  0.47265090080E+01  0.15834621441E+02  0.51100000000E-03 0. -1.
        -11    1    3    3    0    0  0.27081589823E+02 -0.11142822207E+02 -0.80476972183E+01  0.30370058032E+02  0.51100000000E-03 0.  1.
         12    1    3    3    0    0 -0.41255566023E+02  0.14543991821E+02  0.22701810149E+01  0.43803003868E+02  0.00000000000E+00 0. -1.
</event>
<event>
 7    1  0.4639347E-015  0.9000778E+02  0.7816164E-02  0.1186339E+00
        -11   -1    0    0    0    0  0.00000000000E+00  0.00000000000E+00  0.45593999997E+02  0.45594000000E+02  0.51100000000E-03 0.  1.
         11   -1    0    0    0    0 -0.00000000000E+00 -0.00000000000E+00 -0.45593999997E+02  0.45594000000E+02  0.51100000000E-03 0. -1.
    9900012    2    1    2    0    0 -0.91539399169E+00  0.74191846963E+00  0.67245511325E-01  0.90007783438E+02  0.90000045379E+02 0.  0.
         12    1    1    2    0    0  0.91539399169E+00 -0.74191846963E+00 -0.67245511325E-01  0.11802165625E+01  0.00000000000E+00 0. -1.
         11    1    3    3    0    0 -0.10180730061E+02  0.78509081057E+01  0.14329535956E+02  0.19251483674E+02  0.51100000000E-03 0. -1.
        -11    1    3    3    0    0  0.24178651981E+02  0.17054108162E+02  0.12141532228E+02  0.31982286065E+02  0.51100000000E-03 0.  1.
         12    1    3    3    0    0 -0.14913315911E+02 -0.24163097798E+02 -0.26403822672E+02  0.38774013699E+02  0.00000000000E+00 0. -1.
</event>
<event>
 7    1  0.4639347E-015  0.9000801E+02  0.7816164E-02  0.1186339E+00
        -11   -1    0    0    0    0  0.00000000000E+00  0.00000000000E+00  0.45593999997E+02  0.45594000000E+02  0.51100000000E-03 0.  1.
         11   -1    0    0    0    0 -0.00000000000E+00 -0.00000000000E+00 -0.45593999997E+02  0.45594000000E+02  0.51100000000E-03 0. -1.
    9900012    2    1    2    0    0 -0.61938657975E+00 -0.97510984825E+00  0.24063416784E+00  0.90008006884E+02  0.90000271774E+02 0.  0.
         12    1    1    2    0    0  0.61938657975E+00  0.97510984825E+00 -0.24063416784E+00  0.11799931161E+01  0.00000000000E+00 0. -1.
         11    1    3    3    0    0 -0.43737494288E+01 -0.38033707946E+01 -0.40103200634E+02  0.40519896530E+02  0.51100000000E-03 0. -1.
        -11    1    3    3    0    0 -0.55714252672E+01 -0.77458614710E+01  0.37144134894E+01  0.10238946101E+02  0.51100000000E-03 0.  1.
        -12    1    3    3    0    0  0.93257881163E+01  0.10574122417E+02  0.36629421312E+02  0.39249164253E+02  0.00000000000E+00 0.  1.
</event>
<event>
 7    1  0.4639347E-015  0.9000776E+02  0.7816164E-02  0.1186339E+00
        -11   -1    0    0    0    0  0.00000000000E+00  0.00000000000E+00  0.45593999997E+02  0.45594000000E+02  0.51100000000E-03 0.  1.
         11   -1    0    0    0    0 -0.00000000000E+00 -0.00000000000E+00 -0.45593999997E+02  0.45594000000E+02  0.51100000000E-03 0. -1.
    9900012    2    1    2    0    0  0.93128509460E+00  0.59808244420E+00  0.40985075592E+00  0.90007757576E+02  0.90000019176E+02 0.  0.
         12    1    1    2    0    0 -0.93128509460E+00 -0.59808244420E+00 -0.40985075592E+00  0.11802424241E+01  0.00000000000E+00 0. -1.
         11    1    3    3    0    0 -0.79866848401E+01 -0.11711460223E+02  0.18548583195E+02  0.23345135983E+02  0.51100000000E-03 0. -1.
        -11    1    3    3    0    0  0.22844087518E+02  0.95761974619E+00  0.16122090111E+02  0.27976618093E+02  0.51100000000E-03 0.  1.
         12    1    3    3    0    0 -0.13926117584E+02  0.11351922921E+02 -0.34260822550E+02  0.38686003499E+02  0.00000000000E+00 0. -1.
</event>
<event>
 7    1  0.4639347E-015  0.9000777E+02  0.7816164E-02  0.1186339E+00
        -11   -1    0    0    0    0  0.00000000000E+00  0.00000000000E+00  0.45593999997E+02  0.45594000000E+02  0.51100000000E-03 0. -1.
         11   -1    0    0    0    0 -0.00000000000E+00 -0.00000000000E+00 -0.45593999997E+02  0.45594000000E+02  0.51100000000E-03 0.  1.
    9900012    2    1    2    0    0 -0.18462154854E+00 -0.91410804346E+00 -0.72337798961E+00  0.90007765131E+02  0.90000026830E+02 0.  0.
         12    1    1    2    0    0  0.18462154854E+00  0.91410804346E+00  0.72337798961E+00  0.11802348695E+01  0.00000000000E+00 0. -1.
         11    1    3    3    0    0 -0.23780395454E+02  0.24008482196E+02  0.12564049385E+02  0.36052319794E+02  0.51100000000E-03 0. -1.
        -11    1    3    3    0    0  0.14933898721E+01 -0.67755485068E+00  0.12263058081E+02  0.12372222422E+02  0.51100000000E-03 0.  1.
        -12    1    3    3    0    0  0.22102384033E+02 -0.24245035389E+02 -0.25550485456E+02  0.41583222915E+02  0.00000000000E+00 0.  1.
</event>
<event>
 7    1  0.4639347E-015  0.9000770E+02  0.7816164E-02  0.1186339E+00
        -11   -1    0    0    0    0  0.00000000000E+00  0.00000000000E+00  0.45593999997E+02  0.45594000000E+02  0.51100000000E-03 0. -1.
         11   -1    0    0    0    0 -0.00000000000E+00 -0.00000000000E+00 -0.45593999997E+02  0.45594000000E+02  0.51100000000E-03 0.  1.
    9900012    2    1    2    0    0  0.39110365104E+00  0.51747096052E+00 -0.98609232310E+00  0.90007696509E+02  0.89999957303E+02 0.  0.
         12    1    1    2    0    0 -0.39110365104E+00 -0.51747096052E+00  0.98609232310E+00  0.11803034909E+01  0.00000000000E+00 0. -1.
         11    1    3    3    0    0 -0.11069737905E+02 -0.21032308767E+02  0.27194662327E+02  0.36117125698E+02  0.51100000000E-03 0. -1.
        -11    1    3    3    0    0  0.68721595322E-01 -0.10079119773E+02 -0.87666041382E-01  0.10079735297E+02  0.51100000000E-03 0.  1.
        -12    1    3    3    0    0  0.11392119961E+02  0.31628899501E+02 -0.28093088609E+02  0.43810835514E+02  0.00000000000E+00 0.  1.
</event>
<event>
 7    1  0.4639347E-015  0.9000775E+02  0.7816164E-02  0.1186339E+00
        -11   -1    0    0    0    0  0.00000000000E+00  0.00000000000E+00  0.45593999997E+02  0.45594000000E+02  0.51100000000E-03 0.  1.
         11   -1    0    0    0    0 -0.00000000000E+00 -0.00000000000E+00 -0.45593999997E+02  0.45594000000E+02  0.51100000000E-03 0. -1.
    9900012    2    1    2    0    0 -0.11210997180E+01  0.50974592872E-01 -0.36540728943E+00  0.90007751944E+02  0.90000013470E+02 0.  0.
         12    1    1    2    0    0  0.11210997180E+01 -0.50974592872E-01  0.36540728943E+00  0.11802480561E+01  0.00000000000E+00 0. -1.
         11    1    3    3    0    0  0.29729884749E+02 -0.12039007854E+00 -0.15068673207E+02  0.33330848376E+02  0.51100000000E-03 0. -1.
        -11    1    3    3    0    0  0.19797037928E+01  0.10826391801E+02 -0.94848074971E+01  0.14528990331E+02  0.51100000000E-03 0.  1.
        -12    1    3    3    0    0 -0.32830688260E+02 -0.10655027129E+02  0.24188073414E+02  0.42147913237E+02  0.00000000000E+00 0.  1.
</event>
<event>
 7    1  0.4639347E-015  0.9000786E+02  0.7816164E-02  0.1186339E+00
        -11   -1    0    0    0    0  0.00000000000E+00  0.00000000000E+00  0.45593999997E+02  0.45594000000E+02  0.51100000000E-03 0.  1.
         11   -1    0    0    0    0 -0.00000000000E+00 -0.00000000000E+00 -0.45593999997E+02  0.45594000000E+02  0.51100000000E-03 0. -1.
    9900012    2    1    2    0    0  0.56025512248E+00 -0.73543055611E+00  0.73347409845E+00  0.90007860958E+02  0.90000123923E+02 0.  0.
         12    1    1    2    0    0 -0.56025512248E+00  0.73543055611E+00 -0.73347409845E+00  0.11801390419E+01  0.00000000000E+00 0. -1.
         11    1    3    3    0    0  0.98298622799E+01  0.35835699426E+02 -0.19042588548E+02  0.41754565315E+02  0.51100000000E-03 0. -1.
        -11    1    3    3    0    0 -0.12408498349E+02 -0.13784697509E+02  0.10217632206E+01  0.18575056313E+02  0.51100000000E-03 0.  1.
        -12    1    3    3    0    0  0.31388911917E+01 -0.22786432473E+02  0.18754299426E+02  0.29678239330E+02  0.00000000000E+00 0.  1.
</event>
<event>
 7    1  0.4639347E-015  0.9000776E+02  0.7816164E-02  0.1186339E+00
        -11   -1    0    0    0    0  0.00000000000E+00  0.00000000000E+00  0.45593999997E+02  0.45594000000E+02  0.51100000000E-03 0.  1.
         11   -1    0    0    0    0 -0.00000000000E+00 -0.00000000000E+00 -0.45593999997E+02  0.45594000000E+02  0.51100000000E-03 0. -1.
    9900012    2    1    2    0    0  0.11480056848E+01  0.83796853424E-01  0.26081621808E+00  0.90007761014E+02  0.90000022659E+02 0.  0.
         12    1    1    2    0    0 -0.11480056848E+01 -0.83796853424E-01 -0.26081621808E+00  0.11802389862E+01  0.00000000000E+00 0. -1.
         11    1    3    3    0    0 -0.81740288368E+01  0.26968562283E+01  0.18025219257E+01  0.87941381894E+01  0.51100000000E-03 0. -1.
        -11    1    3    3    0    0  0.99001577708E+01  0.29834928304E+02  0.24297375069E+02  0.39730322253E+02  0.51100000000E-03 0.  1.
         12    1    3    3    0    0 -0.57812324920E+00 -0.32447987679E+02 -0.25839080776E+02  0.41483300571E+02  0.00000000000E+00 0. -1.
</event>
<event>
 7    1  0.4639347E-015  0.9000777E+02  0.7816164E-02  0.1186339E+00
        -11   -1    0    0    0    0  0.00000000000E+00  0.00000000000E+00  0.45593999997E+02  0.45594000000E+02  0.51100000000E-03 0.  1.
         11   -1    0    0    0    0 -0.00000000000E+00 -0.00000000000E+00 -0.45593999997E+02  0.45594000000E+02  0.51100000000E-03 0. -1.
    9900012    2    1    2    0    0 -0.53945082648E+00 -0.10176944308E+01 -0.25735245166E+00  0.90007771449E+02  0.90000033232E+02 0.  0.
         12    1    1    2    0    0  0.53945082648E+00  0.10176944308E+01  0.25735245166E+00  0.11802285512E+01  0.00000000000E+00 0. -1.
         11    1    3    3    0    0  0.49306548269E+01 -0.26634916641E+01  0.55386954226E+01  0.78792570786E+01  0.51100000000E-03 0. -1.
        -11    1    3    3    0    0 -0.29704271156E+01  0.40658443742E+02  0.62025487544E+01  0.41235956350E+02  0.51100000000E-03 0.  1.
         12    1    3    3    0    0 -0.24996785377E+01 -0.39012646509E+02 -0.11998596629E+02  0.40892558020E+02  0.00000000000E+00 0. -1.
</event>
<event>
 7    1  0.4639347E-015  0.9000773E+02  0.7816164E-02  0.1186339E+00
        -11   -1    0    0    0    0  0.00000000000E+00  0.00000000000E+00  0.45593999997E+02  0.45594000000E+02  0.51100000000E-03 0.  1.
         11   -1    0    0    0    0 -0.00000000000E+00 -0.00000000000E+00 -0.45593999997E+02  0.45594000000E+02  0.51100000000E-03 0. -1.
    9900012    2    1    2    0    0 -0.99505721391E+00 -0.33837489606E+00 -0.53703273928E+00  0.90007728594E+02  0.89999989811E+02 0.  0.
         12    1    1    2    0    0  0.99505721391E+00  0.33837489606E+00  0.53703273928E+00  0.11802714062E+01  0.00000000000E+00 0. -1.
         11    1    3    3    0    0 -0.75826163679E+01  0.10959531666E+02 -0.35212236785E+02  0.37649821049E+02  0.51100000000E-03 0. -1.
        -11    1    3    3    0    0  0.37770147753E+01  0.42584589957E+00 -0.75459835927E+01  0.84492043404E+01  0.51100000000E-03 0.  1.
        -12    1    3    3    0    0  0.28105443787E+01 -0.11723752462E+02  0.42221187639E+02  0.43908703205E+02  0.00000000000E+00 0.  1.
</event>
<event>
 7    1  0.4639347E-015  0.9000773E+02  0.7816164E-02  0.1186339E+00
        -11   -1    0    0    0    0  0.00000000000E+00  0.00000000000E+00  0.45593999997E+02  0.45594000000E+02  0.51100000000E-03 0. -1.
         11   -1    0    0    0    0 -0.00000000000E+00 -0.00000000000E+00 -0.45593999997E+02  0.45594000000E+02  0.51100000000E-03 0.  1.
    9900012    2    1    2    0    0 -0.53421558680E+00  0.98956017315E+00 -0.35837388982E+00  0.90007725678E+02  0.89999986857E+02 0.  0.
         12    1    1    2    0    0  0.53421558680E+00 -0.98956017315E+00  0.35837388982E+00  0.11802743217E+01  0.00000000000E+00 0. -1.
         11    1    3    3    0    0 -0.32221084282E+02 -0.81585764776E+01  0.98095465312E+01  0.34655271545E+02  0.51100000000E-03 0. -1.
        -11    1    3    3    0    0 -0.95582616003E+01  0.38597405431E+01  0.45149097172E+01  0.11253549302E+02  0.51100000000E-03 0.  1.
        -12    1    3    3    0    0  0.41245130295E+02  0.52883961076E+01 -0.14682830138E+02  0.44098904831E+02  0.00000000000E+00 0.  1.
</event>
<event>
 7    1  0.4639347E-015  0.9000783E+02  0.7816164E-02  0.1186339E+00
        -11   -1    0    0    0    0  0.00000000000E+00  0.00000000000E+00  0.45593999997E+02  0.45594000000E+02  0.51100000000E-03 0. -1.
         11   -1    0    0    0    0 -0.00000000000E+00 -0.00000000000E+00 -0.45593999997E+02  0.45594000000E+02  0.51100000000E-03 0.  1.
    9900012    2    1    2    0    0 -0.79006823945E+00 -0.73908732228E+00 -0.47154327320E+00  0.90007825881E+02  0.90000088382E+02 0.  0.
         12    1    1    2    0    0  0.79006823945E+00  0.73908732228E+00  0.47154327320E+00  0.11801741191E+01  0.00000000000E+00 0. -1.
         11    1    3    3    0    0  0.53214253828E+00  0.80139056696E+01  0.11414642452E+02  0.13957074276E+02  0.51100000000E-03 0. -1.
        -11    1    3    3    0    0 -0.13497666541E+02  0.24489849162E+02  0.14873513635E+02  0.31672718894E+02  0.51100000000E-03 0.  1.
         12    1    3    3    0    0  0.12175455763E+02 -0.33242842154E+02 -0.26759699360E+02  0.44378032712E+02  0.00000000000E+00 0. -1.
</event>
<event>
 7    1  0.4639347E-015  0.9000775E+02  0.7816164E-02  0.1186339E+00
        -11   -1    0    0    0    0  0.00000000000E+00  0.00000000000E+00  0.45593999997E+02  0.45594000000E+02  0.51100000000E-03 0.  1.
         11   -1    0    0    0    0 -0.00000000000E+00 -0.00000000000E+00 -0.45593999997E+02  0.45594000000E+02  0.51100000000E-03 0. -1.
    9900012    2    1    2    0    0 -0.78128376681E+00  0.44350086663E-01  0.88353237851E+00  0.90007745486E+02  0.90000006926E+02 0.  0.
         12    1    1    2    0    0  0.78128376681E+00 -0.44350086663E-01 -0.88353237851E+00  0.11802545142E+01  0.00000000000E+00 0. -1.
         11    1    3    3    0    0 -0.36570653475E+02  0.70936693926E+01 -0.32645523182E+01  0.37395055062E+02  0.51100000000E-03 0. -1.
        -11    1    3    3    0    0 -0.66933924934E+01 -0.47638461462E+01 -0.42465851980E+01  0.92482008672E+01  0.51100000000E-03 0.  1.
        -12    1    3    3    0    0  0.42482762201E+02 -0.22854731597E+01  0.83946698947E+01  0.43364489556E+02  0.00000000000E+00 0.  1.
</event>
<event>
 7    1  0.4639347E-015  0.9000718E+02  0.7816164E-02  0.1186340E+00
        -11   -1    0    0    0    0  0.00000000000E+00  0.00000000000E+00  0.45593999997E+02  0.45594000000E+02  0.51100000000E-03 0. -1.
         11   -1    0    0    0    0 -0.00000000000E+00 -0.00000000000E+00 -0.45593999997E+02  0.45594000000E+02  0.51100000000E-03 0.  1.
    9900012    2    1    2    0    0  0.79406527072E+00  0.45977027744E+00 -0.74324628256E+00  0.90007176813E+02  0.89999430745E+02 0.  0.
         12    1    1    2    0    0 -0.79406527072E+00 -0.45977027744E+00  0.74324628256E+00  0.11808231869E+01  0.00000000000E+00 0. -1.
         11    1    3    3    0    0  0.23695314113E+02  0.15779747675E+02 -0.64384178575E+01  0.29187695564E+02  0.51100000000E-03 0. -1.
        -11    1    3    3    0    0  0.14265940475E+02 -0.47450154667E+01 -0.11097036413E+02  0.18686263586E+02  0.51100000000E-03 0.  1.
        -12    1    3    3    0    0 -0.37167189317E+02 -0.10574961930E+02  0.16792207988E+02  0.42133217663E+02  0.00000000000E+00 0.  1.
</event>
<event>
 7    1  0.4639347E-015  0.9000776E+02  0.7816164E-02  0.1186339E+00
        -11   -1    0    0    0    0  0.00000000000E+00  0.00000000000E+00  0.45593999997E+02  0.45594000000E+02  0.51100000000E-03 0. -1.
         11   -1    0    0    0    0 -0.00000000000E+00 -0.00000000000E+00 -0.45593999997E+02  0.45594000000E+02  0.51100000000E-03 0.  1.
    9900012    2    1    2    0    0  0.29589297956E+00 -0.10137081004E+01 -0.52708432152E+00  0.90007756529E+02  0.90000018115E+02 0.  0.
         12    1    1    2    0    0 -0.29589297956E+00  0.10137081004E+01  0.52708432152E+00  0.11802434707E+01  0.00000000000E+00 0. -1.
         11    1    3    3    0    0  0.62984034281E+01  0.60480698613E+01 -0.51606093576E+01  0.10143023415E+02  0.51100000000E-03 0. -1.
        -11    1    3    3    0    0  0.16243660393E+02  0.29684497372E+02  0.12728599736E+02  0.36153051582E+02  0.51100000000E-03 0.  1.
         12    1    3    3    0    0 -0.22246170842E+02 -0.36746275333E+02 -0.80950746997E+01  0.43711681533E+02  0.00000000000E+00 0. -1.
</event>
<event>
 7    1  0.4639347E-015  0.9000761E+02  0.7816164E-02  0.1186339E+00
        -11   -1    0    0    0    0  0.00000000000E+00  0.00000000000E+00  0.45593999997E+02  0.45594000000E+02  0.51100000000E-03 0.  1.
         11   -1    0    0    0    0 -0.00000000000E+00 -0.00000000000E+00 -0.45593999997E+02  0.45594000000E+02  0.51100000000E-03 0. -1.
    9900012    2    1    2    0    0  0.39772673303E+00 -0.10334710704E+01  0.40875654109E+00  0.90007605609E+02  0.89999865203E+02 0.  0.
         12    1    1    2    0    0 -0.39772673303E+00  0.10334710704E+01 -0.40875654109E+00  0.11803943906E+01  0.00000000000E+00 0. -1.
         11    1    3    3    0    0 -0.17960241162E+01  0.25000186513E+02 -0.19141941483E+02  0.31538055620E+02  0.51100000000E-03 0. -1.
        -11    1    3    3    0    0 -0.78442679517E+01  0.10541616782E+02 -0.41088078545E+01  0.13767371802E+02  0.51100000000E-03 0.  1.
        -12    1    3    3    0    0  0.10038018801E+02 -0.36575274365E+02  0.23659505878E+02  0.44702178188E+02  0.00000000000E+00 0.  1.
</event>
<event>
 7    1  0.4639347E-015  0.9000781E+02  0.7816164E-02  0.1186339E+00
        -11   -1    0    0    0    0  0.00000000000E+00  0.00000000000E+00  0.45593999997E+02  0.45594000000E+02  0.51100000000E-03 0.  1.
         11   -1    0    0    0    0 -0.00000000000E+00 -0.00000000000E+00 -0.45593999997E+02  0.45594000000E+02  0.51100000000E-03 0. -1.
    9900012    2    1    2    0    0 -0.76072499574E+00  0.54788090565E+00  0.71691588254E+00  0.90007811715E+02  0.90000074029E+02 0.  0.
         12    1    1    2    0    0  0.76072499574E+00 -0.54788090565E+00 -0.71691588254E+00  0.11801882852E+01  0.00000000000E+00 0. -1.
         11    1    3    3    0    0 -0.12998192698E+02  0.18346686344E+02 -0.34215371822E+02  0.40941978242E+02  0.51100000000E-03 0. -1.
        -11    1    3    3    0    0 -0.45417197135E+01  0.44754462406E+01  0.46004469061E+01  0.78626299038E+01  0.51100000000E-03 0.  1.
        -12    1    3    3    0    0  0.16779187415E+02 -0.22274251679E+02  0.30331840798E+02  0.41203203569E+02  0.00000000000E+00 0.  1.
</event>
<event>
 7    1  0.4639347E-015  0.9000796E+02  0.7816164E-02  0.1186339E+00
        -11   -1    0    0    0    0  0.00000000000E+00  0.00000000000E+00  0.45593999997E+02  0.45594000000E+02  0.51100000000E-03 0.  1.
         11   -1    0    0    0    0 -0.00000000000E+00 -0.00000000000E+00 -0.45593999997E+02  0.45594000000E+02  0.51100000000E-03 0. -1.
    9900012    2    1    2    0    0 -0.83616624439E+00  0.41219954752E+00  0.72346800785E+00  0.90007962537E+02  0.90000226842E+02 0.  0.
         12    1    1    2    0    0  0.83616624439E+00 -0.41219954752E+00 -0.72346800785E+00  0.11800374628E+01  0.00000000000E+00 0. -1.
         11    1    3    3    0    0  0.23437816449E+02 -0.13245289072E+02 -0.26208283801E+02  0.37571838690E+02  0.51100000000E-03 0. -1.
        -11    1    3    3    0    0  0.91282408811E+01  0.71702167850E+00  0.49649444317E+01  0.10415832907E+02  0.51100000000E-03 0.  1.
        -12    1    3    3    0    0 -0.33402223575E+02  0.12940466941E+02  0.21966807377E+02  0.42020290940E+02  0.00000000000E+00 0.  1.
</event>
<event>
 7    1  0.4639347E-015  0.9000767E+02  0.7816164E-02  0.1186339E+00
        -11   -1    0    0    0    0  0.00000000000E+00  0.00000000000E+00  0.45593999997E+02  0.45594000000E+02  0.51100000000E-03 0.  1.
         11   -1    0    0    0    0 -0.00000000000E+00 -0.00000000000E+00 -0.45593999997E+02  0.45594000000E+02  0.51100000000E-03 0. -1.
    9900012    2    1    2    0    0  0.40924374260E+00  0.10744992105E+01  0.26672659224E+00  0.90007672897E+02  0.89999933380E+02 0.  0.
         12    1    1    2    0    0 -0.40924374260E+00 -0.10744992105E+01 -0.26672659224E+00  0.11803271026E+01  0.00000000000E+00 0. -1.
         11    1    3    3    0    0 -0.29393487882E+01  0.57099292514E+01 -0.58996267085E+01  0.87205882207E+01  0.51100000000E-03 0. -1.
        -11    1    3    3    0    0 -0.18058090497E+02  0.32761453548E+02 -0.18633295851E+01  0.37455032618E+02  0.51100000000E-03 0.  1.
         12    1    3    3    0    0  0.21406683028E+02 -0.37396883589E+02  0.80296828859E+01  0.43832052059E+02  0.00000000000E+00 0. -1.
</event>
<event>
 7    1  0.4639347E-015  0.9000795E+02  0.7816164E-02  0.1186339E+00
        -11   -1    0    0    0    0  0.00000000000E+00  0.00000000000E+00  0.45593999997E+02  0.45594000000E+02  0.51100000000E-03 0. -1.
         11   -1    0    0    0    0 -0.00000000000E+00 -0.00000000000E+00 -0.45593999997E+02  0.45594000000E+02  0.51100000000E-03 0.  1.
    9900012    2    1    2    0    0  0.84776279166E+00  0.54484554095E+00 -0.61396534902E+00  0.90007952601E+02  0.90000216775E+02 0.  0.
         12    1    1    2    0    0 -0.84776279166E+00 -0.54484554095E+00  0.61396534902E+00  0.11800473991E+01  0.00000000000E+00 0. -1.
         11    1    3    3    0    0  0.20126369884E+02 -0.14929408657E+02 -0.25922211803E+02  0.36054390476E+02  0.51100000000E-03 0. -1.
        -11    1    3    3    0    0  0.17777696230E+01  0.14473478123E+01 -0.10143631572E+02  0.10399449132E+02  0.51100000000E-03 0.  1.
        -12    1    3    3    0    0 -0.21056376716E+02  0.14026906386E+02  0.35451878025E+02  0.43554112994E+02  0.00000000000E+00 0.  1.
</event>
<event>
 7    1  0.4639347E-015  0.9000895E+02  0.7816164E-02  0.1186337E+00
        -11   -1    0    0    0    0  0.00000000000E+00  0.00000000000E+00  0.45593999997E+02  0.45594000000E+02  0.51100000000E-03 0. -1.
         11   -1    0    0    0    0 -0.00000000000E+00 -0.00000000000E+00 -0.45593999997E+02  0.45594000000E+02  0.51100000000E-03 0.  1.
    9900012    2    1    2    0    0  0.86037102449E+00  0.36488487676E+00 -0.71887986484E+00  0.90008946340E+02  0.90001223623E+02 0.  0.
         12    1    1    2    0    0 -0.86037102449E+00 -0.36488487676E+00  0.71887986484E+00  0.11790536600E+01  0.00000000000E+00 0. -1.
         11    1    3    3    0    0 -0.20359293175E+02  0.22922134668E+02 -0.26244461906E+02  0.40357116564E+02  0.51100000000E-03 0. -1.
        -11    1    3    3    0    0 -0.73136206329E+01 -0.32753525295E+01  0.64305619789E+01  0.10274682894E+02  0.51100000000E-03 0.  1.
        -12    1    3    3    0    0  0.28533284833E+02 -0.19281897262E+02  0.19095020062E+02  0.39377146882E+02  0.00000000000E+00 0.  1.
</event>
<event>
 7    1  0.4639347E-015  0.9000776E+02  0.7816164E-02  0.1186339E+00
        -11   -1    0    0    0    0  0.00000000000E+00  0.00000000000E+00  0.45593999997E+02  0.45594000000E+02  0.51100000000E-03 0. -1.
         11   -1    0    0    0    0 -0.00000000000E+00 -0.00000000000E+00 -0.45593999997E+02  0.45594000000E+02  0.51100000000E-03 0.  1.
    9900012    2    1    2    0    0 -0.27558999320E+00  0.87485253344E+00 -0.74273220922E+00  0.90007759374E+02  0.90000020998E+02 0.  0.
         12    1    1    2    0    0  0.27558999320E+00 -0.87485253344E+00  0.74273220922E+00  0.11802406256E+01  0.00000000000E+00 0. -1.
         11    1    3    3    0    0  0.14345312913E+02  0.19133677841E+02  0.18065646084E+02  0.29970872509E+02  0.51100000000E-03 0. -1.
        -11    1    3    3    0    0  0.14250081721E+01  0.15143242315E+02  0.49770856899E+01  0.16003743885E+02  0.51100000000E-03 0.  1.
        -12    1    3    3    0    0 -0.16045911078E+02 -0.33402067623E+02 -0.23785463983E+02  0.44033142980E+02  0.00000000000E+00 0.  1.
</event>
<event>
 7    1  0.4639347E-015  0.9000774E+02  0.7816164E-02  0.1186339E+00
        -11   -1    0    0    0    0  0.00000000000E+00  0.00000000000E+00  0.45593999997E+02  0.45594000000E+02  0.51100000000E-03 0.  1.
         11   -1    0    0    0    0 -0.00000000000E+00 -0.00000000000E+00 -0.45593999997E+02  0.45594000000E+02  0.51100000000E-03 0. -1.
    9900012    2    1    2    0    0 -0.10711891247E+01  0.48645773045E+00  0.94501598695E-01  0.90007738242E+02  0.89999999587E+02 0.  0.
         12    1    1    2    0    0  0.10711891247E+01 -0.48645773045E+00 -0.94501598695E-01  0.11802617577E+01  0.00000000000E+00 0. -1.
         11    1    3    3    0    0  0.10973778771E+02 -0.10684165009E+01  0.60549373418E+01  0.12578855306E+02  0.51100000000E-03 0. -1.
        -11    1    3    3    0    0 -0.94217266066E+01 -0.33494554014E+02  0.13419448400E+02  0.37292568649E+02  0.51100000000E-03 0.  1.
         12    1    3    3    0    0 -0.26232412894E+01  0.35049428245E+02 -0.19379884143E+02  0.40136314287E+02  0.00000000000E+00 0. -1.
</event>
<event>
 7    1  0.4639347E-015  0.9000777E+02  0.7816164E-02  0.1186339E+00
        -11   -1    0    0    0    0  0.00000000000E+00  0.00000000000E+00  0.45593999997E+02  0.45594000000E+02  0.51100000000E-03 0.  1.
         11   -1    0    0    0    0 -0.00000000000E+00 -0.00000000000E+00 -0.45593999997E+02  0.45594000000E+02  0.51100000000E-03 0. -1.
    9900012    2    1    2    0    0 -0.60637900396E+00  0.69456984355E+00 -0.73676420403E+00  0.90007769405E+02  0.90000031162E+02 0.  0.
         12    1    1    2    0    0  0.60637900396E+00 -0.69456984355E+00  0.73676420403E+00  0.11802305946E+01  0.00000000000E+00 0. -1.
         11    1    3    3    0    0 -0.54999219178E+01  0.33577236040E+02 -0.11996054775E+02  0.36077489542E+02  0.51100000000E-03 0. -1.
        -11    1    3    3    0    0 -0.65220157752E+01  0.24789856935E+01 -0.91726910310E+01  0.11524769883E+02  0.51100000000E-03 0.  1.
        -12    1    3    3    0    0  0.11415558689E+02 -0.35361651890E+02  0.20431981602E+02  0.42405509981E+02  0.00000000000E+00 0.  1.
</event>
<event>
 7    1  0.4639347E-015  0.9000774E+02  0.7816164E-02  0.1186339E+00
        -11   -1    0    0    0    0  0.00000000000E+00  0.00000000000E+00  0.45593999997E+02  0.45594000000E+02  0.51100000000E-03 0. -1.
         11   -1    0    0    0    0 -0.00000000000E+00 -0.00000000000E+00 -0.45593999997E+02  0.45594000000E+02  0.51100000000E-03 0.  1.
    9900012    2    1    2    0    0  0.38125708318E+00  0.11124653099E+01 -0.10039182531E+00  0.90007739627E+02  0.90000000990E+02 0.  0.
         12    1    1    2    0    0 -0.38125708318E+00 -0.11124653099E+01  0.10039182531E+00  0.11802603729E+01  0.00000000000E+00 0. -1.
         11    1    3    3    0    0  0.31166488575E+02 -0.82160583348E+01  0.22748013929E+02  0.39450294836E+02  0.51100000000E-03 0. -1.
        -11    1    3    3    0    0  0.61825855545E+01 -0.13341297966E+01 -0.12923580576E+01  0.64555755795E+01  0.51100000000E-03 0.  1.
        -12    1    3    3    0    0 -0.36967817047E+02  0.10662653441E+02 -0.21556047697E+02  0.44101869211E+02  0.00000000000E+00 0.  1.
</event>
<event>
 7    1  0.4757350E-015  0.9000772E+02  0.7816164E-02  0.1186339E+00
        -11   -1    0    0    0    0  0.00000000000E+00  0.00000000000E+00  0.45593999997E+02  0.45594000000E+02  0.51100000000E-03 0.  1.
         11   -1    0    0    0    0 -0.00000000000E+00 -0.00000000000E+00 -0.45593999997E+02  0.45594000000E+02  0.51100000000E-03 0. -1.
    9900012    2    1    2    0    0 -0.61511640711E-01 -0.11680162029E+01  0.15817413665E+00  0.90007718428E+02  0.89999979511E+02 0.  0.
         12    1    1    2    0    0  0.61511640711E-01  0.11680162029E+01 -0.15817413665E+00  0.11802815722E+01  0.00000000000E+00 0. -1.
         11    1    3    3    0    0  0.37620320637E+01 -0.31249784904E+01  0.83652697103E+01  0.96900006915E+01  0.51100000000E-03 0. -1.
        -11    1    3    3    0    0  0.18657193086E+02  0.16339778892E+02  0.26658115648E+02  0.36410635236E+02  0.51100000000E-03 0.  1.
         12    1    3    3    0    0 -0.22480736791E+02 -0.14382816604E+02 -0.34865211222E+02  0.43907082500E+02  0.00000000000E+00 0. -1.
</event>
<event>
 7    1  0.4639347E-015  0.9000789E+02  0.7816164E-02  0.1186339E+00
        -11   -1    0    0    0    0  0.00000000000E+00  0.00000000000E+00  0.45593999997E+02  0.45594000000E+02  0.51100000000E-03 0. -1.
         11   -1    0    0    0    0 -0.00000000000E+00 -0.00000000000E+00 -0.45593999997E+02  0.45594000000E+02  0.51100000000E-03 0.  1.
    9900012    2    1    2    0    0  0.74595977842E+00 -0.15284899178E-01 -0.91430963337E+00  0.90007893342E+02  0.90000156734E+02 0.  0.
         12    1    1    2    0    0 -0.74595977842E+00  0.15284899178E-01  0.91430963337E+00  0.11801066582E+01  0.00000000000E+00 0. -1.
         11    1    3    3    0    0 -0.17254499449E+02  0.31166389296E+02 -0.50243402503E+01  0.35976458528E+02  0.51100000000E-03 0. -1.
        -11    1    3    3    0    0  0.71738509823E+00  0.91543777678E+01 -0.28179445714E+01  0.96051072645E+01  0.51100000000E-03 0.  1.
        -12    1    3    3    0    0  0.17283074130E+02 -0.40336051963E+02  0.69279751884E+01  0.44426327549E+02  0.00000000000E+00 0.  1.
</event>
<event>
 7    1  0.4639347E-015  0.9000777E+02  0.7816164E-02  0.1186339E+00
        -11   -1    0    0    0    0  0.00000000000E+00  0.00000000000E+00  0.45593999997E+02  0.45594000000E+02  0.51100000000E-03 0.  1.
         11   -1    0    0    0    0 -0.00000000000E+00 -0.00000000000E+00 -0.45593999997E+02  0.45594000000E+02  0.51100000000E-03 0. -1.
    9900012    2    1    2    0    0 -0.87341209066E+00 -0.61993504486E+00 -0.49575981769E+00  0.90007768694E+02  0.90000030440E+02 0.  0.
         12    1    1    2    0    0  0.87341209066E+00  0.61993504486E+00  0.49575981769E+00  0.11802313065E+01  0.00000000000E+00 0. -1.
         11    1    3    3    0    0 -0.46963561829E+01 -0.33760859024E+01 -0.83599961580E+01  0.10165788383E+02  0.51100000000E-03 0. -1.
        -11    1    3    3    0    0  0.18249627905E+02  0.36625593365E+02  0.12379807082E+02  0.42752106751E+02  0.51100000000E-03 0.  1.
         12    1    3    3    0    0 -0.14426683813E+02 -0.33869442507E+02 -0.45155707414E+01  0.37089873560E+02  0.00000000000E+00 0. -1.
</event>
<event>
 7    1  0.4639347E-015  0.9000795E+02  0.7816164E-02  0.1186339E+00
        -11   -1    0    0    0    0  0.00000000000E+00  0.00000000000E+00  0.45593999997E+02  0.45594000000E+02  0.51100000000E-03 0. -1.
         11   -1    0    0    0    0 -0.00000000000E+00 -0.00000000000E+00 -0.45593999997E+02  0.45594000000E+02  0.51100000000E-03 0.  1.
    9900012    2    1    2    0    0  0.90178065964E+00 -0.46731765516E+00 -0.60077641618E+00  0.90007946420E+02  0.90000210513E+02 0.  0.
         12    1    1    2    0    0 -0.90178065964E+00  0.46731765516E+00  0.60077641618E+00  0.11800535798E+01  0.00000000000E+00 0. -1.
         11    1    3    3    0    0  0.17282252907E+02  0.71522156770E+01  0.10885699541E+02  0.21640908239E+02  0.51100000000E-03 0. -1.
        -11    1    3    3    0    0  0.24816665388E+02 -0.18211967550E+01 -0.97569514558E+01  0.26727920618E+02  0.51100000000E-03 0.  1.
         12    1    3    3    0    0 -0.41197137636E+02 -0.57983365771E+01 -0.17295245017E+01  0.41639117563E+02  0.00000000000E+00 0. -1.
</event>
<event>
 7    1  0.4639347E-015  0.9000776E+02  0.7816164E-02  0.1186339E+00
        -11   -1    0    0    0    0  0.00000000000E+00  0.00000000000E+00  0.45593999997E+02  0.45594000000E+02  0.51100000000E-03 0.  1.
         11   -1    0    0    0    0 -0.00000000000E+00 -0.00000000000E+00 -0.45593999997E+02  0.45594000000E+02  0.51100000000E-03 0. -1.
    9900012    2    1    2    0    0  0.27156660852E+00  0.49174722591E+00  0.10379782371E+01  0.90007761644E+02  0.90000023297E+02 0.  0.
         12    1    1    2    0    0 -0.27156660852E+00 -0.49174722591E+00 -0.10379782371E+01  0.11802383563E+01  0.00000000000E+00 0. -1.
         11    1    3    3    0    0 -0.17158810017E+01  0.34534251947E+02 -0.89691717973E+01  0.35721210060E+02  0.51100000000E-03 0. -1.
        -11    1    3    3    0    0  0.59136544709E+01  0.54827561331E+01 -0.73766946125E+01  0.10929206178E+02  0.51100000000E-03 0.  1.
        -12    1    3    3    0    0 -0.39262068607E+01 -0.39525260854E+02  0.17383844647E+02  0.43357345406E+02  0.00000000000E+00 0.  1.
</event>
<event>
 7    1  0.4639347E-015  0.9000753E+02  0.7816164E-02  0.1186339E+00
        -11   -1    0    0    0    0  0.00000000000E+00  0.00000000000E+00  0.45593999997E+02  0.45594000000E+02  0.51100000000E-03 0.  1.
         11   -1    0    0    0    0 -0.00000000000E+00 -0.00000000000E+00 -0.45593999997E+02  0.45594000000E+02  0.51100000000E-03 0. -1.
    9900012    2    1    2    0    0 -0.15178782294E+00 -0.13725781844E+00  0.11625970504E+01  0.90007529266E+02  0.89999787852E+02 0.  0.
         12    1    1    2    0    0  0.15178782294E+00  0.13725781844E+00 -0.11625970504E+01  0.11804707339E+01  0.00000000000E+00 0. -1.
         11    1    3    3    0    0  0.29398049782E+01  0.59101435082E+01 -0.68149796548E+01  0.94876866282E+01  0.51100000000E-03 0. -1.
        -11    1    3    3    0    0 -0.18161940706E+02  0.28572025698E+02  0.21850300170E+02  0.40294569863E+02  0.51100000000E-03 0.  1.
         12    1    3    3    0    0  0.15070347905E+02 -0.34619427025E+02 -0.13872723464E+02  0.40225272775E+02  0.00000000000E+00 0. -1.
</event>
<event>
 7    1  0.4639347E-015  0.9000787E+02  0.7816164E-02  0.1186339E+00
        -11   -1    0    0    0    0  0.00000000000E+00  0.00000000000E+00  0.45593999997E+02  0.45594000000E+02  0.51100000000E-03 0.  1.
         11   -1    0    0    0    0 -0.00000000000E+00 -0.00000000000E+00 -0.45593999997E+02  0.45594000000E+02  0.51100000000E-03 0. -1.
    9900012    2    1    2    0    0  0.86979491709E+00  0.67488378017E+00  0.42506925298E+00  0.90007874929E+02  0.90000138077E+02 0.  0.
         12    1    1    2    0    0 -0.86979491709E+00 -0.67488378017E+00 -0.42506925298E+00  0.11801250715E+01  0.00000000000E+00 0. -1.
         11    1    3    3    0    0  0.38293199734E+02 -0.42215436764E+01 -0.91989247571E+01  0.39608216242E+02  0.51100000000E-03 0. -1.
        -11    1    3    3    0    0 -0.48023384239E+01 -0.92491269033E+01 -0.54730510378E+01  0.11771282459E+02  0.51100000000E-03 0.  1.
        -12    1    3    3    0    0 -0.32621066393E+02  0.14145554360E+02  0.15097045048E+02  0.38628376227E+02  0.00000000000E+00 0.  1.
</event>
<event>
 7    1  0.4639347E-015  0.9000787E+02  0.7816164E-02  0.1186339E+00
        -11   -1    0    0    0    0  0.00000000000E+00  0.00000000000E+00  0.45593999997E+02  0.45594000000E+02  0.51100000000E-03 0. -1.
         11   -1    0    0    0    0 -0.00000000000E+00 -0.00000000000E+00 -0.45593999997E+02  0.45594000000E+02  0.51100000000E-03 0.  1.
    9900012    2    1    2    0    0  0.12871641933E+00  0.63576721903E+00 -0.98587174910E+00  0.90007868237E+02  0.90000131297E+02 0.  0.
         12    1    1    2    0    0 -0.12871641933E+00 -0.63576721903E+00  0.98587174910E+00  0.11801317634E+01  0.00000000000E+00 0. -1.
         11    1    3    3    0    0 -0.11992880850E+02 -0.14773988819E+02  0.33706487211E+02  0.38706940166E+02  0.51100000000E-03 0. -1.
        -11    1    3    3    0    0 -0.84673710069E+01  0.31271647032E+01  0.12567947152E+00  0.90272546458E+01  0.51100000000E-03 0.  1.
        -12    1    3    3    0    0  0.20588968276E+02  0.12282591335E+02 -0.34818038431E+02  0.42273673424E+02  0.00000000000E+00 0.  1.
</event>
<event>
 7    1  0.4639347E-015  0.9000774E+02  0.7816164E-02  0.1186339E+00
        -11   -1    0    0    0    0  0.00000000000E+00  0.00000000000E+00  0.45593999997E+02  0.45594000000E+02  0.51100000000E-03 0.  1.
         11   -1    0    0    0    0 -0.00000000000E+00 -0.00000000000E+00 -0.45593999997E+02  0.45594000000E+02  0.51100000000E-03 0. -1.
    9900012    2    1    2    0    0  0.10376936933E+01 -0.52609824320E+00 -0.19858025717E+00  0.90007736605E+02  0.89999997928E+02 0.  0.
         12    1    1    2    0    0 -0.10376936933E+01  0.52609824320E+00  0.19858025717E+00  0.11802633949E+01  0.00000000000E+00 0. -1.
         11    1    3    3    0    0  0.44260659687E+01  0.26778755857E+01 -0.77227600900E+01  0.92952730611E+01  0.51100000000E-03 0. -1.
        -11    1    3    3    0    0 -0.19219273641E+00  0.38022452990E+02 -0.26948092777E+01  0.38118314059E+02  0.51100000000E-03 0.  1.
         12    1    3    3    0    0 -0.31961795390E+01 -0.41226426819E+02  0.10218989110E+02  0.42594149485E+02  0.00000000000E+00 0. -1.
</event>
<event>
 7    1  0.4639347E-015  0.9000769E+02  0.7816164E-02  0.1186339E+00
        -11   -1    0    0    0    0  0.00000000000E+00  0.00000000000E+00  0.45593999997E+02  0.45594000000E+02  0.51100000000E-03 0. -1.
         11   -1    0    0    0    0 -0.00000000000E+00 -0.00000000000E+00 -0.45593999997E+02  0.45594000000E+02  0.51100000000E-03 0.  1.
    9900012    2    1    2    0    0 -0.32385455454E+00  0.56397622198E+00 -0.98498277112E+00  0.90007685630E+02  0.89999946281E+02 0.  0.
         12    1    1    2    0    0  0.32385455454E+00 -0.56397622198E+00  0.98498277112E+00  0.11803143695E+01  0.00000000000E+00 0. -1.
         11    1    3    3    0    0 -0.15709479639E+02 -0.35391896713E+01  0.59247368625E+01  0.17158558249E+02  0.51100000000E-03 0. -1.
        -11    1    3    3    0    0 -0.10027967853E+02  0.19866040561E+02  0.21973013187E+02  0.31273519400E+02  0.51100000000E-03 0.  1.
        -12    1    3    3    0    0  0.25413592937E+02 -0.15762874668E+02 -0.28882732821E+02  0.41575607981E+02  0.00000000000E+00 0.  1.
</event>
<event>
 7    1  0.4639347E-015  0.9000771E+02  0.7816164E-02  0.1186339E+00
        -11   -1    0    0    0    0  0.00000000000E+00  0.00000000000E+00  0.45593999997E+02  0.45594000000E+02  0.51100000000E-03 0. -1.
         11   -1    0    0    0    0 -0.00000000000E+00 -0.00000000000E+00 -0.45593999997E+02  0.45594000000E+02  0.51100000000E-03 0.  1.
    9900012    2    1    2    0    0  0.44858403926E+00 -0.63604717376E+00 -0.88730560440E+00  0.90007705595E+02  0.89999966509E+02 0.  0.
         12    1    1    2    0    0 -0.44858403926E+00  0.63604717376E+00  0.88730560440E+00  0.11802944053E+01  0.00000000000E+00 0. -1.
         11    1    3    3    0    0 -0.41234627446E+01  0.53671100659E+00 -0.83958922718E+01  0.93692054632E+01  0.51100000000E-03 0. -1.
        -11    1    3    3    0    0 -0.20840380430E+02 -0.28158151144E+02 -0.14065546749E+02  0.37749735601E+02  0.51100000000E-03 0.  1.
         12    1    3    3    0    0  0.25412427214E+02  0.26985392963E+02  0.21574133417E+02  0.42888764531E+02  0.00000000000E+00 0. -1.
</event>
<event>
 7    1  0.4639347E-015  0.9000776E+02  0.7816164E-02  0.1186339E+00
        -11   -1    0    0    0    0  0.00000000000E+00  0.00000000000E+00  0.45593999997E+02  0.45594000000E+02  0.51100000000E-03 0. -1.
         11   -1    0    0    0    0 -0.00000000000E+00 -0.00000000000E+00 -0.45593999997E+02  0.45594000000E+02  0.51100000000E-03 0.  1.
    9900012    2    1    2    0    0  0.15644330846E+00  0.11365423854E+01 -0.27707716416E+00  0.90007756441E+02  0.90000018026E+02 0.  0.
         12    1    1    2    0    0 -0.15644330846E+00 -0.11365423854E+01  0.27707716416E+00  0.11802435586E+01  0.00000000000E+00 0. -1.
         11    1    3    3    0    0 -0.15218375356E+02  0.29521771566E+02  0.20377310987E+02  0.38966251401E+02  0.51100000000E-03 0. -1.
        -11    1    3    3    0    0  0.57577323394E+01  0.20575989430E+01  0.66489019217E+01  0.90328894673E+01  0.51100000000E-03 0.  1.
        -12    1    3    3    0    0  0.96170863255E+01 -0.30442828124E+02 -0.27303290073E+02  0.42008615573E+02  0.00000000000E+00 0.  1.
</event>
<event>
 7    1  0.4639347E-015  0.9000776E+02  0.7816164E-02  0.1186339E+00
        -11   -1    0    0    0    0  0.00000000000E+00  0.00000000000E+00  0.45593999997E+02  0.45594000000E+02  0.51100000000E-03 0.  1.
         11   -1    0    0    0    0 -0.00000000000E+00 -0.00000000000E+00 -0.45593999997E+02  0.45594000000E+02  0.51100000000E-03 0. -1.
    9900012    2    1    2    0    0  0.64975712299E-01 -0.83254488351E+00  0.83403165067E+00  0.90007762049E+02  0.90000023708E+02 0.  0.
         12    1    1    2    0    0 -0.64975712299E-01  0.83254488351E+00 -0.83403165067E+00  0.11802379508E+01  0.00000000000E+00 0. -1.
         11    1    3    3    0    0 -0.34510479278E+02  0.13009505178E+02 -0.12717280855E+02  0.39012172941E+02  0.51100000000E-03 0. -1.
        -11    1    3    3    0    0 -0.19934947788E+01  0.56413297092E+01  0.67255632551E+01  0.90017678086E+01  0.51100000000E-03 0.  1.
        -12    1    3    3    0    0  0.36568949769E+02 -0.19483379771E+02  0.68257492505E+01  0.41993821300E+02  0.00000000000E+00 0.  1.
</event>
<event>
 7    1  0.4639347E-015  0.9000774E+02  0.7816164E-02  0.1186339E+00
        -11   -1    0    0    0    0  0.00000000000E+00  0.00000000000E+00  0.45593999997E+02  0.45594000000E+02  0.51100000000E-03 0.  1.
         11   -1    0    0    0    0 -0.00000000000E+00 -0.00000000000E+00 -0.45593999997E+02  0.45594000000E+02  0.51100000000E-03 0. -1.
    9900012    2    1    2    0    0  0.81828751791E+00  0.74059114097E+00 -0.41825536621E+00  0.90007742718E+02  0.90000004122E+02 0.  0.
         12    1    1    2    0    0 -0.81828751791E+00 -0.74059114097E+00  0.41825536621E+00  0.11802572819E+01  0.00000000000E+00 0. -1.
         11    1    3    3    0    0 -0.15805363052E+01  0.69865966629E+01  0.65381114046E+01  0.96983260897E+01  0.51100000000E-03 0. -1.
        -11    1    3    3    0    0  0.32092644940E+02  0.10495085599E+02  0.17810045150E+02  0.38174368226E+02  0.51100000000E-03 0.  1.
         12    1    3    3    0    0 -0.29693821117E+02 -0.16741091121E+02 -0.24766411921E+02  0.42135048402E+02  0.00000000000E+00 0. -1.
</event>
<event>
 7    1  0.4639347E-015  0.9000771E+02  0.7816164E-02  0.1186339E+00
        -11   -1    0    0    0    0  0.00000000000E+00  0.00000000000E+00  0.45593999997E+02  0.45594000000E+02  0.51100000000E-03 0.  1.
         11   -1    0    0    0    0 -0.00000000000E+00 -0.00000000000E+00 -0.45593999997E+02  0.45594000000E+02  0.51100000000E-03 0. -1.
    9900012    2    1    2    0    0 -0.74931806121E+00 -0.82159367071E+00 -0.39570254406E+00  0.90007714348E+02  0.89999975378E+02 0.  0.
         12    1    1    2    0    0  0.74931806121E+00  0.82159367071E+00  0.39570254406E+00  0.11802856519E+01  0.00000000000E+00 0. -1.
         11    1    3    3    0    0 -0.20165131412E+02 -0.34218287162E+02  0.11190826190E+02  0.41264491905E+02  0.51100000000E-03 0. -1.
        -11    1    3    3    0    0  0.63915499203E+01 -0.61793546207E+00  0.55527930482E+01  0.84892441074E+01  0.51100000000E-03 0.  1.
        -12    1    3    3    0    0  0.13024263430E+02  0.34014628953E+02 -0.17139321782E+02  0.40253978336E+02  0.00000000000E+00 0.  1.
</event>
<event>
 7    1  0.4639347E-015  0.9000773E+02  0.7816164E-02  0.1186339E+00
        -11   -1    0    0    0    0  0.00000000000E+00  0.00000000000E+00  0.45593999997E+02  0.45594000000E+02  0.51100000000E-03 0. -1.
         11   -1    0    0    0    0 -0.00000000000E+00 -0.00000000000E+00 -0.45593999997E+02  0.45594000000E+02  0.51100000000E-03 0.  1.
    9900012    2    1    2    0    0 -0.66433155083E+00  0.69811803797E+00  0.68142159747E+00  0.90007728591E+02  0.89999989809E+02 0.  0.
         12    1    1    2    0    0  0.66433155083E+00 -0.69811803797E+00 -0.68142159747E+00  0.11802714086E+01  0.00000000000E+00 0. -1.
         11    1    3    3    0    0 -0.80866742798E+01 -0.33269532672E+01 -0.63364311698E+00  0.87672357565E+01  0.51100000000E-03 0. -1.
        -11    1    3    3    0    0 -0.32833436965E+02  0.45710453075E+01 -0.16717674070E+02  0.37126939878E+02  0.51100000000E-03 0.  1.
         12    1    3    3    0    0  0.40255779694E+02 -0.54597400228E+00  0.18032738784E+02  0.44113552957E+02  0.00000000000E+00 0. -1.
</event>
<event>
 7    1  0.4639347E-015  0.9000769E+02  0.7816164E-02  0.1186339E+00
        -11   -1    0    0    0    0  0.00000000000E+00  0.00000000000E+00  0.45593999997E+02  0.45594000000E+02  0.51100000000E-03 0. -1.
         11   -1    0    0    0    0 -0.00000000000E+00 -0.00000000000E+00 -0.45593999997E+02  0.45594000000E+02  0.51100000000E-03 0.  1.
    9900012    2    1    2    0    0  0.15370624998E+00  0.96880291668E+00 -0.65644271146E+00  0.90007694219E+02  0.89999954983E+02 0.  0.
         12    1    1    2    0    0 -0.15370624998E+00 -0.96880291668E+00  0.65644271146E+00  0.11803057808E+01  0.00000000000E+00 0. -1.
         11    1    3    3    0    0  0.18878361810E+02  0.93625587246E+00  0.57534530857E+01  0.19757817246E+02  0.51100000000E-03 0. -1.
        -11    1    3    3    0    0  0.15575491748E+02  0.12433780306E+02 -0.22783413934E+02  0.30270097235E+02  0.51100000000E-03 0.  1.
         12    1    3    3    0    0 -0.34300147308E+02 -0.12401233262E+02  0.16373518136E+02  0.39979779738E+02  0.00000000000E+00 0. -1.
</event>
<event>
 7    1  0.4639347E-015  0.9000775E+02  0.7816164E-02  0.1186339E+00
        -11   -1    0    0    0    0  0.00000000000E+00  0.00000000000E+00  0.45593999997E+02  0.45594000000E+02  0.51100000000E-03 0.  1.
         11   -1    0    0    0    0 -0.00000000000E+00 -0.00000000000E+00 -0.45593999997E+02  0.45594000000E+02  0.51100000000E-03 0. -1.
    9900012    2    1    2    0    0 -0.57121470976E+00  0.10322129626E+01  0.35262509865E-01  0.90007748633E+02  0.90000010115E+02 0.  0.
         12    1    1    2    0    0  0.57121470976E+00 -0.10322129626E+01 -0.35262509865E-01  0.11802513670E+01  0.00000000000E+00 0. -1.
         11    1    3    3    0    0  0.59903691151E+01 -0.13446027069E+01  0.49377508856E+01  0.78786967605E+01  0.51100000000E-03 0. -1.
        -11    1    3    3    0    0 -0.31006248555E+02  0.29078048010E+02  0.88224779564E+01  0.43413781718E+02  0.51100000000E-03 0.  1.
         12    1    3    3    0    0  0.24444664730E+02 -0.26701232341E+02 -0.13724966332E+02  0.38715270154E+02  0.00000000000E+00 0. -1.
</event>
<event>
 7    1  0.4639347E-015  0.9000758E+02  0.7816164E-02  0.1186339E+00
        -11   -1    0    0    0    0  0.00000000000E+00  0.00000000000E+00  0.45593999997E+02  0.45594000000E+02  0.51100000000E-03 0. -1.
         11   -1    0    0    0    0 -0.00000000000E+00 -0.00000000000E+00 -0.45593999997E+02  0.45594000000E+02  0.51100000000E-03 0.  1.
    9900012    2    1    2    0    0  0.27798423893E+00 -0.26004363012E+00  0.11173568277E+01  0.90007583037E+02  0.89999842333E+02 0.  0.
         12    1    1    2    0    0 -0.27798423893E+00  0.26004363012E+00 -0.11173568277E+01  0.11804169632E+01  0.00000000000E+00 0. -1.
         11    1    3    3    0    0  0.12311277265E+02  0.21321305461E+02  0.27899638531E+02  0.37209614952E+02  0.51100000000E-03 0. -1.
        -11    1    3    3    0    0 -0.53189858227E+01  0.96269466315E+01  0.19909993811E+00  0.11000425113E+02  0.51100000000E-03 0.  1.
        -12    1    3    3    0    0 -0.67143072037E+01 -0.31208295723E+02 -0.26981381641E+02  0.41797542971E+02  0.00000000000E+00 0.  1.
</event>
<event>
 7    1  0.4639347E-015  0.9000783E+02  0.7816164E-02  0.1186339E+00
        -11   -1    0    0    0    0  0.00000000000E+00  0.00000000000E+00  0.45593999997E+02  0.45594000000E+02  0.51100000000E-03 0.  1.
         11   -1    0    0    0    0 -0.00000000000E+00 -0.00000000000E+00 -0.45593999997E+02  0.45594000000E+02  0.51100000000E-03 0. -1.
    9900012    2    1    2    0    0  0.62267604510E+00  0.31311791442E-01  0.10020483422E+01  0.90007827654E+02  0.90000090179E+02 0.  0.
         12    1    1    2    0    0 -0.62267604510E+00 -0.31311791442E-01 -0.10020483422E+01  0.11801723457E+01  0.00000000000E+00 0. -1.
         11    1    3    3    0    0 -0.63551099965E+01  0.52570874449E+01  0.74430020918E+01  0.11109575684E+02  0.51100000000E-03 0. -1.
        -11    1    3    3    0    0 -0.34389861087E+02  0.61531671449E+01  0.26684073003E+01  0.35037756910E+02  0.51100000000E-03 0.  1.
         12    1    3    3    0    0  0.41367647129E+02 -0.11378942798E+02 -0.91093610498E+01  0.43860495060E+02  0.00000000000E+00 0. -1.
</event>
<event>
 7    1  0.4639347E-015  0.9000781E+02  0.7816164E-02  0.1186339E+00
        -11   -1    0    0    0    0  0.00000000000E+00  0.00000000000E+00  0.45593999997E+02  0.45594000000E+02  0.51100000000E-03 0.  1.
         11   -1    0    0    0    0 -0.00000000000E+00 -0.00000000000E+00 -0.45593999997E+02  0.45594000000E+02  0.51100000000E-03 0. -1.
    9900012    2    1    2    0    0 -0.25294167211E+00  0.38810396093E+00  0.10854647478E+01  0.90007814467E+02  0.90000076818E+02 0.  0.
         12    1    1    2    0    0  0.25294167211E+00 -0.38810396093E+00 -0.10854647478E+01  0.11801855332E+01  0.00000000000E+00 0. -1.
         11    1    3    3    0    0  0.43412664454E+02  0.70256234888E+00  0.17318681176E+01  0.43452875582E+02  0.51100000000E-03 0. -1.
        -11    1    3    3    0    0 -0.39008927147E+01  0.29595217789E+01  0.40841662270E+01  0.63762173083E+01  0.51100000000E-03 0.  1.
        -12    1    3    3    0    0 -0.39764713412E+02 -0.32739801668E+01 -0.47305695968E+01  0.40178721577E+02  0.00000000000E+00 0.  1.
</event>
<event>
 7    1  0.4639347E-015  0.9000771E+02  0.7816164E-02  0.1186339E+00
        -11   -1    0    0    0    0  0.00000000000E+00  0.00000000000E+00  0.45593999997E+02  0.45594000000E+02  0.51100000000E-03 0. -1.
         11   -1    0    0    0    0 -0.00000000000E+00 -0.00000000000E+00 -0.45593999997E+02  0.45594000000E+02  0.51100000000E-03 0.  1.
    9900012    2    1    2    0    0  0.75963367790E+00  0.42089494432E+00 -0.79930940874E+00  0.90007707066E+02  0.89999967999E+02 0.  0.
         12    1    1    2    0    0 -0.75963367790E+00 -0.42089494432E+00  0.79930940874E+00  0.11802929338E+01  0.00000000000E+00 0. -1.
         11    1    3    3    0    0 -0.49114108445E+01  0.10709465760E+02 -0.21932921865E+01  0.11984370831E+02  0.51100000000E-03 0. -1.
        -11    1    3    3    0    0  0.12901908519E+02 -0.26970363837E+02 -0.29611835670E+02  0.42079930857E+02  0.51100000000E-03 0.  1.
         12    1    3    3    0    0 -0.72308639962E+01  0.16681793022E+02  0.31005818447E+02  0.35943405378E+02  0.00000000000E+00 0. -1.
</event>
<event>
 7    1  0.4639347E-015  0.9000770E+02  0.7816164E-02  0.1186339E+00
        -11   -1    0    0    0    0  0.00000000000E+00  0.00000000000E+00  0.45593999997E+02  0.45594000000E+02  0.51100000000E-03 0.  1.
         11   -1    0    0    0    0 -0.00000000000E+00 -0.00000000000E+00 -0.45593999997E+02  0.45594000000E+02  0.51100000000E-03 0. -1.
    9900012    2    1    2    0    0 -0.35923802306E+00  0.56948437955E+00  0.96940672955E+00  0.90007697571E+02  0.89999958379E+02 0.  0.
         12    1    1    2    0    0  0.35923802306E+00 -0.56948437955E+00 -0.96940672955E+00  0.11803024286E+01  0.00000000000E+00 0. -1.
         11    1    3    3    0    0  0.24795955345E+01 -0.97657586984E-01 -0.12826952317E+02  0.13064786146E+02  0.51100000000E-03 0. -1.
        -11    1    3    3    0    0  0.30300475525E+02 -0.33983215576E+01  0.27301468841E+02  0.40927223307E+02  0.51100000000E-03 0.  1.
         12    1    3    3    0    0 -0.33139309083E+02  0.40654635241E+01 -0.13505109794E+02  0.36015688119E+02  0.00000000000E+00 0. -1.
</event>
<event>
 7    1  0.4639347E-015  0.9000762E+02  0.7816164E-02  0.1186339E+00
        -11   -1    0    0    0    0  0.00000000000E+00  0.00000000000E+00  0.45593999997E+02  0.45594000000E+02  0.51100000000E-03 0. -1.
         11   -1    0    0    0    0 -0.00000000000E+00 -0.00000000000E+00 -0.45593999997E+02  0.45594000000E+02  0.51100000000E-03 0.  1.
    9900012    2    1    2    0    0 -0.25073004903E+00  0.12765223856E+00 -0.11463550785E+01  0.90007622680E+02  0.89999882499E+02 0.  0.
         12    1    1    2    0    0  0.25073004903E+00 -0.12765223856E+00  0.11463550785E+01  0.11803773199E+01  0.00000000000E+00 0. -1.
         11    1    3    3    0    0 -0.15342039137E+02 -0.39571360145E+02 -0.24942388119E+01  0.42514608503E+02  0.51100000000E-03 0. -1.
        -11    1    3    3    0    0  0.83981276114E+00  0.52754615455E+01  0.80270173460E+01  0.96420323441E+01  0.51100000000E-03 0.  1.
        -12    1    3    3    0    0  0.14251496327E+02  0.34423550839E+02 -0.66791336126E+01  0.37850981833E+02  0.00000000000E+00 0.  1.
</event>
<event>
 7    1  0.4639347E-015  0.9000774E+02  0.7816164E-02  0.1186339E+00
        -11   -1    0    0    0    0  0.00000000000E+00  0.00000000000E+00  0.45593999997E+02  0.45594000000E+02  0.51100000000E-03 0.  1.
         11   -1    0    0    0    0 -0.00000000000E+00 -0.00000000000E+00 -0.45593999997E+02  0.45594000000E+02  0.51100000000E-03 0. -1.
    9900012    2    1    2    0    0 -0.52010792523E+00 -0.66215813018E+00  0.82706967194E+00  0.90007741602E+02  0.90000002991E+02 0.  0.
         12    1    1    2    0    0  0.52010792523E+00  0.66215813018E+00 -0.82706967194E+00  0.11802583978E+01  0.00000000000E+00 0. -1.
         11    1    3    3    0    0 -0.15492809181E+02  0.15202579814E+02  0.14372031368E+01  0.21753416340E+02  0.51100000000E-03 0. -1.
        -11    1    3    3    0    0  0.33398399885E+02  0.10370047790E+02  0.61038398971E+01  0.35499969968E+02  0.51100000000E-03 0.  1.
         12    1    3    3    0    0 -0.18425698628E+02 -0.26234785734E+02 -0.67139733620E+01  0.32754355294E+02  0.00000000000E+00 0. -1.
</event>
<event>
 7    1  0.4639347E-015  0.9000767E+02  0.7816164E-02  0.1186339E+00
        -11   -1    0    0    0    0  0.00000000000E+00  0.00000000000E+00  0.45593999997E+02  0.45594000000E+02  0.51100000000E-03 0. -1.
         11   -1    0    0    0    0 -0.00000000000E+00 -0.00000000000E+00 -0.45593999997E+02  0.45594000000E+02  0.51100000000E-03 0.  1.
    9900012    2    1    2    0    0 -0.95899123482E-02 -0.65901158592E-01 -0.11784527923E+01  0.90007667033E+02  0.89999927438E+02 0.  0.
         12    1    1    2    0    0  0.95899123482E-02  0.65901158592E-01  0.11784527923E+01  0.11803329670E+01  0.00000000000E+00 0. -1.
         11    1    3    3    0    0 -0.41239987106E+01 -0.41476154734E+01  0.31966059729E+01  0.66654609359E+01  0.51100000000E-03 0. -1.
        -11    1    3    3    0    0 -0.27861297692E+02 -0.25694269205E+02 -0.10235282233E+02  0.39258226930E+02  0.51100000000E-03 0.  1.
         12    1    3    3    0    0  0.31975706490E+02  0.29775983520E+02  0.58602234673E+01  0.44083979167E+02  0.00000000000E+00 0. -1.
</event>
<event>
 7    1  0.4639347E-015  0.9000769E+02  0.7816164E-02  0.1186339E+00
        -11   -1    0    0    0    0  0.00000000000E+00  0.00000000000E+00  0.45593999997E+02  0.45594000000E+02  0.51100000000E-03 0.  1.
         11   -1    0    0    0    0 -0.00000000000E+00 -0.00000000000E+00 -0.45593999997E+02  0.45594000000E+02  0.51100000000E-03 0. -1.
    9900012    2    1    2    0    0 -0.79648486437E+00  0.57749256973E+00  0.65211651972E+00  0.90007685736E+02  0.89999946387E+02 0.  0.
         12    1    1    2    0    0  0.79648486437E+00 -0.57749256973E+00 -0.65211651972E+00  0.11803142643E+01  0.00000000000E+00 0. -1.
         11    1    3    3    0    0 -0.13337996777E+02 -0.37968305494E+02 -0.65045521169E+01  0.40765225114E+02  0.51100000000E-03 0. -1.
        -11    1    3    3    0    0 -0.52691743488E+01  0.68670842052E+01 -0.60658055799E+01  0.10569533641E+02  0.51100000000E-03 0.  1.
        -12    1    3    3    0    0  0.17810686261E+02  0.31678713859E+02  0.13222474217E+02  0.38672926980E+02  0.00000000000E+00 0.  1.
</event>
<event>
 7    1  0.4639347E-015  0.9000781E+02  0.7816164E-02  0.1186339E+00
        -11   -1    0    0    0    0  0.00000000000E+00  0.00000000000E+00  0.45593999997E+02  0.45594000000E+02  0.51100000000E-03 0. -1.
         11   -1    0    0    0    0 -0.00000000000E+00 -0.00000000000E+00 -0.45593999997E+02  0.45594000000E+02  0.51100000000E-03 0.  1.
    9900012    2    1    2    0    0  0.10728512819E+01 -0.46816374997E+00 -0.15051629697E+00  0.90007812589E+02  0.90000074915E+02 0.  0.
         12    1    1    2    0    0 -0.10728512819E+01  0.46816374997E+00  0.15051629697E+00  0.11801874112E+01  0.00000000000E+00 0. -1.
         11    1    3    3    0    0  0.13036118164E+01 -0.82233541511E+01 -0.10287375824E+02  0.13234540372E+02  0.51100000000E-03 0. -1.
        -11    1    3    3    0    0 -0.33017132659E+02 -0.20309373920E+01 -0.12920871541E+02  0.35513443614E+02  0.51100000000E-03 0.  1.
         12    1    3    3    0    0  0.32786372125E+02  0.97861277932E+01  0.23057731068E+02  0.41259828602E+02  0.00000000000E+00 0. -1.
</event>
<event>
 7    1  0.4639347E-015  0.9000783E+02  0.7816164E-02  0.1186339E+00
        -11   -1    0    0    0    0  0.00000000000E+00  0.00000000000E+00  0.45593999997E+02  0.45594000000E+02  0.51100000000E-03 0. -1.
         11   -1    0    0    0    0 -0.00000000000E+00 -0.00000000000E+00 -0.45593999997E+02  0.45594000000E+02  0.51100000000E-03 0.  1.
    9900012    2    1    2    0    0  0.55757284727E+00  0.87520944675E+00 -0.56205909273E+00  0.90007834978E+02  0.90000097600E+02 0.  0.
         12    1    1    2    0    0 -0.55757284727E+00 -0.87520944675E+00  0.56205909273E+00  0.11801650221E+01  0.00000000000E+00 0. -1.
         11    1    3    3    0    0 -0.34661324715E+02 -0.24578037795E+02  0.33323372635E+01  0.42621495102E+02  0.51100000000E-03 0. -1.
        -11    1    3    3    0    0  0.96768330243E+01 -0.47856926428E+00 -0.51375972412E+01  0.10966541460E+02  0.51100000000E-03 0.  1.
        -12    1    3    3    0    0  0.25542064538E+02  0.25931816506E+02  0.12432008849E+01  0.36419798415E+02  0.00000000000E+00 0.  1.
</event>
<event>
 7    1  0.4639347E-015  0.9000771E+02  0.7816164E-02  0.1186339E+00
        -11   -1    0    0    0    0  0.00000000000E+00  0.00000000000E+00  0.45593999997E+02  0.45594000000E+02  0.51100000000E-03 0.  1.
         11   -1    0    0    0    0 -0.00000000000E+00 -0.00000000000E+00 -0.45593999997E+02  0.45594000000E+02  0.51100000000E-03 0. -1.
    9900012    2    1    2    0    0 -0.31312622031E+00 -0.21052713767E+00  0.11183547396E+01  0.90007708922E+02  0.89999969880E+02 0.  0.
         12    1    1    2    0    0  0.31312622031E+00  0.21052713767E+00 -0.11183547396E+01  0.11802910781E+01  0.00000000000E+00 0. -1.
         11    1    3    3    0    0  0.38833105934E+01  0.10568266523E+02 -0.17131364929E+01  0.11388731070E+02  0.51100000000E-03 0. -1.
        -11    1    3    3    0    0 -0.27935599736E+02  0.19761233875E+02  0.15977505129E+02  0.37764861542E+02  0.51100000000E-03 0.  1.
         12    1    3    3    0    0  0.23739162922E+02 -0.30540027536E+02 -0.13146013897E+02  0.40854116310E+02  0.00000000000E+00 0. -1.
</event>
<event>
 7    1  0.4639347E-015  0.9000763E+02  0.7816164E-02  0.1186339E+00
        -11   -1    0    0    0    0  0.00000000000E+00  0.00000000000E+00  0.45593999997E+02  0.45594000000E+02  0.51100000000E-03 0.  1.
         11   -1    0    0    0    0 -0.00000000000E+00 -0.00000000000E+00 -0.45593999997E+02  0.45594000000E+02  0.51100000000E-03 0. -1.
    9900012    2    1    2    0    0  0.49488947981E+00 -0.10703998655E+01 -0.50904999772E-01  0.90007634468E+02  0.89999894443E+02 0.  0.
         12    1    1    2    0    0 -0.49488947981E+00  0.10703998655E+01  0.50904999772E-01  0.11803655316E+01  0.00000000000E+00 0. -1.
         11    1    3    3    0    0  0.61713593379E+01 -0.14047448022E+01 -0.84188628439E+01  0.10532627207E+02  0.51100000000E-03 0. -1.
        -11    1    3    3    0    0 -0.35091929020E+02  0.21181286136E+02  0.13284004099E+02  0.43087760789E+02  0.51100000000E-03 0.  1.
         12    1    3    3    0    0  0.29415459161E+02 -0.20846941199E+02 -0.49160462551E+01  0.36387246472E+02  0.00000000000E+00 0. -1.
</event>
<event>
 7    1  0.4639347E-015  0.9000777E+02  0.7816164E-02  0.1186339E+00
        -11   -1    0    0    0    0  0.00000000000E+00  0.00000000000E+00  0.45593999997E+02  0.45594000000E+02  0.51100000000E-03 0.  1.
         11   -1    0    0    0    0 -0.00000000000E+00 -0.00000000000E+00 -0.45593999997E+02  0.45594000000E+02  0.51100000000E-03 0. -1.
    9900012    2    1    2    0    0  0.18446349551E+00  0.41262699335E+00  0.10902571214E+01  0.90007767647E+02  0.90000029380E+02 0.  0.
         12    1    1    2    0    0 -0.18446349551E+00 -0.41262699335E+00 -0.10902571214E+01  0.11802323532E+01  0.00000000000E+00 0. -1.
         11    1    3    3    0    0  0.25981149352E+02  0.22247621047E+02 -0.99110823015E+01  0.35611884485E+02  0.51100000000E-03 0. -1.
        -11    1    3    3    0    0  0.90629429801E+01  0.36668094886E+01  0.43270955295E+01  0.10691406983E+02  0.51100000000E-03 0.  1.
        -12    1    3    3    0    0 -0.34859628837E+02 -0.25501803543E+02  0.66742438935E+01  0.43704476179E+02  0.00000000000E+00 0.  1.
</event>
<event>
 7    1  0.4639347E-015  0.9000778E+02  0.7816164E-02  0.1186339E+00
        -11   -1    0    0    0    0  0.00000000000E+00  0.00000000000E+00  0.45593999997E+02  0.45594000000E+02  0.51100000000E-03 0.  1.
         11   -1    0    0    0    0 -0.00000000000E+00 -0.00000000000E+00 -0.45593999997E+02  0.45594000000E+02  0.51100000000E-03 0. -1.
    9900012    2    1    2    0    0 -0.96029962511E+00 -0.50867002974E+00  0.46044583241E+00  0.90007775050E+02  0.90000036880E+02 0.  0.
         12    1    1    2    0    0  0.96029962511E+00  0.50867002974E+00 -0.46044583241E+00  0.11802249505E+01  0.00000000000E+00 0. -1.
         11    1    3    3    0    0 -0.20659872503E+02 -0.29027948870E+02  0.11965945480E+02  0.37585050206E+02  0.51100000000E-03 0. -1.
        -11    1    3    3    0    0 -0.95734756798E+01  0.10966430215E+00  0.13130328158E+01  0.96637217617E+01  0.51100000000E-03 0.  1.
        -12    1    3    3    0    0  0.29273048558E+02  0.28409614538E+02 -0.12818532464E+02  0.42759003082E+02  0.00000000000E+00 0.  1.
</event>
<event>
 7    1  0.4639347E-015  0.9000778E+02  0.7816164E-02  0.1186339E+00
        -11   -1    0    0    0    0  0.00000000000E+00  0.00000000000E+00  0.45593999997E+02  0.45594000000E+02  0.51100000000E-03 0.  1.
         11   -1    0    0    0    0 -0.00000000000E+00 -0.00000000000E+00 -0.45593999997E+02  0.45594000000E+02  0.51100000000E-03 0. -1.
    9900012    2    1    2    0    0  0.34850633649E+00  0.11236606374E+01  0.94113971497E-01  0.90007776574E+02  0.90000038425E+02 0.  0.
         12    1    1    2    0    0 -0.34850633649E+00 -0.11236606374E+01 -0.94113971497E-01  0.11802234255E+01  0.00000000000E+00 0. -1.
         11    1    3    3    0    0  0.14717401381E+01 -0.80614439665E+01 -0.46989220175E+01  0.94463096628E+01  0.51100000000E-03 0. -1.
        -11    1    3    3    0    0  0.25707040324E+02 -0.12474484954E+02 -0.22673968696E+02  0.36477027754E+02  0.51100000000E-03 0.  1.
         12    1    3    3    0    0 -0.26830274125E+02  0.21659589558E+02  0.27467004685E+02  0.44084439157E+02  0.00000000000E+00 0. -1.
</event>
<event>
 7    1  0.4639347E-015  0.9000775E+02  0.7816164E-02  0.1186339E+00
        -11   -1    0    0    0    0  0.00000000000E+00  0.00000000000E+00  0.45593999997E+02  0.45594000000E+02  0.51100000000E-03 0. -1.
         11   -1    0    0    0    0 -0.00000000000E+00 -0.00000000000E+00 -0.45593999997E+02  0.45594000000E+02  0.51100000000E-03 0.  1.
    9900012    2    1    2    0    0  0.99342606788E-01  0.10290425246E+01 -0.56938424888E+00  0.90007747530E+02  0.90000008997E+02 0.  0.
         12    1    1    2    0    0 -0.99342606788E-01 -0.10290425246E+01  0.56938424888E+00  0.11802524703E+01  0.00000000000E+00 0. -1.
         11    1    3    3    0    0 -0.37902504851E+02 -0.52549700875E+01 -0.19035051757E+02  0.42738130286E+02  0.51100000000E-03 0. -1.
        -11    1    3    3    0    0  0.96314015044E+01 -0.29334285793E-01 -0.41057329374E+01  0.10470042916E+02  0.51100000000E-03 0.  1.
        -12    1    3    3    0    0  0.28370445954E+02  0.63133468979E+01  0.22571400446E+02  0.36799574329E+02  0.00000000000E+00 0.  1.
</event>
<event>
 7    1  0.4639347E-015  0.9000769E+02  0.7816164E-02  0.1186339E+00
        -11   -1    0    0    0    0  0.00000000000E+00  0.00000000000E+00  0.45593999997E+02  0.45594000000E+02  0.51100000000E-03 0. -1.
         11   -1    0    0    0    0 -0.00000000000E+00 -0.00000000000E+00 -0.45593999997E+02  0.45594000000E+02  0.51100000000E-03 0.  1.
    9900012    2    1    2    0    0 -0.10956167105E-01  0.11801957515E+01  0.12693595827E-01  0.90007685137E+02  0.89999945780E+02 0.  0.
         12    1    1    2    0    0  0.10956167105E-01 -0.11801957515E+01 -0.12693595827E-01  0.11803148634E+01  0.00000000000E+00 0. -1.
         11    1    3    3    0    0 -0.23671392233E+02  0.35039017820E+01  0.32345489320E+02  0.40234845813E+02  0.51100000000E-03 0. -1.
        -11    1    3    3    0    0 -0.97229438080E+00 -0.99440723023E+01 -0.24190990513E+01  0.10280173675E+02  0.51100000000E-03 0.  1.
        -12    1    3    3    0    0  0.24632730447E+02  0.76203662718E+01 -0.29913696673E+02  0.39492665649E+02  0.00000000000E+00 0.  1.
</event>
<event>
 7    1  0.4639347E-015  0.9000779E+02  0.7816164E-02  0.1186339E+00
        -11   -1    0    0    0    0  0.00000000000E+00  0.00000000000E+00  0.45593999997E+02  0.45594000000E+02  0.51100000000E-03 0.  1.
         11   -1    0    0    0    0 -0.00000000000E+00 -0.00000000000E+00 -0.45593999997E+02  0.45594000000E+02  0.51100000000E-03 0. -1.
    9900012    2    1    2    0    0  0.49424666738E+00 -0.48642780057E+00  0.95498505069E+00  0.90007793145E+02  0.90000055215E+02 0.  0.
         12    1    1    2    0    0 -0.49424666738E+00  0.48642780057E+00 -0.95498505069E+00  0.11802068549E+01  0.00000000000E+00 0. -1.
         11    1    3    3    0    0  0.69382123186E+01 -0.32634010835E+01  0.61653217570E+01  0.98386873838E+01  0.51100000000E-03 0. -1.
        -11    1    3    3    0    0 -0.23877370377E+02 -0.27098128405E+01  0.31228210218E+02  0.39403972077E+02  0.51100000000E-03 0.  1.
         12    1    3    3    0    0  0.17433404726E+02  0.54867861234E+01 -0.36438546925E+02  0.40765133684E+02  0.00000000000E+00 0. -1.
</event>
<event>
 7    1  0.4639347E-015  0.9000831E+02  0.7816164E-02  0.1186338E+00
        -11   -1    0    0    0    0  0.00000000000E+00  0.00000000000E+00  0.45593999997E+02  0.45594000000E+02  0.51100000000E-03 0.  1.
         11   -1    0    0    0    0 -0.00000000000E+00 -0.00000000000E+00 -0.45593999997E+02  0.45594000000E+02  0.51100000000E-03 0. -1.
    9900012    2    1    2    0    0 -0.36900316361E+00 -0.59591242455E+00  0.94888639099E+00  0.90008313459E+02  0.90000582395E+02 0.  0.
         12    1    1    2    0    0  0.36900316361E+00  0.59591242455E+00 -0.94888639099E+00  0.11796865412E+01  0.00000000000E+00 0. -1.
         11    1    3    3    0    0  0.34648156052E+02  0.13746071076E+02  0.15261862877E+02  0.40278699663E+02  0.51100000000E-03 0. -1.
        -11    1    3    3    0    0 -0.59638518287E+01  0.86292343458E+01 -0.18496139514E+01  0.10651398315E+02  0.51100000000E-03 0.  1.
        -12    1    3    3    0    0 -0.29053307387E+02 -0.22971217847E+02 -0.12463362534E+02  0.39078215481E+02  0.00000000000E+00 0.  1.
</event>
<event>
 7    1  0.4639347E-015  0.9000775E+02  0.7816164E-02  0.1186339E+00
        -11   -1    0    0    0    0  0.00000000000E+00  0.00000000000E+00  0.45593999997E+02  0.45594000000E+02  0.51100000000E-03 0.  1.
         11   -1    0    0    0    0 -0.00000000000E+00 -0.00000000000E+00 -0.45593999997E+02  0.45594000000E+02  0.51100000000E-03 0. -1.
    9900012    2    1    2    0    0 -0.10996470679E+01 -0.16063214806E+00 -0.39744702378E+00  0.90007749816E+02  0.90000011313E+02 0.  0.
         12    1    1    2    0    0  0.10996470679E+01  0.16063214806E+00  0.39744702378E+00  0.11802501843E+01  0.00000000000E+00 0. -1.
         11    1    3    3    0    0  0.45114113412E+00  0.74737965473E+01  0.42457311394E+01  0.86074035761E+01  0.51100000000E-03 0. -1.
        -11    1    3    3    0    0  0.35242564956E+02  0.14020993910E+02 -0.72969525005E+01  0.38624761112E+02  0.51100000000E-03 0.  1.
         12    1    3    3    0    0 -0.36793353158E+02 -0.21655422605E+02  0.26537743373E+01  0.42775585128E+02  0.00000000000E+00 0. -1.
</event>
<event>
 7    1  0.4639347E-015  0.9000893E+02  0.7816164E-02  0.1186337E+00
        -11   -1    0    0    0    0  0.00000000000E+00  0.00000000000E+00  0.45593999997E+02  0.45594000000E+02  0.51100000000E-03 0.  1.
         11   -1    0    0    0    0 -0.00000000000E+00 -0.00000000000E+00 -0.45593999997E+02  0.45594000000E+02  0.51100000000E-03 0. -1.
    9900012    2    1    2    0    0 -0.31805988861E+00  0.76771866914E+00 -0.83644747197E+00  0.90008933241E+02  0.90001210352E+02 0.  0.
         12    1    1    2    0    0  0.31805988861E+00 -0.76771866914E+00  0.83644747197E+00  0.11790667585E+01  0.00000000000E+00 0. -1.
         11    1    3    3    0    0  0.82963088174E+01 -0.44357392481E+01 -0.70464395297E+01  0.11754013484E+02  0.51100000000E-03 0. -1.
        -11    1    3    3    0    0  0.14336241563E+02 -0.27011627961E+02 -0.14232773468E+02  0.33730219509E+02  0.51100000000E-03 0.  1.
         12    1    3    3    0    0 -0.22950610269E+02  0.32215085878E+02  0.20442765526E+02  0.44524700249E+02  0.00000000000E+00 0. -1.
</event>
<event>
 7    1  0.4639347E-015  0.9000778E+02  0.7816164E-02  0.1186339E+00
        -11   -1    0    0    0    0  0.00000000000E+00  0.00000000000E+00  0.45593999997E+02  0.45594000000E+02  0.51100000000E-03 0.  1.
         11   -1    0    0    0    0 -0.00000000000E+00 -0.00000000000E+00 -0.45593999997E+02  0.45594000000E+02  0.51100000000E-03 0. -1.
    9900012    2    1    2    0    0 -0.13458458486E+00 -0.84053012122E+00  0.81750048170E+00  0.90007783523E+02  0.90000045465E+02 0.  0.
         12    1    1    2    0    0  0.13458458486E+00  0.84053012122E+00 -0.81750048170E+00  0.11802164771E+01  0.00000000000E+00 0. -1.
         11    1    3    3    0    0  0.19807400557E+01 -0.91586489299E+01  0.23921283716E+01  0.96709079096E+01  0.51100000000E-03 0. -1.
        -11    1    3    3    0    0 -0.39269687074E+02 -0.71083094588E+01 -0.35013847969E+01  0.40061154277E+02  0.51100000000E-03 0.  1.
         12    1    3    3    0    0  0.37154362434E+02  0.15426428268E+02  0.19267569069E+01  0.40275721336E+02  0.00000000000E+00 0. -1.
</event>
<event>
 7    1  0.4639347E-015  0.9000775E+02  0.7816164E-02  0.1186339E+00
        -11   -1    0    0    0    0  0.00000000000E+00  0.00000000000E+00  0.45593999997E+02  0.45594000000E+02  0.51100000000E-03 0.  1.
         11   -1    0    0    0    0 -0.00000000000E+00 -0.00000000000E+00 -0.45593999997E+02  0.45594000000E+02  0.51100000000E-03 0. -1.
    9900012    2    1    2    0    0 -0.72783945212E-01  0.91148613752E+00  0.74624377460E+00  0.90007752461E+02  0.90000013994E+02 0.  0.
         12    1    1    2    0    0  0.72783945212E-01 -0.91148613752E+00 -0.74624377460E+00  0.11802475387E+01  0.00000000000E+00 0. -1.
         11    1    3    3    0    0  0.36268901598E+01 -0.10656568294E+02 -0.35141274594E+01  0.11792619391E+02  0.51100000000E-03 0. -1.
        -11    1    3    3    0    0 -0.16237011423E+01 -0.31696017828E+02  0.12525391384E+02  0.34119779910E+02  0.51100000000E-03 0.  1.
         12    1    3    3    0    0 -0.20759729627E+01  0.43264072260E+02 -0.82650201500E+01  0.44095353160E+02  0.00000000000E+00 0. -1.
</event>
<event>
 7    1  0.4639347E-015  0.9000775E+02  0.7816164E-02  0.1186339E+00
        -11   -1    0    0    0    0  0.00000000000E+00  0.00000000000E+00  0.45593999997E+02  0.45594000000E+02  0.51100000000E-03 0.  1.
         11   -1    0    0    0    0 -0.00000000000E+00 -0.00000000000E+00 -0.45593999997E+02  0.45594000000E+02  0.51100000000E-03 0. -1.
    9900012    2    1    2    0    0 -0.47479430485E+00  0.10656522875E+01  0.17870714391E+00  0.90007753978E+02  0.90000015530E+02 0.  0.
         12    1    1    2    0    0  0.47479430485E+00 -0.10656522875E+01 -0.17870714391E+00  0.11802460223E+01  0.00000000000E+00 0. -1.
         11    1    3    3    0    0 -0.27562330427E+02 -0.21063838636E+02 -0.15176149929E+02  0.37864005118E+02  0.51100000000E-03 0. -1.
        -11    1    3    3    0    0  0.55993203723E+01 -0.49290833128E+01 -0.76090473345E+01  0.10655789625E+02  0.51100000000E-03 0.  1.
        -12    1    3    3    0    0  0.21488215750E+02  0.27058574236E+02  0.22963904407E+02  0.41487959235E+02  0.00000000000E+00 0.  1.
</event>
<event>
 7    1  0.4639347E-015  0.9000794E+02  0.7816164E-02  0.1186339E+00
        -11   -1    0    0    0    0  0.00000000000E+00  0.00000000000E+00  0.45593999997E+02  0.45594000000E+02  0.51100000000E-03 0.  1.
         11   -1    0    0    0    0 -0.00000000000E+00 -0.00000000000E+00 -0.45593999997E+02  0.45594000000E+02  0.51100000000E-03 0. -1.
    9900012    2    1    2    0    0  0.43409763541E+00  0.56289140299E+00  0.94193915416E+00  0.90007942010E+02  0.90000206045E+02 0.  0.
         12    1    1    2    0    0 -0.43409763541E+00 -0.56289140299E+00 -0.94193915416E+00  0.11800579896E+01  0.00000000000E+00 0. -1.
         11    1    3    3    0    0  0.34979359237E+02  0.43850723188E+01  0.19375585207E+02  0.40226828539E+02  0.51100000000E-03 0. -1.
        -11    1    3    3    0    0 -0.78398367122E+01 -0.13412369686E+02  0.71035203237E+00  0.15551826277E+02  0.51100000000E-03 0.  1.
        -12    1    3    3    0    0 -0.26705424890E+02  0.95901887703E+01 -0.19143998085E+02  0.34229287195E+02  0.00000000000E+00 0.  1.
</event>
<event>
 7    1  0.4639347E-015  0.9000767E+02  0.7816164E-02  0.1186339E+00
        -11   -1    0    0    0    0  0.00000000000E+00  0.00000000000E+00  0.45593999997E+02  0.45594000000E+02  0.51100000000E-03 0.  1.
         11   -1    0    0    0    0 -0.00000000000E+00 -0.00000000000E+00 -0.45593999997E+02  0.45594000000E+02  0.51100000000E-03 0. -1.
    9900012    2    1    2    0    0 -0.75142145227E+00  0.86932020547E+00 -0.26986755798E+00  0.90007669403E+02  0.89999929839E+02 0.  0.
         12    1    1    2    0    0  0.75142145227E+00 -0.86932020547E+00  0.26986755798E+00  0.11803305967E+01  0.00000000000E+00 0. -1.
         11    1    3    3    0    0 -0.12953452094E+02 -0.25756913044E+02 -0.26335295555E+02  0.39048153387E+02  0.51100000000E-03 0. -1.
        -11    1    3    3    0    0  0.75463014886E+01  0.47843796104E+01 -0.67972144778E+01  0.11226712757E+02  0.51100000000E-03 0.  1.
        -12    1    3    3    0    0  0.46557291534E+01  0.21841853639E+02  0.32862642475E+02  0.39732803259E+02  0.00000000000E+00 0.  1.
</event>
<event>
 7    1  0.4639347E-015  0.9000710E+02  0.7816164E-02  0.1186340E+00
        -11   -1    0    0    0    0  0.00000000000E+00  0.00000000000E+00  0.45593999997E+02  0.45594000000E+02  0.51100000000E-03 0. -1.
         11   -1    0    0    0    0 -0.00000000000E+00 -0.00000000000E+00 -0.45593999997E+02  0.45594000000E+02  0.51100000000E-03 0.  1.
    9900012    2    1    2    0    0  0.57443608529E+00 -0.89021380354E+00  0.52159050688E+00  0.90007104539E+02  0.89999357517E+02 0.  0.
         12    1    1    2    0    0 -0.57443608529E+00  0.89021380354E+00 -0.52159050688E+00  0.11808954606E+01  0.00000000000E+00 0. -1.
         11    1    3    3    0    0 -0.17170585720E+02 -0.83587641294E+01  0.27535697032E+02  0.33509887541E+02  0.51100000000E-03 0. -1.
        -11    1    3    3    0    0  0.47931274441E+01  0.14221067791E+01  0.13041853632E+02  0.13967333490E+02  0.51100000000E-03 0.  1.
        -12    1    3    3    0    0  0.12951894361E+02  0.60464435467E+01 -0.40055960157E+02  0.42529883508E+02  0.00000000000E+00 0.  1.
</event>
<event>
 7    1  0.4639347E-015  0.9000777E+02  0.7816164E-02  0.1186339E+00
        -11   -1    0    0    0    0  0.00000000000E+00  0.00000000000E+00  0.45593999997E+02  0.45594000000E+02  0.51100000000E-03 0. -1.
         11   -1    0    0    0    0 -0.00000000000E+00 -0.00000000000E+00 -0.45593999997E+02  0.45594000000E+02  0.51100000000E-03 0.  1.
    9900012    2    1    2    0    0 -0.10834678150E+00 -0.53708848490E+00 -0.10453405494E+01  0.90007771238E+02  0.90000033019E+02 0.  0.
         12    1    1    2    0    0  0.10834678150E+00  0.53708848490E+00  0.10453405494E+01  0.11802287616E+01  0.00000000000E+00 0. -1.
         11    1    3    3    0    0  0.94022260743E+01 -0.33090298262E+01  0.24328203114E-01  0.99675536450E+01  0.51100000000E-03 0. -1.
        -11    1    3    3    0    0  0.31416484949E+02 -0.12937480434E+01  0.16273312970E+02  0.35404661075E+02  0.51100000000E-03 0.  1.
         12    1    3    3    0    0 -0.40927057804E+02  0.40656893847E+01 -0.17342981723E+02  0.44635556519E+02  0.00000000000E+00 0. -1.
</event>
<event>
 7    1  0.4639347E-015  0.9000755E+02  0.7816164E-02  0.1186339E+00
        -11   -1    0    0    0    0  0.00000000000E+00  0.00000000000E+00  0.45593999997E+02  0.45594000000E+02  0.51100000000E-03 0.  1.
         11   -1    0    0    0    0 -0.00000000000E+00 -0.00000000000E+00 -0.45593999997E+02  0.45594000000E+02  0.51100000000E-03 0. -1.
    9900012    2    1    2    0    0 -0.10485113182E+01  0.52198496580E+00  0.14701282183E+00  0.90007552179E+02  0.89999811067E+02 0.  0.
         12    1    1    2    0    0  0.10485113182E+01 -0.52198496580E+00 -0.14701282183E+00  0.11804478212E+01  0.00000000000E+00 0. -1.
         11    1    3    3    0    0 -0.23763870481E+01  0.18080787747E+02 -0.67136723694E+01  0.19432845851E+02  0.51100000000E-03 0. -1.
        -11    1    3    3    0    0  0.21445990318E+02  0.12183526508E+02  0.20592353284E+02  0.32131197191E+02  0.51100000000E-03 0.  1.
         12    1    3    3    0    0 -0.20118114588E+02 -0.29742329289E+02 -0.13731668092E+02  0.38443509136E+02  0.00000000000E+00 0. -1.
</event>
<event>
 7    1  0.4639347E-015  0.9000780E+02  0.7816164E-02  0.1186339E+00
        -11   -1    0    0    0    0  0.00000000000E+00  0.00000000000E+00  0.45593999997E+02  0.45594000000E+02  0.51100000000E-03 0. -1.
         11   -1    0    0    0    0 -0.00000000000E+00 -0.00000000000E+00 -0.45593999997E+02  0.45594000000E+02  0.51100000000E-03 0.  1.
    9900012    2    1    2    0    0 -0.11024664773E+01  0.40773650890E+00 -0.10583402031E+00  0.90007795681E+02  0.90000057784E+02 0.  0.
         12    1    1    2    0    0  0.11024664773E+01 -0.40773650890E+00  0.10583402031E+00  0.11802043188E+01  0.00000000000E+00 0. -1.
         11    1    3    3    0    0 -0.62524041696E+01  0.22574884809E+01  0.76930021061E+01  0.10167157607E+02  0.51100000000E-03 0. -1.
        -11    1    3    3    0    0 -0.24122660792E+02  0.27220283496E+02  0.48440596724E+01  0.36692117841E+02  0.51100000000E-03 0.  1.
         12    1    3    3    0    0  0.29272598484E+02 -0.29070035468E+02 -0.12642895799E+02  0.43148520233E+02  0.00000000000E+00 0. -1.
</event>
<event>
 7    1  0.4639347E-015  0.9000775E+02  0.7816164E-02  0.1186339E+00
        -11   -1    0    0    0    0  0.00000000000E+00  0.00000000000E+00  0.45593999997E+02  0.45594000000E+02  0.51100000000E-03 0. -1.
         11   -1    0    0    0    0 -0.00000000000E+00 -0.00000000000E+00 -0.45593999997E+02  0.45594000000E+02  0.51100000000E-03 0.  1.
    9900012    2    1    2    0    0  0.11750920338E+01  0.24309667181E-01  0.10753730454E+00  0.90007747264E+02  0.90000008728E+02 0.  0.
         12    1    1    2    0    0 -0.11750920338E+01 -0.24309667181E-01 -0.10753730454E+00  0.11802527355E+01  0.00000000000E+00 0. -1.
         11    1    3    3    0    0 -0.11448484617E+02  0.92206217575E+01  0.18175872956E+02  0.23376270523E+02  0.51100000000E-03 0. -1.
        -11    1    3    3    0    0 -0.28580613072E+00  0.13923979481E+02  0.17451432693E+02  0.22327368699E+02  0.51100000000E-03 0.  1.
        -12    1    3    3    0    0  0.12909382781E+02 -0.23120291572E+02 -0.35519768344E+02  0.44304108042E+02  0.00000000000E+00 0.  1.
</event>
<event>
 7    1  0.4639347E-015  0.9000773E+02  0.7816164E-02  0.1186339E+00
        -11   -1    0    0    0    0  0.00000000000E+00  0.00000000000E+00  0.45593999997E+02  0.45594000000E+02  0.51100000000E-03 0. -1.
         11   -1    0    0    0    0 -0.00000000000E+00 -0.00000000000E+00 -0.45593999997E+02  0.45594000000E+02  0.51100000000E-03 0.  1.
    9900012    2    1    2    0    0  0.23528124946E-01 -0.58676494480E+00 -0.10238114670E+01  0.90007730288E+02  0.89999991528E+02 0.  0.
         12    1    1    2    0    0 -0.23528124946E-01  0.58676494480E+00  0.10238114670E+01  0.11802697120E+01  0.00000000000E+00 0. -1.
         11    1    3    3    0    0 -0.31822891255E+01  0.13374102326E+02 -0.14791057431E+02  0.20193289908E+02  0.51100000000E-03 0. -1.
        -11    1    3    3    0    0 -0.61360181252E+01 -0.28405770629E+02 -0.17646414354E+02  0.33999036211E+02  0.51100000000E-03 0.  1.
         12    1    3    3    0    0  0.93418353757E+01  0.14444903358E+02  0.31413660318E+02  0.35815404169E+02  0.00000000000E+00 0. -1.
</event>
<event>
 7    1  0.4639347E-015  0.9000762E+02  0.7816164E-02  0.1186339E+00
        -11   -1    0    0    0    0  0.00000000000E+00  0.00000000000E+00  0.45593999997E+02  0.45594000000E+02  0.51100000000E-03 0. -1.
         11   -1    0    0    0    0 -0.00000000000E+00 -0.00000000000E+00 -0.45593999997E+02  0.45594000000E+02  0.51100000000E-03 0.  1.
    9900012    2    1    2    0    0 -0.15410727309E-01 -0.97845590573E+00 -0.66006827306E+00  0.90007617191E+02  0.89999876938E+02 0.  0.
         12    1    1    2    0    0  0.15410727309E-01  0.97845590573E+00  0.66006827306E+00  0.11803828087E+01  0.00000000000E+00 0. -1.
         11    1    3    3    0    0  0.41836905115E+01 -0.17538914043E+01 -0.73849017232E+01  0.86669588136E+01  0.51100000000E-03 0. -1.
        -11    1    3    3    0    0 -0.30424533854E+02  0.19048909170E+02 -0.18721539388E+02  0.40484679054E+02  0.51100000000E-03 0.  1.
         12    1    3    3    0    0  0.26225432615E+02 -0.18273473671E+02  0.25446372838E+02  0.40855979324E+02  0.00000000000E+00 0. -1.
</event>
<event>
 7    1  0.4639347E-015  0.9000774E+02  0.7816164E-02  0.1186339E+00
        -11   -1    0    0    0    0  0.00000000000E+00  0.00000000000E+00  0.45593999997E+02  0.45594000000E+02  0.51100000000E-03 0.  1.
         11   -1    0    0    0    0 -0.00000000000E+00 -0.00000000000E+00 -0.45593999997E+02  0.45594000000E+02  0.51100000000E-03 0. -1.
    9900012    2    1    2    0    0 -0.42657042872E+00  0.47252908940E+00  0.99386113222E+00  0.90007743239E+02  0.90000004650E+02 0.  0.
         12    1    1    2    0    0  0.42657042872E+00 -0.47252908940E+00 -0.99386113222E+00  0.11802567607E+01  0.00000000000E+00 0. -1.
         11    1    3    3    0    0  0.22749851021E+00 -0.35274325411E+01 -0.81017558129E+01  0.88392863636E+01  0.51100000000E-03 0. -1.
        -11    1    3    3    0    0 -0.11835410266E+02  0.38577701031E+02 -0.77883539503E+01  0.41097133848E+02  0.51100000000E-03 0.  1.
         12    1    3    3    0    0  0.11181341327E+02 -0.34577739401E+02  0.16883970895E+02  0.40071323027E+02  0.00000000000E+00 0. -1.
</event>
<event>
 7    1  0.4780946E-015  0.9000773E+02  0.7816164E-02  0.1186339E+00
        -11   -1    0    0    0    0  0.00000000000E+00  0.00000000000E+00  0.45593999997E+02  0.45594000000E+02  0.51100000000E-03 0. -1.
         11   -1    0    0    0    0 -0.00000000000E+00 -0.00000000000E+00 -0.45593999997E+02  0.45594000000E+02  0.51100000000E-03 0.  1.
    9900012    2    1    2    0    0 -0.28749946656E+00 -0.11438420840E+01 -0.44750594528E-01  0.90007731695E+02  0.89999992953E+02 0.  0.
         12    1    1    2    0    0  0.28749946656E+00  0.11438420840E+01  0.44750594528E-01  0.11802683051E+01  0.00000000000E+00 0. -1.
         11    1    3    3    0    0  0.32454754143E+01  0.67180512874E+01  0.58088730927E+01  0.94555978464E+01  0.51100000000E-03 0. -1.
        -11    1    3    3    0    0  0.27809280732E+02 -0.26823309827E+02  0.11081853579E+02  0.40195192796E+02  0.51100000000E-03 0.  1.
         12    1    3    3    0    0 -0.31342255613E+02  0.18961416455E+02 -0.16935477266E+02  0.40356941053E+02  0.00000000000E+00 0. -1.
</event>
<event>
 7    1  0.4639347E-015  0.9000776E+02  0.7816164E-02  0.1186339E+00
        -11   -1    0    0    0    0  0.00000000000E+00  0.00000000000E+00  0.45593999997E+02  0.45594000000E+02  0.51100000000E-03 0. -1.
         11   -1    0    0    0    0 -0.00000000000E+00 -0.00000000000E+00 -0.45593999997E+02  0.45594000000E+02  0.51100000000E-03 0.  1.
    9900012    2    1    2    0    0  0.99523317062E+00  0.50907617453E+00  0.37857781944E+00  0.90007759016E+02  0.90000020635E+02 0.  0.
         12    1    1    2    0    0 -0.99523317062E+00 -0.50907617453E+00 -0.37857781944E+00  0.11802409842E+01  0.00000000000E+00 0. -1.
         11    1    3    3    0    0 -0.23481701635E+02  0.46627583356E+01  0.27710031808E+02  0.36619359498E+02  0.51100000000E-03 0. -1.
        -11    1    3    3    0    0  0.61172439292E+01 -0.11412396529E+01  0.99423630537E+01  0.11729180900E+02  0.51100000000E-03 0.  1.
        -12    1    3    3    0    0  0.18359690877E+02 -0.30124425082E+01 -0.37273817042E+02  0.41659218618E+02  0.00000000000E+00 0.  1.
</event>
<event>
 7    1  0.4639347E-015  0.9000771E+02  0.7816164E-02  0.1186339E+00
        -11   -1    0    0    0    0  0.00000000000E+00  0.00000000000E+00  0.45593999997E+02  0.45594000000E+02  0.51100000000E-03 0.  1.
         11   -1    0    0    0    0 -0.00000000000E+00 -0.00000000000E+00 -0.45593999997E+02  0.45594000000E+02  0.51100000000E-03 0. -1.
    9900012    2    1    2    0    0  0.87349076274E+00 -0.72538385854E+00 -0.32235438484E+00  0.90007711813E+02  0.89999972809E+02 0.  0.
         12    1    1    2    0    0 -0.87349076274E+00  0.72538385854E+00  0.32235438484E+00  0.11802881869E+01  0.00000000000E+00 0. -1.
         11    1    3    3    0    0  0.31193859392E+02 -0.16626806292E+01  0.24014286739E+02  0.39401869734E+02  0.51100000000E-03 0. -1.
        -11    1    3    3    0    0  0.67467652742E+01  0.26260296397E+01 -0.46027777426E+01  0.85790696782E+01  0.51100000000E-03 0.  1.
        -12    1    3    3    0    0 -0.37067133903E+02 -0.16887328690E+01 -0.19733863382E+02  0.42026772401E+02  0.00000000000E+00 0.  1.
</event>
<event>
 7    1  0.4639347E-015  0.9000750E+02  0.7816164E-02  0.1186340E+00
        -11   -1    0    0    0    0  0.00000000000E+00  0.00000000000E+00  0.45593999997E+02  0.45594000000E+02  0.51100000000E-03 0.  1.
         11   -1    0    0    0    0 -0.00000000000E+00 -0.00000000000E+00 -0.45593999997E+02  0.45594000000E+02  0.51100000000E-03 0. -1.
    9900012    2    1    2    0    0 -0.50152537789E+00 -0.82640618414E+00  0.67757195837E+00  0.90007500680E+02  0.89999758889E+02 0.  0.
         12    1    1    2    0    0  0.50152537789E+00  0.82640618414E+00 -0.67757195837E+00  0.11804993200E+01  0.00000000000E+00 0. -1.
         11    1    3    3    0    0 -0.34077142057E+01  0.68067813600E+01 -0.52752479745E+01  0.92613730107E+01  0.51100000000E-03 0. -1.
        -11    1    3    3    0    0  0.27261872314E+02  0.19273455894E+02  0.23107405821E+02  0.40603300213E+02  0.51100000000E-03 0.  1.
         12    1    3    3    0    0 -0.24355683486E+02 -0.26906643438E+02 -0.17154585888E+02  0.40142827456E+02  0.00000000000E+00 0. -1.
</event>
<event>
 7    1  0.4639347E-015  0.9000776E+02  0.7816164E-02  0.1186339E+00
        -11   -1    0    0    0    0  0.00000000000E+00  0.00000000000E+00  0.45593999997E+02  0.45594000000E+02  0.51100000000E-03 0. -1.
         11   -1    0    0    0    0 -0.00000000000E+00 -0.00000000000E+00 -0.45593999997E+02  0.45594000000E+02  0.51100000000E-03 0.  1.
    9900012    2    1    2    0    0  0.45854445164E+00 -0.87295062539E+00 -0.64858122959E+00  0.90007761287E+02  0.90000022936E+02 0.  0.
         12    1    1    2    0    0 -0.45854445164E+00  0.87295062539E+00  0.64858122959E+00  0.11802387131E+01  0.00000000000E+00 0. -1.
         11    1    3    3    0    0 -0.19543873478E+01 -0.71127081902E+01  0.73418106072E+01  0.10407325831E+02  0.51100000000E-03 0. -1.
        -11    1    3    3    0    0 -0.32990555746E+02 -0.17279303860E+01  0.15376603658E+02  0.36439023754E+02  0.51100000000E-03 0.  1.
         12    1    3    3    0    0  0.35403487545E+02  0.79676879508E+01 -0.23366995495E+02  0.43161411702E+02  0.00000000000E+00 0. -1.
</event>
<event>
 7    1  0.4639347E-015  0.9000790E+02  0.7816164E-02  0.1186339E+00
        -11   -1    0    0    0    0  0.00000000000E+00  0.00000000000E+00  0.45593999997E+02  0.45594000000E+02  0.51100000000E-03 0.  1.
         11   -1    0    0    0    0 -0.00000000000E+00 -0.00000000000E+00 -0.45593999997E+02  0.45594000000E+02  0.51100000000E-03 0. -1.
    9900012    2    1    2    0    0 -0.83395852252E+00 -0.38327380074E+00  0.74179270751E+00  0.90007897443E+02  0.90000160889E+02 0.  0.
         12    1    1    2    0    0  0.83395852252E+00  0.38327380074E+00 -0.74179270751E+00  0.11801025568E+01  0.00000000000E+00 0. -1.
         11    1    3    3    0    0  0.95664027890E+01  0.14812859450E+02 -0.20915470992E+02  0.27356786991E+02  0.51100000000E-03 0. -1.
        -11    1    3    3    0    0 -0.92832078053E+01  0.87818356239E+00 -0.17764722940E+02  0.20063263317E+02  0.51100000000E-03 0.  1.
        -12    1    3    3    0    0 -0.11171535061E+01 -0.16074316813E+02  0.39421986640E+02  0.42587847135E+02  0.00000000000E+00 0.  1.
</event>
<event>
 7    1  0.4639347E-015  0.9000775E+02  0.7816164E-02  0.1186339E+00
        -11   -1    0    0    0    0  0.00000000000E+00  0.00000000000E+00  0.45593999997E+02  0.45594000000E+02  0.51100000000E-03 0.  1.
         11   -1    0    0    0    0 -0.00000000000E+00 -0.00000000000E+00 -0.45593999997E+02  0.45594000000E+02  0.51100000000E-03 0. -1.
    9900012    2    1    2    0    0  0.10397959501E+01  0.55515726688E+00 -0.60146687667E-01  0.90007748826E+02  0.90000010311E+02 0.  0.
         12    1    1    2    0    0 -0.10397959501E+01 -0.55515726688E+00  0.60146687667E-01  0.11802511736E+01  0.00000000000E+00 0. -1.
         11    1    3    3    0    0 -0.22692338818E+02 -0.84997110398E+01 -0.30628161826E+02  0.39054726038E+02  0.51100000000E-03 0. -1.
        -11    1    3    3    0    0  0.68386100321E+01 -0.72480186487E+01 -0.26171689750E+01  0.10302909065E+02  0.51100000000E-03 0.  1.
        -12    1    3    3    0    0  0.16893524736E+02  0.16302886955E+02  0.33185184114E+02  0.40650113723E+02  0.00000000000E+00 0.  1.
</event>
<event>
 7    1  0.4639347E-015  0.9000774E+02  0.7816164E-02  0.1186339E+00
        -11   -1    0    0    0    0  0.00000000000E+00  0.00000000000E+00  0.45593999997E+02  0.45594000000E+02  0.51100000000E-03 0.  1.
         11   -1    0    0    0    0 -0.00000000000E+00 -0.00000000000E+00 -0.45593999997E+02  0.45594000000E+02  0.51100000000E-03 0. -1.
    9900012    2    1    2    0    0  0.10858056373E+01  0.40785157665E+00  0.21839244719E+00  0.90007740685E+02  0.90000002062E+02 0.  0.
         12    1    1    2    0    0 -0.10858056373E+01 -0.40785157665E+00 -0.21839244719E+00  0.11802593154E+01  0.00000000000E+00 0. -1.
         11    1    3    3    0    0 -0.12120738146E+02  0.67739662819E+01 -0.11382123941E+02  0.17954154340E+02  0.51100000000E-03 0. -1.
        -11    1    3    3    0    0  0.73101064664E+01  0.13915129375E+02 -0.25154793440E+02  0.29661964118E+02  0.51100000000E-03 0.  1.
         12    1    3    3    0    0  0.58964373166E+01 -0.20281244081E+02  0.36755309828E+02  0.42391622227E+02  0.00000000000E+00 0. -1.
</event>
<event>
 7    1  0.4639347E-015  0.9000785E+02  0.7816164E-02  0.1186339E+00
        -11   -1    0    0    0    0  0.00000000000E+00  0.00000000000E+00  0.45593999997E+02  0.45594000000E+02  0.51100000000E-03 0. -1.
         11   -1    0    0    0    0 -0.00000000000E+00 -0.00000000000E+00 -0.45593999997E+02  0.45594000000E+02  0.51100000000E-03 0.  1.
    9900012    2    1    2    0    0  0.29245942641E-01 -0.11024548747E+01 -0.42011550560E+00  0.90007847843E+02  0.90000110634E+02 0.  0.
         12    1    1    2    0    0 -0.29245942641E-01  0.11024548747E+01  0.42011550560E+00  0.11801521571E+01  0.00000000000E+00 0. -1.
         11    1    3    3    0    0  0.31572599785E+02 -0.22080772944E+02  0.27774735964E+01  0.38627761401E+02  0.51100000000E-03 0. -1.
        -11    1    3    3    0    0  0.71249712137E+00  0.76723011575E+01 -0.13021926448E+02  0.15130843528E+02  0.51100000000E-03 0.  1.
        -12    1    3    3    0    0 -0.32255850964E+02  0.13306016912E+02  0.98243373462E+01  0.36249242913E+02  0.00000000000E+00 0.  1.
</event>
<event>
 7    1  0.4639347E-015  0.9000765E+02  0.7816164E-02  0.1186339E+00
        -11   -1    0    0    0    0  0.00000000000E+00  0.00000000000E+00  0.45593999997E+02  0.45594000000E+02  0.51100000000E-03 0.  1.
         11   -1    0    0    0    0 -0.00000000000E+00 -0.00000000000E+00 -0.45593999997E+02  0.45594000000E+02  0.51100000000E-03 0. -1.
    9900012    2    1    2    0    0  0.45732338765E+00  0.10389313902E+01 -0.32358542534E+00  0.90007648086E+02  0.89999908240E+02 0.  0.
         12    1    1    2    0    0 -0.45732338765E+00 -0.10389313902E+01  0.32358542534E+00  0.11803519144E+01  0.00000000000E+00 0. -1.
         11    1    3    3    0    0 -0.38574886834E+00  0.97261935265E+01  0.54277477506E+00  0.97489613510E+01  0.51100000000E-03 0. -1.
        -11    1    3    3    0    0 -0.37630791269E+02 -0.13645025732E+01  0.11185569021E+02  0.39281742240E+02  0.51100000000E-03 0.  1.
         12    1    3    3    0    0  0.38473863525E+02 -0.73227595631E+01 -0.12051929221E+02  0.40976944495E+02  0.00000000000E+00 0. -1.
</event>
<event>
 7    1  0.4639347E-015  0.9000771E+02  0.7816164E-02  0.1186339E+00
        -11   -1    0    0    0    0  0.00000000000E+00  0.00000000000E+00  0.45593999997E+02  0.45594000000E+02  0.51100000000E-03 0.  1.
         11   -1    0    0    0    0 -0.00000000000E+00 -0.00000000000E+00 -0.45593999997E+02  0.45594000000E+02  0.51100000000E-03 0. -1.
    9900012    2    1    2    0    0  0.91720546266E+00  0.72384235826E+00  0.16697299511E+00  0.90007706138E+02  0.89999967059E+02 0.  0.
         12    1    1    2    0    0 -0.91720546266E+00 -0.72384235826E+00 -0.16697299511E+00  0.11802938623E+01  0.00000000000E+00 0. -1.
         11    1    3    3    0    0  0.82590028856E+01  0.27327523866E+02  0.11037409052E+01  0.28569615565E+02  0.51100000000E-03 0. -1.
        -11    1    3    3    0    0  0.26308146241E+01  0.73063413744E+01  0.19233395779E+02  0.20741921881E+02  0.51100000000E-03 0.  1.
         12    1    3    3    0    0 -0.99726120471E+01 -0.33910022882E+02 -0.20170163689E+02  0.40696168691E+02  0.00000000000E+00 0. -1.
</event>
<event>
 7    1  0.4639347E-015  0.9000777E+02  0.7816164E-02  0.1186339E+00
        -11   -1    0    0    0    0  0.00000000000E+00  0.00000000000E+00  0.45593999997E+02  0.45594000000E+02  0.51100000000E-03 0.  1.
         11   -1    0    0    0    0 -0.00000000000E+00 -0.00000000000E+00 -0.45593999997E+02  0.45594000000E+02  0.51100000000E-03 0. -1.
    9900012    2    1    2    0    0  0.91500127074E+00  0.73319582313E+00  0.13465798068E+00  0.90007772813E+02  0.90000034614E+02 0.  0.
         12    1    1    2    0    0 -0.91500127074E+00 -0.73319582313E+00 -0.13465798068E+00  0.11802271867E+01  0.00000000000E+00 0. -1.
         11    1    3    3    0    0  0.10604213509E+01  0.11271123552E+02  0.25393248111E+02  0.27802513726E+02  0.51100000000E-03 0. -1.
        -11    1    3    3    0    0  0.23839449813E+02 -0.59653969491E+00  0.27604504365E+01  0.24006151584E+02  0.51100000000E-03 0.  1.
         12    1    3    3    0    0 -0.23984869893E+02 -0.99413880337E+01 -0.28019040567E+02  0.38199107504E+02  0.00000000000E+00 0. -1.
</event>
<event>
 7    1  0.4639347E-015  0.9000778E+02  0.7816164E-02  0.1186339E+00
        -11   -1    0    0    0    0  0.00000000000E+00  0.00000000000E+00  0.45593999997E+02  0.45594000000E+02  0.51100000000E-03 0.  1.
         11   -1    0    0    0    0 -0.00000000000E+00 -0.00000000000E+00 -0.45593999997E+02  0.45594000000E+02  0.51100000000E-03 0. -1.
    9900012    2    1    2    0    0 -0.62059700311E+00 -0.39888327078E+00  0.92123569221E+00  0.90007778112E+02  0.90000039983E+02 0.  0.
         12    1    1    2    0    0  0.62059700311E+00  0.39888327078E+00 -0.92123569221E+00  0.11802218879E+01  0.00000000000E+00 0. -1.
         11    1    3    3    0    0  0.24296993465E+02 -0.26627750171E+02  0.23739868296E+02  0.43162047189E+02  0.51100000000E-03 0. -1.
        -11    1    3    3    0    0 -0.11314755047E+02  0.30306074863E+01 -0.21482005071E+00  0.11715562787E+02  0.51100000000E-03 0.  1.
        -12    1    3    3    0    0 -0.13602835421E+02  0.23198259414E+02 -0.22603812553E+02  0.35130168136E+02  0.00000000000E+00 0.  1.
</event>
<event>
 7    1  0.4639347E-015  0.9000764E+02  0.7816164E-02  0.1186339E+00
        -11   -1    0    0    0    0  0.00000000000E+00  0.00000000000E+00  0.45593999997E+02  0.45594000000E+02  0.51100000000E-03 0.  1.
         11   -1    0    0    0    0 -0.00000000000E+00 -0.00000000000E+00 -0.45593999997E+02  0.45594000000E+02  0.51100000000E-03 0. -1.
    9900012    2    1    2    0    0  0.91374464361E-01 -0.75601158847E+00  0.90185505139E+00  0.90007641856E+02  0.89999901928E+02 0.  0.
         12    1    1    2    0    0 -0.91374464361E-01  0.75601158847E+00 -0.90185505139E+00  0.11803581441E+01  0.00000000000E+00 0. -1.
         11    1    3    3    0    0  0.23065675582E+02  0.29749424813E+02 -0.86807915880E+01  0.38631720252E+02  0.51100000000E-03 0. -1.
        -11    1    3    3    0    0 -0.27296065776E+01  0.43761656824E+00 -0.94089712068E+01  0.98066813836E+01  0.51100000000E-03 0.  1.
        -12    1    3    3    0    0 -0.20244694540E+02 -0.30943052970E+02  0.18991617846E+02  0.41569240221E+02  0.00000000000E+00 0.  1.
</event>
<event>
 7    1  0.4639347E-015  0.9000773E+02  0.7816164E-02  0.1186339E+00
        -11   -1    0    0    0    0  0.00000000000E+00  0.00000000000E+00  0.45593999997E+02  0.45594000000E+02  0.51100000000E-03 0.  1.
         11   -1    0    0    0    0 -0.00000000000E+00 -0.00000000000E+00 -0.45593999997E+02  0.45594000000E+02  0.51100000000E-03 0. -1.
    9900012    2    1    2    0    0 -0.73248626766E+00 -0.76083302427E+00 -0.52690949384E+00  0.90007730269E+02  0.89999991509E+02 0.  0.
         12    1    1    2    0    0  0.73248626766E+00  0.76083302427E+00  0.52690949384E+00  0.11802697310E+01  0.00000000000E+00 0. -1.
         11    1    3    3    0    0  0.50396399564E+01 -0.89337128285E+01 -0.67513201934E+01  0.12279638448E+02  0.51100000000E-03 0. -1.
        -11    1    3    3    0    0  0.21047421722E+02 -0.21690318840E+02  0.18886990454E+02  0.35639617018E+02  0.51100000000E-03 0.  1.
         12    1    3    3    0    0 -0.26819547946E+02  0.29863198644E+02 -0.12662579754E+02  0.42088474804E+02  0.00000000000E+00 0. -1.
</event>
<event>
 7    1  0.4639347E-015  0.9000776E+02  0.7816164E-02  0.1186339E+00
        -11   -1    0    0    0    0  0.00000000000E+00  0.00000000000E+00  0.45593999997E+02  0.45594000000E+02  0.51100000000E-03 0.  1.
         11   -1    0    0    0    0 -0.00000000000E+00 -0.00000000000E+00 -0.45593999997E+02  0.45594000000E+02  0.51100000000E-03 0. -1.
    9900012    2    1    2    0    0  0.43418623065E+00  0.95781850379E+00  0.53575113162E+00  0.90007761361E+02  0.90000023011E+02 0.  0.
         12    1    1    2    0    0 -0.43418623065E+00 -0.95781850379E+00 -0.53575113162E+00  0.11802386386E+01  0.00000000000E+00 0. -1.
         11    1    3    3    0    0  0.49349787512E+01 -0.11958390898E+02 -0.38521986460E+02  0.40636197771E+02  0.51100000000E-03 0. -1.
        -11    1    3    3    0    0  0.72862107662E+01 -0.35697335028E+01  0.44170762411E+01  0.92380965243E+01  0.51100000000E-03 0.  1.
        -12    1    3    3    0    0 -0.11787003287E+02  0.16485942905E+02  0.34640661351E+02  0.40133467066E+02  0.00000000000E+00 0.  1.
</event>
<event>
 7    1  0.4639347E-015  0.9000771E+02  0.7816164E-02  0.1186339E+00
        -11   -1    0    0    0    0  0.00000000000E+00  0.00000000000E+00  0.45593999997E+02  0.45594000000E+02  0.51100000000E-03 0.  1.
         11   -1    0    0    0    0 -0.00000000000E+00 -0.00000000000E+00 -0.45593999997E+02  0.45594000000E+02  0.51100000000E-03 0. -1.
    9900012    2    1    2    0    0 -0.24957731798E+00  0.11109180060E+01  0.31089129513E+00  0.90007711454E+02  0.89999972445E+02 0.  0.
         12    1    1    2    0    0  0.24957731798E+00 -0.11109180060E+01 -0.31089129513E+00  0.11802885457E+01  0.00000000000E+00 0. -1.
         11    1    3    3    0    0  0.25617866020E+01 -0.12747654223E+02  0.64456610457E+00  0.13018483187E+02  0.51100000000E-03 0. -1.
        -11    1    3    3    0    0 -0.29291469001E+02  0.16364340361E+02  0.23749829419E+02  0.41107617170E+02  0.51100000000E-03 0.  1.
         12    1    3    3    0    0  0.26480105081E+02 -0.25057681326E+01 -0.24083504228E+02  0.35881611097E+02  0.00000000000E+00 0. -1.
</event>
<event>
 7    1  0.4639347E-015  0.9000767E+02  0.7816164E-02  0.1186339E+00
        -11   -1    0    0    0    0  0.00000000000E+00  0.00000000000E+00  0.45593999997E+02  0.45594000000E+02  0.51100000000E-03 0. -1.
         11   -1    0    0    0    0 -0.00000000000E+00 -0.00000000000E+00 -0.45593999997E+02  0.45594000000E+02  0.51100000000E-03 0.  1.
    9900012    2    1    2    0    0  0.21605843987E+00  0.11587539049E+01 -0.61479189715E-01  0.90007673116E+02  0.89999933601E+02 0.  0.
         12    1    1    2    0    0 -0.21605843987E+00 -0.11587539049E+01  0.61479189715E-01  0.11803268837E+01  0.00000000000E+00 0. -1.
         11    1    3    3    0    0 -0.18464294486E+02 -0.27128279836E+02 -0.71819638682E+01  0.33592474499E+02  0.51100000000E-03 0. -1.
        -11    1    3    3    0    0  0.44120532280E+01  0.95619470239E+00 -0.16797969191E+02  0.17394030332E+02  0.51100000000E-03 0.  1.
        -12    1    3    3    0    0  0.14268299698E+02  0.27330839039E+02  0.23918453869E+02  0.39021168285E+02  0.00000000000E+00 0.  1.
</event>
<event>
 7    1  0.4639347E-015  0.9000780E+02  0.7816164E-02  0.1186339E+00
        -11   -1    0    0    0    0  0.00000000000E+00  0.00000000000E+00  0.45593999997E+02  0.45594000000E+02  0.51100000000E-03 0. -1.
         11   -1    0    0    0    0 -0.00000000000E+00 -0.00000000000E+00 -0.45593999997E+02  0.45594000000E+02  0.51100000000E-03 0.  1.
    9900012    2    1    2    0    0 -0.98129342972E+00 -0.44379207215E+00 -0.48268742272E+00  0.90007798599E+02  0.90000060741E+02 0.  0.
         12    1    1    2    0    0  0.98129342972E+00  0.44379207215E+00  0.48268742272E+00  0.11802014009E+01  0.00000000000E+00 0. -1.
         11    1    3    3    0    0  0.69088792934E+01  0.94515173906E+00  0.57649108377E+01  0.90476583782E+01  0.51100000000E-03 0. -1.
        -11    1    3    3    0    0  0.39416775668E+01 -0.39908885029E+02  0.48184549533E+00  0.40105960924E+02  0.51100000000E-03 0.  1.
         12    1    3    3    0    0 -0.11831850290E+02  0.38519941218E+02 -0.67294437558E+01  0.40854179297E+02  0.00000000000E+00 0. -1.
</event>
<event>
 7    1  0.4639347E-015  0.9000781E+02  0.7816164E-02  0.1186339E+00
        -11   -1    0    0    0    0  0.00000000000E+00  0.00000000000E+00  0.45593999997E+02  0.45594000000E+02  0.51100000000E-03 0.  1.
         11   -1    0    0    0    0 -0.00000000000E+00 -0.00000000000E+00 -0.45593999997E+02  0.45594000000E+02  0.51100000000E-03 0. -1.
    9900012    2    1    2    0    0  0.13059770149E+00  0.98727746033E+00  0.63330840172E+00  0.90007808458E+02  0.90000070730E+02 0.  0.
         12    1    1    2    0    0 -0.13059770149E+00 -0.98727746033E+00 -0.63330840172E+00  0.11801915417E+01  0.00000000000E+00 0. -1.
         11    1    3    3    0    0 -0.58558024993E+00 -0.86981896763E+01 -0.31137673782E+01  0.92572650076E+01  0.51100000000E-03 0. -1.
        -11    1    3    3    0    0  0.36275819078E+02 -0.12768486700E+02  0.42541431782E+01  0.38691950544E+02  0.51100000000E-03 0.  1.
         12    1    3    3    0    0 -0.35559641127E+02  0.22453953837E+02 -0.50706739822E+00  0.42058592907E+02  0.00000000000E+00 0. -1.
</event>
<event>
 7    1  0.4639347E-015  0.9000774E+02  0.7816164E-02  0.1186339E+00
        -11   -1    0    0    0    0  0.00000000000E+00  0.00000000000E+00  0.45593999997E+02  0.45594000000E+02  0.51100000000E-03 0.  1.
         11   -1    0    0    0    0 -0.00000000000E+00 -0.00000000000E+00 -0.45593999997E+02  0.45594000000E+02  0.51100000000E-03 0. -1.
    9900012    2    1    2    0    0  0.88250624963E+00  0.22302819486E+00 -0.75130572494E+00  0.90007737678E+02  0.89999999015E+02 0.  0.
         12    1    1    2    0    0 -0.88250624963E+00 -0.22302819486E+00  0.75130572494E+00  0.11802623220E+01  0.00000000000E+00 0. -1.
         11    1    3    3    0    0  0.28767646669E+02 -0.22921881615E+02  0.18554767136E+02  0.41197931203E+02  0.51100000000E-03 0. -1.
        -11    1    3    3    0    0  0.14857570307E+01  0.51190777590E+01  0.44582984333E+01  0.69490183651E+01  0.51100000000E-03 0.  1.
        -12    1    3    3    0    0 -0.29370897450E+02  0.18025832051E+02 -0.23764371295E+02  0.41860788110E+02  0.00000000000E+00 0.  1.
</event>
<event>
 7    1  0.4639347E-015  0.9000772E+02  0.7816164E-02  0.1186339E+00
        -11   -1    0    0    0    0  0.00000000000E+00  0.00000000000E+00  0.45593999997E+02  0.45594000000E+02  0.51100000000E-03 0.  1.
         11   -1    0    0    0    0 -0.00000000000E+00 -0.00000000000E+00 -0.45593999997E+02  0.45594000000E+02  0.51100000000E-03 0. -1.
    9900012    2    1    2    0    0 -0.26618006569E+00  0.24029173830E+00  0.11244825599E+01  0.90007723348E+02  0.89999984497E+02 0.  0.
         12    1    1    2    0    0  0.26618006569E+00 -0.24029173830E+00 -0.11244825599E+01  0.11802766516E+01  0.00000000000E+00 0. -1.
         11    1    3    3    0    0  0.33555567615E+02  0.33025005969E+01 -0.13709407999E+02  0.36398221057E+02  0.51100000000E-03 0. -1.
        -11    1    3    3    0    0  0.20727465263E+01  0.35264368750E+01 -0.90931943399E+01  0.99708685058E+01  0.51100000000E-03 0.  1.
        -12    1    3    3    0    0 -0.35894494207E+02 -0.65886457336E+01  0.23927084899E+02  0.43638633786E+02  0.00000000000E+00 0.  1.
</event>
<event>
 7    1  0.5225929E-015  0.9000773E+02  0.7816164E-02  0.1186339E+00
        -11   -1    0    0    0    0  0.00000000000E+00  0.00000000000E+00  0.45593999997E+02  0.45594000000E+02  0.51100000000E-03 0. -1.
         11   -1    0    0    0    0 -0.00000000000E+00 -0.00000000000E+00 -0.45593999997E+02  0.45594000000E+02  0.51100000000E-03 0.  1.
    9900012    2    1    2    0    0  0.17703476400E+00  0.10759290753E+01 -0.45174809170E+00  0.90007728412E+02  0.89999989627E+02 0.  0.
         12    1    1    2    0    0 -0.17703476400E+00 -0.10759290753E+01  0.45174809170E+00  0.11802715879E+01  0.00000000000E+00 0. -1.
         11    1    3    3    0    0 -0.24730007581E+01 -0.91788344189E+01  0.29416374022E+00  0.95106922254E+01  0.51100000000E-03 0. -1.
        -11    1    3    3    0    0 -0.37165501452E+02  0.99929942369E+01 -0.96938347416E+01  0.39687590809E+02  0.51100000000E-03 0.  1.
         12    1    3    3    0    0  0.39815536974E+02  0.26176925730E+00  0.89479229097E+01  0.40809445378E+02  0.00000000000E+00 0. -1.
</event>
<event>
 7    1  0.4639347E-015  0.9000772E+02  0.7816164E-02  0.1186339E+00
        -11   -1    0    0    0    0  0.00000000000E+00  0.00000000000E+00  0.45593999997E+02  0.45594000000E+02  0.51100000000E-03 0. -1.
         11   -1    0    0    0    0 -0.00000000000E+00 -0.00000000000E+00 -0.45593999997E+02  0.45594000000E+02  0.51100000000E-03 0.  1.
    9900012    2    1    2    0    0  0.15537561552E+00 -0.41665137413E+00 -0.10933108725E+01  0.90007716723E+02  0.89999977784E+02 0.  0.
         12    1    1    2    0    0 -0.15537561552E+00  0.41665137413E+00  0.10933108725E+01  0.11802832768E+01  0.00000000000E+00 0. -1.
         11    1    3    3    0    0  0.31658483642E+02  0.91424442835E+01  0.14100271228E+02  0.35842175198E+02  0.51100000000E-03 0. -1.
        -11    1    3    3    0    0  0.40703951809E+01 -0.41801370169E+01  0.90599696558E+01  0.10776117707E+02  0.51100000000E-03 0.  1.
        -12    1    3    3    0    0 -0.35573503207E+02 -0.53789586407E+01 -0.24253551756E+02  0.43389423818E+02  0.00000000000E+00 0.  1.
</event>
<event>
 7    1  0.4639347E-015  0.9000774E+02  0.7816164E-02  0.1186339E+00
        -11   -1    0    0    0    0  0.00000000000E+00  0.00000000000E+00  0.45593999997E+02  0.45594000000E+02  0.51100000000E-03 0. -1.
         11   -1    0    0    0    0 -0.00000000000E+00 -0.00000000000E+00 -0.45593999997E+02  0.45594000000E+02  0.51100000000E-03 0.  1.
    9900012    2    1    2    0    0 -0.62695040036E+00  0.43890308100E+00  0.89850076818E+00  0.90007743100E+02  0.90000004509E+02 0.  0.
         12    1    1    2    0    0  0.62695040036E+00 -0.43890308100E+00 -0.89850076818E+00  0.11802568998E+01  0.00000000000E+00 0. -1.
         11    1    3    3    0    0 -0.11903171636E+02 -0.87612873899E+00 -0.49009587441E+01  0.12902421998E+02  0.51100000000E-03 0. -1.
        -11    1    3    3    0    0  0.11885992102E+02 -0.36840741438E+02  0.21444097621E+01  0.38770033936E+02  0.51100000000E-03 0.  1.
         12    1    3    3    0    0 -0.60977086682E+00  0.38155773258E+02  0.36550497502E+01  0.38335287166E+02  0.00000000000E+00 0. -1.
</event>
<event>
 7    1  0.4639347E-015  0.9000780E+02  0.7816164E-02  0.1186339E+00
        -11   -1    0    0    0    0  0.00000000000E+00  0.00000000000E+00  0.45593999997E+02  0.45594000000E+02  0.51100000000E-03 0.  1.
         11   -1    0    0    0    0 -0.00000000000E+00 -0.00000000000E+00 -0.45593999997E+02  0.45594000000E+02  0.51100000000E-03 0. -1.
    9900012    2    1    2    0    0  0.96616434868E+00 -0.32357098783E+00 -0.59557376298E+00  0.90007796695E+02  0.90000058812E+02 0.  0.
         12    1    1    2    0    0 -0.96616434868E+00  0.32357098783E+00  0.59557376298E+00  0.11802033045E+01  0.00000000000E+00 0. -1.
         11    1    3    3    0    0 -0.53549405876E+01 -0.76665286647E+01 -0.38955454443E+02  0.40062182686E+02  0.51100000000E-03 0. -1.
        -11    1    3    3    0    0 -0.72656866960E+01  0.66343950287E+01  0.65449799059E+00  0.98607184546E+01  0.51100000000E-03 0.  1.
        -12    1    3    3    0    0  0.13586791632E+02  0.70856264819E+00  0.37705382689E+02  0.40084895555E+02  0.00000000000E+00 0.  1.
</event>
<event>
 7    1  0.4639347E-015  0.9000775E+02  0.7816164E-02  0.1186339E+00
        -11   -1    0    0    0    0  0.00000000000E+00  0.00000000000E+00  0.45593999997E+02  0.45594000000E+02  0.51100000000E-03 0. -1.
         11   -1    0    0    0    0 -0.00000000000E+00 -0.00000000000E+00 -0.45593999997E+02  0.45594000000E+02  0.51100000000E-03 0.  1.
    9900012    2    1    2    0    0  0.40096656853E+00 -0.84275000525E+00 -0.72249516463E+00  0.90007745357E+02  0.90000006795E+02 0.  0.
         12    1    1    2    0    0 -0.40096656853E+00  0.84275000525E+00  0.72249516463E+00  0.11802546434E+01  0.00000000000E+00 0. -1.
         11    1    3    3    0    0  0.21019607380E+01  0.25807814617E+02  0.26484655173E+02  0.37039148130E+02  0.51100000000E-03 0. -1.
        -11    1    3    3    0    0 -0.65810927115E+01 -0.43084396268E+01  0.78493191073E+01  0.11112391462E+02  0.51100000000E-03 0.  1.
        -12    1    3    3    0    0  0.48800985420E+01 -0.22342124996E+02 -0.35056469445E+02  0.41856205765E+02  0.00000000000E+00 0.  1.
</event>
<event>
 7    1  0.4639347E-015  0.9000772E+02  0.7816164E-02  0.1186339E+00
        -11   -1    0    0    0    0  0.00000000000E+00  0.00000000000E+00  0.45593999997E+02  0.45594000000E+02  0.51100000000E-03 0.  1.
         11   -1    0    0    0    0 -0.00000000000E+00 -0.00000000000E+00 -0.45593999997E+02  0.45594000000E+02  0.51100000000E-03 0. -1.
    9900012    2    1    2    0    0  0.50931109883E+00 -0.81404556543E-01  0.10616214932E+01  0.90007718384E+02  0.89999979467E+02 0.  0.
         12    1    1    2    0    0 -0.50931109883E+00  0.81404556543E-01 -0.10616214932E+01  0.11802816155E+01  0.00000000000E+00 0. -1.
         11    1    3    3    0    0 -0.69539901976E+01  0.80318506920E+01 -0.12403924940E+01  0.10696129160E+02  0.51100000000E-03 0. -1.
        -11    1    3    3    0    0 -0.34743838765E+02 -0.11633839704E+02  0.44166753352E+01  0.36905115901E+02  0.51100000000E-03 0.  1.
         12    1    3    3    0    0  0.42207140062E+02  0.35205844552E+01 -0.21146613480E+01  0.42406473323E+02  0.00000000000E+00 0. -1.
</event>
<event>
 7    1  0.4639347E-015  0.9000780E+02  0.7816164E-02  0.1186339E+00
        -11   -1    0    0    0    0  0.00000000000E+00  0.00000000000E+00  0.45593999997E+02  0.45594000000E+02  0.51100000000E-03 0. -1.
         11   -1    0    0    0    0 -0.00000000000E+00 -0.00000000000E+00 -0.45593999997E+02  0.45594000000E+02  0.51100000000E-03 0.  1.
    9900012    2    1    2    0    0  0.11089100068E+01 -0.38515853189E+00  0.12186051923E+00  0.90007797270E+02  0.90000059394E+02 0.  0.
         12    1    1    2    0    0 -0.11089100068E+01  0.38515853189E+00 -0.12186051923E+00  0.11802027300E+01  0.00000000000E+00 0. -1.
         11    1    3    3    0    0 -0.65159321069E+01  0.34607434323E+01 -0.59844241300E+01  0.94998657230E+01  0.51100000000E-03 0. -1.
        -11    1    3    3    0    0 -0.56683313953E+01  0.15026076440E+02 -0.32086509021E+02  0.35881151255E+02  0.51100000000E-03 0.  1.
         12    1    3    3    0    0  0.13293173509E+02 -0.18871978404E+02  0.38192793670E+02  0.44626780291E+02  0.00000000000E+00 0. -1.
</event>
<event>
 7    1  0.4639347E-015  0.9000773E+02  0.7816164E-02  0.1186339E+00
        -11   -1    0    0    0    0  0.00000000000E+00  0.00000000000E+00  0.45593999997E+02  0.45594000000E+02  0.51100000000E-03 0.  1.
         11   -1    0    0    0    0 -0.00000000000E+00 -0.00000000000E+00 -0.45593999997E+02  0.45594000000E+02  0.51100000000E-03 0. -1.
    9900012    2    1    2    0    0  0.54071751475E+00 -0.44456636202E+00  0.95028097307E+00  0.90007725198E+02  0.89999986370E+02 0.  0.
         12    1    1    2    0    0 -0.54071751475E+00  0.44456636202E+00 -0.95028097307E+00  0.11802748022E+01  0.00000000000E+00 0. -1.
         11    1    3    3    0    0 -0.80301844699E+01  0.57277107277E+01  0.69520921394E+00  0.98880659845E+01  0.51100000000E-03 0. -1.
        -11    1    3    3    0    0 -0.33655297847E+02  0.90569101092E+01 -0.37449314509E+01  0.35053262412E+02  0.51100000000E-03 0.  1.
         12    1    3    3    0    0  0.42226199832E+02 -0.15229187199E+02  0.40000032101E+01  0.45066396801E+02  0.00000000000E+00 0. -1.
</event>
<event>
 7    1  0.4639347E-015  0.9000743E+02  0.7816164E-02  0.1186340E+00
        -11   -1    0    0    0    0  0.00000000000E+00  0.00000000000E+00  0.45593999997E+02  0.45594000000E+02  0.51100000000E-03 0.  1.
         11   -1    0    0    0    0 -0.00000000000E+00 -0.00000000000E+00 -0.45593999997E+02  0.45594000000E+02  0.51100000000E-03 0. -1.
    9900012    2    1    2    0    0  0.69715715498E+00 -0.25222288452E+00  0.91874891468E+00  0.90007430624E+02  0.89999687908E+02 0.  0.
         12    1    1    2    0    0 -0.69715715498E+00  0.25222288452E+00 -0.91874891468E+00  0.11805693755E+01  0.00000000000E+00 0. -1.
         11    1    3    3    0    0 -0.25472662926E+01 -0.86037460007E+01 -0.33509917138E+01  0.95782125962E+01  0.51100000000E-03 0. -1.
        -11    1    3    3    0    0 -0.17398190448E+02 -0.30880043508E+02  0.65309422203E+01  0.36040634351E+02  0.51100000000E-03 0.  1.
         12    1    3    3    0    0  0.20642613895E+02  0.39231566624E+02 -0.22612015918E+01  0.44388583677E+02  0.00000000000E+00 0. -1.
</event>
<event>
 7    1  0.4639347E-015  0.9000772E+02  0.7816164E-02  0.1186339E+00
        -11   -1    0    0    0    0  0.00000000000E+00  0.00000000000E+00  0.45593999997E+02  0.45594000000E+02  0.51100000000E-03 0. -1.
         11   -1    0    0    0    0 -0.00000000000E+00 -0.00000000000E+00 -0.45593999997E+02  0.45594000000E+02  0.51100000000E-03 0.  1.
    9900012    2    1    2    0    0  0.97519681426E+00 -0.56518311783E+00  0.35016137721E+00  0.90007723010E+02  0.89999984154E+02 0.  0.
         12    1    1    2    0    0 -0.97519681426E+00  0.56518311783E+00 -0.35016137721E+00  0.11802769901E+01  0.00000000000E+00 0. -1.
         11    1    3    3    0    0  0.13568093591E+02  0.12564800726E+02  0.31718141798E+02  0.36715227091E+02  0.51100000000E-03 0. -1.
        -11    1    3    3    0    0 -0.15602015387E+00  0.70853794988E+01  0.58235407809E+01  0.91728170383E+01  0.51100000000E-03 0.  1.
        -12    1    3    3    0    0 -0.12436876623E+02 -0.20215363343E+02 -0.37191521202E+02  0.44119678880E+02  0.00000000000E+00 0.  1.
</event>
<event>
 7    1  0.4639347E-015  0.9000765E+02  0.7816164E-02  0.1186339E+00
        -11   -1    0    0    0    0  0.00000000000E+00  0.00000000000E+00  0.45593999997E+02  0.45594000000E+02  0.51100000000E-03 0.  1.
         11   -1    0    0    0    0 -0.00000000000E+00 -0.00000000000E+00 -0.45593999997E+02  0.45594000000E+02  0.51100000000E-03 0. -1.
    9900012    2    1    2    0    0 -0.40113260436E+00 -0.49061701025E+00  0.99579451868E+00  0.90007652958E+02  0.89999913177E+02 0.  0.
         12    1    1    2    0    0  0.40113260436E+00  0.49061701025E+00 -0.99579451868E+00  0.11803470424E+01  0.00000000000E+00 0. -1.
         11    1    3    3    0    0  0.19207731297E+01 -0.10939542073E+02 -0.27726527152E+01  0.11447731370E+02  0.51100000000E-03 0. -1.
        -11    1    3    3    0    0 -0.37619709745E+02 -0.72000888861E+01 -0.33880763428E+01  0.38452085806E+02  0.51100000000E-03 0.  1.
         12    1    3    3    0    0  0.35297804011E+02  0.17649013948E+02  0.71565235767E+01  0.40107835782E+02  0.00000000000E+00 0. -1.
</event>
<event>
 7    1  0.4639347E-015  0.9000776E+02  0.7816164E-02  0.1186339E+00
        -11   -1    0    0    0    0  0.00000000000E+00  0.00000000000E+00  0.45593999997E+02  0.45594000000E+02  0.51100000000E-03 0.  1.
         11   -1    0    0    0    0 -0.00000000000E+00 -0.00000000000E+00 -0.45593999997E+02  0.45594000000E+02  0.51100000000E-03 0. -1.
    9900012    2    1    2    0    0 -0.10215928944E+01 -0.11869639549E+00  0.57898949753E+00  0.90007758620E+02  0.90000020234E+02 0.  0.
         12    1    1    2    0    0  0.10215928944E+01  0.11869639549E+00 -0.57898949753E+00  0.11802413797E+01  0.00000000000E+00 0. -1.
         11    1    3    3    0    0 -0.24680602040E+02 -0.27649479083E+02 -0.83343727829E+01  0.37987992584E+02  0.51100000000E-03 0. -1.
        -11    1    3    3    0    0  0.48393732351E+01 -0.70713237721E+01 -0.53799959990E+01  0.10117683055E+02  0.51100000000E-03 0.  1.
        -12    1    3    3    0    0  0.18819635910E+02  0.34602106460E+02  0.14293358279E+02  0.41902082981E+02  0.00000000000E+00 0.  1.
</event>
<event>
 7    1  0.4639347E-015  0.9000775E+02  0.7816164E-02  0.1186339E+00
        -11   -1    0    0    0    0  0.00000000000E+00  0.00000000000E+00  0.45593999997E+02  0.45594000000E+02  0.51100000000E-03 0.  1.
         11   -1    0    0    0    0 -0.00000000000E+00 -0.00000000000E+00 -0.45593999997E+02  0.45594000000E+02  0.51100000000E-03 0. -1.
    9900012    2    1    2    0    0  0.11352687945E+01 -0.20665093585E+00 -0.24787265346E+00  0.90007753967E+02  0.90000015520E+02 0.  0.
         12    1    1    2    0    0 -0.11352687945E+01  0.20665093585E+00  0.24787265346E+00  0.11802460325E+01  0.00000000000E+00 0. -1.
         11    1    3    3    0    0  0.41531352243E+01 -0.79129561141E+01 -0.20990671503E+01  0.91798414919E+01  0.51100000000E-03 0. -1.
        -11    1    3    3    0    0  0.12302417597E+02  0.26591547022E+02  0.31141738164E+02  0.42758247249E+02  0.51100000000E-03 0.  1.
         12    1    3    3    0    0 -0.15320284026E+02 -0.18885241843E+02 -0.29290543667E+02  0.38069665226E+02  0.00000000000E+00 0. -1.
</event>
<event>
 7    1  0.4639347E-015  0.9000773E+02  0.7816164E-02  0.1186339E+00
        -11   -1    0    0    0    0  0.00000000000E+00  0.00000000000E+00  0.45593999997E+02  0.45594000000E+02  0.51100000000E-03 0. -1.
         11   -1    0    0    0    0 -0.00000000000E+00 -0.00000000000E+00 -0.45593999997E+02  0.45594000000E+02  0.51100000000E-03 0.  1.
    9900012    2    1    2    0    0  0.38318048208E+00  0.32624061082E+00 -0.10675979113E+01  0.90007734980E+02  0.89999996281E+02 0.  0.
         12    1    1    2    0    0 -0.38318048208E+00 -0.32624061082E+00  0.10675979113E+01  0.11802650203E+01  0.00000000000E+00 0. -1.
         11    1    3    3    0    0 -0.16178974815E+02  0.24147893896E+02  0.21532703220E+02  0.36173710259E+02  0.51100000000E-03 0. -1.
        -11    1    3    3    0    0  0.14288048955E+01  0.97550547083E+01  0.12772561393E+01  0.99415270104E+01  0.51100000000E-03 0.  1.
        -12    1    3    3    0    0  0.15133350401E+02 -0.33576707993E+02 -0.23877557271E+02  0.43892497710E+02  0.00000000000E+00 0.  1.
</event>
<event>
 7    1  0.4639347E-015  0.9000805E+02  0.7816164E-02  0.1186338E+00
        -11   -1    0    0    0    0  0.00000000000E+00  0.00000000000E+00  0.45593999997E+02  0.45594000000E+02  0.51100000000E-03 0.  1.
         11   -1    0    0    0    0 -0.00000000000E+00 -0.00000000000E+00 -0.45593999997E+02  0.45594000000E+02  0.51100000000E-03 0. -1.
    9900012    2    1    2    0    0  0.65031815039E+00  0.96038245260E-01  0.97987299801E+00  0.90008047402E+02  0.90000312827E+02 0.  0.
         12    1    1    2    0    0 -0.65031815039E+00 -0.96038245260E-01 -0.97987299801E+00  0.11799525980E+01  0.00000000000E+00 0. -1.
         11    1    3    3    0    0  0.18934724128E+01  0.65539043141E+01 -0.90029417373E+01  0.11295656675E+02  0.51100000000E-03 0. -1.
        -11    1    3    3    0    0  0.37779643664E+02 -0.39907439490E+01 -0.13137402415E+01  0.38012543013E+02  0.51100000000E-03 0.  1.
         12    1    3    3    0    0 -0.39022797927E+02 -0.24671221198E+01  0.11296554977E+02  0.40699847714E+02  0.00000000000E+00 0. -1.
</event>
<event>
 7    1  0.4639347E-015  0.9000768E+02  0.7816164E-02  0.1186339E+00
        -11   -1    0    0    0    0  0.00000000000E+00  0.00000000000E+00  0.45593999997E+02  0.45594000000E+02  0.51100000000E-03 0. -1.
         11   -1    0    0    0    0 -0.00000000000E+00 -0.00000000000E+00 -0.45593999997E+02  0.45594000000E+02  0.51100000000E-03 0.  1.
    9900012    2    1    2    0    0 -0.54312989177E+00 -0.10076719906E+01 -0.28766501135E+00  0.90007684755E+02  0.89999945393E+02 0.  0.
         12    1    1    2    0    0  0.54312989177E+00  0.10076719906E+01  0.28766501135E+00  0.11803152455E+01  0.00000000000E+00 0. -1.
         11    1    3    3    0    0  0.12234539216E+01  0.15099439080E+02  0.31431014728E+02  0.34891239403E+02  0.51100000000E-03 0. -1.
        -11    1    3    3    0    0 -0.92224397994E+01  0.26137239171E+01  0.67265279911E+01  0.11710300066E+02  0.51100000000E-03 0.  1.
        -12    1    3    3    0    0  0.74558559861E+01 -0.18720834987E+02 -0.38445207730E+02  0.43406145285E+02  0.00000000000E+00 0.  1.
</event>
<event>
 7    1  0.4639347E-015  0.9000766E+02  0.7816164E-02  0.1186339E+00
        -11   -1    0    0    0    0  0.00000000000E+00  0.00000000000E+00  0.45593999997E+02  0.45594000000E+02  0.51100000000E-03 0. -1.
         11   -1    0    0    0    0 -0.00000000000E+00 -0.00000000000E+00 -0.45593999997E+02  0.45594000000E+02  0.51100000000E-03 0.  1.
    9900012    2    1    2    0    0 -0.19007827071E-01  0.10643445036E+00 -0.11753802779E+01  0.90007657513E+02  0.89999917792E+02 0.  0.
         12    1    1    2    0    0  0.19007827071E-01 -0.10643445036E+00  0.11753802779E+01  0.11803424873E+01  0.00000000000E+00 0. -1.
         11    1    3    3    0    0  0.10849668544E+02  0.10465347997E+01 -0.37034999971E+00  0.10906314775E+02  0.51100000000E-03 0. -1.
        -11    1    3    3    0    0  0.23954462706E+02  0.15176338078E+02  0.20705135062E+02  0.35111823353E+02  0.51100000000E-03 0.  1.
         12    1    3    3    0    0 -0.34823139076E+02 -0.16116438427E+02 -0.21510165340E+02  0.43989519384E+02  0.00000000000E+00 0. -1.
</event>
<event>
 7    1  0.4639347E-015  0.9000780E+02  0.7816164E-02  0.1186339E+00
        -11   -1    0    0    0    0  0.00000000000E+00  0.00000000000E+00  0.45593999997E+02  0.45594000000E+02  0.51100000000E-03 0.  1.
         11   -1    0    0    0    0 -0.00000000000E+00 -0.00000000000E+00 -0.45593999997E+02  0.45594000000E+02  0.51100000000E-03 0. -1.
    9900012    2    1    2    0    0  0.56822335758E+00 -0.30544385301E+00  0.98828219392E+00  0.90007798565E+02  0.90000060706E+02 0.  0.
         12    1    1    2    0    0 -0.56822335758E+00  0.30544385301E+00 -0.98828219392E+00  0.11802014346E+01  0.00000000000E+00 0. -1.
         11    1    3    3    0    0 -0.14058297963E+02 -0.38529554180E+01 -0.34552886429E+01  0.14980655091E+02  0.51100000000E-03 0. -1.
        -11    1    3    3    0    0 -0.12409158907E+02 -0.28445020678E+02  0.10376814716E+02  0.32722846913E+02  0.51100000000E-03 0.  1.
         12    1    3    3    0    0  0.27035680228E+02  0.31992532243E+02 -0.59332438786E+01  0.42304296562E+02  0.00000000000E+00 0. -1.
</event>
<event>
 7    1  0.4639347E-015  0.9000776E+02  0.7816164E-02  0.1186339E+00
        -11   -1    0    0    0    0  0.00000000000E+00  0.00000000000E+00  0.45593999997E+02  0.45594000000E+02  0.51100000000E-03 0.  1.
         11   -1    0    0    0    0 -0.00000000000E+00 -0.00000000000E+00 -0.45593999997E+02  0.45594000000E+02  0.51100000000E-03 0. -1.
    9900012    2    1    2    0    0 -0.11212183124E+01  0.21239429228E+00  0.30121802246E+00  0.90007756747E+02  0.90000018336E+02 0.  0.
         12    1    1    2    0    0  0.11212183124E+01 -0.21239429228E+00 -0.30121802246E+00  0.11802432531E+01  0.00000000000E+00 0. -1.
         11    1    3    3    0    0  0.46015388377E+01  0.81007051765E+01  0.29437933500E+01  0.97704402961E+01  0.51100000000E-03 0. -1.
        -11    1    3    3    0    0  0.70123598107E+01 -0.20789312675E+02  0.33360166890E+02  0.39928303831E+02  0.51100000000E-03 0.  1.
         12    1    3    3    0    0 -0.12735116961E+02  0.12901001791E+02 -0.36002742217E+02  0.40309012620E+02  0.00000000000E+00 0. -1.
</event>
<event>
 7    1  0.4639347E-015  0.9000773E+02  0.7816164E-02  0.1186339E+00
        -11   -1    0    0    0    0  0.00000000000E+00  0.00000000000E+00  0.45593999997E+02  0.45594000000E+02  0.51100000000E-03 0.  1.
         11   -1    0    0    0    0 -0.00000000000E+00 -0.00000000000E+00 -0.45593999997E+02  0.45594000000E+02  0.51100000000E-03 0. -1.
    9900012    2    1    2    0    0  0.11564020136E+01 -0.18204945998E+00  0.15041593982E+00  0.90007731989E+02  0.89999993251E+02 0.  0.
         12    1    1    2    0    0 -0.11564020136E+01  0.18204945998E+00 -0.15041593982E+00  0.11802680110E+01  0.00000000000E+00 0. -1.
         11    1    3    3    0    0 -0.63514736682E+01  0.85642605331E+01 -0.47713337844E+01  0.11681327090E+02  0.51100000000E-03 0. -1.
        -11    1    3    3    0    0  0.20397828022E+02  0.67804431545E+01  0.35611766616E+02  0.41596198373E+02  0.51100000000E-03 0.  1.
         12    1    3    3    0    0 -0.12889952340E+02 -0.15526753148E+02 -0.30690016891E+02  0.36730206526E+02  0.00000000000E+00 0. -1.
</event>
<event>
 7    1  0.4639347E-015  0.9000785E+02  0.7816164E-02  0.1186339E+00
        -11   -1    0    0    0    0  0.00000000000E+00  0.00000000000E+00  0.45593999997E+02  0.45594000000E+02  0.51100000000E-03 0.  1.
         11   -1    0    0    0    0 -0.00000000000E+00 -0.00000000000E+00 -0.45593999997E+02  0.45594000000E+02  0.51100000000E-03 0. -1.
    9900012    2    1    2    0    0 -0.20864223930E-01 -0.82695774815E-01  0.11770683374E+01  0.90007845867E+02  0.90000108632E+02 0.  0.
         12    1    1    2    0    0  0.20864223930E-01  0.82695774815E-01 -0.11770683374E+01  0.11801541331E+01  0.00000000000E+00 0. -1.
         11    1    3    3    0    0 -0.12792148656E+02  0.25083682098E+02 -0.27404610560E+02  0.39291765741E+02  0.51100000000E-03 0. -1.
        -11    1    3    3    0    0  0.14266151874E+00 -0.73298956243E+01 -0.62246535769E+01  0.96173818987E+01  0.51100000000E-03 0.  1.
        -12    1    3    3    0    0  0.12628622914E+02 -0.17836482249E+02  0.34806332474E+02  0.41098698227E+02  0.00000000000E+00 0.  1.
</event>
<event>
 7    1  0.4639347E-015  0.9000766E+02  0.7816164E-02  0.1186339E+00
        -11   -1    0    0    0    0  0.00000000000E+00  0.00000000000E+00  0.45593999997E+02  0.45594000000E+02  0.51100000000E-03 0. -1.
         11   -1    0    0    0    0 -0.00000000000E+00 -0.00000000000E+00 -0.45593999997E+02  0.45594000000E+02  0.51100000000E-03 0.  1.
    9900012    2    1    2    0    0  0.49671048283E+00 -0.10621850596E+01  0.13509738294E+00  0.90007656953E+02  0.89999917225E+02 0.  0.
         12    1    1    2    0    0 -0.49671048283E+00  0.10621850596E+01 -0.13509738294E+00  0.11803430465E+01  0.00000000000E+00 0. -1.
         11    1    3    3    0    0  0.69982695434E+01  0.41262894240E+01 -0.38961852573E+01  0.90101221320E+01  0.51100000000E-03 0. -1.
        -11    1    3    3    0    0 -0.37760740695E+02  0.10850078099E+02  0.17965792089E+02  0.43201474723E+02  0.51100000000E-03 0.  1.
         12    1    3    3    0    0  0.31259181634E+02 -0.16038552583E+02 -0.13934509448E+02  0.37796060099E+02  0.00000000000E+00 0. -1.
</event>
<event>
 7    1  0.4639347E-015  0.9000785E+02  0.7816164E-02  0.1186339E+00
        -11   -1    0    0    0    0  0.00000000000E+00  0.00000000000E+00  0.45593999997E+02  0.45594000000E+02  0.51100000000E-03 0.  1.
         11   -1    0    0    0    0 -0.00000000000E+00 -0.00000000000E+00 -0.45593999997E+02  0.45594000000E+02  0.51100000000E-03 0. -1.
    9900012    2    1    2    0    0 -0.85253389374E+00  0.29359782866E+00  0.76140086630E+00  0.90007853821E+02  0.90000116691E+02 0.  0.
         12    1    1    2    0    0  0.85253389374E+00 -0.29359782866E+00 -0.76140086630E+00  0.11801461792E+01  0.00000000000E+00 0. -1.
         11    1    3    3    0    0  0.16625118436E+02  0.23747989034E+02  0.17849907245E+02  0.34043806119E+02  0.51100000000E-03 0. -1.
        -11    1    3    3    0    0  0.81164107005E+00  0.34699708976E+01  0.11872735452E+02  0.12396019790E+02  0.51100000000E-03 0.  1.
        -12    1    3    3    0    0 -0.18289293400E+02 -0.26924362103E+02 -0.28961241831E+02  0.43568027911E+02  0.00000000000E+00 0.  1.
</event>
<event>
 7    1  0.4639347E-015  0.9000772E+02  0.7816164E-02  0.1186339E+00
        -11   -1    0    0    0    0  0.00000000000E+00  0.00000000000E+00  0.45593999997E+02  0.45594000000E+02  0.51100000000E-03 0. -1.
         11   -1    0    0    0    0 -0.00000000000E+00 -0.00000000000E+00 -0.45593999997E+02  0.45594000000E+02  0.51100000000E-03 0.  1.
    9900012    2    1    2    0    0 -0.11935595406E+00 -0.96630325220E+00 -0.66714633966E+00  0.90007715264E+02  0.89999976306E+02 0.  0.
         12    1    1    2    0    0  0.11935595406E+00  0.96630325220E+00  0.66714633966E+00  0.11802847358E+01  0.00000000000E+00 0. -1.
         11    1    3    3    0    0  0.38918644726E+01 -0.20461292228E+01 -0.69828813947E+01  0.82519020052E+01  0.51100000000E-03 0. -1.
        -11    1    3    3    0    0 -0.19619019419E+02 -0.11525937530E+02 -0.31552464978E+02  0.38901300818E+02  0.51100000000E-03 0.  1.
         12    1    3    3    0    0  0.15607798992E+02  0.12605763501E+02  0.37868200033E+02  0.42854512441E+02  0.00000000000E+00 0. -1.
</event>
<event>
 7    1  0.4639347E-015  0.9000775E+02  0.7816164E-02  0.1186339E+00
        -11   -1    0    0    0    0  0.00000000000E+00  0.00000000000E+00  0.45593999997E+02  0.45594000000E+02  0.51100000000E-03 0. -1.
         11   -1    0    0    0    0 -0.00000000000E+00 -0.00000000000E+00 -0.45593999997E+02  0.45594000000E+02  0.51100000000E-03 0.  1.
    9900012    2    1    2    0    0 -0.93586260960E+00 -0.63315458520E+00 -0.34097733916E+00  0.90007750408E+02  0.90000011914E+02 0.  0.
         12    1    1    2    0    0  0.93586260960E+00  0.63315458520E+00  0.34097733916E+00  0.11802495917E+01  0.00000000000E+00 0. -1.
         11    1    3    3    0    0 -0.23188523226E+01  0.15728743494E+01 -0.99383967069E+01  0.10325828740E+02  0.51100000000E-03 0. -1.
        -11    1    3    3    0    0  0.91943831118E+01 -0.33851444382E+02 -0.15690785041E+02  0.38427304134E+02  0.51100000000E-03 0.  1.
         12    1    3    3    0    0 -0.78113933988E+01  0.31645415447E+02  0.25288204408E+02  0.41254617534E+02  0.00000000000E+00 0. -1.
</event>
<event>
 7    1  0.4639347E-015  0.9000777E+02  0.7816164E-02  0.1186339E+00
        -11   -1    0    0    0    0  0.00000000000E+00  0.00000000000E+00  0.45593999997E+02  0.45594000000E+02  0.51100000000E-03 0.  1.
         11   -1    0    0    0    0 -0.00000000000E+00 -0.00000000000E+00 -0.45593999997E+02  0.45594000000E+02  0.51100000000E-03 0. -1.
    9900012    2    1    2    0    0  0.18232838429E+00  0.11145639699E+01  0.34270572654E+00  0.90007769642E+02  0.90000031401E+02 0.  0.
         12    1    1    2    0    0 -0.18232838429E+00 -0.11145639699E+01 -0.34270572654E+00  0.11802303579E+01  0.00000000000E+00 0. -1.
         11    1    3    3    0    0 -0.67246573261E-01  0.10998695529E+02 -0.77870111498E+01  0.13476400422E+02  0.51100000000E-03 0. -1.
        -11    1    3    3    0    0  0.37467326592E+02  0.44054152176E+00  0.44471293288E+01  0.37732898090E+02  0.51100000000E-03 0.  1.
         12    1    3    3    0    0 -0.37217751634E+02 -0.10324673081E+02  0.36825875476E+01  0.38798471129E+02  0.00000000000E+00 0. -1.
</event>
<event>
 7    1  0.4639347E-015  0.9000755E+02  0.7816164E-02  0.1186339E+00
        -11   -1    0    0    0    0  0.00000000000E+00  0.00000000000E+00  0.45593999997E+02  0.45594000000E+02  0.51100000000E-03 0.  1.
         11   -1    0    0    0    0 -0.00000000000E+00 -0.00000000000E+00 -0.45593999997E+02  0.45594000000E+02  0.51100000000E-03 0. -1.
    9900012    2    1    2    0    0  0.29613790075E+00 -0.66154988248E+00  0.93173252972E+00  0.90007546100E+02  0.89999804908E+02 0.  0.
         12    1    1    2    0    0 -0.29613790075E+00  0.66154988248E+00 -0.93173252972E+00  0.11804539001E+01  0.00000000000E+00 0. -1.
         11    1    3    3    0    0  0.27092948242E+02  0.19804212601E+02  0.23816925734E+02  0.41151921374E+02  0.51100000000E-03 0. -1.
        -11    1    3    3    0    0  0.51149754901E+01 -0.64114237061E+01 -0.31297499067E+01  0.87786481273E+01  0.51100000000E-03 0.  1.
        -12    1    3    3    0    0 -0.31911785831E+02 -0.14054338777E+02 -0.19755443297E+02  0.40076976598E+02  0.00000000000E+00 0.  1.
</event>
<event>
 7    1  0.4639347E-015  0.9000772E+02  0.7816164E-02  0.1186339E+00
        -11   -1    0    0    0    0  0.00000000000E+00  0.00000000000E+00  0.45593999997E+02  0.45594000000E+02  0.51100000000E-03 0. -1.
         11   -1    0    0    0    0 -0.00000000000E+00 -0.00000000000E+00 -0.45593999997E+02  0.45594000000E+02  0.51100000000E-03 0.  1.
    9900012    2    1    2    0    0 -0.32994358387E+00  0.10579079606E+01 -0.40623228101E+00  0.90007721775E+02  0.89999982903E+02 0.  0.
         12    1    1    2    0    0  0.32994358387E+00 -0.10579079606E+01  0.40623228101E+00  0.11802782248E+01  0.00000000000E+00 0. -1.
         11    1    3    3    0    0 -0.26232623285E+02 -0.20600758179E+02  0.23537187271E+02  0.40823289270E+02  0.51100000000E-03 0. -1.
        -11    1    3    3    0    0 -0.36060636543E+01  0.93911875216E+01 -0.15883360946E+01  0.10184346320E+02  0.51100000000E-03 0.  1.
        -12    1    3    3    0    0  0.29508743355E+02  0.12267478618E+02 -0.22355083458E+02  0.39000086185E+02  0.00000000000E+00 0.  1.
</event>
<event>
 7    1  0.4639347E-015  0.9000775E+02  0.7816164E-02  0.1186339E+00
        -11   -1    0    0    0    0  0.00000000000E+00  0.00000000000E+00  0.45593999997E+02  0.45594000000E+02  0.51100000000E-03 0. -1.
         11   -1    0    0    0    0 -0.00000000000E+00 -0.00000000000E+00 -0.45593999997E+02  0.45594000000E+02  0.51100000000E-03 0.  1.
    9900012    2    1    2    0    0 -0.98576179551E+00 -0.62869651822E+00  0.16125364178E+00  0.90007750718E+02  0.90000012228E+02 0.  0.
         12    1    1    2    0    0  0.98576179551E+00  0.62869651822E+00 -0.16125364178E+00  0.11802492815E+01  0.00000000000E+00 0. -1.
         11    1    3    3    0    0 -0.28091941470E+02 -0.19150324994E+02  0.10990998647E+02  0.35730857454E+02  0.51100000000E-03 0. -1.
        -11    1    3    3    0    0 -0.39971768913E+01 -0.10117160654E+02 -0.29216257270E+01  0.11263669914E+02  0.51100000000E-03 0.  1.
        -12    1    3    3    0    0  0.31103356566E+02  0.28638789129E+02 -0.79081192785E+01  0.43013223350E+02  0.00000000000E+00 0.  1.
</event>
<event>
 7    1  0.4639347E-015  0.9000780E+02  0.7816164E-02  0.1186339E+00
        -11   -1    0    0    0    0  0.00000000000E+00  0.00000000000E+00  0.45593999997E+02  0.45594000000E+02  0.51100000000E-03 0.  1.
         11   -1    0    0    0    0 -0.00000000000E+00 -0.00000000000E+00 -0.45593999997E+02  0.45594000000E+02  0.51100000000E-03 0. -1.
    9900012    2    1    2    0    0 -0.48493810105E-01  0.95464334374E+00  0.69223137947E+00  0.90007796693E+02  0.90000058809E+02 0.  0.
         12    1    1    2    0    0  0.48493810105E-01 -0.95464334374E+00 -0.69223137947E+00  0.11802033071E+01  0.00000000000E+00 0. -1.
         11    1    3    3    0    0 -0.12568470340E+02 -0.12514955556E+02 -0.11979050245E+02  0.21402995218E+02  0.51100000000E-03 0. -1.
        -11    1    3    3    0    0  0.12196073049E+02  0.28352441900E+01  0.38598975224E+02  0.40579104180E+02  0.51100000000E-03 0.  1.
         12    1    3    3    0    0  0.32390348083E+00  0.10634354709E+02 -0.25927693599E+02  0.28025697296E+02  0.00000000000E+00 0. -1.
</event>
<event>
 7    1  0.4639347E-015  0.9000765E+02  0.7816164E-02  0.1186339E+00
        -11   -1    0    0    0    0  0.00000000000E+00  0.00000000000E+00  0.45593999997E+02  0.45594000000E+02  0.51100000000E-03 0. -1.
         11   -1    0    0    0    0 -0.00000000000E+00 -0.00000000000E+00 -0.45593999997E+02  0.45594000000E+02  0.51100000000E-03 0.  1.
    9900012    2    1    2    0    0  0.18469677071E+00 -0.10207889731E+01 -0.56311056749E+00  0.90007654061E+02  0.89999914294E+02 0.  0.
         12    1    1    2    0    0 -0.18469677071E+00  0.10207889731E+01  0.56311056749E+00  0.11803459391E+01  0.00000000000E+00 0. -1.
         11    1    3    3    0    0 -0.23108295665E+02 -0.31526878638E+02  0.26111916532E+01  0.39175958537E+02  0.51100000000E-03 0. -1.
        -11    1    3    3    0    0  0.60117198872E+01 -0.70531893155E+01  0.77148176917E+00  0.92996473000E+01  0.51100000000E-03 0.  1.
        -12    1    3    3    0    0  0.17281272548E+02  0.37559278980E+02 -0.39457839898E+01  0.41532048224E+02  0.00000000000E+00 0.  1.
</event>
<event>
 7    1  0.4639347E-015  0.9000782E+02  0.7816164E-02  0.1186339E+00
        -11   -1    0    0    0    0  0.00000000000E+00  0.00000000000E+00  0.45593999997E+02  0.45594000000E+02  0.51100000000E-03 0.  1.
         11   -1    0    0    0    0 -0.00000000000E+00 -0.00000000000E+00 -0.45593999997E+02  0.45594000000E+02  0.51100000000E-03 0. -1.
    9900012    2    1    2    0    0  0.66160755403E+00  0.97724789519E+00  0.91574864350E-02  0.90007821258E+02  0.90000083698E+02 0.  0.
         12    1    1    2    0    0 -0.66160755403E+00 -0.97724789519E+00 -0.91574864350E-02  0.11801787423E+01  0.00000000000E+00 0. -1.
         11    1    3    3    0    0  0.63384845449E+01 -0.36702560641E+02  0.80881756044E+01  0.38113946644E+02  0.51100000000E-03 0. -1.
        -11    1    3    3    0    0  0.87459727571E+01 -0.66256457568E+00 -0.64660520510E+01  0.10896828010E+02  0.51100000000E-03 0.  1.
        -12    1    3    3    0    0 -0.14422849748E+02  0.38342373112E+02 -0.16129660670E+01  0.40997046604E+02  0.00000000000E+00 0.  1.
</event>
<event>
 7    1  0.4639347E-015  0.9000777E+02  0.7816164E-02  0.1186339E+00
        -11   -1    0    0    0    0  0.00000000000E+00  0.00000000000E+00  0.45593999997E+02  0.45594000000E+02  0.51100000000E-03 0.  1.
         11   -1    0    0    0    0 -0.00000000000E+00 -0.00000000000E+00 -0.45593999997E+02  0.45594000000E+02  0.51100000000E-03 0. -1.
    9900012    2    1    2    0    0  0.53062197719E+00 -0.75204729046E+00 -0.73879570684E+00  0.90007765317E+02  0.90000027019E+02 0.  0.
         12    1    1    2    0    0 -0.53062197719E+00  0.75204729046E+00  0.73879570684E+00  0.11802346827E+01  0.00000000000E+00 0. -1.
         11    1    3    3    0    0 -0.21223171441E+02 -0.90753665743E+01 -0.25836294967E+02  0.34645337671E+02  0.51100000000E-03 0. -1.
        -11    1    3    3    0    0 -0.11403640372E+02 -0.41107075977E+01  0.28980757742E+00  0.12125383267E+02  0.51100000000E-03 0.  1.
        -12    1    3    3    0    0  0.33157433790E+02  0.12434026882E+02  0.24807691682E+02  0.43237044379E+02  0.00000000000E+00 0.  1.
</event>
<event>
 7    1  0.4639347E-015  0.9000770E+02  0.7816164E-02  0.1186339E+00
        -11   -1    0    0    0    0  0.00000000000E+00  0.00000000000E+00  0.45593999997E+02  0.45594000000E+02  0.51100000000E-03 0.  1.
         11   -1    0    0    0    0 -0.00000000000E+00 -0.00000000000E+00 -0.45593999997E+02  0.45594000000E+02  0.51100000000E-03 0. -1.
    9900012    2    1    2    0    0 -0.52746449482E+00 -0.63748220741E-01  0.10539622050E+01  0.90007695396E+02  0.89999956175E+02 0.  0.
         12    1    1    2    0    0  0.52746449482E+00  0.63748220741E-01 -0.10539622050E+01  0.11803046041E+01  0.00000000000E+00 0. -1.
         11    1    3    3    0    0  0.26409367493E+01 -0.10735531638E+02  0.12292156670E+01  0.11123720505E+02  0.51100000000E-03 0. -1.
        -11    1    3    3    0    0 -0.17603008401E+02 -0.20712467094E+02  0.24370001193E+02  0.36507111038E+02  0.51100000000E-03 0.  1.
         12    1    3    3    0    0  0.14434607157E+02  0.31384250511E+02 -0.24545254655E+02  0.42376863853E+02  0.00000000000E+00 0. -1.
</event>
<event>
 7    1  0.4639347E-015  0.9000781E+02  0.7816164E-02  0.1186339E+00
        -11   -1    0    0    0    0  0.00000000000E+00  0.00000000000E+00  0.45593999997E+02  0.45594000000E+02  0.51100000000E-03 0. -1.
         11   -1    0    0    0    0 -0.00000000000E+00 -0.00000000000E+00 -0.45593999997E+02  0.45594000000E+02  0.51100000000E-03 0.  1.
    9900012    2    1    2    0    0 -0.35609609261E+00 -0.83888311444E+00 -0.74987677959E+00  0.90007811671E+02  0.90000073985E+02 0.  0.
         12    1    1    2    0    0  0.35609609261E+00  0.83888311444E+00  0.74987677959E+00  0.11801883288E+01  0.00000000000E+00 0. -1.
         11    1    3    3    0    0 -0.17128565322E+02 -0.50447631558E+01 -0.15187501014E+02  0.23441364564E+02  0.51100000000E-03 0. -1.
        -11    1    3    3    0    0  0.38181871388E+01  0.34898214158E+01 -0.24751132569E+02  0.25285884803E+02  0.51100000000E-03 0.  1.
         12    1    3    3    0    0  0.12954282091E+02  0.71605862553E+00  0.39188756803E+02  0.41280562305E+02  0.00000000000E+00 0. -1.
</event>
<event>
 7    1  0.4639347E-015  0.9000709E+02  0.7816164E-02  0.1186340E+00
        -11   -1    0    0    0    0  0.00000000000E+00  0.00000000000E+00  0.45593999997E+02  0.45594000000E+02  0.51100000000E-03 0.  1.
         11   -1    0    0    0    0 -0.00000000000E+00 -0.00000000000E+00 -0.45593999997E+02  0.45594000000E+02  0.51100000000E-03 0. -1.
    9900012    2    1    2    0    0  0.13935884932E-01  0.11064840031E+01 -0.41235940427E+00  0.90007093003E+02  0.89999345828E+02 0.  0.
         12    1    1    2    0    0 -0.13935884932E-01 -0.11064840031E+01  0.41235940427E+00  0.11809069973E+01  0.00000000000E+00 0. -1.
         11    1    3    3    0    0  0.36974669736E+02 -0.10154815850E+02 -0.58848308094E+01  0.38792753459E+02  0.51100000000E-03 0. -1.
        -11    1    3    3    0    0 -0.20557993523E+01 -0.45614898520E+01 -0.89605677654E+01  0.10262810316E+02  0.51100000000E-03 0.  1.
        -12    1    3    3    0    0 -0.34904934498E+02  0.15822789705E+02  0.14433039171E+02  0.40951529228E+02  0.00000000000E+00 0.  1.
</event>
<event>
 7    1  0.4639347E-015  0.9000778E+02  0.7816164E-02  0.1186339E+00
        -11   -1    0    0    0    0  0.00000000000E+00  0.00000000000E+00  0.45593999997E+02  0.45594000000E+02  0.51100000000E-03 0. -1.
         11   -1    0    0    0    0 -0.00000000000E+00 -0.00000000000E+00 -0.45593999997E+02  0.45594000000E+02  0.51100000000E-03 0.  1.
    9900012    2    1    2    0    0  0.11371718436E+01  0.35980075445E-01 -0.31379203888E+00  0.90007779762E+02  0.90000041654E+02 0.  0.
         12    1    1    2    0    0 -0.11371718436E+01 -0.35980075445E-01  0.31379203888E+00  0.11802202385E+01  0.00000000000E+00 0. -1.
         11    1    3    3    0    0 -0.65613512014E+01 -0.59802978144E+01 -0.46698760305E+01  0.10031103326E+02  0.51100000000E-03 0. -1.
        -11    1    3    3    0    0 -0.32906209023E+02  0.67118422422E+01  0.16733454019E+02  0.37521672433E+02  0.51100000000E-03 0.  1.
         12    1    3    3    0    0  0.40604732067E+02 -0.69556435238E+00 -0.12377370027E+02  0.42455004002E+02  0.00000000000E+00 0. -1.
</event>
<event>
 7    1  0.4639347E-015  0.9000776E+02  0.7816164E-02  0.1186339E+00
        -11   -1    0    0    0    0  0.00000000000E+00  0.00000000000E+00  0.45593999997E+02  0.45594000000E+02  0.51100000000E-03 0.  1.
         11   -1    0    0    0    0 -0.00000000000E+00 -0.00000000000E+00 -0.45593999997E+02  0.45594000000E+02  0.51100000000E-03 0. -1.
    9900012    2    1    2    0    0 -0.74487418372E+00  0.60867048703E+00  0.68385613899E+00  0.90007755733E+02  0.90000017309E+02 0.  0.
         12    1    1    2    0    0  0.74487418372E+00 -0.60867048703E+00 -0.68385613899E+00  0.11802442672E+01  0.00000000000E+00 0. -1.
         11    1    3    3    0    0 -0.36077779603E+02  0.94540535123E+01 -0.15800192455E+02  0.40504708254E+02  0.51100000000E-03 0. -1.
        -11    1    3    3    0    0  0.18059177551E+01 -0.80608930521E+01 -0.50183195587E+01  0.96655505373E+01  0.51100000000E-03 0.  1.
        -12    1    3    3    0    0  0.33526987664E+02 -0.78448997324E+00  0.21502368152E+02  0.39837496941E+02  0.00000000000E+00 0.  1.
</event>
<event>
 7    1  0.4639347E-015  0.9000822E+02  0.7816164E-02  0.1186338E+00
        -11   -1    0    0    0    0  0.00000000000E+00  0.00000000000E+00  0.45593999997E+02  0.45594000000E+02  0.51100000000E-03 0.  1.
         11   -1    0    0    0    0 -0.00000000000E+00 -0.00000000000E+00 -0.45593999997E+02  0.45594000000E+02  0.51100000000E-03 0. -1.
    9900012    2    1    2    0    0 -0.71333424980E+00  0.71990398873E+00  0.60396600668E+00  0.90008219325E+02  0.90000487018E+02 0.  0.
         12    1    1    2    0    0  0.71333424980E+00 -0.71990398873E+00 -0.60396600668E+00  0.11797806754E+01  0.00000000000E+00 0. -1.
         11    1    3    3    0    0  0.12815485515E+01  0.56800816029E+01 -0.42696150041E+01  0.72204782563E+01  0.51100000000E-03 0. -1.
        -11    1    3    3    0    0  0.12911836031E+02  0.35241806973E+02 -0.72576732614E+01  0.38227925524E+02  0.51100000000E-03 0.  1.
         12    1    3    3    0    0 -0.14906718832E+02 -0.40201984588E+02  0.12131254272E+02  0.44559815544E+02  0.00000000000E+00 0. -1.
</event>
<event>
 7    1  0.4639347E-015  0.9000763E+02  0.7816164E-02  0.1186339E+00
        -11   -1    0    0    0    0  0.00000000000E+00  0.00000000000E+00  0.45593999997E+02  0.45594000000E+02  0.51100000000E-03 0.  1.
         11   -1    0    0    0    0 -0.00000000000E+00 -0.00000000000E+00 -0.45593999997E+02  0.45594000000E+02  0.51100000000E-03 0. -1.
    9900012    2    1    2    0    0  0.99013797685E-01  0.10470987231E+01  0.53578304861E+00  0.90007625931E+02  0.89999885793E+02 0.  0.
         12    1    1    2    0    0 -0.99013797685E-01 -0.10470987231E+01 -0.53578304861E+00  0.11803740692E+01  0.00000000000E+00 0. -1.
         11    1    3    3    0    0  0.16202660041E+02  0.48286310177E+01 -0.33782545913E+02  0.37777007273E+02  0.51100000000E-03 0. -1.
        -11    1    3    3    0    0  0.42124686543E+01  0.90266521210E+01 -0.45292901656E+00  0.99714836224E+01  0.51100000000E-03 0.  1.
        -12    1    3    3    0    0 -0.20316114898E+02 -0.12808184416E+02  0.34771257978E+02  0.42259135035E+02  0.00000000000E+00 0.  1.
</event>
<event>
 7    1  0.4639347E-015  0.9000784E+02  0.7816164E-02  0.1186339E+00
        -11   -1    0    0    0    0  0.00000000000E+00  0.00000000000E+00  0.45593999997E+02  0.45594000000E+02  0.51100000000E-03 0. -1.
         11   -1    0    0    0    0 -0.00000000000E+00 -0.00000000000E+00 -0.45593999997E+02  0.45594000000E+02  0.51100000000E-03 0.  1.
    9900012    2    1    2    0    0  0.71819630511E+00 -0.83739371036E+00  0.41920635451E+00  0.90007844025E+02  0.90000106766E+02 0.  0.
         12    1    1    2    0    0 -0.71819630511E+00  0.83739371036E+00 -0.41920635451E+00  0.11801559755E+01  0.00000000000E+00 0. -1.
         11    1    3    3    0    0  0.33773840962E+02 -0.13909449488E+02 -0.15255481508E+02  0.39583769839E+02  0.51100000000E-03 0. -1.
        -11    1    3    3    0    0  0.25608153871E+01  0.86884879520E+01 -0.35318785227E+01  0.97222304282E+01  0.51100000000E-03 0.  1.
        -12    1    3    3    0    0 -0.35616460044E+02  0.43835678259E+01  0.19206566385E+02  0.40701843757E+02  0.00000000000E+00 0.  1.
</event>
<event>
 7    1  0.4639347E-015  0.9000781E+02  0.7816164E-02  0.1186339E+00
        -11   -1    0    0    0    0  0.00000000000E+00  0.00000000000E+00  0.45593999997E+02  0.45594000000E+02  0.51100000000E-03 0.  1.
         11   -1    0    0    0    0 -0.00000000000E+00 -0.00000000000E+00 -0.45593999997E+02  0.45594000000E+02  0.51100000000E-03 0. -1.
    9900012    2    1    2    0    0 -0.71019037777E+00  0.93990916972E+00  0.71107529097E-01  0.90007806838E+02  0.90000069088E+02 0.  0.
         12    1    1    2    0    0  0.71019037777E+00 -0.93990916972E+00 -0.71107529097E-01  0.11801931625E+01  0.00000000000E+00 0. -1.
         11    1    3    3    0    0  0.97831721349E+01  0.18480742499E+01 -0.33124753958E+01  0.10492775084E+02  0.51100000000E-03 0. -1.
        -11    1    3    3    0    0  0.11907813940E+02  0.12873427811E+02  0.34542992648E+02  0.38739379419E+02  0.51100000000E-03 0.  1.
         12    1    3    3    0    0 -0.22401176452E+02 -0.13781592891E+02 -0.31159409723E+02  0.40775652335E+02  0.00000000000E+00 0. -1.
</event>
<event>
 7    1  0.4639347E-015  0.9000768E+02  0.7816164E-02  0.1186339E+00
        -11   -1    0    0    0    0  0.00000000000E+00  0.00000000000E+00  0.45593999997E+02  0.45594000000E+02  0.51100000000E-03 0.  1.
         11   -1    0    0    0    0 -0.00000000000E+00 -0.00000000000E+00 -0.45593999997E+02  0.45594000000E+02  0.51100000000E-03 0. -1.
    9900012    2    1    2    0    0 -0.62068983507E-01  0.62865777133E+00  0.99704377781E+00  0.90007678244E+02  0.89999938797E+02 0.  0.
         12    1    1    2    0    0  0.62068983507E-01 -0.62865777133E+00 -0.99704377781E+00  0.11803217557E+01  0.00000000000E+00 0. -1.
         11    1    3    3    0    0  0.16209675685E+02 -0.24608896892E+02 -0.22749671292E+02  0.37227663588E+02  0.51100000000E-03 0. -1.
        -11    1    3    3    0    0  0.25471868891E+01 -0.82981175167E+01  0.42484932532E+01  0.96641921832E+01  0.51100000000E-03 0.  1.
        -12    1    3    3    0    0 -0.18818931558E+02  0.33535672180E+02  0.19498221817E+02  0.43115822473E+02  0.00000000000E+00 0.  1.
</event>
<event>
 7    1  0.4639347E-015  0.9000771E+02  0.7816164E-02  0.1186339E+00
        -11   -1    0    0    0    0  0.00000000000E+00  0.00000000000E+00  0.45593999997E+02  0.45594000000E+02  0.51100000000E-03 0.  1.
         11   -1    0    0    0    0 -0.00000000000E+00 -0.00000000000E+00 -0.45593999997E+02  0.45594000000E+02  0.51100000000E-03 0. -1.
    9900012    2    1    2    0    0  0.69267246065E+00  0.67578087737E+00  0.67573381777E+00  0.90007707187E+02  0.89999968122E+02 0.  0.
         12    1    1    2    0    0 -0.69267246065E+00 -0.67578087737E+00 -0.67573381777E+00  0.11802928130E+01  0.00000000000E+00 0. -1.
         11    1    3    3    0    0 -0.38581359447E+01  0.19221418977E+02 -0.36797636738E+02  0.41694294936E+02  0.51100000000E-03 0. -1.
        -11    1    3    3    0    0 -0.78625265133E+01 -0.51405387383E+01  0.40647648085E+01  0.10235564220E+02  0.51100000000E-03 0.  1.
        -12    1    3    3    0    0  0.12413334919E+02 -0.13405099362E+02  0.33408605747E+02  0.38077848031E+02  0.00000000000E+00 0.  1.
</event>
<event>
 7    1  0.4639347E-015  0.9000784E+02  0.7816164E-02  0.1186339E+00
        -11   -1    0    0    0    0  0.00000000000E+00  0.00000000000E+00  0.45593999997E+02  0.45594000000E+02  0.51100000000E-03 0.  1.
         11   -1    0    0    0    0 -0.00000000000E+00 -0.00000000000E+00 -0.45593999997E+02  0.45594000000E+02  0.51100000000E-03 0. -1.
    9900012    2    1    2    0    0 -0.78679888495E+00 -0.75410066242E+00  0.45284013319E+00  0.90007837096E+02  0.90000099745E+02 0.  0.
         12    1    1    2    0    0  0.78679888495E+00  0.75410066242E+00 -0.45284013319E+00  0.11801629043E+01  0.00000000000E+00 0. -1.
         11    1    3    3    0    0  0.12157410105E+02 -0.19560766961E+02 -0.24479043190E+02  0.33610263020E+02  0.51100000000E-03 0. -1.
        -11    1    3    3    0    0  0.33261524298E+01  0.64572037141E+01 -0.12096008012E+02  0.14109294096E+02  0.51100000000E-03 0.  1.
        -12    1    3    3    0    0 -0.16270361420E+02  0.12349462584E+02  0.37027891335E+02  0.42288279979E+02  0.00000000000E+00 0.  1.
</event>
<event>
 7    1  0.4639347E-015  0.9000775E+02  0.7816164E-02  0.1186339E+00
        -11   -1    0    0    0    0  0.00000000000E+00  0.00000000000E+00  0.45593999997E+02  0.45594000000E+02  0.51100000000E-03 0.  1.
         11   -1    0    0    0    0 -0.00000000000E+00 -0.00000000000E+00 -0.45593999997E+02  0.45594000000E+02  0.51100000000E-03 0. -1.
    9900012    2    1    2    0    0  0.23030127840E+00 -0.97044656591E+00 -0.63102223730E+00  0.90007748213E+02  0.90000009690E+02 0.  0.
         12    1    1    2    0    0 -0.23030127840E+00  0.97044656591E+00  0.63102223730E+00  0.11802517867E+01  0.00000000000E+00 0. -1.
         11    1    3    3    0    0 -0.45404958800E+01 -0.91275349263E+01  0.60034233826E+01  0.11830853276E+02  0.51100000000E-03 0. -1.
        -11    1    3    3    0    0  0.29256999308E+02  0.20256131462E+02  0.19326940873E+02  0.40494610926E+02  0.51100000000E-03 0.  1.
         12    1    3    3    0    0 -0.24486202149E+02 -0.12099043102E+02 -0.25961386493E+02  0.37682284011E+02  0.00000000000E+00 0. -1.
</event>
<event>
 7    1  0.4639347E-015  0.9000768E+02  0.7816164E-02  0.1186339E+00
        -11   -1    0    0    0    0  0.00000000000E+00  0.00000000000E+00  0.45593999997E+02  0.45594000000E+02  0.51100000000E-03 0. -1.
         11   -1    0    0    0    0 -0.00000000000E+00 -0.00000000000E+00 -0.45593999997E+02  0.45594000000E+02  0.51100000000E-03 0.  1.
    9900012    2    1    2    0    0  0.72755116123E+00  0.28992745394E+00  0.88304032914E+00  0.90007682736E+02  0.89999943348E+02 0.  0.
         12    1    1    2    0    0 -0.72755116123E+00 -0.28992745394E+00 -0.88304032914E+00  0.11803172640E+01  0.00000000000E+00 0. -1.
         11    1    3    3    0    0 -0.31661531100E+02  0.22911928617E+02  0.94390474687E+01  0.40205778713E+02  0.51100000000E-03 0. -1.
        -11    1    3    3    0    0 -0.11436670790E+01 -0.66294075359E+01  0.68336382299E+01  0.95893498415E+01  0.51100000000E-03 0.  1.
        -12    1    3    3    0    0  0.33532749340E+02 -0.15992593627E+02 -0.15389645369E+02  0.40212554182E+02  0.00000000000E+00 0.  1.
</event>
<event>
 7    1  0.4639347E-015  0.9000691E+02  0.7816164E-02  0.1186341E+00
        -11   -1    0    0    0    0  0.00000000000E+00  0.00000000000E+00  0.45593999997E+02  0.45594000000E+02  0.51100000000E-03 0. -1.
         11   -1    0    0    0    0 -0.00000000000E+00 -0.00000000000E+00 -0.45593999997E+02  0.45594000000E+02  0.51100000000E-03 0.  1.
    9900012    2    1    2    0    0 -0.68550145424E+00 -0.19052653985E+00 -0.94273608537E+00  0.90006914087E+02  0.89999164550E+02 0.  0.
         12    1    1    2    0    0  0.68550145424E+00  0.19052653985E+00  0.94273608537E+00  0.11810859125E+01  0.00000000000E+00 0. -1.
         11    1    3    3    0    0 -0.14061250081E+02  0.33029372539E+02 -0.60587780046E+01  0.36405590165E+02  0.51100000000E-03 0. -1.
        -11    1    3    3    0    0  0.18289030790E+01  0.87079954392E+01  0.48026775882E+01  0.10111369013E+02  0.51100000000E-03 0.  1.
        -12    1    3    3    0    0  0.11546845547E+02 -0.41927894518E+02  0.31336433105E+00  0.43489954909E+02  0.00000000000E+00 0.  1.
</event>
<event>
 7    1  0.4639347E-015  0.9000771E+02  0.7816164E-02  0.1186339E+00
        -11   -1    0    0    0    0  0.00000000000E+00  0.00000000000E+00  0.45593999997E+02  0.45594000000E+02  0.51100000000E-03 0.  1.
         11   -1    0    0    0    0 -0.00000000000E+00 -0.00000000000E+00 -0.45593999997E+02  0.45594000000E+02  0.51100000000E-03 0. -1.
    9900012    2    1    2    0    0 -0.10038817781E+01  0.56778385865E-01  0.61813679785E+00  0.90007705329E+02  0.89999966239E+02 0.  0.
         12    1    1    2    0    0  0.10038817781E+01 -0.56778385865E-01 -0.61813679785E+00  0.11802946710E+01  0.00000000000E+00 0. -1.
         11    1    3    3    0    0 -0.29051649310E+00 -0.97089860593E+01 -0.37077381802E+02  0.38328593135E+02  0.51100000000E-03 0. -1.
        -11    1    3    3    0    0 -0.67927853797E+00 -0.96225296904E+01  0.41150084855E+00  0.96552488411E+01  0.51100000000E-03 0.  1.
        -12    1    3    3    0    0 -0.34086747023E-01  0.19388294136E+02  0.37284017752E+02  0.42023863353E+02  0.00000000000E+00 0.  1.
</event>
<event>
 7    1  0.4639347E-015  0.9000770E+02  0.7816164E-02  0.1186339E+00
        -11   -1    0    0    0    0  0.00000000000E+00  0.00000000000E+00  0.45593999997E+02  0.45594000000E+02  0.51100000000E-03 0. -1.
         11   -1    0    0    0    0 -0.00000000000E+00 -0.00000000000E+00 -0.45593999997E+02  0.45594000000E+02  0.51100000000E-03 0.  1.
    9900012    2    1    2    0    0  0.46062282545E+00  0.32605285812E+00 -0.10366380912E+01  0.90007702416E+02  0.89999963288E+02 0.  0.
         12    1    1    2    0    0 -0.46062282545E+00 -0.32605285812E+00  0.10366380912E+01  0.11802975836E+01  0.00000000000E+00 0. -1.
         11    1    3    3    0    0  0.14241189265E+02  0.32276407799E+02  0.10064053853E+02  0.36686007582E+02  0.51100000000E-03 0. -1.
        -11    1    3    3    0    0 -0.30883363260E+01  0.91283247376E+01 -0.99438221695E+00  0.96877721914E+01  0.51100000000E-03 0.  1.
        -12    1    3    3    0    0 -0.10692230113E+02 -0.41078679678E+02 -0.10106309727E+02  0.43633922643E+02  0.00000000000E+00 0.  1.
</event>
<event>
 7    1  0.4639347E-015  0.9000782E+02  0.7816164E-02  0.1186339E+00
        -11   -1    0    0    0    0  0.00000000000E+00  0.00000000000E+00  0.45593999997E+02  0.45594000000E+02  0.51100000000E-03 0. -1.
         11   -1    0    0    0    0 -0.00000000000E+00 -0.00000000000E+00 -0.45593999997E+02  0.45594000000E+02  0.51100000000E-03 0.  1.
    9900012    2    1    2    0    0 -0.87220464796E+00 -0.73929448502E+00 -0.29245882539E+00  0.90007818045E+02  0.90000080443E+02 0.  0.
         12    1    1    2    0    0  0.87220464796E+00  0.73929448502E+00  0.29245882539E+00  0.11801819555E+01  0.00000000000E+00 0. -1.
         11    1    3    3    0    0 -0.46617391777E+01 -0.32325074255E+01 -0.80702105422E+01  0.98645433180E+01  0.51100000000E-03 0. -1.
        -11    1    3    3    0    0 -0.20244170067E+02  0.31317409645E+02 -0.10011318676E+02  0.38611307547E+02  0.51100000000E-03 0.  1.
         12    1    3    3    0    0  0.24033704597E+02 -0.28824196705E+02  0.17789070393E+02  0.41531967179E+02  0.00000000000E+00 0. -1.
</event>
<event>
 7    1  0.4639347E-015  0.9000767E+02  0.7816164E-02  0.1186339E+00
        -11   -1    0    0    0    0  0.00000000000E+00  0.00000000000E+00  0.45593999997E+02  0.45594000000E+02  0.51100000000E-03 0.  1.
         11   -1    0    0    0    0 -0.00000000000E+00 -0.00000000000E+00 -0.45593999997E+02  0.45594000000E+02  0.51100000000E-03 0. -1.
    9900012    2    1    2    0    0 -0.90908601063E+00  0.46338869039E+00  0.59330729993E+00  0.90007669536E+02  0.89999929973E+02 0.  0.
         12    1    1    2    0    0  0.90908601063E+00 -0.46338869039E+00 -0.59330729993E+00  0.11803304644E+01  0.00000000000E+00 0. -1.
         11    1    3    3    0    0  0.81338992172E+01 -0.10137643993E+01  0.96652504732E+01  0.12673006814E+02  0.51100000000E-03 0. -1.
        -11    1    3    3    0    0 -0.33656302880E+02 -0.10183521314E+02  0.17505895000E+02  0.39279857305E+02  0.51100000000E-03 0.  1.
         12    1    3    3    0    0  0.24613317652E+02  0.11660674404E+02 -0.26577838173E+02  0.38054805417E+02  0.00000000000E+00 0. -1.
</event>
<event>
 7    1  0.4639347E-015  0.9000747E+02  0.7816164E-02  0.1186340E+00
        -11   -1    0    0    0    0  0.00000000000E+00  0.00000000000E+00  0.45593999997E+02  0.45594000000E+02  0.51100000000E-03 0. -1.
         11   -1    0    0    0    0 -0.00000000000E+00 -0.00000000000E+00 -0.45593999997E+02  0.45594000000E+02  0.51100000000E-03 0.  1.
    9900012    2    1    2    0    0 -0.77970683215E+00  0.81593971554E+00 -0.34633165731E+00  0.90007472160E+02  0.89999729992E+02 0.  0.
         12    1    1    2    0    0  0.77970683215E+00 -0.81593971554E+00  0.34633165731E+00  0.11805278397E+01  0.00000000000E+00 0. -1.
         11    1    3    3    0    0  0.72472868334E+01 -0.23611572501E+01  0.34006130701E+01  0.83464003929E+01  0.51100000000E-03 0. -1.
        -11    1    3    3    0    0 -0.13286954944E+02 -0.64747485515E+01 -0.40598354658E+02  0.43205230490E+02  0.51100000000E-03 0.  1.
         12    1    3    3    0    0  0.52599612780E+01  0.96518455172E+01  0.36851409930E+02  0.38455841278E+02  0.00000000000E+00 0. -1.
</event>
<event>
 7    1  0.5369211E-015  0.9000773E+02  0.7816164E-02  0.1186339E+00
        -11   -1    0    0    0    0  0.00000000000E+00  0.00000000000E+00  0.45593999997E+02  0.45594000000E+02  0.51100000000E-03 0. -1.
         11   -1    0    0    0    0 -0.00000000000E+00 -0.00000000000E+00 -0.45593999997E+02  0.45594000000E+02  0.51100000000E-03 0.  1.
    9900012    2    1    2    0    0  0.60653840929E+00  0.45776623684E+00 -0.90310550692E+00  0.90007729554E+02  0.89999990784E+02 0.  0.
         12    1    1    2    0    0 -0.60653840929E+00 -0.45776623684E+00  0.90310550692E+00  0.11802704462E+01  0.00000000000E+00 0. -1.
         11    1    3    3    0    0  0.64561702198E+01 -0.65490089110E+01 -0.76932800027E+00  0.92284081757E+01  0.51100000000E-03 0. -1.
        -11    1    3    3    0    0  0.53044972680E+01  0.22874277663E+02 -0.34255200518E+02  0.41530579489E+02  0.51100000000E-03 0.  1.
         12    1    3    3    0    0 -0.11154129078E+02 -0.15867502516E+02  0.34121423011E+02  0.39248741889E+02  0.00000000000E+00 0. -1.
</event>
<event>
 7    1  0.4639347E-015  0.9000767E+02  0.7816164E-02  0.1186339E+00
        -11   -1    0    0    0    0  0.00000000000E+00  0.00000000000E+00  0.45593999997E+02  0.45594000000E+02  0.51100000000E-03 0. -1.
         11   -1    0    0    0    0 -0.00000000000E+00 -0.00000000000E+00 -0.45593999997E+02  0.45594000000E+02  0.51100000000E-03 0.  1.
    9900012    2    1    2    0    0  0.58807246149E+00  0.62239990861E+00  0.81238374357E+00  0.90007670295E+02  0.89999930743E+02 0.  0.
         12    1    1    2    0    0 -0.58807246149E+00 -0.62239990861E+00 -0.81238374357E+00  0.11803297052E+01  0.00000000000E+00 0. -1.
         11    1    3    3    0    0 -0.31539106728E+01  0.66133596119E+01 -0.64425269393E+01  0.97565276361E+01  0.51100000000E-03 0. -1.
        -11    1    3    3    0    0 -0.17254007354E+02  0.31058522356E+02 -0.51390860742E+01  0.35899063868E+02  0.51100000000E-03 0.  1.
         12    1    3    3    0    0  0.20995990488E+02 -0.37049482059E+02  0.12393996757E+02  0.44352078790E+02  0.00000000000E+00 0. -1.
</event>
<event>
 7    1  0.4639347E-015  0.9000782E+02  0.7816164E-02  0.1186339E+00
        -11   -1    0    0    0    0  0.00000000000E+00  0.00000000000E+00  0.45593999997E+02  0.45594000000E+02  0.51100000000E-03 0.  1.
         11   -1    0    0    0    0 -0.00000000000E+00 -0.00000000000E+00 -0.45593999997E+02  0.45594000000E+02  0.51100000000E-03 0. -1.
    9900012    2    1    2    0    0 -0.69644562641E+00 -0.95233403206E+00  0.29069803657E-01  0.90007821339E+02  0.90000083780E+02 0.  0.
         12    1    1    2    0    0  0.69644562641E+00  0.95233403206E+00 -0.29069803657E-01  0.11801786613E+01  0.00000000000E+00 0. -1.
         11    1    3    3    0    0  0.95368567884E+01 -0.11803497466E+01  0.14337523740E+01  0.97159924381E+01  0.51100000000E-03 0. -1.
        -11    1    3    3    0    0  0.29429728702E+02  0.18472890722E+02  0.79449859824E+01  0.35643785232E+02  0.51100000000E-03 0.  1.
         12    1    3    3    0    0 -0.39663031117E+02 -0.18244875007E+02 -0.93496685528E+01  0.44648043669E+02  0.00000000000E+00 0. -1.
</event>
<event>
 7    1  0.4639347E-015  0.9000772E+02  0.7816164E-02  0.1186339E+00
        -11   -1    0    0    0    0  0.00000000000E+00  0.00000000000E+00  0.45593999997E+02  0.45594000000E+02  0.51100000000E-03 0.  1.
         11   -1    0    0    0    0 -0.00000000000E+00 -0.00000000000E+00 -0.45593999997E+02  0.45594000000E+02  0.51100000000E-03 0. -1.
    9900012    2    1    2    0    0 -0.14436404700E+00  0.11710495690E+01  0.29523958675E-01  0.90007716248E+02  0.89999977302E+02 0.  0.
         12    1    1    2    0    0  0.14436404700E+00 -0.11710495690E+01 -0.29523958675E-01  0.11802837520E+01  0.00000000000E+00 0. -1.
         11    1    3    3    0    0  0.16329397720E+02 -0.39255990567E+02  0.61463671510E+01  0.42958815797E+02  0.51100000000E-03 0. -1.
        -11    1    3    3    0    0 -0.86200491738E+01  0.42796756211E+01 -0.52883164679E+00  0.96384923278E+01  0.51100000000E-03 0.  1.
        -12    1    3    3    0    0 -0.78537125931E+01  0.36147364515E+02 -0.55880115456E+01  0.37410408123E+02  0.00000000000E+00 0.  1.
</event>
<event>
 7    1  0.4639347E-015  0.9000753E+02  0.7816164E-02  0.1186339E+00
        -11   -1    0    0    0    0  0.00000000000E+00  0.00000000000E+00  0.45593999997E+02  0.45594000000E+02  0.51100000000E-03 0.  1.
         11   -1    0    0    0    0 -0.00000000000E+00 -0.00000000000E+00 -0.45593999997E+02  0.45594000000E+02  0.51100000000E-03 0. -1.
    9900012    2    1    2    0    0 -0.11127244910E+01  0.36552309382E+00 -0.14745510460E+00  0.90007531477E+02  0.89999790093E+02 0.  0.
         12    1    1    2    0    0  0.11127244910E+01 -0.36552309382E+00  0.14745510460E+00  0.11804685227E+01  0.00000000000E+00 0. -1.
         11    1    3    3    0    0  0.83883043881E+00  0.28169396677E+01  0.81290155531E+01  0.86440545880E+01  0.51100000000E-03 0. -1.
        -11    1    3    3    0    0  0.35458529652E+02  0.13596496563E+02  0.55353670555E+01  0.38377237167E+02  0.51100000000E-03 0.  1.
         12    1    3    3    0    0 -0.37410084582E+02 -0.16047913137E+02 -0.13811837713E+02  0.42986239722E+02  0.00000000000E+00 0. -1.
</event>
<event>
 7    1  0.4639347E-015  0.9000794E+02  0.7816164E-02  0.1186339E+00
        -11   -1    0    0    0    0  0.00000000000E+00  0.00000000000E+00  0.45593999997E+02  0.45594000000E+02  0.51100000000E-03 0. -1.
         11   -1    0    0    0    0 -0.00000000000E+00 -0.00000000000E+00 -0.45593999997E+02  0.45594000000E+02  0.51100000000E-03 0.  1.
    9900012    2    1    2    0    0  0.39196225084E+00 -0.10914433870E+01  0.21833533983E+00  0.90007935004E+02  0.90000198946E+02 0.  0.
         12    1    1    2    0    0 -0.39196225084E+00  0.10914433870E+01 -0.21833533983E+00  0.11800649955E+01  0.00000000000E+00 0. -1.
         11    1    3    3    0    0  0.65446354573E+01  0.71350480668E+00 -0.77107073909E+01  0.10138853540E+02  0.51100000000E-03 0. -1.
        -11    1    3    3    0    0  0.14076094330E+02  0.12992400820E+02 -0.29290093772E+02  0.34997835706E+02  0.51100000000E-03 0.  1.
         12    1    3    3    0    0 -0.20228767537E+02 -0.14797349014E+02  0.37219136503E+02  0.44871245758E+02  0.00000000000E+00 0. -1.
</event>
<event>
 7    1  0.4639347E-015  0.9000795E+02  0.7816164E-02  0.1186339E+00
        -11   -1    0    0    0    0  0.00000000000E+00  0.00000000000E+00  0.45593999997E+02  0.45594000000E+02  0.51100000000E-03 0.  1.
         11   -1    0    0    0    0 -0.00000000000E+00 -0.00000000000E+00 -0.45593999997E+02  0.45594000000E+02  0.51100000000E-03 0. -1.
    9900012    2    1    2    0    0  0.23245244461E+00  0.11520504562E+01 -0.10614534170E+00  0.90007948634E+02  0.90000212756E+02 0.  0.
         12    1    1    2    0    0 -0.23245244461E+00 -0.11520504562E+01  0.10614534170E+00  0.11800513659E+01  0.00000000000E+00 0. -1.
         11    1    3    3    0    0  0.97195956242E+01  0.18857455712E+00  0.58906475246E+01  0.11366874152E+02  0.51100000000E-03 0. -1.
        -11    1    3    3    0    0  0.23883809540E+02  0.19332195420E+02  0.16010629324E+02  0.34648382206E+02  0.51100000000E-03 0.  1.
         12    1    3    3    0    0 -0.33370952720E+02 -0.18368719521E+02 -0.22007422190E+02  0.43992692276E+02  0.00000000000E+00 0. -1.
</event>
<event>
 7    1  0.4639347E-015  0.9000724E+02  0.7816164E-02  0.1186340E+00
        -11   -1    0    0    0    0  0.00000000000E+00  0.00000000000E+00  0.45593999997E+02  0.45594000000E+02  0.51100000000E-03 0.  1.
         11   -1    0    0    0    0 -0.00000000000E+00 -0.00000000000E+00 -0.45593999997E+02  0.45594000000E+02  0.51100000000E-03 0. -1.
    9900012    2    1    2    0    0  0.12184677656E+00  0.10936345987E+01  0.42813776622E+00  0.90007243793E+02  0.89999498610E+02 0.  0.
         12    1    1    2    0    0 -0.12184677656E+00 -0.10936345987E+01 -0.42813776622E+00  0.11807562066E+01  0.00000000000E+00 0. -1.
         11    1    3    3    0    0  0.39631244842E+02 -0.16223062714E+01 -0.38170817739E+01  0.39847679467E+02  0.51100000000E-03 0. -1.
        -11    1    3    3    0    0  0.10396974104E+01  0.88729298411E+01  0.14500798401E+01  0.90505572466E+01  0.51100000000E-03 0.  1.
        -12    1    3    3    0    0 -0.40549095476E+02 -0.61569889710E+01  0.27951397000E+01  0.41109007080E+02  0.00000000000E+00 0.  1.
</event>
<event>
 7    1  0.4639347E-015  0.9000771E+02  0.7816164E-02  0.1186339E+00
        -11   -1    0    0    0    0  0.00000000000E+00  0.00000000000E+00  0.45593999997E+02  0.45594000000E+02  0.51100000000E-03 0. -1.
         11   -1    0    0    0    0 -0.00000000000E+00 -0.00000000000E+00 -0.45593999997E+02  0.45594000000E+02  0.51100000000E-03 0.  1.
    9900012    2    1    2    0    0 -0.28860834895E-01 -0.58936664701E+00 -0.10222007035E+01  0.90007711785E+02  0.89999972780E+02 0.  0.
         12    1    1    2    0    0  0.28860834895E-01  0.58936664701E+00  0.10222007035E+01  0.11802882151E+01  0.00000000000E+00 0. -1.
         11    1    3    3    0    0  0.18152931083E+01  0.66057109339E+01 -0.64933819441E+01  0.94389997004E+01  0.51100000000E-03 0. -1.
        -11    1    3    3    0    0  0.12288471478E+02  0.33537692721E+02  0.10327614649E+02  0.37181218228E+02  0.51100000000E-03 0.  1.
         12    1    3    3    0    0 -0.14132625421E+02 -0.40732770302E+02 -0.48564334083E+01  0.43387493857E+02  0.00000000000E+00 0. -1.
</event>
<event>
 7    1  0.4639347E-015  0.9000767E+02  0.7816164E-02  0.1186339E+00
        -11   -1    0    0    0    0  0.00000000000E+00  0.00000000000E+00  0.45593999997E+02  0.45594000000E+02  0.51100000000E-03 0.  1.
         11   -1    0    0    0    0 -0.00000000000E+00 -0.00000000000E+00 -0.45593999997E+02  0.45594000000E+02  0.51100000000E-03 0. -1.
    9900012    2    1    2    0    0 -0.30359864132E+00 -0.35070950395E+00  0.10853656335E+01  0.90007666213E+02  0.89999926607E+02 0.  0.
         12    1    1    2    0    0  0.30359864132E+00  0.35070950395E+00 -0.10853656335E+01  0.11803337874E+01  0.00000000000E+00 0. -1.
         11    1    3    3    0    0 -0.87913995516E+01 -0.24551767312E+02 -0.20199190456E+02  0.32986137688E+02  0.51100000000E-03 0. -1.
        -11    1    3    3    0    0 -0.28301316117E+01 -0.12117741103E+02 -0.17247366581E+01  0.12562802680E+02  0.51100000000E-03 0.  1.
        -12    1    3    3    0    0  0.11317932522E+02  0.36318798911E+02  0.23009292748E+02  0.44458725844E+02  0.00000000000E+00 0.  1.
</event>
<event>
 7    1  0.4639347E-015  0.9000754E+02  0.7816164E-02  0.1186339E+00
        -11   -1    0    0    0    0  0.00000000000E+00  0.00000000000E+00  0.45593999997E+02  0.45594000000E+02  0.51100000000E-03 0.  1.
         11   -1    0    0    0    0 -0.00000000000E+00 -0.00000000000E+00 -0.45593999997E+02  0.45594000000E+02  0.51100000000E-03 0. -1.
    9900012    2    1    2    0    0 -0.96450224526E+00  0.58477453353E+00 -0.34821984846E+00  0.90007541234E+02  0.89999799978E+02 0.  0.
         12    1    1    2    0    0  0.96450224526E+00 -0.58477453353E+00  0.34821984846E+00  0.11804587663E+01  0.00000000000E+00 0. -1.
         11    1    3    3    0    0  0.18940507482E+01 -0.29010364642E+02  0.22407097352E+02  0.36705131752E+02  0.51100000000E-03 0. -1.
        -11    1    3    3    0    0 -0.49954763730E+01 -0.18819400726E+01  0.77540920105E+01  0.94139484702E+01  0.51100000000E-03 0.  1.
        -12    1    3    3    0    0  0.21369233796E+01  0.31477079248E+02 -0.30509409211E+02  0.43888461012E+02  0.00000000000E+00 0.  1.
</event>
<event>
 7    1  0.4639347E-015  0.9000790E+02  0.7816164E-02  0.1186339E+00
        -11   -1    0    0    0    0  0.00000000000E+00  0.00000000000E+00  0.45593999997E+02  0.45594000000E+02  0.51100000000E-03 0.  1.
         11   -1    0    0    0    0 -0.00000000000E+00 -0.00000000000E+00 -0.45593999997E+02  0.45594000000E+02  0.51100000000E-03 0. -1.
    9900012    2    1    2    0    0  0.56075500103E+00 -0.10024038627E+01  0.27086104781E+00  0.90007904503E+02  0.90000168042E+02 0.  0.
         12    1    1    2    0    0 -0.56075500103E+00  0.10024038627E+01 -0.27086104781E+00  0.11800954971E+01  0.00000000000E+00 0. -1.
         11    1    3    3    0    0 -0.57673203636E+01  0.48043682721E+01 -0.35724379374E+00  0.75147562874E+01  0.51100000000E-03 0. -1.
        -11    1    3    3    0    0 -0.15800450730E+02  0.33503652837E+02  0.39926641521E+01  0.37257084749E+02  0.51100000000E-03 0.  1.
         12    1    3    3    0    0  0.22128526095E+02 -0.39310424972E+02 -0.33645593106E+01  0.45236063466E+02  0.00000000000E+00 0. -1.
</event>
<event>
 7    1  0.4639347E-015  0.9000747E+02  0.7816164E-02  0.1186340E+00
        -11   -1    0    0    0    0  0.00000000000E+00  0.00000000000E+00  0.45593999997E+02  0.45594000000E+02  0.51100000000E-03 0. -1.
         11   -1    0    0    0    0 -0.00000000000E+00 -0.00000000000E+00 -0.45593999997E+02  0.45594000000E+02  0.51100000000E-03 0.  1.
    9900012    2    1    2    0    0  0.11417161690E+01 -0.10658442658E+00 -0.28064849645E+00  0.90007474850E+02  0.89999732718E+02 0.  0.
         12    1    1    2    0    0 -0.11417161690E+01  0.10658442658E+00  0.28064849645E+00  0.11805251497E+01  0.00000000000E+00 0. -1.
         11    1    3    3    0    0 -0.48467948341E+01  0.34431209408E+02  0.24588270327E+02  0.42586178972E+02  0.51100000000E-03 0. -1.
        -11    1    3    3    0    0  0.61967875133E+01 -0.80101236814E+01  0.12362475756E+01  0.10202478385E+02  0.51100000000E-03 0.  1.
        -12    1    3    3    0    0 -0.20827651020E+00 -0.26527670153E+02 -0.26105166399E+02  0.37218817493E+02  0.00000000000E+00 0.  1.
</event>
<event>
 7    1  0.4639347E-015  0.9000737E+02  0.7816164E-02  0.1186340E+00
        -11   -1    0    0    0    0  0.00000000000E+00  0.00000000000E+00  0.45593999997E+02  0.45594000000E+02  0.51100000000E-03 0.  1.
         11   -1    0    0    0    0 -0.00000000000E+00 -0.00000000000E+00 -0.45593999997E+02  0.45594000000E+02  0.51100000000E-03 0. -1.
    9900012    2    1    2    0    0 -0.99285306061E+00 -0.45326811523E+00  0.45020711027E+00  0.90007366430E+02  0.89999622866E+02 0.  0.
         12    1    1    2    0    0  0.99285306061E+00  0.45326811523E+00 -0.45020711027E+00  0.11806335699E+01  0.00000000000E+00 0. -1.
         11    1    3    3    0    0 -0.57389977421E+01 -0.37363854305E+01  0.11471928136E+02  0.13360456826E+02  0.51100000000E-03 0. -1.
        -11    1    3    3    0    0  0.25599437374E+02 -0.24165266094E+02  0.95859523840E+01  0.36485363677E+02  0.51100000000E-03 0.  1.
         12    1    3    3    0    0 -0.20853292692E+02  0.27448383410E+02 -0.20607673410E+02  0.40161545927E+02  0.00000000000E+00 0. -1.
</event>
<event>
 7    1  0.4639347E-015  0.9000774E+02  0.7816164E-02  0.1186339E+00
        -11   -1    0    0    0    0  0.00000000000E+00  0.00000000000E+00  0.45593999997E+02  0.45594000000E+02  0.51100000000E-03 0. -1.
         11   -1    0    0    0    0 -0.00000000000E+00 -0.00000000000E+00 -0.45593999997E+02  0.45594000000E+02  0.51100000000E-03 0.  1.
    9900012    2    1    2    0    0  0.50023957373E-01  0.11509553814E+01 -0.25651995360E+00  0.90007744446E+02  0.90000005873E+02 0.  0.
         12    1    1    2    0    0 -0.50023957373E-01 -0.11509553814E+01  0.25651995360E+00  0.11802555541E+01  0.00000000000E+00 0. -1.
         11    1    3    3    0    0  0.53569695022E+01  0.36712221510E+01  0.45605013272E+01  0.79355634296E+01  0.51100000000E-03 0. -1.
        -11    1    3    3    0    0  0.16320525482E+02  0.47743334830E+01 -0.38095611487E+02  0.41718454274E+02  0.51100000000E-03 0.  1.
         12    1    3    3    0    0 -0.21627471027E+02 -0.72946002525E+01  0.33278590206E+02  0.40353726742E+02  0.00000000000E+00 0. -1.
</event>
<event>
 7    1  0.4639347E-015  0.9000770E+02  0.7816164E-02  0.1186339E+00
        -11   -1    0    0    0    0  0.00000000000E+00  0.00000000000E+00  0.45593999997E+02  0.45594000000E+02  0.51100000000E-03 0.  1.
         11   -1    0    0    0    0 -0.00000000000E+00 -0.00000000000E+00 -0.45593999997E+02  0.45594000000E+02  0.51100000000E-03 0. -1.
    9900012    2    1    2    0    0 -0.36824816627E+00  0.17752716929E+00  0.11072395209E+01  0.90007702595E+02  0.89999963469E+02 0.  0.
         12    1    1    2    0    0  0.36824816627E+00 -0.17752716929E+00 -0.11072395209E+01  0.11802974051E+01  0.00000000000E+00 0. -1.
         11    1    3    3    0    0 -0.59490992360E+01  0.54611017518E+01  0.48508258492E+01  0.94205055992E+01  0.51100000000E-03 0. -1.
        -11    1    3    3    0    0 -0.10410201631E+02  0.68319122862E+01  0.34895260583E+02  0.37050324357E+02  0.51100000000E-03 0.  1.
         12    1    3    3    0    0  0.15991052701E+02 -0.12115486869E+02 -0.38638846912E+02  0.43536872639E+02  0.00000000000E+00 0. -1.
</event>
<event>
 7    1  0.4639347E-015  0.9000883E+02  0.7816164E-02  0.1186337E+00
        -11   -1    0    0    0    0  0.00000000000E+00  0.00000000000E+00  0.45593999997E+02  0.45594000000E+02  0.51100000000E-03 0.  1.
         11   -1    0    0    0    0 -0.00000000000E+00 -0.00000000000E+00 -0.45593999997E+02  0.45594000000E+02  0.51100000000E-03 0. -1.
    9900012    2    1    2    0    0  0.57853983387E+00 -0.92805189280E+00  0.44097609424E+00  0.90008827167E+02  0.90001102879E+02 0.  0.
         12    1    1    2    0    0 -0.57853983387E+00  0.92805189280E+00 -0.44097609424E+00  0.11791728333E+01  0.00000000000E+00 0. -1.
         11    1    3    3    0    0  0.58479154072E+01 -0.25240864768E+02  0.25002166156E+02  0.36005661799E+02  0.51100000000E-03 0. -1.
        -11    1    3    3    0    0 -0.66167318785E+01 -0.58966098976E+01  0.62398925591E+01  0.10839160874E+02  0.51100000000E-03 0.  1.
        -12    1    3    3    0    0  0.13473563052E+01  0.30209422773E+02 -0.30801082621E+02  0.43164004494E+02  0.00000000000E+00 0.  1.
</event>
<event>
 7    1  0.4639347E-015  0.9000800E+02  0.7816164E-02  0.1186339E+00
        -11   -1    0    0    0    0  0.00000000000E+00  0.00000000000E+00  0.45593999997E+02  0.45594000000E+02  0.51100000000E-03 0. -1.
         11   -1    0    0    0    0 -0.00000000000E+00 -0.00000000000E+00 -0.45593999997E+02  0.45594000000E+02  0.51100000000E-03 0.  1.
    9900012    2    1    2    0    0  0.46996817351E+00 -0.95837609511E+00 -0.50304569248E+00  0.90007995851E+02  0.90000260595E+02 0.  0.
         12    1    1    2    0    0 -0.46996817351E+00  0.95837609511E+00  0.50304569248E+00  0.11800041494E+01  0.00000000000E+00 0. -1.
         11    1    3    3    0    0  0.25649540355E+02 -0.90409721269E+01  0.20893934738E+02  0.34295693702E+02  0.51100000000E-03 0. -1.
        -11    1    3    3    0    0 -0.25892527800E+01 -0.67048586293E+01  0.11248171022E+02  0.13348434769E+02  0.51100000000E-03 0.  1.
        -12    1    3    3    0    0 -0.22590319401E+02  0.14787454661E+02 -0.32645151452E+02  0.42363867379E+02  0.00000000000E+00 0.  1.
</event>
<event>
 7    1  0.4639347E-015  0.9000787E+02  0.7816164E-02  0.1186339E+00
        -11   -1    0    0    0    0  0.00000000000E+00  0.00000000000E+00  0.45593999997E+02  0.45594000000E+02  0.51100000000E-03 0.  1.
         11   -1    0    0    0    0 -0.00000000000E+00 -0.00000000000E+00 -0.45593999997E+02  0.45594000000E+02  0.51100000000E-03 0. -1.
    9900012    2    1    2    0    0  0.99091817979E-01  0.10014372614E+01  0.61645006442E+00  0.90007870152E+02  0.90000133238E+02 0.  0.
         12    1    1    2    0    0 -0.99091817979E-01 -0.10014372614E+01 -0.61645006442E+00  0.11801298483E+01  0.00000000000E+00 0. -1.
         11    1    3    3    0    0  0.27644828147E+02  0.39792640541E+01 -0.26683237095E+02  0.38627272850E+02  0.51100000000E-03 0. -1.
        -11    1    3    3    0    0  0.64560034483E+01  0.53846516089E+01  0.39063745638E+01  0.92700709796E+01  0.51100000000E-03 0.  1.
        -12    1    3    3    0    0 -0.34001739778E+02 -0.83624784016E+01  0.23393312596E+02  0.42110526322E+02  0.00000000000E+00 0.  1.
</event>
<event>
 7    1  0.4639347E-015  0.9000780E+02  0.7816164E-02  0.1186339E+00
        -11   -1    0    0    0    0  0.00000000000E+00  0.00000000000E+00  0.45593999997E+02  0.45594000000E+02  0.51100000000E-03 0.  1.
         11   -1    0    0    0    0 -0.00000000000E+00 -0.00000000000E+00 -0.45593999997E+02  0.45594000000E+02  0.51100000000E-03 0. -1.
    9900012    2    1    2    0    0 -0.18919080586E+00 -0.93468789606E+00  0.69530105719E+00  0.90007797397E+02  0.90000059523E+02 0.  0.
         12    1    1    2    0    0  0.18919080586E+00  0.93468789606E+00 -0.69530105719E+00  0.11802026030E+01  0.00000000000E+00 0. -1.
         11    1    3    3    0    0 -0.98597689841E+01  0.13707599865E+01  0.14239378154E+01  0.10055924946E+02  0.51100000000E-03 0. -1.
        -11    1    3    3    0    0 -0.23534344929E+02 -0.74191417930E+01  0.26863830711E+02  0.36477040134E+02  0.51100000000E-03 0.  1.
         12    1    3    3    0    0  0.33204923107E+02  0.51136939104E+01 -0.27592467469E+02  0.43474832317E+02  0.00000000000E+00 0. -1.
</event>
<event>
 7    1  0.4639347E-015  0.9000771E+02  0.7816164E-02  0.1186339E+00
        -11   -1    0    0    0    0  0.00000000000E+00  0.00000000000E+00  0.45593999997E+02  0.45594000000E+02  0.51100000000E-03 0.  1.
         11   -1    0    0    0    0 -0.00000000000E+00 -0.00000000000E+00 -0.45593999997E+02  0.45594000000E+02  0.51100000000E-03 0. -1.
    9900012    2    1    2    0    0 -0.42799628456E+00 -0.94237410040E+00  0.56730175236E+00  0.90007711458E+02  0.89999972449E+02 0.  0.
         12    1    1    2    0    0  0.42799628456E+00  0.94237410040E+00 -0.56730175236E+00  0.11802885422E+01  0.00000000000E+00 0. -1.
         11    1    3    3    0    0 -0.49455085471E+01 -0.89627216144E+01  0.11481545070E+00  0.10237266060E+02  0.51100000000E-03 0. -1.
        -11    1    3    3    0    0 -0.29395948131E+01  0.38904786534E+02  0.18555140562E+02  0.43203204447E+02  0.51100000000E-03 0.  1.
         12    1    3    3    0    0  0.74571070757E+01 -0.30884439020E+02 -0.18102654260E+02  0.36567240951E+02  0.00000000000E+00 0. -1.
</event>
<event>
 7    1  0.4639347E-015  0.9000765E+02  0.7816164E-02  0.1186339E+00
        -11   -1    0    0    0    0  0.00000000000E+00  0.00000000000E+00  0.45593999997E+02  0.45594000000E+02  0.51100000000E-03 0.  1.
         11   -1    0    0    0    0 -0.00000000000E+00 -0.00000000000E+00 -0.45593999997E+02  0.45594000000E+02  0.51100000000E-03 0. -1.
    9900012    2    1    2    0    0 -0.62616644670E+00  0.70931778431E+00  0.70569859805E+00  0.90007649777E+02  0.89999909954E+02 0.  0.
         12    1    1    2    0    0  0.62616644670E+00 -0.70931778431E+00 -0.70569859805E+00  0.11803502232E+01  0.00000000000E+00 0. -1.
         11    1    3    3    0    0 -0.19902337945E+02  0.24637874840E+02 -0.20212197930E+02  0.37572075771E+02  0.51100000000E-03 0. -1.
        -11    1    3    3    0    0  0.15597753752E+02  0.56153850365E+01  0.14399421803E+02  0.21958274516E+02  0.51100000000E-03 0.  1.
        -12    1    3    3    0    0  0.36784177467E+01 -0.29543942092E+02  0.65184747254E+01  0.30477299490E+02  0.00000000000E+00 0.  1.
</event>
<event>
 7    1  0.4639347E-015  0.9000773E+02  0.7816164E-02  0.1186339E+00
        -11   -1    0    0    0    0  0.00000000000E+00  0.00000000000E+00  0.45593999997E+02  0.45594000000E+02  0.51100000000E-03 0. -1.
         11   -1    0    0    0    0 -0.00000000000E+00 -0.00000000000E+00 -0.45593999997E+02  0.45594000000E+02  0.51100000000E-03 0.  1.
    9900012    2    1    2    0    0  0.98864535494E+00  0.58220621241E+00  0.27686922316E+00  0.90007728727E+02  0.89999989946E+02 0.  0.
         12    1    1    2    0    0 -0.98864535494E+00 -0.58220621241E+00 -0.27686922316E+00  0.11802712732E+01  0.00000000000E+00 0. -1.
         11    1    3    3    0    0  0.28493106482E+02 -0.41436550835E+01  0.25165015081E+02  0.38240096479E+02  0.51100000000E-03 0. -1.
        -11    1    3    3    0    0 -0.50736324675E+00 -0.59017638700E+01  0.66555430227E+01  0.89097972721E+01  0.51100000000E-03 0.  1.
        -12    1    3    3    0    0 -0.26997097880E+02  0.10627625166E+02 -0.31543688881E+02  0.42857834976E+02  0.00000000000E+00 0.  1.
</event>
<event>
 7    1  0.4639347E-015  0.9000773E+02  0.7816164E-02  0.1186339E+00
        -11   -1    0    0    0    0  0.00000000000E+00  0.00000000000E+00  0.45593999997E+02  0.45594000000E+02  0.51100000000E-03 0.  1.
         11   -1    0    0    0    0 -0.00000000000E+00 -0.00000000000E+00 -0.45593999997E+02  0.45594000000E+02  0.51100000000E-03 0. -1.
    9900012    2    1    2    0    0 -0.28253457954E+00  0.82967125636E-01  0.11429496976E+01  0.90007727428E+02  0.89999988630E+02 0.  0.
         12    1    1    2    0    0  0.28253457954E+00 -0.82967125636E-01 -0.11429496976E+01  0.11802725718E+01  0.00000000000E+00 0. -1.
         11    1    3    3    0    0 -0.42465356341E+01 -0.11492604918E+02 -0.29930198872E+02  0.32340838540E+02  0.51100000000E-03 0. -1.
        -11    1    3    3    0    0  0.61386193906E+00  0.80826663633E+01 -0.11912951208E+02  0.14409189039E+02  0.51100000000E-03 0.  1.
        -12    1    3    3    0    0  0.33501391155E+01  0.34929056807E+01  0.42986099777E+02  0.43257699849E+02  0.00000000000E+00 0.  1.
</event>
<event>
 7    1  0.4639347E-015  0.9000772E+02  0.7816164E-02  0.1186339E+00
        -11   -1    0    0    0    0  0.00000000000E+00  0.00000000000E+00  0.45593999997E+02  0.45594000000E+02  0.51100000000E-03 0. -1.
         11   -1    0    0    0    0 -0.00000000000E+00 -0.00000000000E+00 -0.45593999997E+02  0.45594000000E+02  0.51100000000E-03 0.  1.
    9900012    2    1    2    0    0  0.96502978168E+00 -0.67897039138E+00  0.28079318374E-01  0.90007715407E+02  0.89999976451E+02 0.  0.
         12    1    1    2    0    0 -0.96502978168E+00  0.67897039138E+00 -0.28079318374E-01  0.11802845928E+01  0.00000000000E+00 0. -1.
         11    1    3    3    0    0 -0.54230168978E+01 -0.41372098135E+00 -0.65186105453E+01  0.84895559970E+01  0.51100000000E-03 0. -1.
        -11    1    3    3    0    0  0.20606511910E+02  0.13323089961E+02 -0.30757699575E+02  0.39346780588E+02  0.51100000000E-03 0.  1.
         12    1    3    3    0    0 -0.14218465230E+02 -0.13588339371E+02  0.37304389439E+02  0.42171378822E+02  0.00000000000E+00 0. -1.
</event>
<event>
 7    1  0.4639347E-015  0.9000769E+02  0.7816164E-02  0.1186339E+00
        -11   -1    0    0    0    0  0.00000000000E+00  0.00000000000E+00  0.45593999997E+02  0.45594000000E+02  0.51100000000E-03 0.  1.
         11   -1    0    0    0    0 -0.00000000000E+00 -0.00000000000E+00 -0.45593999997E+02  0.45594000000E+02  0.51100000000E-03 0. -1.
    9900012    2    1    2    0    0  0.10693043947E+01  0.45849491766E+00  0.19874813800E+00  0.90007690591E+02  0.89999951307E+02 0.  0.
         12    1    1    2    0    0 -0.10693043947E+01 -0.45849491766E+00 -0.19874813800E+00  0.11803094088E+01  0.00000000000E+00 0. -1.
         11    1    3    3    0    0  0.14138068104E+02 -0.28003000107E+01 -0.92899351696E+01  0.17147289745E+02  0.51100000000E-03 0. -1.
        -11    1    3    3    0    0  0.28080037648E+02 -0.84624906402E+01  0.59813037788E+01  0.29931225456E+02  0.51100000000E-03 0.  1.
         12    1    3    3    0    0 -0.41148801358E+02  0.11721285569E+02  0.35073795288E+01  0.42929175390E+02  0.00000000000E+00 0. -1.
</event>
<event>
 7    1  0.4639347E-015  0.9000781E+02  0.7816164E-02  0.1186339E+00
        -11   -1    0    0    0    0  0.00000000000E+00  0.00000000000E+00  0.45593999997E+02  0.45594000000E+02  0.51100000000E-03 0.  1.
         11   -1    0    0    0    0 -0.00000000000E+00 -0.00000000000E+00 -0.45593999997E+02  0.45594000000E+02  0.51100000000E-03 0. -1.
    9900012    2    1    2    0    0  0.29911739025E+00  0.27646450140E+00  0.11076803739E+01  0.90007805252E+02  0.90000067481E+02 0.  0.
         12    1    1    2    0    0 -0.29911739025E+00 -0.27646450140E+00 -0.11076803739E+01  0.11801947485E+01  0.00000000000E+00 0. -1.
         11    1    3    3    0    0 -0.76237314170E+01  0.46815943663E+01  0.62399974421E+00  0.89681649445E+01  0.51100000000E-03 0. -1.
        -11    1    3    3    0    0 -0.69669999594E+01 -0.29067505207E+02  0.28177655269E+02  0.41078451822E+02  0.51100000000E-03 0.  1.
         12    1    3    3    0    0  0.14889848767E+02  0.24662375342E+02 -0.27693974639E+02  0.39961188485E+02  0.00000000000E+00 0. -1.
</event>
<event>
 7    1  0.4639347E-015  0.9000774E+02  0.7816164E-02  0.1186339E+00
        -11   -1    0    0    0    0  0.00000000000E+00  0.00000000000E+00  0.45593999997E+02  0.45594000000E+02  0.51100000000E-03 0.  1.
         11   -1    0    0    0    0 -0.00000000000E+00 -0.00000000000E+00 -0.45593999997E+02  0.45594000000E+02  0.51100000000E-03 0. -1.
    9900012    2    1    2    0    0  0.10191786646E+01 -0.43351735470E+00 -0.40787370875E+00  0.90007735873E+02  0.89999997187E+02 0.  0.
         12    1    1    2    0    0 -0.10191786646E+01  0.43351735470E+00  0.40787370875E+00  0.11802641270E+01  0.00000000000E+00 0. -1.
         11    1    3    3    0    0 -0.46123446273E-01 -0.85222655194E+01  0.44144553613E+01  0.95978410777E+01  0.51100000000E-03 0. -1.
        -11    1    3    3    0    0  0.31634513987E+02 -0.56250928749E+00  0.22241921243E+02  0.38675081806E+02  0.51100000000E-03 0.  1.
         12    1    3    3    0    0 -0.30569211876E+02  0.86512574521E+01 -0.27064250313E+02  0.41734812989E+02  0.00000000000E+00 0. -1.
</event>
<event>
 7    1  0.4639347E-015  0.9000788E+02  0.7816164E-02  0.1186339E+00
        -11   -1    0    0    0    0  0.00000000000E+00  0.00000000000E+00  0.45593999997E+02  0.45594000000E+02  0.51100000000E-03 0. -1.
         11   -1    0    0    0    0 -0.00000000000E+00 -0.00000000000E+00 -0.45593999997E+02  0.45594000000E+02  0.51100000000E-03 0.  1.
    9900012    2    1    2    0    0  0.86516433725E-01 -0.19572934890E+00 -0.11605592200E+01  0.90007875950E+02  0.90000139112E+02 0.  0.
         12    1    1    2    0    0 -0.86516433725E-01  0.19572934890E+00  0.11605592200E+01  0.11801240504E+01  0.00000000000E+00 0. -1.
         11    1    3    3    0    0 -0.50170235881E+01  0.16064175396E+02  0.27942403235E+02  0.32619107217E+02  0.51100000000E-03 0. -1.
        -11    1    3    3    0    0  0.97297039511E+01 -0.20310692517E+02  0.47210058289E+01  0.23010416463E+02  0.51100000000E-03 0.  1.
        -12    1    3    3    0    0 -0.46261639293E+01  0.40507877725E+01 -0.33823968284E+02  0.34378352269E+02  0.00000000000E+00 0.  1.
</event>
<event>
 7    1  0.4639347E-015  0.9000770E+02  0.7816164E-02  0.1186339E+00
        -11   -1    0    0    0    0  0.00000000000E+00  0.00000000000E+00  0.45593999997E+02  0.45594000000E+02  0.51100000000E-03 0. -1.
         11   -1    0    0    0    0 -0.00000000000E+00 -0.00000000000E+00 -0.45593999997E+02  0.45594000000E+02  0.51100000000E-03 0.  1.
    9900012    2    1    2    0    0 -0.10915564206E+00 -0.63392278849E+00  0.98961862542E+00  0.90007695768E+02  0.89999956552E+02 0.  0.
         12    1    1    2    0    0  0.10915564206E+00  0.63392278849E+00 -0.98961862542E+00  0.11803042319E+01  0.00000000000E+00 0. -1.
         11    1    3    3    0    0 -0.89312416647E+01 -0.39519188500E+02 -0.67840013214E+01  0.41079873558E+02  0.51100000000E-03 0. -1.
        -11    1    3    3    0    0 -0.80951384934E+01  0.30217550028E+01  0.18155774929E+01  0.88294163124E+01  0.51100000000E-03 0.  1.
        -12    1    3    3    0    0  0.16917224516E+02  0.35863510708E+02  0.59580424539E+01  0.40098405898E+02  0.00000000000E+00 0.  1.
</event>
<event>
 7    1  0.4639347E-015  0.9000774E+02  0.7816164E-02  0.1186339E+00
        -11   -1    0    0    0    0  0.00000000000E+00  0.00000000000E+00  0.45593999997E+02  0.45594000000E+02  0.51100000000E-03 0.  1.
         11   -1    0    0    0    0 -0.00000000000E+00 -0.00000000000E+00 -0.45593999997E+02  0.45594000000E+02  0.51100000000E-03 0. -1.
    9900012    2    1    2    0    0 -0.40350380516E+00  0.73224699211E+00  0.83306976273E+00  0.90007743160E+02  0.90000004570E+02 0.  0.
         12    1    1    2    0    0  0.40350380516E+00 -0.73224699211E+00 -0.83306976273E+00  0.11802568398E+01  0.00000000000E+00 0. -1.
         11    1    3    3    0    0  0.69897925218E+01  0.95756624699E+01  0.83450353540E+01  0.14497935251E+02  0.51100000000E-03 0. -1.
        -11    1    3    3    0    0 -0.21620474104E+02 -0.58470706440E+01  0.28748388730E+02  0.36443147373E+02  0.51100000000E-03 0.  1.
         12    1    3    3    0    0  0.14227177777E+02 -0.29963448338E+01 -0.36260354322E+02  0.39066660536E+02  0.00000000000E+00 0. -1.
</event>
<event>
 7    1  0.4639347E-015  0.9000732E+02  0.7816164E-02  0.1186340E+00
        -11   -1    0    0    0    0  0.00000000000E+00  0.00000000000E+00  0.45593999997E+02  0.45594000000E+02  0.51100000000E-03 0.  1.
         11   -1    0    0    0    0 -0.00000000000E+00 -0.00000000000E+00 -0.45593999997E+02  0.45594000000E+02  0.51100000000E-03 0. -1.
    9900012    2    1    2    0    0 -0.45380292976E+00 -0.64084229947E+00  0.88170109296E+00  0.90007316821E+02  0.89999572602E+02 0.  0.
         12    1    1    2    0    0  0.45380292976E+00  0.64084229947E+00 -0.88170109296E+00  0.11806831790E+01  0.00000000000E+00 0. -1.
         11    1    3    3    0    0 -0.38361126013E+01 -0.80731954341E+01  0.55762290861E+00  0.89556232600E+01  0.51100000000E-03 0. -1.
        -11    1    3    3    0    0 -0.10842852741E+02 -0.23592951721E+02  0.27204220385E+02  0.37606707294E+02  0.51100000000E-03 0.  1.
         12    1    3    3    0    0  0.14225162412E+02  0.31025304855E+02 -0.26880142201E+02  0.43444986267E+02  0.00000000000E+00 0. -1.
</event>
<event>
 7    1  0.4639347E-015  0.9000772E+02  0.7816164E-02  0.1186339E+00
        -11   -1    0    0    0    0  0.00000000000E+00  0.00000000000E+00  0.45593999997E+02  0.45594000000E+02  0.51100000000E-03 0. -1.
         11   -1    0    0    0    0 -0.00000000000E+00 -0.00000000000E+00 -0.45593999997E+02  0.45594000000E+02  0.51100000000E-03 0.  1.
    9900012    2    1    2    0    0 -0.34139025072E+00 -0.12079294651E+00 -0.11233579980E+01  0.90007715530E+02  0.89999976575E+02 0.  0.
         12    1    1    2    0    0  0.34139025072E+00  0.12079294651E+00  0.11233579980E+01  0.11802844703E+01  0.00000000000E+00 0. -1.
         11    1    3    3    0    0 -0.37038968826E+02 -0.13324335925E+02  0.94845850736E+01  0.40489263933E+02  0.51100000000E-03 0. -1.
        -11    1    3    3    0    0  0.14931991118E+00  0.79233604301E+01 -0.97717253810E+01  0.12581277921E+02  0.51100000000E-03 0.  1.
        -12    1    3    3    0    0  0.36548258664E+02  0.52801825488E+01 -0.83621769062E+00  0.36937173676E+02  0.00000000000E+00 0.  1.
</event>
<event>
 7    1  0.4639347E-015  0.9000775E+02  0.7816164E-02  0.1186339E+00
        -11   -1    0    0    0    0  0.00000000000E+00  0.00000000000E+00  0.45593999997E+02  0.45594000000E+02  0.51100000000E-03 0. -1.
         11   -1    0    0    0    0 -0.00000000000E+00 -0.00000000000E+00 -0.45593999997E+02  0.45594000000E+02  0.51100000000E-03 0.  1.
    9900012    2    1    2    0    0  0.22762882491E+00  0.10815535022E+00 -0.11530277939E+01  0.90007751909E+02  0.90000013435E+02 0.  0.
         12    1    1    2    0    0 -0.22762882491E+00 -0.10815535022E+00  0.11530277939E+01  0.11802480905E+01  0.00000000000E+00 0. -1.
         11    1    3    3    0    0  0.66526003638E+01  0.48417254101E+01 -0.25363003447E+01  0.86100067507E+01  0.51100000000E-03 0. -1.
        -11    1    3    3    0    0  0.61330650255E+01  0.32718031426E+02 -0.17508521011E+02  0.37611598946E+02  0.51100000000E-03 0.  1.
         12    1    3    3    0    0 -0.12558036564E+02 -0.37451601486E+02  0.18891793562E+02  0.43786146213E+02  0.00000000000E+00 0. -1.
</event>
<event>
 7    1  0.4639347E-015  0.9000775E+02  0.7816164E-02  0.1186339E+00
        -11   -1    0    0    0    0  0.00000000000E+00  0.00000000000E+00  0.45593999997E+02  0.45594000000E+02  0.51100000000E-03 0. -1.
         11   -1    0    0    0    0 -0.00000000000E+00 -0.00000000000E+00 -0.45593999997E+02  0.45594000000E+02  0.51100000000E-03 0.  1.
    9900012    2    1    2    0    0 -0.51766829134E+00 -0.77069970487E+00 -0.72871119954E+00  0.90007754895E+02  0.90000016460E+02 0.  0.
         12    1    1    2    0    0  0.51766829134E+00  0.77069970487E+00  0.72871119954E+00  0.11802451047E+01  0.00000000000E+00 0. -1.
         11    1    3    3    0    0  0.52543266252E+01 -0.36987925685E+02  0.17224833091E+02  0.41138904580E+02  0.51100000000E-03 0. -1.
        -11    1    3    3    0    0 -0.13242649584E+01 -0.24520905987E+01 -0.83141378013E+01  0.87687692194E+01  0.51100000000E-03 0.  1.
        -12    1    3    3    0    0 -0.44477299581E+01  0.38669316579E+02 -0.96394064898E+01  0.40100081096E+02  0.00000000000E+00 0.  1.
</event>
<event>
 7    1  0.4639347E-015  0.9000778E+02  0.7816164E-02  0.1186339E+00
        -11   -1    0    0    0    0  0.00000000000E+00  0.00000000000E+00  0.45593999997E+02  0.45594000000E+02  0.51100000000E-03 0.  1.
         11   -1    0    0    0    0 -0.00000000000E+00 -0.00000000000E+00 -0.45593999997E+02  0.45594000000E+02  0.51100000000E-03 0. -1.
    9900012    2    1    2    0    0  0.97383133603E+00  0.65335184659E+00  0.13300913317E+00  0.90007784962E+02  0.90000046923E+02 0.  0.
         12    1    1    2    0    0 -0.97383133603E+00 -0.65335184659E+00 -0.13300913317E+00  0.11802150380E+01  0.00000000000E+00 0. -1.
         11    1    3    3    0    0  0.52518449015E+01  0.45352324444E+01  0.68907033395E+01  0.97791615678E+01  0.51100000000E-03 0. -1.
        -11    1    3    3    0    0  0.62502192584E+01  0.37035542627E+02 -0.54991940110E+01  0.37959686425E+02  0.51100000000E-03 0.  1.
         12    1    3    3    0    0 -0.10528232824E+02 -0.40917423225E+02 -0.12585001953E+01  0.42268936969E+02  0.00000000000E+00 0. -1.
</event>
<event>
 7    1  0.4639347E-015  0.9000770E+02  0.7816164E-02  0.1186339E+00
        -11   -1    0    0    0    0  0.00000000000E+00  0.00000000000E+00  0.45593999997E+02  0.45594000000E+02  0.51100000000E-03 0. -1.
         11   -1    0    0    0    0 -0.00000000000E+00 -0.00000000000E+00 -0.45593999997E+02  0.45594000000E+02  0.51100000000E-03 0.  1.
    9900012    2    1    2    0    0 -0.94894974556E+00 -0.67632677862E+00 -0.18759910391E+00  0.90007696245E+02  0.89999957035E+02 0.  0.
         12    1    1    2    0    0  0.94894974556E+00  0.67632677862E+00  0.18759910391E+00  0.11803037553E+01  0.00000000000E+00 0. -1.
         11    1    3    3    0    0 -0.72876589669E+01 -0.15980206183E+01  0.39219893299E+01  0.84288577920E+01  0.51100000000E-03 0. -1.
        -11    1    3    3    0    0 -0.20230753968E+02 -0.24269958790E+02 -0.24215173424E+02  0.39808151552E+02  0.51100000000E-03 0.  1.
         12    1    3    3    0    0  0.26569463189E+02  0.25191652629E+02  0.20105584991E+02  0.41770686901E+02  0.00000000000E+00 0. -1.
</event>
<event>
 7    1  0.4639347E-015  0.9000763E+02  0.7816164E-02  0.1186339E+00
        -11   -1    0    0    0    0  0.00000000000E+00  0.00000000000E+00  0.45593999997E+02  0.45594000000E+02  0.51100000000E-03 0.  1.
         11   -1    0    0    0    0 -0.00000000000E+00 -0.00000000000E+00 -0.45593999997E+02  0.45594000000E+02  0.51100000000E-03 0. -1.
    9900012    2    1    2    0    0  0.10595216646E+01 -0.12147543816E+00 -0.50588529532E+00  0.90007634645E+02  0.89999894622E+02 0.  0.
         12    1    1    2    0    0 -0.10595216646E+01  0.12147543816E+00  0.50588529532E+00  0.11803653552E+01  0.00000000000E+00 0. -1.
         11    1    3    3    0    0 -0.26949468983E+02 -0.20777679265E+02 -0.10683424433E+02  0.35666810790E+02  0.51100000000E-03 0. -1.
        -11    1    3    3    0    0 -0.23966775959E+00 -0.95321735876E+01 -0.44009719870E+01  0.10501825014E+02  0.51100000000E-03 0.  1.
        -12    1    3    3    0    0  0.28248658407E+02  0.30188377414E+02  0.14578511124E+02  0.43838998840E+02  0.00000000000E+00 0.  1.
</event>
<event>
 7    1  0.4639347E-015  0.9000774E+02  0.7816164E-02  0.1186339E+00
        -11   -1    0    0    0    0  0.00000000000E+00  0.00000000000E+00  0.45593999997E+02  0.45594000000E+02  0.51100000000E-03 0. -1.
         11   -1    0    0    0    0 -0.00000000000E+00 -0.00000000000E+00 -0.45593999997E+02  0.45594000000E+02  0.51100000000E-03 0.  1.
    9900012    2    1    2    0    0  0.12350361586E+00 -0.11361828064E+01 -0.29470158295E+00  0.90007740056E+02  0.90000001425E+02 0.  0.
         12    1    1    2    0    0 -0.12350361586E+00  0.11361828064E+01  0.29470158295E+00  0.11802599441E+01  0.00000000000E+00 0. -1.
         11    1    3    3    0    0  0.33968054499E+01 -0.13521525414E+02  0.47491538583E+00  0.13949748445E+02  0.51100000000E-03 0. -1.
        -11    1    3    3    0    0 -0.11233782332E+02 -0.24002097291E+02 -0.20870427536E+02  0.33732377409E+02  0.51100000000E-03 0.  1.
         12    1    3    3    0    0  0.79604804985E+01  0.36387439899E+02  0.20100810567E+02  0.42325614202E+02  0.00000000000E+00 0. -1.
</event>
<event>
 7    1  0.4639347E-015  0.9000777E+02  0.7816164E-02  0.1186339E+00
        -11   -1    0    0    0    0  0.00000000000E+00  0.00000000000E+00  0.45593999997E+02  0.45594000000E+02  0.51100000000E-03 0. -1.
         11   -1    0    0    0    0 -0.00000000000E+00 -0.00000000000E+00 -0.45593999997E+02  0.45594000000E+02  0.51100000000E-03 0.  1.
    9900012    2    1    2    0    0  0.11718279380E+01  0.77901616085E-01  0.11700701074E+00  0.90007771201E+02  0.90000032981E+02 0.  0.
         12    1    1    2    0    0 -0.11718279380E+01 -0.77901616085E-01 -0.11700701074E+00  0.11802287992E+01  0.00000000000E+00 0. -1.
         11    1    3    3    0    0 -0.17311384989E+02 -0.30899862148E+02  0.30285635734E+01  0.35547963775E+02  0.51100000000E-03 0. -1.
        -11    1    3    3    0    0 -0.12978184097E+01 -0.50462321648E+01  0.10088901142E+02  0.11354942457E+02  0.51100000000E-03 0.  1.
        -12    1    3    3    0    0  0.19781031337E+02  0.36023995929E+02 -0.13000457705E+02  0.43104864968E+02  0.00000000000E+00 0.  1.
</event>
<event>
 7    1  0.4639347E-015  0.9000781E+02  0.7816164E-02  0.1186339E+00
        -11   -1    0    0    0    0  0.00000000000E+00  0.00000000000E+00  0.45593999997E+02  0.45594000000E+02  0.51100000000E-03 0. -1.
         11   -1    0    0    0    0 -0.00000000000E+00 -0.00000000000E+00 -0.45593999997E+02  0.45594000000E+02  0.51100000000E-03 0.  1.
    9900012    2    1    2    0    0  0.84855978215E+00  0.35150159662E+00  0.74110476592E+00  0.90007812155E+02  0.90000074475E+02 0.  0.
         12    1    1    2    0    0 -0.84855978215E+00 -0.35150159662E+00 -0.74110476592E+00  0.11801878454E+01  0.00000000000E+00 0. -1.
         11    1    3    3    0    0  0.93235096340E+01  0.10828887211E+01  0.71076026311E+00  0.94130579670E+01  0.51100000000E-03 0. -1.
        -11    1    3    3    0    0  0.31766500477E+02 -0.14073860990E+02 -0.11604971174E+02  0.36631400081E+02  0.51100000000E-03 0.  1.
         12    1    3    3    0    0 -0.40241450328E+02  0.13342473866E+02  0.11635315677E+02  0.43963354106E+02  0.00000000000E+00 0. -1.
</event>
<event>
 7    1  0.4639347E-015  0.9000777E+02  0.7816164E-02  0.1186339E+00
        -11   -1    0    0    0    0  0.00000000000E+00  0.00000000000E+00  0.45593999997E+02  0.45594000000E+02  0.51100000000E-03 0.  1.
         11   -1    0    0    0    0 -0.00000000000E+00 -0.00000000000E+00 -0.45593999997E+02  0.45594000000E+02  0.51100000000E-03 0. -1.
    9900012    2    1    2    0    0  0.11149708601E+01 -0.34670466035E+00  0.17197078786E+00  0.90007772017E+02  0.90000033807E+02 0.  0.
         12    1    1    2    0    0 -0.11149708601E+01  0.34670466035E+00 -0.17197078786E+00  0.11802279832E+01  0.00000000000E+00 0. -1.
         11    1    3    3    0    0 -0.17498971078E+01  0.72431055272E+01  0.68377585872E+01  0.10113340710E+02  0.51100000000E-03 0. -1.
        -11    1    3    3    0    0  0.37162843001E+02  0.13244740242E+02 -0.21508408163E+01  0.39511089082E+02  0.51100000000E-03 0.  1.
         12    1    3    3    0    0 -0.34297975033E+02 -0.20834550429E+02 -0.45149469831E+01  0.40383342224E+02  0.00000000000E+00 0. -1.
</event>
<event>
 7    1  0.4639347E-015  0.9000783E+02  0.7816164E-02  0.1186339E+00
        -11   -1    0    0    0    0  0.00000000000E+00  0.00000000000E+00  0.45593999997E+02  0.45594000000E+02  0.51100000000E-03 0.  1.
         11   -1    0    0    0    0 -0.00000000000E+00 -0.00000000000E+00 -0.45593999997E+02  0.45594000000E+02  0.51100000000E-03 0. -1.
    9900012    2    1    2    0    0 -0.76411579922E+00 -0.73282454592E+00 -0.52143198962E+00  0.90007832177E+02  0.90000094762E+02 0.  0.
         12    1    1    2    0    0  0.76411579922E+00  0.73282454592E+00  0.52143198962E+00  0.11801678226E+01  0.00000000000E+00 0. -1.
         11    1    3    3    0    0  0.84197966582E+00  0.13116603263E+01 -0.82700372014E+01  0.84156341498E+01  0.51100000000E-03 0. -1.
        -11    1    3    3    0    0 -0.40587371928E+02  0.65590760263E+01  0.67200460840E+01  0.41659515815E+02  0.51100000000E-03 0.  1.
         12    1    3    3    0    0  0.38981276463E+02 -0.86035608985E+01  0.10285591278E+01  0.39932682212E+02  0.00000000000E+00 0. -1.
</event>
<event>
 7    1  0.4639347E-015  0.9000773E+02  0.7816164E-02  0.1186339E+00
        -11   -1    0    0    0    0  0.00000000000E+00  0.00000000000E+00  0.45593999997E+02  0.45594000000E+02  0.51100000000E-03 0.  1.
         11   -1    0    0    0    0 -0.00000000000E+00 -0.00000000000E+00 -0.45593999997E+02  0.45594000000E+02  0.51100000000E-03 0. -1.
    9900012    2    1    2    0    0  0.16735265758E+00  0.99819848941E+00  0.60715278569E+00  0.90007728149E+02  0.89999989361E+02 0.  0.
         12    1    1    2    0    0 -0.16735265758E+00 -0.99819848941E+00 -0.60715278569E+00  0.11802718507E+01  0.00000000000E+00 0. -1.
         11    1    3    3    0    0 -0.44272884148E+01 -0.11999013484E+02  0.22236693173E+01  0.12981599007E+02  0.51100000000E-03 0. -1.
        -11    1    3    3    0    0 -0.32999934762E+02  0.19153521051E+02  0.45822078997E+01  0.38429802138E+02  0.51100000000E-03 0.  1.
         12    1    3    3    0    0  0.37594575834E+02 -0.61563090774E+01 -0.61987244313E+01  0.38596327004E+02  0.00000000000E+00 0. -1.
</event>
<event>
 7    1  0.4639347E-015  0.9000777E+02  0.7816164E-02  0.1186339E+00
        -11   -1    0    0    0    0  0.00000000000E+00  0.00000000000E+00  0.45593999997E+02  0.45594000000E+02  0.51100000000E-03 0.  1.
         11   -1    0    0    0    0 -0.00000000000E+00 -0.00000000000E+00 -0.45593999997E+02  0.45594000000E+02  0.51100000000E-03 0. -1.
    9900012    2    1    2    0    0 -0.93134650895E+00 -0.65377071993E+00  0.31325242674E+00  0.90007767160E+02  0.90000028886E+02 0.  0.
         12    1    1    2    0    0  0.93134650895E+00  0.65377071993E+00 -0.31325242674E+00  0.11802328401E+01  0.00000000000E+00 0. -1.
         11    1    3    3    0    0 -0.39839468806E+01  0.73933821882E+01 -0.15016591655E+01  0.85316418958E+01  0.51100000000E-03 0. -1.
        -11    1    3    3    0    0  0.10118272599E+02 -0.29250335110E+02  0.31603822819E+02  0.44235315772E+02  0.51100000000E-03 0.  1.
         12    1    3    3    0    0 -0.70656722272E+01  0.21203182202E+02 -0.29788911227E+02  0.37240809492E+02  0.00000000000E+00 0. -1.
</event>
<event>
 7    1  0.4639347E-015  0.9000784E+02  0.7816164E-02  0.1186339E+00
        -11   -1    0    0    0    0  0.00000000000E+00  0.00000000000E+00  0.45593999997E+02  0.45594000000E+02  0.51100000000E-03 0.  1.
         11   -1    0    0    0    0 -0.00000000000E+00 -0.00000000000E+00 -0.45593999997E+02  0.45594000000E+02  0.51100000000E-03 0. -1.
    9900012    2    1    2    0    0  0.10148327511E+01 -0.60099175001E+00  0.41141317719E-01  0.90007843568E+02  0.90000106303E+02 0.  0.
         12    1    1    2    0    0 -0.10148327511E+01  0.60099175001E+00 -0.41141317719E-01  0.11801564321E+01  0.00000000000E+00 0. -1.
         11    1    3    3    0    0 -0.28107399715E+02  0.39541922526E+01  0.24629823407E+02  0.37580443803E+02  0.51100000000E-03 0. -1.
        -11    1    3    3    0    0  0.66953316525E+01  0.22176257524E+01  0.90257318350E+01  0.11454656928E+02  0.51100000000E-03 0.  1.
        -12    1    3    3    0    0  0.22426900814E+02 -0.67728097549E+01 -0.33614413924E+02  0.40972742837E+02  0.00000000000E+00 0.  1.
</event>
<event>
 7    1  0.4639347E-015  0.9000772E+02  0.7816164E-02  0.1186339E+00
        -11   -1    0    0    0    0  0.00000000000E+00  0.00000000000E+00  0.45593999997E+02  0.45594000000E+02  0.51100000000E-03 0.  1.
         11   -1    0    0    0    0 -0.00000000000E+00 -0.00000000000E+00 -0.45593999997E+02  0.45594000000E+02  0.51100000000E-03 0. -1.
    9900012    2    1    2    0    0  0.30984985877E+00 -0.11342245909E+01 -0.10285488363E+00  0.90007723979E+02  0.89999985136E+02 0.  0.
         12    1    1    2    0    0 -0.30984985877E+00  0.11342245909E+01  0.10285488363E+00  0.11802760206E+01  0.00000000000E+00 0. -1.
         11    1    3    3    0    0  0.84824999174E+01  0.10126607090E+01  0.46206249173E+01  0.97122840489E+01  0.51100000000E-03 0. -1.
        -11    1    3    3    0    0  0.20917542059E+02  0.29660190803E+02  0.33269794072E+01  0.36446389073E+02  0.51100000000E-03 0.  1.
         12    1    3    3    0    0 -0.29090192117E+02 -0.31807076103E+02 -0.80504592081E+01  0.43849050857E+02  0.00000000000E+00 0. -1.
</event>
<event>
 7    1  0.4639347E-015  0.9000779E+02  0.7816164E-02  0.1186339E+00
        -11   -1    0    0    0    0  0.00000000000E+00  0.00000000000E+00  0.45593999997E+02  0.45594000000E+02  0.51100000000E-03 0. -1.
         11   -1    0    0    0    0 -0.00000000000E+00 -0.00000000000E+00 -0.45593999997E+02  0.45594000000E+02  0.51100000000E-03 0.  1.
    9900012    2    1    2    0    0 -0.10657319832E+01  0.50513395900E+00  0.44267749820E-01  0.90007786202E+02  0.90000048179E+02 0.  0.
         12    1    1    2    0    0  0.10657319832E+01 -0.50513395900E+00 -0.44267749820E-01  0.11802137985E+01  0.00000000000E+00 0. -1.
         11    1    3    3    0    0  0.78598981383E+01 -0.13445290128E+01 -0.64625498808E+01  0.10264029824E+02  0.51100000000E-03 0. -1.
        -11    1    3    3    0    0  0.18232423524E+02 -0.15987879147E+02 -0.24755946492E+02  0.34653866078E+02  0.51100000000E-03 0.  1.
         12    1    3    3    0    0 -0.27158053645E+02  0.17837542119E+02  0.31262764122E+02  0.45089890299E+02  0.00000000000E+00 0. -1.
</event>
<event>
 7    1  0.4639347E-015  0.9000773E+02  0.7816164E-02  0.1186339E+00
        -11   -1    0    0    0    0  0.00000000000E+00  0.00000000000E+00  0.45593999997E+02  0.45594000000E+02  0.51100000000E-03 0.  1.
         11   -1    0    0    0    0 -0.00000000000E+00 -0.00000000000E+00 -0.45593999997E+02  0.45594000000E+02  0.51100000000E-03 0. -1.
    9900012    2    1    2    0    0  0.32373472909E+00  0.89337814193E+00 -0.70007140752E+00  0.90007733651E+02  0.89999994935E+02 0.  0.
         12    1    1    2    0    0 -0.32373472909E+00 -0.89337814193E+00  0.70007140752E+00  0.11802663491E+01  0.00000000000E+00 0. -1.
         11    1    3    3    0    0 -0.30803724723E+01  0.12264818131E+02 -0.15401700254E+01  0.12739175103E+02  0.51100000000E-03 0. -1.
        -11    1    3    3    0    0 -0.96248298542E+01  0.64121143733E+01  0.34861008973E+02  0.36729314006E+02  0.51100000000E-03 0.  1.
         12    1    3    3    0    0  0.13028937056E+02 -0.17783554362E+02 -0.34020910356E+02  0.40539244541E+02  0.00000000000E+00 0. -1.
</event>
<event>
 7    1  0.4639347E-015  0.9000779E+02  0.7816164E-02  0.1186339E+00
        -11   -1    0    0    0    0  0.00000000000E+00  0.00000000000E+00  0.45593999997E+02  0.45594000000E+02  0.51100000000E-03 0.  1.
         11   -1    0    0    0    0 -0.00000000000E+00 -0.00000000000E+00 -0.45593999997E+02  0.45594000000E+02  0.51100000000E-03 0. -1.
    9900012    2    1    2    0    0  0.94594631209E+00 -0.53156442332E+00  0.46424996583E+00  0.90007786802E+02  0.90000048788E+02 0.  0.
         12    1    1    2    0    0 -0.94594631209E+00  0.53156442332E+00 -0.46424996583E+00  0.11802131978E+01  0.00000000000E+00 0. -1.
         11    1    3    3    0    0 -0.11708655968E+01  0.82369756793E+01  0.69777783509E+01  0.10858548962E+02  0.51100000000E-03 0. -1.
        -11    1    3    3    0    0  0.49457248547E+01 -0.23566287947E+02  0.30691132668E+02  0.39009944202E+02  0.51100000000E-03 0.  1.
         12    1    3    3    0    0 -0.28289129458E+01  0.14797747845E+02 -0.37204661053E+02  0.40139293638E+02  0.00000000000E+00 0. -1.
</event>
<event>
 7    1  0.4639347E-015  0.9000740E+02  0.7816164E-02  0.1186340E+00
        -11   -1    0    0    0    0  0.00000000000E+00  0.00000000000E+00  0.45593999997E+02  0.45594000000E+02  0.51100000000E-03 0. -1.
         11   -1    0    0    0    0 -0.00000000000E+00 -0.00000000000E+00 -0.45593999997E+02  0.45594000000E+02  0.51100000000E-03 0.  1.
    9900012    2    1    2    0    0 -0.24622253652E+00  0.24659346690E+00 -0.11280015008E+01  0.90007397924E+02  0.89999654776E+02 0.  0.
         12    1    1    2    0    0  0.24622253652E+00 -0.24659346690E+00  0.11280015008E+01  0.11806020758E+01  0.00000000000E+00 0. -1.
         11    1    3    3    0    0 -0.33390537222E+02  0.68949151680E+01  0.13137714726E+02  0.36538573859E+02  0.51100000000E-03 0. -1.
        -11    1    3    3    0    0 -0.25903267111E+01  0.53626700263E+01 -0.14600229534E+02  0.15768155409E+02  0.51100000000E-03 0.  1.
        -12    1    3    3    0    0  0.35734641396E+02 -0.12010991727E+02  0.33451330690E+00  0.37700668657E+02  0.00000000000E+00 0.  1.
</event>
<event>
 7    1  0.4639347E-015  0.9000860E+02  0.7816164E-02  0.1186337E+00
        -11   -1    0    0    0    0  0.00000000000E+00  0.00000000000E+00  0.45593999997E+02  0.45594000000E+02  0.51100000000E-03 0.  1.
         11   -1    0    0    0    0 -0.00000000000E+00 -0.00000000000E+00 -0.45593999997E+02  0.45594000000E+02  0.51100000000E-03 0. -1.
    9900012    2    1    2    0    0  0.39952235060E+00 -0.65811046265E+00 -0.89344589514E+00  0.90008604792E+02  0.90000877571E+02 0.  0.
         12    1    1    2    0    0 -0.39952235060E+00  0.65811046265E+00  0.89344589514E+00  0.11793952082E+01  0.00000000000E+00 0. -1.
         11    1    3    3    0    0 -0.71557262331E+00 -0.43006677375E+01 -0.10676377972E+02  0.11532251906E+02  0.51100000000E-03 0. -1.
        -11    1    3    3    0    0  0.15313815045E+02 -0.33289585113E+02 -0.33265319184E+01  0.36793684554E+02  0.51100000000E-03 0.  1.
         12    1    3    3    0    0 -0.14198720071E+02  0.36932142387E+02  0.13109463995E+02  0.41682668331E+02  0.00000000000E+00 0. -1.
</event>
<event>
 7    1  0.4639347E-015  0.9000779E+02  0.7816164E-02  0.1186339E+00
        -11   -1    0    0    0    0  0.00000000000E+00  0.00000000000E+00  0.45593999997E+02  0.45594000000E+02  0.51100000000E-03 0. -1.
         11   -1    0    0    0    0 -0.00000000000E+00 -0.00000000000E+00 -0.45593999997E+02  0.45594000000E+02  0.51100000000E-03 0.  1.
    9900012    2    1    2    0    0  0.10240256651E+01  0.15999906025E+00 -0.56451619569E+00  0.90007785275E+02  0.90000047241E+02 0.  0.
         12    1    1    2    0    0 -0.10240256651E+01 -0.15999906025E+00  0.56451619569E+00  0.11802147251E+01  0.00000000000E+00 0. -1.
         11    1    3    3    0    0 -0.80137309271E+01 -0.49885102409E+01 -0.13741979571E+02  0.16671746177E+02  0.51100000000E-03 0. -1.
        -11    1    3    3    0    0  0.40160783155E+02 -0.15262210300E+01  0.52342616975E+01  0.40529191332E+02  0.51100000000E-03 0.  1.
         12    1    3    3    0    0 -0.31123026563E+02  0.66747303311E+01  0.79432016775E+01  0.32806847766E+02  0.00000000000E+00 0. -1.
</event>
<event>
 7    1  0.4639347E-015  0.9000769E+02  0.7816164E-02  0.1186339E+00
        -11   -1    0    0    0    0  0.00000000000E+00  0.00000000000E+00  0.45593999997E+02  0.45594000000E+02  0.51100000000E-03 0.  1.
         11   -1    0    0    0    0 -0.00000000000E+00 -0.00000000000E+00 -0.45593999997E+02  0.45594000000E+02  0.51100000000E-03 0. -1.
    9900012    2    1    2    0    0  0.19883393702E+00  0.46038581849E+00  0.10684746229E+01  0.90007691542E+02  0.89999952270E+02 0.  0.
         12    1    1    2    0    0 -0.19883393702E+00 -0.46038581849E+00 -0.10684746229E+01  0.11803084581E+01  0.00000000000E+00 0. -1.
         11    1    3    3    0    0 -0.21615090608E+02 -0.17956666721E+02  0.11846842629E+02  0.30495929273E+02  0.51100000000E-03 0. -1.
        -11    1    3    3    0    0 -0.14923128597E+02  0.52617799961E+01  0.61498295328E+01  0.16976645705E+02  0.51100000000E-03 0.  1.
        -12    1    3    3    0    0  0.36737053141E+02  0.13155272543E+02 -0.16928197539E+02  0.42535116564E+02  0.00000000000E+00 0.  1.
</event>
<event>
 7    1  0.4639347E-015  0.9000778E+02  0.7816164E-02  0.1186339E+00
        -11   -1    0    0    0    0  0.00000000000E+00  0.00000000000E+00  0.45593999997E+02  0.45594000000E+02  0.51100000000E-03 0.  1.
         11   -1    0    0    0    0 -0.00000000000E+00 -0.00000000000E+00 -0.45593999997E+02  0.45594000000E+02  0.51100000000E-03 0. -1.
    9900012    2    1    2    0    0 -0.12467632817E+00  0.52735540540E+00  0.10484649866E+01  0.90007776827E+02  0.90000038681E+02 0.  0.
         12    1    1    2    0    0  0.12467632817E+00 -0.52735540540E+00 -0.10484649866E+01  0.11802231732E+01  0.00000000000E+00 0. -1.
         11    1    3    3    0    0  0.58419442239E+01  0.16280012002E+02 -0.39711272559E+02  0.43314573432E+02  0.51100000000E-03 0. -1.
        -11    1    3    3    0    0 -0.39746169857E+01  0.23053199624E+01  0.89712856939E+01  0.10079486474E+02  0.51100000000E-03 0.  1.
        -12    1    3    3    0    0 -0.19920035663E+01 -0.18057976559E+02  0.31788451852E+02  0.36613716921E+02  0.00000000000E+00 0.  1.
</event>
<event>
 7    1  0.4639347E-015  0.9000755E+02  0.7816164E-02  0.1186339E+00
        -11   -1    0    0    0    0  0.00000000000E+00  0.00000000000E+00  0.45593999997E+02  0.45594000000E+02  0.51100000000E-03 0. -1.
         11   -1    0    0    0    0 -0.00000000000E+00 -0.00000000000E+00 -0.45593999997E+02  0.45594000000E+02  0.51100000000E-03 0.  1.
    9900012    2    1    2    0    0  0.79822784548E+00 -0.61448009067E+00  0.61539637061E+00  0.90007548320E+02  0.89999807158E+02 0.  0.
         12    1    1    2    0    0 -0.79822784548E+00  0.61448009067E+00 -0.61539637061E+00  0.11804516797E+01  0.00000000000E+00 0. -1.
         11    1    3    3    0    0  0.48350949183E+01  0.40443076392E+02 -0.92178943595E+00  0.40741505457E+02  0.51100000000E-03 0. -1.
        -11    1    3    3    0    0 -0.68885604616E+01 -0.37345251546E-01  0.41873964134E+01  0.80615103352E+01  0.51100000000E-03 0.  1.
        -12    1    3    3    0    0  0.28516933888E+01 -0.41020211231E+02 -0.26502106068E+01  0.41204532528E+02  0.00000000000E+00 0.  1.
</event>
<event>
 7    1  0.4639347E-015  0.9000780E+02  0.7816164E-02  0.1186339E+00
        -11   -1    0    0    0    0  0.00000000000E+00  0.00000000000E+00  0.45593999997E+02  0.45594000000E+02  0.51100000000E-03 0. -1.
         11   -1    0    0    0    0 -0.00000000000E+00 -0.00000000000E+00 -0.45593999997E+02  0.45594000000E+02  0.51100000000E-03 0.  1.
    9900012    2    1    2    0    0  0.98918036001E-01 -0.11706626863E+01 -0.11240059409E+00  0.90007800951E+02  0.90000063123E+02 0.  0.
         12    1    1    2    0    0 -0.98918036001E-01  0.11706626863E+01  0.11240059409E+00  0.11801990495E+01  0.00000000000E+00 0. -1.
         11    1    3    3    0    0 -0.53054911574E+01 -0.60297539425E+01 -0.71565633749E+01  0.10757442476E+02  0.51100000000E-03 0. -1.
        -11    1    3    3    0    0 -0.32890516243E+02  0.55315608580E+01 -0.13270506925E+02  0.35895550958E+02  0.51100000000E-03 0.  1.
         12    1    3    3    0    0  0.38294925436E+02 -0.67246960171E+00  0.20314669706E+02  0.43354807517E+02  0.00000000000E+00 0. -1.
</event>
<event>
 7    1  0.4639347E-015  0.9000777E+02  0.7816164E-02  0.1186339E+00
        -11   -1    0    0    0    0  0.00000000000E+00  0.00000000000E+00  0.45593999997E+02  0.45594000000E+02  0.51100000000E-03 0.  1.
         11   -1    0    0    0    0 -0.00000000000E+00 -0.00000000000E+00 -0.45593999997E+02  0.45594000000E+02  0.51100000000E-03 0. -1.
    9900012    2    1    2    0    0  0.99176795944E+00  0.19001255607E+00  0.61092246772E+00  0.90007773446E+02  0.90000035256E+02 0.  0.
         12    1    1    2    0    0 -0.99176795944E+00 -0.19001255607E+00 -0.61092246772E+00  0.11802265538E+01  0.00000000000E+00 0. -1.
         11    1    3    3    0    0 -0.75369261580E+00  0.13266455151E+02  0.76321817273E+00  0.13309747822E+02  0.51100000000E-03 0. -1.
        -11    1    3    3    0    0 -0.13008015508E+02  0.24748822952E+02 -0.17020801971E+02  0.32732558790E+02  0.51100000000E-03 0.  1.
         12    1    3    3    0    0  0.14753476084E+02 -0.37825265547E+02  0.16868506266E+02  0.43965466834E+02  0.00000000000E+00 0. -1.
</event>
<event>
 7    1  0.4639347E-015  0.9000775E+02  0.7816164E-02  0.1186339E+00
        -11   -1    0    0    0    0  0.00000000000E+00  0.00000000000E+00  0.45593999997E+02  0.45594000000E+02  0.51100000000E-03 0. -1.
         11   -1    0    0    0    0 -0.00000000000E+00 -0.00000000000E+00 -0.45593999997E+02  0.45594000000E+02  0.51100000000E-03 0.  1.
    9900012    2    1    2    0    0 -0.94537470394E+00 -0.55178622707E+00  0.44134809921E+00  0.90007750232E+02  0.90000011735E+02 0.  0.
         12    1    1    2    0    0  0.94537470394E+00  0.55178622707E+00 -0.44134809921E+00  0.11802497684E+01  0.00000000000E+00 0. -1.
         11    1    3    3    0    0 -0.14249458825E+02  0.26716607088E+02  0.83899649787E+01  0.31419988601E+02  0.51100000000E-03 0. -1.
        -11    1    3    3    0    0  0.43793988581E+01  0.14367966539E+02  0.10787775964E+01  0.15059261542E+02  0.51100000000E-03 0.  1.
        -12    1    3    3    0    0  0.89246852629E+01 -0.41636359854E+02 -0.90273944758E+01  0.43528500088E+02  0.00000000000E+00 0.  1.
</event>
<event>
 7    1  0.4639347E-015  0.9000771E+02  0.7816164E-02  0.1186339E+00
        -11   -1    0    0    0    0  0.00000000000E+00  0.00000000000E+00  0.45593999997E+02  0.45594000000E+02  0.51100000000E-03 0.  1.
         11   -1    0    0    0    0 -0.00000000000E+00 -0.00000000000E+00 -0.45593999997E+02  0.45594000000E+02  0.51100000000E-03 0. -1.
    9900012    2    1    2    0    0 -0.58234422340E+00  0.47913659558E+00 -0.90795193464E+00  0.90007714701E+02  0.89999975735E+02 0.  0.
         12    1    1    2    0    0  0.58234422340E+00 -0.47913659558E+00  0.90795193464E+00  0.11802852991E+01  0.00000000000E+00 0. -1.
         11    1    3    3    0    0  0.66156734831E+01 -0.11020465745E+02 -0.61165710545E+00  0.12868252622E+02  0.51100000000E-03 0. -1.
        -11    1    3    3    0    0  0.22641126253E+02 -0.73420018689E+01  0.24384460490E+02  0.34075321027E+02  0.51100000000E-03 0.  1.
         12    1    3    3    0    0 -0.29839143959E+02  0.18841604210E+02 -0.24680755319E+02  0.43064141052E+02  0.00000000000E+00 0. -1.
</event>
<event>
 7    1  0.6584956E-015  0.9000764E+02  0.7816164E-02  0.1186339E+00
        -11   -1    0    0    0    0  0.00000000000E+00  0.00000000000E+00  0.45593999997E+02  0.45594000000E+02  0.51100000000E-03 0. -1.
         11   -1    0    0    0    0 -0.00000000000E+00 -0.00000000000E+00 -0.45593999997E+02  0.45594000000E+02  0.51100000000E-03 0.  1.
    9900012    2    1    2    0    0 -0.27455974394E+00  0.11257861638E+01 -0.22465651922E+00  0.90007640694E+02  0.89999900751E+02 0.  0.
         12    1    1    2    0    0  0.27455974394E+00 -0.11257861638E+01  0.22465651922E+00  0.11803593060E+01  0.00000000000E+00 0. -1.
         11    1    3    3    0    0  0.87282249761E+01  0.16742120086E+01 -0.43595355891E+01  0.98990124708E+01  0.51100000000E-03 0. -1.
        -11    1    3    3    0    0 -0.11129025712E+02  0.94701052022E+01 -0.35912858004E+02  0.38772045034E+02  0.51100000000E-03 0.  1.
         12    1    3    3    0    0  0.21262409919E+01 -0.10018531047E+02  0.40047737073E+02  0.41336583190E+02  0.00000000000E+00 0. -1.
</event>
<event>
 7    1  0.4639347E-015  0.9000734E+02  0.7816164E-02  0.1186340E+00
        -11   -1    0    0    0    0  0.00000000000E+00  0.00000000000E+00  0.45593999997E+02  0.45594000000E+02  0.51100000000E-03 0.  1.
         11   -1    0    0    0    0 -0.00000000000E+00 -0.00000000000E+00 -0.45593999997E+02  0.45594000000E+02  0.51100000000E-03 0. -1.
    9900012    2    1    2    0    0  0.32375910851E+00  0.20227522204E+00  0.11172438827E+01  0.90007335306E+02  0.89999591331E+02 0.  0.
         12    1    1    2    0    0 -0.32375910851E+00 -0.20227522204E+00 -0.11172438827E+01  0.11806646939E+01  0.00000000000E+00 0. -1.
         11    1    3    3    0    0 -0.38814599739E+01 -0.57341490640E+01 -0.12500124338E+02  0.14289832250E+02  0.51100000000E-03 0. -1.
        -11    1    3    3    0    0 -0.76619330310E+01  0.86484219344E+01  0.42675828361E+02  0.44212291801E+02  0.51100000000E-03 0.  1.
         12    1    3    3    0    0  0.11867152113E+02 -0.27119976483E+01 -0.29058460140E+02  0.31505211256E+02  0.00000000000E+00 0. -1.
</event>
<event>
 7    1  0.4639347E-015  0.9000775E+02  0.7816164E-02  0.1186339E+00
        -11   -1    0    0    0    0  0.00000000000E+00  0.00000000000E+00  0.45593999997E+02  0.45594000000E+02  0.51100000000E-03 0.  1.
         11   -1    0    0    0    0 -0.00000000000E+00 -0.00000000000E+00 -0.45593999997E+02  0.45594000000E+02  0.51100000000E-03 0. -1.
    9900012    2    1    2    0    0 -0.10645378636E+01 -0.49557151449E+00 -0.11902124634E+00  0.90007746618E+02  0.90000008073E+02 0.  0.
         12    1    1    2    0    0  0.10645378636E+01  0.49557151449E+00  0.11902124634E+00  0.11802533822E+01  0.00000000000E+00 0. -1.
         11    1    3    3    0    0  0.93494965136E+01  0.83639447019E+01 -0.44805686248E+01  0.13320816473E+02  0.51100000000E-03 0. -1.
        -11    1    3    3    0    0 -0.12001354139E+02 -0.19714497433E+02  0.36244567206E+02  0.42969321177E+02  0.51100000000E-03 0.  1.
         12    1    3    3    0    0  0.15873197619E+01  0.10854981217E+02 -0.31883019827E+02  0.33717608968E+02  0.00000000000E+00 0. -1.
</event>
<event>
 7    1  0.4641985E-015  0.9000769E+02  0.7816164E-02  0.1186339E+00
        -11   -1    0    0    0    0  0.00000000000E+00  0.00000000000E+00  0.45593999997E+02  0.45594000000E+02  0.51100000000E-03 0. -1.
         11   -1    0    0    0    0 -0.00000000000E+00 -0.00000000000E+00 -0.45593999997E+02  0.45594000000E+02  0.51100000000E-03 0.  1.
    9900012    2    1    2    0    0 -0.18682601790E+00 -0.88936798044E+00 -0.75315495369E+00  0.90007694213E+02  0.89999954977E+02 0.  0.
         12    1    1    2    0    0  0.18682601790E+00  0.88936798044E+00  0.75315495369E+00  0.11803057866E+01  0.00000000000E+00 0. -1.
         11    1    3    3    0    0 -0.52953900136E+01  0.25538586193E+01  0.69455456147E+01  0.90996677627E+01  0.51100000000E-03 0. -1.
        -11    1    3    3    0    0 -0.33332917445E+02  0.16545031654E+02 -0.34771278765E+01  0.37375284298E+02  0.51100000000E-03 0.  1.
         12    1    3    3    0    0  0.38441481441E+02 -0.19988258253E+02 -0.42215726919E+01  0.43532742153E+02  0.00000000000E+00 0. -1.
</event>
<event>
 7    1  0.4639347E-015  0.9000768E+02  0.7816164E-02  0.1186339E+00
        -11   -1    0    0    0    0  0.00000000000E+00  0.00000000000E+00  0.45593999997E+02  0.45594000000E+02  0.51100000000E-03 0. -1.
         11   -1    0    0    0    0 -0.00000000000E+00 -0.00000000000E+00 -0.45593999997E+02  0.45594000000E+02  0.51100000000E-03 0.  1.
    9900012    2    1    2    0    0  0.11172362541E+01 -0.25526647169E+00 -0.28245247125E+00  0.90007679189E+02  0.89999939754E+02 0.  0.
         12    1    1    2    0    0 -0.11172362541E+01  0.25526647169E+00  0.28245247125E+00  0.11803208113E+01  0.00000000000E+00 0. -1.
         11    1    3    3    0    0  0.19673862973E+02  0.97898633276E+01  0.36060444382E+02  0.42228639068E+02  0.51100000000E-03 0. -1.
        -11    1    3    3    0    0 -0.21483780423E+01 -0.81865437769E+01 -0.69506856015E+00  0.84922404457E+01  0.51100000000E-03 0.  1.
        -12    1    3    3    0    0 -0.16408248676E+02 -0.18585860224E+01 -0.35647828294E+02  0.39286799675E+02  0.00000000000E+00 0.  1.
</event>
<event>
 7    1  0.4639347E-015  0.9000772E+02  0.7816164E-02  0.1186339E+00
        -11   -1    0    0    0    0  0.00000000000E+00  0.00000000000E+00  0.45593999997E+02  0.45594000000E+02  0.51100000000E-03 0.  1.
         11   -1    0    0    0    0 -0.00000000000E+00 -0.00000000000E+00 -0.45593999997E+02  0.45594000000E+02  0.51100000000E-03 0. -1.
    9900012    2    1    2    0    0 -0.14982339914E+00  0.90693709618E+00  0.74032588371E+00  0.90007718524E+02  0.89999979609E+02 0.  0.
         12    1    1    2    0    0  0.14982339914E+00 -0.90693709618E+00 -0.74032588371E+00  0.11802814755E+01  0.00000000000E+00 0. -1.
         11    1    3    3    0    0 -0.62085562606E+01  0.65960929739E+01 -0.33310115260E+01  0.96514377897E+01  0.51100000000E-03 0. -1.
        -11    1    3    3    0    0 -0.22324053768E+02 -0.33496147133E+02  0.53122415905E+01  0.40602649672E+02  0.51100000000E-03 0.  1.
         12    1    3    3    0    0  0.28382786630E+02  0.27806991255E+02 -0.12409041809E+01  0.39753631063E+02  0.00000000000E+00 0. -1.
</event>
<event>
 7    1  0.4639347E-015  0.9000758E+02  0.7816164E-02  0.1186339E+00
        -11   -1    0    0    0    0  0.00000000000E+00  0.00000000000E+00  0.45593999997E+02  0.45594000000E+02  0.51100000000E-03 0.  1.
         11   -1    0    0    0    0 -0.00000000000E+00 -0.00000000000E+00 -0.45593999997E+02  0.45594000000E+02  0.51100000000E-03 0. -1.
    9900012    2    1    2    0    0  0.15928114865E+00 -0.88007471706E+00  0.77038437397E+00  0.90007578857E+02  0.89999838097E+02 0.  0.
         12    1    1    2    0    0 -0.15928114865E+00  0.88007471706E+00 -0.77038437397E+00  0.11804211433E+01  0.00000000000E+00 0. -1.
         11    1    3    3    0    0 -0.40229339561E+02 -0.94210328302E-02 -0.76226447341E+01  0.40945140900E+02  0.51100000000E-03 0. -1.
        -11    1    3    3    0    0  0.47623625496E+01 -0.99156279985E+01 -0.12260765059E+01  0.11068109121E+02  0.51100000000E-03 0.  1.
        -12    1    3    3    0    0  0.35626258160E+02  0.90449743142E+01  0.96191056140E+01  0.37994328836E+02  0.00000000000E+00 0.  1.
</event>
<event>
 7    1  0.4639347E-015  0.9000768E+02  0.7816164E-02  0.1186339E+00
        -11   -1    0    0    0    0  0.00000000000E+00  0.00000000000E+00  0.45593999997E+02  0.45594000000E+02  0.51100000000E-03 0.  1.
         11   -1    0    0    0    0 -0.00000000000E+00 -0.00000000000E+00 -0.45593999997E+02  0.45594000000E+02  0.51100000000E-03 0. -1.
    9900012    2    1    2    0    0  0.87867722658E+00  0.13124169167E+00  0.77708918981E+00  0.90007675613E+02  0.89999936131E+02 0.  0.
         12    1    1    2    0    0 -0.87867722658E+00 -0.13124169167E+00 -0.77708918981E+00  0.11803243872E+01  0.00000000000E+00 0. -1.
         11    1    3    3    0    0 -0.26892053516E+02 -0.15405508175E+02 -0.21586171012E+02  0.37768704024E+02  0.51100000000E-03 0. -1.
        -11    1    3    3    0    0 -0.78739533300E+01 -0.69176563895E+00  0.53095564400E+01  0.95220308019E+01  0.51100000000E-03 0.  1.
        -12    1    3    3    0    0  0.35644684073E+02  0.16228515506E+02  0.17053703762E+02  0.42716940787E+02  0.00000000000E+00 0.  1.
</event>
<event>
 7    1  0.4639347E-015  0.9000816E+02  0.7816164E-02  0.1186338E+00
        -11   -1    0    0    0    0  0.00000000000E+00  0.00000000000E+00  0.45593999997E+02  0.45594000000E+02  0.51100000000E-03 0.  1.
         11   -1    0    0    0    0 -0.00000000000E+00 -0.00000000000E+00 -0.45593999997E+02  0.45594000000E+02  0.51100000000E-03 0. -1.
    9900012    2    1    2    0    0 -0.11726309852E+01 -0.78339675719E-01 -0.10406144791E+00  0.90008157079E+02  0.90000423952E+02 0.  0.
         12    1    1    2    0    0  0.11726309852E+01  0.78339675719E-01  0.10406144791E+00  0.11798429205E+01  0.00000000000E+00 0. -1.
         11    1    3    3    0    0  0.20700561136E+01 -0.95982348458E+01  0.38584645613E+01  0.10549833814E+02  0.51100000000E-03 0. -1.
        -11    1    3    3    0    0  0.31022895996E+02 -0.99817824293E+00 -0.23225540762E+02  0.38766508480E+02  0.51100000000E-03 0.  1.
         12    1    3    3    0    0 -0.34265583095E+02  0.10518073413E+02  0.19263014753E+02  0.40691814785E+02  0.00000000000E+00 0. -1.
</event>
<event>
 7    1  0.4958072E-015  0.9000792E+02  0.7816164E-02  0.1186339E+00
        -11   -1    0    0    0    0  0.00000000000E+00  0.00000000000E+00  0.45593999997E+02  0.45594000000E+02  0.51100000000E-03 0.  1.
         11   -1    0    0    0    0 -0.00000000000E+00 -0.00000000000E+00 -0.45593999997E+02  0.45594000000E+02  0.51100000000E-03 0. -1.
    9900012    2    1    2    0    0  0.11593100803E+01 -0.16192776315E+00 -0.14959819289E+00  0.90007915223E+02  0.90000178903E+02 0.  0.
         12    1    1    2    0    0 -0.11593100803E+01  0.16192776315E+00  0.14959819289E+00  0.11800847775E+01  0.00000000000E+00 0. -1.
         11    1    3    3    0    0  0.59561359836E+01  0.73109735439E+01  0.15959869855E+01  0.95641552023E+01  0.51100000000E-03 0. -1.
        -11    1    3    3    0    0  0.16554244125E+02 -0.10855088701E+02 -0.35333262681E+02  0.40500807414E+02  0.51100000000E-03 0.  1.
         12    1    3    3    0    0 -0.21351070028E+02  0.33821873936E+01  0.33587677502E+02  0.39942952606E+02  0.00000000000E+00 0. -1.
</event>
<event>
 7    1  0.4639347E-015  0.9000779E+02  0.7816164E-02  0.1186339E+00
        -11   -1    0    0    0    0  0.00000000000E+00  0.00000000000E+00  0.45593999997E+02  0.45594000000E+02  0.51100000000E-03 0. -1.
         11   -1    0    0    0    0 -0.00000000000E+00 -0.00000000000E+00 -0.45593999997E+02  0.45594000000E+02  0.51100000000E-03 0.  1.
    9900012    2    1    2    0    0  0.11770222700E+00 -0.53431891379E+00 -0.10457236502E+01  0.90007793040E+02  0.90000055108E+02 0.  0.
         12    1    1    2    0    0 -0.11770222700E+00  0.53431891379E+00  0.10457236502E+01  0.11802069600E+01  0.00000000000E+00 0. -1.
         11    1    3    3    0    0 -0.48201010629E+01  0.71376689153E+01 -0.43934337265E+01  0.96686065165E+01  0.51100000000E-03 0. -1.
        -11    1    3    3    0    0 -0.48148176200E+01  0.32195409054E+02 -0.14433918320E+02  0.35609897939E+02  0.51100000000E-03 0.  1.
         12    1    3    3    0    0  0.97526209099E+01 -0.39867396884E+02  0.17781628396E+02  0.44729288585E+02  0.00000000000E+00 0. -1.
</event>
<event>
 7    1  0.4639347E-015  0.9000757E+02  0.7816164E-02  0.1186339E+00
        -11   -1    0    0    0    0  0.00000000000E+00  0.00000000000E+00  0.45593999997E+02  0.45594000000E+02  0.51100000000E-03 0. -1.
         11   -1    0    0    0    0 -0.00000000000E+00 -0.00000000000E+00 -0.45593999997E+02  0.45594000000E+02  0.51100000000E-03 0.  1.
    9900012    2    1    2    0    0 -0.19615685773E+00  0.84492674581E+00 -0.80064497534E+00  0.90007571648E+02  0.89999830793E+02 0.  0.
         12    1    1    2    0    0  0.19615685773E+00 -0.84492674581E+00  0.80064497534E+00  0.11804283524E+01  0.00000000000E+00 0. -1.
         11    1    3    3    0    0 -0.12834615265E+02 -0.90967423235E+01 -0.36218497173E+02  0.39487436073E+02  0.51100000000E-03 0. -1.
        -11    1    3    3    0    0  0.27164886173E+01 -0.11808625394E+02  0.11646153946E+02  0.16806422763E+02  0.51100000000E-03 0.  1.
        -12    1    3    3    0    0  0.99219697903E+01  0.21750294463E+02  0.23771698252E+02  0.33713712811E+02  0.00000000000E+00 0.  1.
</event>
<event>
 7    1  0.4639347E-015  0.9000782E+02  0.7816164E-02  0.1186339E+00
        -11   -1    0    0    0    0  0.00000000000E+00  0.00000000000E+00  0.45593999997E+02  0.45594000000E+02  0.51100000000E-03 0.  1.
         11   -1    0    0    0    0 -0.00000000000E+00 -0.00000000000E+00 -0.45593999997E+02  0.45594000000E+02  0.51100000000E-03 0. -1.
    9900012    2    1    2    0    0 -0.31929146548E+00  0.30245162805E+00  0.10951748188E+01  0.90007817001E+02  0.90000079385E+02 0.  0.
         12    1    1    2    0    0  0.31929146548E+00 -0.30245162805E+00 -0.10951748188E+01  0.11801829989E+01  0.00000000000E+00 0. -1.
         11    1    3    3    0    0 -0.59036022900E+01 -0.37999898965E+01 -0.48262139462E+01  0.85196704471E+01  0.51100000000E-03 0. -1.
        -11    1    3    3    0    0 -0.37024282899E+02  0.40353232573E+01 -0.47992871347E+01  0.37551491518E+02  0.51100000000E-03 0.  1.
         12    1    3    3    0    0  0.42608593724E+02  0.67118267220E-01  0.10720675900E+02  0.43936655036E+02  0.00000000000E+00 0. -1.
</event>
<event>
 7    1  0.4639347E-015  0.9000771E+02  0.7816164E-02  0.1186339E+00
        -11   -1    0    0    0    0  0.00000000000E+00  0.00000000000E+00  0.45593999997E+02  0.45594000000E+02  0.51100000000E-03 0. -1.
         11   -1    0    0    0    0 -0.00000000000E+00 -0.00000000000E+00 -0.45593999997E+02  0.45594000000E+02  0.51100000000E-03 0.  1.
    9900012    2    1    2    0    0 -0.32451163723E+00  0.93920912773E+00  0.63690932473E+00  0.90007713985E+02  0.89999975010E+02 0.  0.
         12    1    1    2    0    0  0.32451163723E+00 -0.93920912773E+00 -0.63690932473E+00  0.11802860146E+01  0.00000000000E+00 0. -1.
         11    1    3    3    0    0  0.29088482905E+02  0.13682516406E+02 -0.10344522878E+02  0.33769220405E+02  0.51100000000E-03 0. -1.
        -11    1    3    3    0    0  0.95881498343E+01 -0.23459847456E+01 -0.69491801592E+01  0.12071759061E+02  0.51100000000E-03 0.  1.
        -12    1    3    3    0    0 -0.39001144376E+02 -0.10397322533E+02  0.17930612362E+02  0.44166734520E+02  0.00000000000E+00 0.  1.
</event>
<event>
 7    1  0.4639347E-015  0.9000774E+02  0.7816164E-02  0.1186339E+00
        -11   -1    0    0    0    0  0.00000000000E+00  0.00000000000E+00  0.45593999997E+02  0.45594000000E+02  0.51100000000E-03 0. -1.
         11   -1    0    0    0    0 -0.00000000000E+00 -0.00000000000E+00 -0.45593999997E+02  0.45594000000E+02  0.51100000000E-03 0.  1.
    9900012    2    1    2    0    0 -0.52211358675E+00 -0.67289433389E+00 -0.81707907358E+00  0.90007742573E+02  0.90000003975E+02 0.  0.
         12    1    1    2    0    0  0.52211358675E+00  0.67289433389E+00  0.81707907358E+00  0.11802574272E+01  0.00000000000E+00 0. -1.
         11    1    3    3    0    0 -0.82594176281E+01  0.12799940863E+02  0.27014573295E+02  0.31013604051E+02  0.51100000000E-03 0. -1.
        -11    1    3    3    0    0  0.82106768523E+01  0.10040953394E+02  0.86488202441E+01  0.15589677716E+02  0.51100000000E-03 0.  1.
        -12    1    3    3    0    0 -0.47337281093E+00 -0.23513788591E+02 -0.36480472613E+02  0.43404460805E+02  0.00000000000E+00 0.  1.
</event>
<event>
 7    1  0.5420899E-015  0.9000776E+02  0.7816164E-02  0.1186339E+00
        -11   -1    0    0    0    0  0.00000000000E+00  0.00000000000E+00  0.45593999997E+02  0.45594000000E+02  0.51100000000E-03 0. -1.
         11   -1    0    0    0    0 -0.00000000000E+00 -0.00000000000E+00 -0.45593999997E+02  0.45594000000E+02  0.51100000000E-03 0.  1.
    9900012    2    1    2    0    0  0.84427001529E+00 -0.78859473239E+00 -0.24142576946E+00  0.90007762773E+02  0.90000024441E+02 0.  0.
         12    1    1    2    0    0 -0.84427001529E+00  0.78859473239E+00  0.24142576946E+00  0.11802372274E+01  0.00000000000E+00 0. -1.
         11    1    3    3    0    0 -0.11886507583E+01 -0.82262385496E+01  0.50191428661E+01  0.97095667603E+01  0.51100000000E-03 0. -1.
        -11    1    3    3    0    0 -0.21697541042E+02  0.19953109516E+02 -0.31240556402E+02  0.42952092280E+02  0.51100000000E-03 0.  1.
         12    1    3    3    0    0  0.23730461816E+02 -0.12515465699E+02  0.25979987767E+02  0.37346103733E+02  0.00000000000E+00 0. -1.
</event>
<event>
 7    1  0.4639347E-015  0.9000761E+02  0.7816164E-02  0.1186339E+00
        -11   -1    0    0    0    0  0.00000000000E+00  0.00000000000E+00  0.45593999997E+02  0.45594000000E+02  0.51100000000E-03 0.  1.
         11   -1    0    0    0    0 -0.00000000000E+00 -0.00000000000E+00 -0.45593999997E+02  0.45594000000E+02  0.51100000000E-03 0. -1.
    9900012    2    1    2    0    0 -0.74089827225E+00  0.54254254736E+00  0.74163994376E+00  0.90007613423E+02  0.89999873120E+02 0.  0.
         12    1    1    2    0    0  0.74089827225E+00 -0.54254254736E+00 -0.74163994376E+00  0.11803865772E+01  0.00000000000E+00 0. -1.
         11    1    3    3    0    0  0.32861731897E+02 -0.12388841771E+02 -0.17656885001E+01  0.35163823453E+02  0.51100000000E-03 0. -1.
        -11    1    3    3    0    0  0.45966842796E+01 -0.81604116691E+01 -0.49217956648E+01  0.10580448847E+02  0.51100000000E-03 0.  1.
        -12    1    3    3    0    0 -0.38199314449E+02  0.21091795987E+02  0.74291241087E+01  0.44263341123E+02  0.00000000000E+00 0.  1.
</event>
<event>
 7    1  0.4639347E-015  0.9000771E+02  0.7816164E-02  0.1186339E+00
        -11   -1    0    0    0    0  0.00000000000E+00  0.00000000000E+00  0.45593999997E+02  0.45594000000E+02  0.51100000000E-03 0.  1.
         11   -1    0    0    0    0 -0.00000000000E+00 -0.00000000000E+00 -0.45593999997E+02  0.45594000000E+02  0.51100000000E-03 0. -1.
    9900012    2    1    2    0    0  0.10180350505E+01 -0.52134867340E+00 -0.29135416190E+00  0.90007708913E+02  0.89999969870E+02 0.  0.
         12    1    1    2    0    0 -0.10180350505E+01  0.52134867340E+00  0.29135416190E+00  0.11802910874E+01  0.00000000000E+00 0. -1.
         11    1    3    3    0    0  0.30368614913E+01 -0.54610483085E+01 -0.51118934710E+01  0.80732293084E+01  0.51100000000E-03 0. -1.
        -11    1    3    3    0    0 -0.34231126639E+02 -0.14570614650E+02  0.18899850678E+02  0.41728613662E+02  0.51100000000E-03 0.  1.
         12    1    3    3    0    0  0.32212300198E+02  0.19510314285E+02 -0.14079311369E+02  0.40205865942E+02  0.00000000000E+00 0. -1.
</event>
<event>
 7    1  0.4639347E-015  0.9000786E+02  0.7816164E-02  0.1186339E+00
        -11   -1    0    0    0    0  0.00000000000E+00  0.00000000000E+00  0.45593999997E+02  0.45594000000E+02  0.51100000000E-03 0. -1.
         11   -1    0    0    0    0 -0.00000000000E+00 -0.00000000000E+00 -0.45593999997E+02  0.45594000000E+02  0.51100000000E-03 0.  1.
    9900012    2    1    2    0    0 -0.10680076178E+01 -0.47236522222E+00 -0.17014566497E+00  0.90007864956E+02  0.90000127973E+02 0.  0.
         12    1    1    2    0    0  0.10680076178E+01  0.47236522222E+00  0.17014566497E+00  0.11801350441E+01  0.00000000000E+00 0. -1.
         11    1    3    3    0    0 -0.11985790907E+02 -0.27003661176E+02  0.27207803341E+02  0.40163683390E+02  0.51100000000E-03 0. -1.
        -11    1    3    3    0    0  0.72755895650E+01 -0.53278723536E+01 -0.28019957602E+01  0.94430719491E+01  0.51100000000E-03 0.  1.
        -12    1    3    3    0    0  0.36421937243E+01  0.31859168307E+02 -0.24575953246E+02  0.40401109617E+02  0.00000000000E+00 0.  1.
</event>
<event>
 7    1  0.4639347E-015  0.9000777E+02  0.7816164E-02  0.1186339E+00
        -11   -1    0    0    0    0  0.00000000000E+00  0.00000000000E+00  0.45593999997E+02  0.45594000000E+02  0.51100000000E-03 0. -1.
         11   -1    0    0    0    0 -0.00000000000E+00 -0.00000000000E+00 -0.45593999997E+02  0.45594000000E+02  0.51100000000E-03 0.  1.
    9900012    2    1    2    0    0  0.34994810359E+00 -0.11251458942E+01  0.67361728899E-01  0.90007765040E+02  0.90000026738E+02 0.  0.
         12    1    1    2    0    0 -0.34994810359E+00  0.11251458942E+01 -0.67361728899E-01  0.11802349601E+01  0.00000000000E+00 0. -1.
         11    1    3    3    0    0 -0.14934658667E+02  0.52438404311E+00  0.28497920781E+02  0.32178416637E+02  0.51100000000E-03 0. -1.
        -11    1    3    3    0    0  0.49896400978E+01 -0.23791763040E+02 -0.68879440531E+01  0.25266346598E+02  0.51100000000E-03 0.  1.
        -12    1    3    3    0    0  0.10294966672E+02  0.22142233103E+02 -0.21542614999E+02  0.32563001805E+02  0.00000000000E+00 0.  1.
</event>
<event>
 7    1  0.4639347E-015  0.9000774E+02  0.7816164E-02  0.1186339E+00
        -11   -1    0    0    0    0  0.00000000000E+00  0.00000000000E+00  0.45593999997E+02  0.45594000000E+02  0.51100000000E-03 0.  1.
         11   -1    0    0    0    0 -0.00000000000E+00 -0.00000000000E+00 -0.45593999997E+02  0.45594000000E+02  0.51100000000E-03 0. -1.
    9900012    2    1    2    0    0 -0.81432391843E+00 -0.78769992310E+00 -0.33077184947E+00  0.90007743829E+02  0.90000005247E+02 0.  0.
         12    1    1    2    0    0  0.81432391843E+00  0.78769992310E+00  0.33077184947E+00  0.11802561711E+01  0.00000000000E+00 0. -1.
         11    1    3    3    0    0  0.30519227385E+01 -0.92016473031E+00  0.92415852169E+01  0.97758801709E+01  0.51100000000E-03 0. -1.
        -11    1    3    3    0    0  0.28850502529E+02 -0.80055708111E+00  0.20803843678E+02  0.35577974927E+02  0.51100000000E-03 0.  1.
         12    1    3    3    0    0 -0.32716749186E+02  0.93302188832E+00 -0.30376200744E+02  0.44653888731E+02  0.00000000000E+00 0. -1.
</event>
<event>
 7    1  0.4639347E-015  0.9000760E+02  0.7816164E-02  0.1186339E+00
        -11   -1    0    0    0    0  0.00000000000E+00  0.00000000000E+00  0.45593999997E+02  0.45594000000E+02  0.51100000000E-03 0. -1.
         11   -1    0    0    0    0 -0.00000000000E+00 -0.00000000000E+00 -0.45593999997E+02  0.45594000000E+02  0.51100000000E-03 0.  1.
    9900012    2    1    2    0    0 -0.50048922675E+00  0.34120214613E+00 -0.10131371729E+01  0.90007595281E+02  0.89999854738E+02 0.  0.
         12    1    1    2    0    0  0.50048922675E+00 -0.34120214613E+00  0.10131371729E+01  0.11804047195E+01  0.00000000000E+00 0. -1.
         11    1    3    3    0    0 -0.66497739800E+01 -0.38099807157E+02 -0.56826063120E+01  0.39091006819E+02  0.51100000000E-03 0. -1.
        -11    1    3    3    0    0  0.67752201013E+01 -0.13755922798E+01 -0.65720552465E+01  0.95387510695E+01  0.51100000000E-03 0.  1.
        -12    1    3    3    0    0 -0.62593534802E+00  0.39816601583E+02  0.11241524386E+02  0.41377837392E+02  0.00000000000E+00 0.  1.
</event>
<event>
 7    1  0.4639347E-015  0.9000778E+02  0.7816164E-02  0.1186339E+00
        -11   -1    0    0    0    0  0.00000000000E+00  0.00000000000E+00  0.45593999997E+02  0.45594000000E+02  0.51100000000E-03 0.  1.
         11   -1    0    0    0    0 -0.00000000000E+00 -0.00000000000E+00 -0.45593999997E+02  0.45594000000E+02  0.51100000000E-03 0. -1.
    9900012    2    1    2    0    0 -0.62022219279E+00  0.93601307076E+00 -0.36348211806E+00  0.90007781678E+02  0.90000043596E+02 0.  0.
         12    1    1    2    0    0  0.62022219279E+00 -0.93601307076E+00  0.36348211806E+00  0.11802183218E+01  0.00000000000E+00 0. -1.
         11    1    3    3    0    0 -0.21468234065E+02  0.28722601534E+02  0.24316040939E+01  0.35941419163E+02  0.51100000000E-03 0. -1.
        -11    1    3    3    0    0 -0.11925011933E+02 -0.13710784551E+02 -0.28823327808E+01  0.18398352239E+02  0.51100000000E-03 0.  1.
        -12    1    3    3    0    0  0.32773023805E+02 -0.14075803912E+02  0.87246568770E-01  0.35668010276E+02  0.00000000000E+00 0.  1.
</event>
<event>
 7    1  0.4639347E-015  0.9000775E+02  0.7816164E-02  0.1186339E+00
        -11   -1    0    0    0    0  0.00000000000E+00  0.00000000000E+00  0.45593999997E+02  0.45594000000E+02  0.51100000000E-03 0. -1.
         11   -1    0    0    0    0 -0.00000000000E+00 -0.00000000000E+00 -0.45593999997E+02  0.45594000000E+02  0.51100000000E-03 0.  1.
    9900012    2    1    2    0    0  0.11020785404E-01  0.11678144549E+01 -0.17055291098E+00  0.90007745640E+02  0.90000007082E+02 0.  0.
         12    1    1    2    0    0 -0.11020785404E-01 -0.11678144549E+01  0.17055291098E+00  0.11802543600E+01  0.00000000000E+00 0. -1.
         11    1    3    3    0    0  0.43311262038E+00 -0.32925035265E+02 -0.18299421551E+02  0.37671134349E+02  0.51100000000E-03 0. -1.
        -11    1    3    3    0    0  0.48592946393E+01 -0.12080766758E+00 -0.77264147377E+01  0.91282431960E+01  0.51100000000E-03 0.  1.
        -12    1    3    3    0    0 -0.52813864743E+01  0.34213657388E+02  0.25855283377E+02  0.43208368095E+02  0.00000000000E+00 0.  1.
</event>
<event>
 7    1  0.4639347E-015  0.9000762E+02  0.7816164E-02  0.1186339E+00
        -11   -1    0    0    0    0  0.00000000000E+00  0.00000000000E+00  0.45593999997E+02  0.45594000000E+02  0.51100000000E-03 0.  1.
         11   -1    0    0    0    0 -0.00000000000E+00 -0.00000000000E+00 -0.45593999997E+02  0.45594000000E+02  0.51100000000E-03 0. -1.
    9900012    2    1    2    0    0  0.19327609010E+00  0.99023419138E+00  0.61268524852E+00  0.90007617598E+02  0.89999877350E+02 0.  0.
         12    1    1    2    0    0 -0.19327609010E+00 -0.99023419138E+00 -0.61268524852E+00  0.11803824018E+01  0.00000000000E+00 0. -1.
         11    1    3    3    0    0 -0.65800308059E+01  0.10953650035E+00 -0.99301710470E+01  0.11912896413E+02  0.51100000000E-03 0. -1.
        -11    1    3    3    0    0 -0.65246573629E+01 -0.36789855863E+02  0.67198100438E+01  0.37963409955E+02  0.51100000000E-03 0.  1.
         12    1    3    3    0    0  0.13297964259E+02  0.37670553554E+02  0.38230462518E+01  0.40131311231E+02  0.00000000000E+00 0. -1.
</event>
<event>
 7    1  0.5166324E-015  0.9000772E+02  0.7816164E-02  0.1186339E+00
        -11   -1    0    0    0    0  0.00000000000E+00  0.00000000000E+00  0.45593999997E+02  0.45594000000E+02  0.51100000000E-03 0.  1.
         11   -1    0    0    0    0 -0.00000000000E+00 -0.00000000000E+00 -0.45593999997E+02  0.45594000000E+02  0.51100000000E-03 0. -1.
    9900012    2    1    2    0    0  0.91101120465E+00 -0.61581645932E+00  0.42881427995E+00  0.90007723332E+02  0.89999984480E+02 0.  0.
         12    1    1    2    0    0 -0.91101120465E+00  0.61581645932E+00 -0.42881427995E+00  0.11802766681E+01  0.00000000000E+00 0. -1.
         11    1    3    3    0    0 -0.75071679610E+01 -0.25822459647E+01 -0.50664847936E+01  0.94177934487E+01  0.51100000000E-03 0. -1.
        -11    1    3    3    0    0 -0.10935998321E+02 -0.35770727830E+02  0.74263440486E+01  0.38135175560E+02  0.51100000000E-03 0.  1.
         12    1    3    3    0    0  0.19354177486E+02  0.37737157336E+02 -0.19310449751E+01  0.42454754323E+02  0.00000000000E+00 0. -1.
</event>
<event>
 7    1  0.4639347E-015  0.9000755E+02  0.7816164E-02  0.1186339E+00
        -11   -1    0    0    0    0  0.00000000000E+00  0.00000000000E+00  0.45593999997E+02  0.45594000000E+02  0.51100000000E-03 0. -1.
         11   -1    0    0    0    0 -0.00000000000E+00 -0.00000000000E+00 -0.45593999997E+02  0.45594000000E+02  0.51100000000E-03 0.  1.
    9900012    2    1    2    0    0  0.68443150529E-02  0.68857966376E+00 -0.95878184589E+00  0.90007554565E+02  0.89999813485E+02 0.  0.
         12    1    1    2    0    0 -0.68443150529E-02 -0.68857966376E+00  0.95878184589E+00  0.11804454354E+01  0.00000000000E+00 0. -1.
         11    1    3    3    0    0 -0.92702449403E+01  0.10246455589E+01  0.54693187650E+01  0.10812066768E+02  0.51100000000E-03 0. -1.
        -11    1    3    3    0    0  0.15724521575E+02  0.32142482967E+02 -0.22623568589E+02  0.42334686086E+02  0.51100000000E-03 0.  1.
         12    1    3    3    0    0 -0.64474323198E+01 -0.32478548862E+02  0.16195467978E+02  0.36860801711E+02  0.00000000000E+00 0. -1.
</event>
<event>
 7    1  0.4639347E-015  0.9000775E+02  0.7816164E-02  0.1186339E+00
        -11   -1    0    0    0    0  0.00000000000E+00  0.00000000000E+00  0.45593999997E+02  0.45594000000E+02  0.51100000000E-03 0.  1.
         11   -1    0    0    0    0 -0.00000000000E+00 -0.00000000000E+00 -0.45593999997E+02  0.45594000000E+02  0.51100000000E-03 0. -1.
    9900012    2    1    2    0    0  0.96482257415E+00  0.65615721124E+00 -0.17764417059E+00  0.90007753273E+02  0.90000014816E+02 0.  0.
         12    1    1    2    0    0 -0.96482257415E+00 -0.65615721124E+00  0.17764417059E+00  0.11802467271E+01  0.00000000000E+00 0. -1.
         11    1    3    3    0    0 -0.95035147494E+01 -0.30861526295E+01  0.27219003742E+00  0.99957600172E+01  0.51100000000E-03 0. -1.
        -11    1    3    3    0    0  0.10837186526E+02 -0.37340098263E+02 -0.15705261983E+01  0.38912647082E+02  0.51100000000E-03 0.  1.
         12    1    3    3    0    0 -0.36884920251E+00  0.41082408104E+02  0.11206919903E+01  0.41099346174E+02  0.00000000000E+00 0. -1.
</event>
<event>
 7    1  0.5074531E-015  0.9000777E+02  0.7816164E-02  0.1186339E+00
        -11   -1    0    0    0    0  0.00000000000E+00  0.00000000000E+00  0.45593999997E+02  0.45594000000E+02  0.51100000000E-03 0. -1.
         11   -1    0    0    0    0 -0.00000000000E+00 -0.00000000000E+00 -0.45593999997E+02  0.45594000000E+02  0.51100000000E-03 0.  1.
    9900012    2    1    2    0    0  0.10412918303E+01  0.33391309816E+00  0.44401877520E+00  0.90007771503E+02  0.90000033287E+02 0.  0.
         12    1    1    2    0    0 -0.10412918303E+01 -0.33391309816E+00 -0.44401877520E+00  0.11802284973E+01  0.00000000000E+00 0. -1.
         11    1    3    3    0    0  0.14214066521E+01  0.15497132691E+01 -0.94861507155E+01  0.97164326656E+01  0.51100000000E-03 0. -1.
        -11    1    3    3    0    0  0.32734253888E+02 -0.22292187260E+02 -0.75192787686E+00  0.39611089183E+02  0.51100000000E-03 0.  1.
         12    1    3    3    0    0 -0.33114368710E+02  0.21076387089E+02  0.10682097368E+02  0.40680249654E+02  0.00000000000E+00 0. -1.
</event>
<event>
 7    1  0.4639347E-015  0.9000766E+02  0.7816164E-02  0.1186339E+00
        -11   -1    0    0    0    0  0.00000000000E+00  0.00000000000E+00  0.45593999997E+02  0.45594000000E+02  0.51100000000E-03 0. -1.
         11   -1    0    0    0    0 -0.00000000000E+00 -0.00000000000E+00 -0.45593999997E+02  0.45594000000E+02  0.51100000000E-03 0.  1.
    9900012    2    1    2    0    0 -0.88195943609E+00 -0.77799161405E+00 -0.10043584465E+00  0.90007656509E+02  0.89999916775E+02 0.  0.
         12    1    1    2    0    0  0.88195943609E+00  0.77799161405E+00  0.10043584465E+00  0.11803434913E+01  0.00000000000E+00 0. -1.
         11    1    3    3    0    0  0.44192136732E+01  0.86808309875E+01 -0.51144869921E+00  0.97543762566E+01  0.51100000000E-03 0. -1.
        -11    1    3    3    0    0 -0.72828451162E+01  0.32209215246E+02 -0.14347319512E+02  0.36004429688E+02  0.51100000000E-03 0.  1.
         12    1    3    3    0    0  0.19816720069E+01 -0.41668037847E+02  0.14758332367E+02  0.44248850564E+02  0.00000000000E+00 0. -1.
</event>
<event>
 7    1  0.4639347E-015  0.9000740E+02  0.7816164E-02  0.1186340E+00
        -11   -1    0    0    0    0  0.00000000000E+00  0.00000000000E+00  0.45593999997E+02  0.45594000000E+02  0.51100000000E-03 0.  1.
         11   -1    0    0    0    0 -0.00000000000E+00 -0.00000000000E+00 -0.45593999997E+02  0.45594000000E+02  0.51100000000E-03 0. -1.
    9900012    2    1    2    0    0 -0.78069710247E+00 -0.82688586180E+00  0.31715435935E+00  0.90007400541E+02  0.89999657428E+02 0.  0.
         12    1    1    2    0    0  0.78069710247E+00  0.82688586180E+00 -0.31715435935E+00  0.11805994587E+01  0.00000000000E+00 0. -1.
         11    1    3    3    0    0  0.30670403855E+01 -0.68248248966E+00  0.90290282870E+01  0.95601187829E+01  0.51100000000E-03 0. -1.
        -11    1    3    3    0    0 -0.34493360019E+02  0.22532264663E+02 -0.96371659511E+01  0.42312761717E+02  0.51100000000E-03 0.  1.
         12    1    3    3    0    0  0.30645622531E+02 -0.22676668035E+02  0.92529202348E+00  0.38134520042E+02  0.00000000000E+00 0. -1.
</event>
<event>
 7    1  0.4639347E-015  0.9000773E+02  0.7816164E-02  0.1186339E+00
        -11   -1    0    0    0    0  0.00000000000E+00  0.00000000000E+00  0.45593999997E+02  0.45594000000E+02  0.51100000000E-03 0.  1.
         11   -1    0    0    0    0 -0.00000000000E+00 -0.00000000000E+00 -0.45593999997E+02  0.45594000000E+02  0.51100000000E-03 0. -1.
    9900012    2    1    2    0    0  0.10571270414E+01 -0.38547323261E+00 -0.35627891298E+00  0.90007728057E+02  0.89999989268E+02 0.  0.
         12    1    1    2    0    0 -0.10571270414E+01  0.38547323261E+00  0.35627891298E+00  0.11802719426E+01  0.00000000000E+00 0. -1.
         11    1    3    3    0    0 -0.49508876011E+01 -0.18631003488E+00 -0.70696891184E+01  0.86328734475E+01  0.51100000000E-03 0. -1.
        -11    1    3    3    0    0 -0.34580985190E+02  0.63007444441E+01  0.16934622005E+02  0.39016987839E+02  0.51100000000E-03 0.  1.
         12    1    3    3    0    0  0.40588999833E+02 -0.64999076418E+01 -0.10221211800E+02  0.42357866771E+02  0.00000000000E+00 0. -1.
</event>
<event>
 7    1  0.4639347E-015  0.9000762E+02  0.7816164E-02  0.1186339E+00
        -11   -1    0    0    0    0  0.00000000000E+00  0.00000000000E+00  0.45593999997E+02  0.45594000000E+02  0.51100000000E-03 0.  1.
         11   -1    0    0    0    0 -0.00000000000E+00 -0.00000000000E+00 -0.45593999997E+02  0.45594000000E+02  0.51100000000E-03 0. -1.
    9900012    2    1    2    0    0 -0.70823094039E+00  0.34267488940E+00  0.87993186460E+00  0.90007619879E+02  0.89999879661E+02 0.  0.
         12    1    1    2    0    0  0.70823094039E+00 -0.34267488940E+00 -0.87993186460E+00  0.11803801214E+01  0.00000000000E+00 0. -1.
         11    1    3    3    0    0 -0.14987849108E+02  0.14382007480E+02 -0.25394186354E+02  0.32807658570E+02  0.51100000000E-03 0. -1.
        -11    1    3    3    0    0 -0.11118526990E+02  0.38667969718E+01 -0.52899007762E+01  0.12905689123E+02  0.51100000000E-03 0.  1.
        -12    1    3    3    0    0  0.25398145158E+02 -0.17906129562E+02  0.31564018995E+02  0.44294272186E+02  0.00000000000E+00 0.  1.
</event>
<event>
 7    1  0.4639347E-015  0.9000774E+02  0.7816164E-02  0.1186339E+00
        -11   -1    0    0    0    0  0.00000000000E+00  0.00000000000E+00  0.45593999997E+02  0.45594000000E+02  0.51100000000E-03 0.  1.
         11   -1    0    0    0    0 -0.00000000000E+00 -0.00000000000E+00 -0.45593999997E+02  0.45594000000E+02  0.51100000000E-03 0. -1.
    9900012    2    1    2    0    0  0.62770400728E+00 -0.22711003184E+00  0.97335153373E+00  0.90007743886E+02  0.90000005305E+02 0.  0.
         12    1    1    2    0    0 -0.62770400728E+00  0.22711003184E+00 -0.97335153373E+00  0.11802561144E+01  0.00000000000E+00 0. -1.
         11    1    3    3    0    0 -0.10455540277E+02 -0.18777562928E+02 -0.14460606581E+02  0.25904137410E+02  0.51100000000E-03 0. -1.
        -11    1    3    3    0    0  0.13850012870E+02 -0.61214324782E+01 -0.17318684979E+02  0.23005035139E+02  0.51100000000E-03 0.  1.
        -12    1    3    3    0    0 -0.27667685858E+01  0.24671885374E+02  0.32752643094E+02  0.41098571337E+02  0.00000000000E+00 0.  1.
</event>
<event>
 7    1  0.4639347E-015  0.9000772E+02  0.7816164E-02  0.1186339E+00
        -11   -1    0    0    0    0  0.00000000000E+00  0.00000000000E+00  0.45593999997E+02  0.45594000000E+02  0.51100000000E-03 0.  1.
         11   -1    0    0    0    0 -0.00000000000E+00 -0.00000000000E+00 -0.45593999997E+02  0.45594000000E+02  0.51100000000E-03 0. -1.
    9900012    2    1    2    0    0 -0.80322492025E+00  0.86198959800E+00 -0.69769706243E-01  0.90007718613E+02  0.89999979699E+02 0.  0.
         12    1    1    2    0    0  0.80322492025E+00 -0.86198959800E+00  0.69769706243E-01  0.11802813866E+01  0.00000000000E+00 0. -1.
         11    1    3    3    0    0  0.28785970572E+02  0.17199685344E+02  0.17039620389E+02  0.37613959389E+02  0.51100000000E-03 0. -1.
        -11    1    3    3    0    0  0.78238089456E+01 -0.37866491079E+01 -0.81760502226E+01  0.11933084069E+02  0.51100000000E-03 0.  1.
        -12    1    3    3    0    0 -0.37413004438E+02 -0.12551046638E+02 -0.89333398722E+01  0.40460675156E+02  0.00000000000E+00 0.  1.
</event>
<event>
 7    1  0.4639347E-015  0.9000772E+02  0.7816164E-02  0.1186339E+00
        -11   -1    0    0    0    0  0.00000000000E+00  0.00000000000E+00  0.45593999997E+02  0.45594000000E+02  0.51100000000E-03 0. -1.
         11   -1    0    0    0    0 -0.00000000000E+00 -0.00000000000E+00 -0.45593999997E+02  0.45594000000E+02  0.51100000000E-03 0.  1.
    9900012    2    1    2    0    0  0.78309405859E+00 -0.78527228422E+00 -0.40393363603E+00  0.90007724080E+02  0.89999985238E+02 0.  0.
         12    1    1    2    0    0 -0.78309405859E+00  0.78527228422E+00  0.40393363603E+00  0.11802759200E+01  0.00000000000E+00 0. -1.
         11    1    3    3    0    0  0.91308613170E+01  0.18597715199E+02  0.11094767134E+02  0.23501946665E+02  0.51100000000E-03 0. -1.
        -11    1    3    3    0    0 -0.21933531094E+02  0.10880132838E+02  0.10564609323E+02  0.26665859207E+02  0.51100000000E-03 0.  1.
        -12    1    3    3    0    0  0.13585763835E+02 -0.30263120321E+02 -0.22063310093E+02  0.39839918208E+02  0.00000000000E+00 0.  1.
</event>
<event>
 7    1  0.4639347E-015  0.9000800E+02  0.7816164E-02  0.1186339E+00
        -11   -1    0    0    0    0  0.00000000000E+00  0.00000000000E+00  0.45593999997E+02  0.45594000000E+02  0.51100000000E-03 0.  1.
         11   -1    0    0    0    0 -0.00000000000E+00 -0.00000000000E+00 -0.45593999997E+02  0.45594000000E+02  0.51100000000E-03 0. -1.
    9900012    2    1    2    0    0  0.10765153458E+01 -0.46417208128E+00  0.13441678903E+00  0.90007996236E+02  0.90000260986E+02 0.  0.
         12    1    1    2    0    0 -0.10765153458E+01  0.46417208128E+00 -0.13441678903E+00  0.11800037644E+01  0.00000000000E+00 0. -1.
         11    1    3    3    0    0 -0.67673975778E+01 -0.51448419642E+01  0.93803160283E+01  0.12659281096E+02  0.51100000000E-03 0. -1.
        -11    1    3    3    0    0  0.34058339101E+02  0.93095515622E+01  0.17678691678E+02  0.39486381859E+02  0.51100000000E-03 0.  1.
         12    1    3    3    0    0 -0.26214426177E+02 -0.46288816794E+01 -0.26924590917E+02  0.37862333281E+02  0.00000000000E+00 0. -1.
</event>
<event>
 7    1  0.4639347E-015  0.9000767E+02  0.7816164E-02  0.1186339E+00
        -11   -1    0    0    0    0  0.00000000000E+00  0.00000000000E+00  0.45593999997E+02  0.45594000000E+02  0.51100000000E-03 0.  1.
         11   -1    0    0    0    0 -0.00000000000E+00 -0.00000000000E+00 -0.45593999997E+02  0.45594000000E+02  0.51100000000E-03 0. -1.
    9900012    2    1    2    0    0 -0.98863973891E+00  0.64191709728E+00 -0.60932906808E-01  0.90007669999E+02  0.89999930443E+02 0.  0.
         12    1    1    2    0    0  0.98863973891E+00 -0.64191709728E+00  0.60932906808E-01  0.11803300014E+01  0.00000000000E+00 0. -1.
         11    1    3    3    0    0 -0.63941647450E+01  0.14328302576E+00  0.72637358666E+01  0.96782091221E+01  0.51100000000E-03 0. -1.
        -11    1    3    3    0    0  0.15555437094E+02 -0.15149464099E+02  0.30917930814E+02  0.37780899033E+02  0.51100000000E-03 0.  1.
         12    1    3    3    0    0 -0.10149912088E+02  0.15648098170E+02 -0.38242599587E+02  0.42548561843E+02  0.00000000000E+00 0. -1.
</event>
<event>
 7    1  0.4639347E-015  0.9000754E+02  0.7816164E-02  0.1186339E+00
        -11   -1    0    0    0    0  0.00000000000E+00  0.00000000000E+00  0.45593999997E+02  0.45594000000E+02  0.51100000000E-03 0. -1.
         11   -1    0    0    0    0 -0.00000000000E+00 -0.00000000000E+00 -0.45593999997E+02  0.45594000000E+02  0.51100000000E-03 0.  1.
    9900012    2    1    2    0    0 -0.95525644209E+00 -0.45284429589E+00 -0.52525445736E+00  0.90007544549E+02  0.89999803337E+02 0.  0.
         12    1    1    2    0    0  0.95525644209E+00  0.45284429589E+00  0.52525445736E+00  0.11804554509E+01  0.00000000000E+00 0. -1.
         11    1    3    3    0    0 -0.48256289131E+01 -0.37104609903E+02  0.19123542643E+02  0.42020812153E+02  0.51100000000E-03 0. -1.
        -11    1    3    3    0    0  0.33664105419E+01 -0.97269443655E+00  0.25179980540E+01  0.43149934953E+01  0.51100000000E-03 0.  1.
        -12    1    3    3    0    0  0.50396192907E+00  0.37624460044E+02 -0.22166795155E+02  0.43671738901E+02  0.00000000000E+00 0.  1.
</event>
<event>
 7    1  0.4639347E-015  0.9000818E+02  0.7816164E-02  0.1186338E+00
        -11   -1    0    0    0    0  0.00000000000E+00  0.00000000000E+00  0.45593999997E+02  0.45594000000E+02  0.51100000000E-03 0. -1.
         11   -1    0    0    0    0 -0.00000000000E+00 -0.00000000000E+00 -0.45593999997E+02  0.45594000000E+02  0.51100000000E-03 0.  1.
    9900012    2    1    2    0    0  0.43233970470E+00 -0.55881984748E+00 -0.94486841841E+00  0.90008180704E+02  0.90000447889E+02 0.  0.
         12    1    1    2    0    0 -0.43233970470E+00  0.55881984748E+00  0.94486841841E+00  0.11798192956E+01  0.00000000000E+00 0. -1.
         11    1    3    3    0    0  0.18912455629E+01  0.64553672988E+01  0.38098358414E+02  0.38687640027E+02  0.51100000000E-03 0. -1.
        -11    1    3    3    0    0 -0.10872784403E+02 -0.10174033985E+01 -0.21767946579E+00  0.10922450960E+02  0.51100000000E-03 0.  1.
        -12    1    3    3    0    0  0.94138785450E+01 -0.59967837477E+01 -0.38825547366E+02  0.40398089718E+02  0.00000000000E+00 0.  1.
</event>
<event>
 7    1  0.4639347E-015  0.9000778E+02  0.7816164E-02  0.1186339E+00
        -11   -1    0    0    0    0  0.00000000000E+00  0.00000000000E+00  0.45593999997E+02  0.45594000000E+02  0.51100000000E-03 0.  1.
         11   -1    0    0    0    0 -0.00000000000E+00 -0.00000000000E+00 -0.45593999997E+02  0.45594000000E+02  0.51100000000E-03 0. -1.
    9900012    2    1    2    0    0 -0.77954441894E+00 -0.44559661048E+00  0.76595064277E+00  0.90007777043E+02  0.90000038900E+02 0.  0.
         12    1    1    2    0    0  0.77954441894E+00  0.44559661048E+00 -0.76595064277E+00  0.11802229567E+01  0.00000000000E+00 0. -1.
         11    1    3    3    0    0 -0.34574906568E+02  0.30861256594E+01 -0.19020366076E+02  0.39581847629E+02  0.51100000000E-03 0. -1.
        -11    1    3    3    0    0 -0.42406588208E+01 -0.53264084260E+01  0.81282620820E+01  0.10602945755E+02  0.51100000000E-03 0.  1.
        -12    1    3    3    0    0  0.38036020970E+02  0.17946861561E+01  0.11658054637E+02  0.39822983659E+02  0.00000000000E+00 0.  1.
</event>
<event>
 7    1  0.4639347E-015  0.9000782E+02  0.7816164E-02  0.1186339E+00
        -11   -1    0    0    0    0  0.00000000000E+00  0.00000000000E+00  0.45593999997E+02  0.45594000000E+02  0.51100000000E-03 0. -1.
         11   -1    0    0    0    0 -0.00000000000E+00 -0.00000000000E+00 -0.45593999997E+02  0.45594000000E+02  0.51100000000E-03 0.  1.
    9900012    2    1    2    0    0  0.83109508042E+00 -0.48429498424E+00  0.68378501408E+00  0.90007820942E+02  0.90000083378E+02 0.  0.
         12    1    1    2    0    0 -0.83109508042E+00  0.48429498424E+00 -0.68378501408E+00  0.11801790584E+01  0.00000000000E+00 0. -1.
         11    1    3    3    0    0  0.72643313135E+01 -0.42441751190E+02  0.77728506950E+01  0.43754885004E+02  0.51100000000E-03 0. -1.
        -11    1    3    3    0    0 -0.81274478535E-01  0.69948073677E+01  0.51311934894E+01  0.86754298187E+01  0.51100000000E-03 0.  1.
        -12    1    3    3    0    0 -0.63519617545E+01  0.34962648838E+02 -0.12220259170E+02  0.37577506119E+02  0.00000000000E+00 0.  1.
</event>
<event>
 7    1  0.4639347E-015  0.9000797E+02  0.7816164E-02  0.1186339E+00
        -11   -1    0    0    0    0  0.00000000000E+00  0.00000000000E+00  0.45593999997E+02  0.45594000000E+02  0.51100000000E-03 0.  1.
         11   -1    0    0    0    0 -0.00000000000E+00 -0.00000000000E+00 -0.45593999997E+02  0.45594000000E+02  0.51100000000E-03 0. -1.
    9900012    2    1    2    0    0  0.65453369380E+00 -0.98053468681E+00  0.51119731421E-01  0.90007967858E+02  0.90000232234E+02 0.  0.
         12    1    1    2    0    0 -0.65453369380E+00  0.98053468681E+00 -0.51119731421E-01  0.11800321416E+01  0.00000000000E+00 0. -1.
         11    1    3    3    0    0 -0.13817687134E+02  0.37260074947E+01  0.50072821128E+01  0.15161941960E+02  0.51100000000E-03 0. -1.
        -11    1    3    3    0    0 -0.12957388868E+02 -0.32167907620E+02  0.42964457865E+01  0.34944636979E+02  0.51100000000E-03 0.  1.
         12    1    3    3    0    0  0.27429609695E+02  0.27461365439E+02 -0.92526081679E+01  0.39901388919E+02  0.00000000000E+00 0. -1.
</event>
<event>
 7    1  0.4639347E-015  0.9000779E+02  0.7816164E-02  0.1186339E+00
        -11   -1    0    0    0    0  0.00000000000E+00  0.00000000000E+00  0.45593999997E+02  0.45594000000E+02  0.51100000000E-03 0.  1.
         11   -1    0    0    0    0 -0.00000000000E+00 -0.00000000000E+00 -0.45593999997E+02  0.45594000000E+02  0.51100000000E-03 0. -1.
    9900012    2    1    2    0    0 -0.89697545138E+00 -0.64119340534E+00 -0.42096661008E+00  0.90007785261E+02  0.90000047226E+02 0.  0.
         12    1    1    2    0    0  0.89697545138E+00  0.64119340534E+00  0.42096661008E+00  0.11802147390E+01  0.00000000000E+00 0. -1.
         11    1    3    3    0    0  0.12119998513E+02 -0.32282875667E+02  0.17319990431E+02  0.38588346610E+02  0.51100000000E-03 0. -1.
        -11    1    3    3    0    0 -0.49629196306E+01 -0.69363652470E+01 -0.55152156957E+01  0.10156837034E+02  0.51100000000E-03 0.  1.
        -12    1    3    3    0    0 -0.80540543338E+01  0.38578047509E+02 -0.12225741345E+02  0.41262601617E+02  0.00000000000E+00 0.  1.
</event>
<event>
 7    1  0.4639347E-015  0.9000774E+02  0.7816164E-02  0.1186339E+00
        -11   -1    0    0    0    0  0.00000000000E+00  0.00000000000E+00  0.45593999997E+02  0.45594000000E+02  0.51100000000E-03 0. -1.
         11   -1    0    0    0    0 -0.00000000000E+00 -0.00000000000E+00 -0.45593999997E+02  0.45594000000E+02  0.51100000000E-03 0.  1.
    9900012    2    1    2    0    0 -0.10548460036E+01  0.51914818408E+00  0.10389846849E+00  0.90007741630E+02  0.90000003019E+02 0.  0.
         12    1    1    2    0    0  0.10548460036E+01 -0.51914818408E+00 -0.10389846849E+00  0.11802583700E+01  0.00000000000E+00 0. -1.
         11    1    3    3    0    0  0.14617298475E+02 -0.14261620707E+02  0.38418889824E+02  0.43509428122E+02  0.51100000000E-03 0. -1.
        -11    1    3    3    0    0 -0.57908129205E+01 -0.25869755673E+01 -0.84613398705E+01  0.10574508477E+02  0.51100000000E-03 0.  1.
        -12    1    3    3    0    0 -0.98813315576E+01  0.17367744458E+02 -0.29853651485E+02  0.35923805031E+02  0.00000000000E+00 0.  1.
</event>
<event>
 7    1  0.4639347E-015  0.9000786E+02  0.7816164E-02  0.1186339E+00
        -11   -1    0    0    0    0  0.00000000000E+00  0.00000000000E+00  0.45593999997E+02  0.45594000000E+02  0.51100000000E-03 0.  1.
         11   -1    0    0    0    0 -0.00000000000E+00 -0.00000000000E+00 -0.45593999997E+02  0.45594000000E+02  0.51100000000E-03 0. -1.
    9900012    2    1    2    0    0  0.40034755935E+00 -0.10081738128E+01  0.46480339737E+00  0.90007858143E+02  0.90000121070E+02 0.  0.
         12    1    1    2    0    0 -0.40034755935E+00  0.10081738128E+01 -0.46480339737E+00  0.11801418573E+01  0.00000000000E+00 0. -1.
         11    1    3    3    0    0 -0.20691583929E+02  0.22026414600E+02  0.25746697424E+02  0.39701347762E+02  0.51100000000E-03 0. -1.
        -11    1    3    3    0    0  0.86381737137E+01  0.56694085853E+01 -0.41760513087E+00  0.10340920323E+02  0.51100000000E-03 0.  1.
        -12    1    3    3    0    0  0.12453757775E+02 -0.28703996998E+02 -0.24864288895E+02  0.39965590058E+02  0.00000000000E+00 0.  1.
</event>
<event>
 7    1  0.4639347E-015  0.9000774E+02  0.7816164E-02  0.1186339E+00
        -11   -1    0    0    0    0  0.00000000000E+00  0.00000000000E+00  0.45593999997E+02  0.45594000000E+02  0.51100000000E-03 0. -1.
         11   -1    0    0    0    0 -0.00000000000E+00 -0.00000000000E+00 -0.45593999997E+02  0.45594000000E+02  0.51100000000E-03 0.  1.
    9900012    2    1    2    0    0  0.92939925072E+00 -0.64350784582E+00 -0.33931807947E+00  0.90007736439E+02  0.89999997760E+02 0.  0.
         12    1    1    2    0    0 -0.92939925072E+00  0.64350784582E+00  0.33931807947E+00  0.11802635612E+01  0.00000000000E+00 0. -1.
         11    1    3    3    0    0 -0.12943737507E+02 -0.25135568856E+00  0.79264333609E+00  0.12970420350E+02  0.51100000000E-03 0. -1.
        -11    1    3    3    0    0 -0.80983667244E+01 -0.22146866934E+02 -0.27624397376E+02  0.36320443131E+02  0.51100000000E-03 0.  1.
        -12    1    3    3    0    0  0.21971503483E+02  0.21754714777E+02  0.26492435960E+02  0.40716872957E+02  0.00000000000E+00 0.  1.
</event>
<event>
 7    1  0.4639347E-015  0.9000774E+02  0.7816164E-02  0.1186339E+00
        -11   -1    0    0    0    0  0.00000000000E+00  0.00000000000E+00  0.45593999997E+02  0.45594000000E+02  0.51100000000E-03 0.  1.
         11   -1    0    0    0    0 -0.00000000000E+00 -0.00000000000E+00 -0.45593999997E+02  0.45594000000E+02  0.51100000000E-03 0. -1.
    9900012    2    1    2    0    0 -0.10355061968E+01  0.34491513072E+00  0.44920046061E+00  0.90007737070E+02  0.89999998399E+02 0.  0.
         12    1    1    2    0    0  0.10355061968E+01 -0.34491513072E+00 -0.44920046061E+00  0.11802629303E+01  0.00000000000E+00 0. -1.
         11    1    3    3    0    0  0.37569577576E+02  0.19938327334E+02  0.22299320460E+01  0.42590875236E+02  0.51100000000E-03 0. -1.
        -11    1    3    3    0    0 -0.45105972168E+01 -0.14113829401E+01  0.63651175113E+01  0.79279385877E+01  0.51100000000E-03 0.  1.
        -12    1    3    3    0    0 -0.34094486556E+02 -0.18182029264E+02 -0.81458490968E+01  0.39488923246E+02  0.00000000000E+00 0.  1.
</event>
<event>
 7    1  0.4639347E-015  0.9000772E+02  0.7816164E-02  0.1186339E+00
        -11   -1    0    0    0    0  0.00000000000E+00  0.00000000000E+00  0.45593999997E+02  0.45594000000E+02  0.51100000000E-03 0. -1.
         11   -1    0    0    0    0 -0.00000000000E+00 -0.00000000000E+00 -0.45593999997E+02  0.45594000000E+02  0.51100000000E-03 0.  1.
    9900012    2    1    2    0    0  0.26215448494E+00  0.21341084299E+00 -0.11308319386E+01  0.90007724593E+02  0.89999985758E+02 0.  0.
         12    1    1    2    0    0 -0.26215448494E+00 -0.21341084299E+00  0.11308319386E+01  0.11802754065E+01  0.00000000000E+00 0. -1.
         11    1    3    3    0    0  0.10870732254E+02  0.16031410725E+01  0.30186800898E+00  0.10992452210E+02  0.51100000000E-03 0. -1.
        -11    1    3    3    0    0  0.25385241460E+02 -0.19981265110E+02 -0.15888751395E+02  0.36001581362E+02  0.51100000000E-03 0.  1.
         12    1    3    3    0    0 -0.35993819229E+02  0.18591534880E+02  0.14456051447E+02  0.43013691022E+02  0.00000000000E+00 0. -1.
</event>
<event>
 7    1  0.4639347E-015  0.9000773E+02  0.7816164E-02  0.1186339E+00
        -11   -1    0    0    0    0  0.00000000000E+00  0.00000000000E+00  0.45593999997E+02  0.45594000000E+02  0.51100000000E-03 0. -1.
         11   -1    0    0    0    0 -0.00000000000E+00 -0.00000000000E+00 -0.45593999997E+02  0.45594000000E+02  0.51100000000E-03 0.  1.
    9900012    2    1    2    0    0 -0.11055002031E+01  0.40588990843E+00  0.78536832070E-01  0.90007726578E+02  0.89999987769E+02 0.  0.
         12    1    1    2    0    0  0.11055002031E+01 -0.40588990843E+00 -0.78536832070E-01  0.11802734220E+01  0.00000000000E+00 0. -1.
         11    1    3    3    0    0  0.15063931252E+02  0.35375120926E+02  0.45049561416E+00  0.38451581916E+02  0.51100000000E-03 0. -1.
        -11    1    3    3    0    0  0.91603249179E+01 -0.67668837804E+01  0.63772223516E+01  0.13052633216E+02  0.51100000000E-03 0.  1.
        -12    1    3    3    0    0 -0.25329756373E+02 -0.28202347237E+02 -0.67491811337E+01  0.38503511445E+02  0.00000000000E+00 0.  1.
</event>
<event>
 7    1  0.4639347E-015  0.9000835E+02  0.7816164E-02  0.1186338E+00
        -11   -1    0    0    0    0  0.00000000000E+00  0.00000000000E+00  0.45593999997E+02  0.45594000000E+02  0.51100000000E-03 0.  1.
         11   -1    0    0    0    0 -0.00000000000E+00 -0.00000000000E+00 -0.45593999997E+02  0.45594000000E+02  0.51100000000E-03 0. -1.
    9900012    2    1    2    0    0  0.43771308336E+00  0.64953135017E+00 -0.88209518611E+00  0.90008349359E+02  0.90000618768E+02 0.  0.
         12    1    1    2    0    0 -0.43771308336E+00 -0.64953135017E+00  0.88209518611E+00  0.11796506413E+01  0.00000000000E+00 0. -1.
         11    1    3    3    0    0  0.10170911989E+02  0.37143370027E+02 -0.16826635701E+02  0.42026337658E+02  0.51100000000E-03 0. -1.
        -11    1    3    3    0    0  0.36541035011E+01 -0.15241166886E+01  0.90904567058E+01  0.99152310844E+01  0.51100000000E-03 0.  1.
        -12    1    3    3    0    0 -0.13387302407E+02 -0.34969721988E+02  0.68540838087E+01  0.38066780617E+02  0.00000000000E+00 0.  1.
</event>
<event>
 7    1  0.4639347E-015  0.9000781E+02  0.7816164E-02  0.1186339E+00
        -11   -1    0    0    0    0  0.00000000000E+00  0.00000000000E+00  0.45593999997E+02  0.45594000000E+02  0.51100000000E-03 0. -1.
         11   -1    0    0    0    0 -0.00000000000E+00 -0.00000000000E+00 -0.45593999997E+02  0.45594000000E+02  0.51100000000E-03 0.  1.
    9900012    2    1    2    0    0  0.25451143415E+00 -0.11511765236E+01 -0.53484504850E-01  0.90007811858E+02  0.90000074174E+02 0.  0.
         12    1    1    2    0    0 -0.25451143415E+00  0.11511765236E+01  0.53484504850E-01  0.11801881421E+01  0.00000000000E+00 0. -1.
         11    1    3    3    0    0 -0.10644403679E+01  0.34687350035E+01 -0.51289407807E+01  0.62826100957E+01  0.51100000000E-03 0. -1.
        -11    1    3    3    0    0  0.47894810966E+01 -0.18418449565E+02 -0.35745351108E+02  0.40495784220E+02  0.51100000000E-03 0.  1.
         12    1    3    3    0    0 -0.34705292945E+01  0.13798538038E+02  0.40820807383E+02  0.43229417542E+02  0.00000000000E+00 0. -1.
</event>
<event>
 7    1  0.4639347E-015  0.9000768E+02  0.7816164E-02  0.1186339E+00
        -11   -1    0    0    0    0  0.00000000000E+00  0.00000000000E+00  0.45593999997E+02  0.45594000000E+02  0.51100000000E-03 0. -1.
         11   -1    0    0    0    0 -0.00000000000E+00 -0.00000000000E+00 -0.45593999997E+02  0.45594000000E+02  0.51100000000E-03 0.  1.
    9900012    2    1    2    0    0 -0.32415788242E+00 -0.11238095804E+01 -0.15855138100E+00  0.90007675957E+02  0.89999936480E+02 0.  0.
         12    1    1    2    0    0  0.32415788242E+00  0.11238095804E+01  0.15855138100E+00  0.11803240428E+01  0.00000000000E+00 0. -1.
         11    1    3    3    0    0  0.36336387433E+01 -0.35939899061E+02  0.11995424798E+02  0.38062709985E+02  0.51100000000E-03 0. -1.
        -11    1    3    3    0    0  0.14121320881E+01 -0.74156763526E+01 -0.41928384425E+01  0.86351761572E+01  0.51100000000E-03 0.  1.
        -12    1    3    3    0    0 -0.53699287138E+01  0.42231765833E+02 -0.79611377367E+01  0.43309789815E+02  0.00000000000E+00 0.  1.
</event>
<event>
 7    1  0.4639347E-015  0.9000779E+02  0.7816164E-02  0.1186339E+00
        -11   -1    0    0    0    0  0.00000000000E+00  0.00000000000E+00  0.45593999997E+02  0.45594000000E+02  0.51100000000E-03 0.  1.
         11   -1    0    0    0    0 -0.00000000000E+00 -0.00000000000E+00 -0.45593999997E+02  0.45594000000E+02  0.51100000000E-03 0. -1.
    9900012    2    1    2    0    0 -0.11154475854E+01  0.37241989168E+00 -0.99850154256E-01  0.90007792415E+02  0.90000054474E+02 0.  0.
         12    1    1    2    0    0  0.11154475854E+01 -0.37241989168E+00  0.99850154256E-01  0.11802075854E+01  0.00000000000E+00 0. -1.
         11    1    3    3    0    0 -0.17140575897E+02  0.12789964751E+02 -0.86204529055E+01  0.23058507085E+02  0.51100000000E-03 0. -1.
        -11    1    3    3    0    0 -0.15699516470E+02 -0.21704710353E+02  0.18341627769E+02  0.32465128652E+02  0.51100000000E-03 0.  1.
         12    1    3    3    0    0  0.31724644781E+02  0.92871654937E+01 -0.98210250181E+01  0.34484156678E+02  0.00000000000E+00 0. -1.
</event>
<event>
 7    1  0.4639347E-015  0.9000759E+02  0.7816164E-02  0.1186339E+00
        -11   -1    0    0    0    0  0.00000000000E+00  0.00000000000E+00  0.45593999997E+02  0.45594000000E+02  0.51100000000E-03 0.  1.
         11   -1    0    0    0    0 -0.00000000000E+00 -0.00000000000E+00 -0.45593999997E+02  0.45594000000E+02  0.51100000000E-03 0. -1.
    9900012    2    1    2    0    0  0.17591545129E+00  0.11437145785E+00  0.11616139155E+01  0.90007587375E+02  0.89999846728E+02 0.  0.
         12    1    1    2    0    0 -0.17591545129E+00 -0.11437145785E+00 -0.11616139155E+01  0.11804126249E+01  0.00000000000E+00 0. -1.
         11    1    3    3    0    0 -0.55030892807E+01 -0.56733122947E+01  0.54156838956E+01  0.95812366812E+01  0.51100000000E-03 0. -1.
        -11    1    3    3    0    0  0.15819147752E+02 -0.27759222642E+02  0.20102078860E+02  0.37748025803E+02  0.51100000000E-03 0.  1.
         12    1    3    3    0    0 -0.10140143020E+02  0.33546906394E+02 -0.24356148840E+02  0.42678324890E+02  0.00000000000E+00 0. -1.
</event>
<event>
 7    1  0.4639347E-015  0.9000778E+02  0.7816164E-02  0.1186339E+00
        -11   -1    0    0    0    0  0.00000000000E+00  0.00000000000E+00  0.45593999997E+02  0.45594000000E+02  0.51100000000E-03 0.  1.
         11   -1    0    0    0    0 -0.00000000000E+00 -0.00000000000E+00 -0.45593999997E+02  0.45594000000E+02  0.51100000000E-03 0. -1.
    9900012    2    1    2    0    0 -0.78348509122E+00 -0.61173739009E+00  0.63627270804E+00  0.90007782019E+02  0.90000043942E+02 0.  0.
         12    1    1    2    0    0  0.78348509122E+00  0.61173739009E+00 -0.63627270804E+00  0.11802179805E+01  0.00000000000E+00 0. -1.
         11    1    3    3    0    0  0.65028298063E+00  0.10149877132E+02 -0.36251756213E+02  0.37651463485E+02  0.51100000000E-03 0. -1.
        -11    1    3    3    0    0  0.30890850718E+01 -0.97656212333E+01 -0.41547077323E+01  0.11053117264E+02  0.51100000000E-03 0.  1.
        -12    1    3    3    0    0 -0.45228531436E+01 -0.99599328843E+00  0.41042736653E+02  0.41303201271E+02  0.00000000000E+00 0.  1.
</event>
<event>
 7    1  0.4639347E-015  0.9000766E+02  0.7816164E-02  0.1186339E+00
        -11   -1    0    0    0    0  0.00000000000E+00  0.00000000000E+00  0.45593999997E+02  0.45594000000E+02  0.51100000000E-03 0.  1.
         11   -1    0    0    0    0 -0.00000000000E+00 -0.00000000000E+00 -0.45593999997E+02  0.45594000000E+02  0.51100000000E-03 0. -1.
    9900012    2    1    2    0    0  0.84155618416E+00 -0.88256839697E-01  0.82292488361E+00  0.90007656217E+02  0.89999916480E+02 0.  0.
         12    1    1    2    0    0 -0.84155618416E+00  0.88256839697E-01 -0.82292488361E+00  0.11803437825E+01  0.00000000000E+00 0. -1.
         11    1    3    3    0    0  0.11736889807E+02  0.55583695105E+01  0.15165902966E+01  0.13074788731E+02  0.51100000000E-03 0. -1.
        -11    1    3    3    0    0 -0.95925892054E+01 -0.34364649283E+02  0.20563091304E+02  0.41179941868E+02  0.51100000000E-03 0.  1.
         12    1    3    3    0    0 -0.13027444180E+01  0.28718022932E+02 -0.21256756717E+02  0.35752925619E+02  0.00000000000E+00 0. -1.
</event>
<event>
 7    1  0.4639347E-015  0.9000776E+02  0.7816164E-02  0.1186339E+00
        -11   -1    0    0    0    0  0.00000000000E+00  0.00000000000E+00  0.45593999997E+02  0.45594000000E+02  0.51100000000E-03 0. -1.
         11   -1    0    0    0    0 -0.00000000000E+00 -0.00000000000E+00 -0.45593999997E+02  0.45594000000E+02  0.51100000000E-03 0.  1.
    9900012    2    1    2    0    0 -0.61978193459E+00  0.10011476139E+01 -0.80814863081E-01  0.90007763908E+02  0.90000025591E+02 0.  0.
         12    1    1    2    0    0  0.61978193459E+00 -0.10011476139E+01  0.80814863081E-01  0.11802360922E+01  0.00000000000E+00 0. -1.
         11    1    3    3    0    0  0.30678969186E+02  0.24033356254E+01  0.17342943983E+02  0.35323545671E+02  0.51100000000E-03 0. -1.
        -11    1    3    3    0    0  0.29788693669E+01 -0.62592293221E+01  0.88367888232E+01  0.11231226619E+02  0.51100000000E-03 0.  1.
        -12    1    3    3    0    0 -0.34277620488E+02  0.48570413106E+01 -0.26260547670E+02  0.43452991618E+02  0.00000000000E+00 0.  1.
</event>
<event>
 7    1  0.4639347E-015  0.9000777E+02  0.7816164E-02  0.1186339E+00
        -11   -1    0    0    0    0  0.00000000000E+00  0.00000000000E+00  0.45593999997E+02  0.45594000000E+02  0.51100000000E-03 0.  1.
         11   -1    0    0    0    0 -0.00000000000E+00 -0.00000000000E+00 -0.45593999997E+02  0.45594000000E+02  0.51100000000E-03 0. -1.
    9900012    2    1    2    0    0  0.48053696466E+00  0.66042661966E+00  0.85197402659E+00  0.90007771702E+02  0.90000033488E+02 0.  0.
         12    1    1    2    0    0 -0.48053696466E+00 -0.66042661966E+00 -0.85197402659E+00  0.11802282984E+01  0.00000000000E+00 0. -1.
         11    1    3    3    0    0  0.26836477819E+02 -0.42923843654E+01  0.22922835366E+02  0.35553867395E+02  0.51100000000E-03 0. -1.
        -11    1    3    3    0    0  0.23711789873E+01 -0.12009430091E+01  0.10359455227E+02  0.10695001952E+02  0.51100000000E-03 0.  1.
        -12    1    3    3    0    0 -0.28727119841E+02  0.61537539942E+01 -0.32430316567E+02  0.43758902354E+02  0.00000000000E+00 0.  1.
</event>
<event>
 7    1  0.4639347E-015  0.9000771E+02  0.7816164E-02  0.1186339E+00
        -11   -1    0    0    0    0  0.00000000000E+00  0.00000000000E+00  0.45593999997E+02  0.45594000000E+02  0.51100000000E-03 0. -1.
         11   -1    0    0    0    0 -0.00000000000E+00 -0.00000000000E+00 -0.45593999997E+02  0.45594000000E+02  0.51100000000E-03 0.  1.
    9900012    2    1    2    0    0 -0.43021864133E+00 -0.10973703087E+01 -0.61386206522E-01  0.90007712772E+02  0.89999973781E+02 0.  0.
         12    1    1    2    0    0  0.43021864133E+00  0.10973703087E+01  0.61386206522E-01  0.11802872278E+01  0.00000000000E+00 0. -1.
         11    1    3    3    0    0  0.22111060290E+02  0.31975572861E+02 -0.24036366921E+01  0.38950143986E+02  0.51100000000E-03 0. -1.
        -11    1    3    3    0    0  0.13764118927E+01 -0.21365049041E+00 -0.88048921058E+01  0.89143862091E+01  0.51100000000E-03 0.  1.
        -12    1    3    3    0    0 -0.23917690824E+02 -0.32859292680E+02  0.11147142591E+02  0.42143182577E+02  0.00000000000E+00 0.  1.
</event>
<event>
 7    1  0.4639347E-015  0.9000795E+02  0.7816164E-02  0.1186339E+00
        -11   -1    0    0    0    0  0.00000000000E+00  0.00000000000E+00  0.45593999997E+02  0.45594000000E+02  0.51100000000E-03 0. -1.
         11   -1    0    0    0    0 -0.00000000000E+00 -0.00000000000E+00 -0.45593999997E+02  0.45594000000E+02  0.51100000000E-03 0.  1.
    9900012    2    1    2    0    0  0.15898787860E+00  0.52382372087E+00 -0.10453970051E+01  0.90007947741E+02  0.90000211851E+02 0.  0.
         12    1    1    2    0    0 -0.15898787860E+00 -0.52382372087E+00  0.10453970051E+01  0.11800522592E+01  0.00000000000E+00 0. -1.
         11    1    3    3    0    0  0.10251602871E+01  0.51127632672E+01  0.71258328807E+01  0.88299941306E+01  0.51100000000E-03 0. -1.
        -11    1    3    3    0    0 -0.36618676103E+02 -0.20015675024E+02 -0.61933898953E+01  0.42189012371E+02  0.51100000000E-03 0.  1.
         12    1    3    3    0    0  0.35752503694E+02  0.15426735478E+02 -0.19778399905E+01  0.38988941239E+02  0.00000000000E+00 0. -1.
</event>
<event>
 7    1  0.4639347E-015  0.9000778E+02  0.7816164E-02  0.1186339E+00
        -11   -1    0    0    0    0  0.00000000000E+00  0.00000000000E+00  0.45593999997E+02  0.45594000000E+02  0.51100000000E-03 0.  1.
         11   -1    0    0    0    0 -0.00000000000E+00 -0.00000000000E+00 -0.45593999997E+02  0.45594000000E+02  0.51100000000E-03 0. -1.
    9900012    2    1    2    0    0  0.47121791734E+00 -0.79596093323E+00  0.73302540830E+00  0.90007776978E+02  0.90000038834E+02 0.  0.
         12    1    1    2    0    0 -0.47121791734E+00  0.79596093323E+00 -0.73302540830E+00  0.11802230222E+01  0.00000000000E+00 0. -1.
         11    1    3    3    0    0 -0.39052307091E+02 -0.17250728648E+02 -0.66205334767E+01  0.43203029891E+02  0.51100000000E-03 0. -1.
        -11    1    3    3    0    0  0.76969030464E+01  0.55782918800E+00 -0.49421064528E+01  0.91639460038E+01  0.51100000000E-03 0.  1.
        -12    1    3    3    0    0  0.31826621962E+02  0.15896938527E+02  0.12295665338E+02  0.37640801083E+02  0.00000000000E+00 0.  1.
</event>
<event>
 7    1  0.4639347E-015  0.9000773E+02  0.7816164E-02  0.1186339E+00
        -11   -1    0    0    0    0  0.00000000000E+00  0.00000000000E+00  0.45593999997E+02  0.45594000000E+02  0.51100000000E-03 0.  1.
         11   -1    0    0    0    0 -0.00000000000E+00 -0.00000000000E+00 -0.45593999997E+02  0.45594000000E+02  0.51100000000E-03 0. -1.
    9900012    2    1    2    0    0 -0.66666073190E+00  0.91932223357E+00 -0.32164944749E+00  0.90007725342E+02  0.89999986517E+02 0.  0.
         12    1    1    2    0    0  0.66666073190E+00 -0.91932223357E+00  0.32164944749E+00  0.11802746577E+01  0.00000000000E+00 0. -1.
         11    1    3    3    0    0  0.12462379889E+02  0.20694577160E+02 -0.25492111275E+02  0.35120139149E+02  0.51100000000E-03 0. -1.
        -11    1    3    3    0    0  0.38536920618E+01 -0.27061200829E+01 -0.10696973427E+02  0.11687569001E+02  0.51100000000E-03 0.  1.
        -12    1    3    3    0    0 -0.16982732683E+02 -0.17069134844E+02  0.35867435254E+02  0.43200017192E+02  0.00000000000E+00 0.  1.
</event>
<event>
 7    1  0.4639347E-015  0.9000795E+02  0.7816164E-02  0.1186339E+00
        -11   -1    0    0    0    0  0.00000000000E+00  0.00000000000E+00  0.45593999997E+02  0.45594000000E+02  0.51100000000E-03 0. -1.
         11   -1    0    0    0    0 -0.00000000000E+00 -0.00000000000E+00 -0.45593999997E+02  0.45594000000E+02  0.51100000000E-03 0.  1.
    9900012    2    1    2    0    0  0.50018267392E+00 -0.96732970219E+00  0.45455159340E+00  0.90007946352E+02  0.90000210444E+02 0.  0.
         12    1    1    2    0    0 -0.50018267392E+00  0.96732970219E+00 -0.45455159340E+00  0.11800536475E+01  0.00000000000E+00 0. -1.
         11    1    3    3    0    0  0.16981407973E+02  0.21740636223E+01  0.29221233341E+02  0.33867023011E+02  0.51100000000E-03 0. -1.
        -11    1    3    3    0    0 -0.87390281958E-01 -0.51998760046E+01  0.11497245744E+02  0.12618756178E+02  0.51100000000E-03 0.  1.
        -12    1    3    3    0    0 -0.16393835017E+02  0.20584826801E+01 -0.40263927492E+02  0.43522167163E+02  0.00000000000E+00 0.  1.
</event>
<event>
 7    1  0.4639347E-015  0.9000780E+02  0.7816164E-02  0.1186339E+00
        -11   -1    0    0    0    0  0.00000000000E+00  0.00000000000E+00  0.45593999997E+02  0.45594000000E+02  0.51100000000E-03 0.  1.
         11   -1    0    0    0    0 -0.00000000000E+00 -0.00000000000E+00 -0.45593999997E+02  0.45594000000E+02  0.51100000000E-03 0. -1.
    9900012    2    1    2    0    0  0.21971056977E+00  0.10580298150E+01 -0.47451184858E+00  0.90007804542E+02  0.90000066762E+02 0.  0.
         12    1    1    2    0    0 -0.21971056977E+00 -0.10580298150E+01  0.47451184858E+00  0.11801954577E+01  0.00000000000E+00 0. -1.
         11    1    3    3    0    0 -0.13416454480E+01  0.36399836150E+02 -0.13741456586E+02  0.38930395754E+02  0.51100000000E-03 0. -1.
        -11    1    3    3    0    0 -0.11260346880E+02 -0.81613817721E+00  0.80822622234E+01  0.13884684235E+02  0.51100000000E-03 0.  1.
        -12    1    3    3    0    0  0.12821702898E+02 -0.34525668157E+02  0.51846825143E+01  0.37192724553E+02  0.00000000000E+00 0.  1.
</event>
<event>
 7    1  0.4639347E-015  0.9000780E+02  0.7816164E-02  0.1186339E+00
        -11   -1    0    0    0    0  0.00000000000E+00  0.00000000000E+00  0.45593999997E+02  0.45594000000E+02  0.51100000000E-03 0. -1.
         11   -1    0    0    0    0 -0.00000000000E+00 -0.00000000000E+00 -0.45593999997E+02  0.45594000000E+02  0.51100000000E-03 0.  1.
    9900012    2    1    2    0    0  0.35942530106E+00  0.10423603647E+01 -0.42091222080E+00  0.90007801383E+02  0.90000063562E+02 0.  0.
         12    1    1    2    0    0 -0.35942530106E+00 -0.10423603647E+01  0.42091222080E+00  0.11801986166E+01  0.00000000000E+00 0. -1.
         11    1    3    3    0    0  0.95526324797E+01 -0.31113991560E+01 -0.57337382854E+01  0.11567599016E+02  0.51100000000E-03 0. -1.
        -11    1    3    3    0    0 -0.16499351090E+02  0.30878270426E+02 -0.20502793753E+02  0.40571673897E+02  0.51100000000E-03 0.  1.
         12    1    3    3    0    0  0.73061439113E+01 -0.26724510905E+02  0.25815619817E+02  0.37868528471E+02  0.00000000000E+00 0. -1.
</event>
<event>
 7    1  0.4639347E-015  0.9000826E+02  0.7816164E-02  0.1186338E+00
        -11   -1    0    0    0    0  0.00000000000E+00  0.00000000000E+00  0.45593999997E+02  0.45594000000E+02  0.51100000000E-03 0. -1.
         11   -1    0    0    0    0 -0.00000000000E+00 -0.00000000000E+00 -0.45593999997E+02  0.45594000000E+02  0.51100000000E-03 0.  1.
    9900012    2    1    2    0    0  0.51874419049E+00 -0.27884938779E+00 -0.10222230352E+01  0.90008257465E+02  0.90000525662E+02 0.  0.
         12    1    1    2    0    0 -0.51874419049E+00  0.27884938779E+00  0.10222230352E+01  0.11797425354E+01  0.00000000000E+00 0. -1.
         11    1    3    3    0    0 -0.72113324104E+01 -0.43411363915E+01  0.70911739002E+01  0.11006067774E+02  0.51100000000E-03 0. -1.
        -11    1    3    3    0    0 -0.10231963170E+02 -0.34531342172E+02 -0.36100266401E+01  0.36195841683E+02  0.51100000000E-03 0.  1.
         12    1    3    3    0    0  0.17962039771E+02  0.38593629176E+02 -0.45033702953E+01  0.42806348007E+02  0.00000000000E+00 0. -1.
</event>
<event>
 7    1  0.4639347E-015  0.9000757E+02  0.7816164E-02  0.1186339E+00
        -11   -1    0    0    0    0  0.00000000000E+00  0.00000000000E+00  0.45593999997E+02  0.45594000000E+02  0.51100000000E-03 0.  1.
         11   -1    0    0    0    0 -0.00000000000E+00 -0.00000000000E+00 -0.45593999997E+02  0.45594000000E+02  0.51100000000E-03 0. -1.
    9900012    2    1    2    0    0  0.94125386330E+00  0.71234923279E+00  0.26698847986E-02  0.90007573216E+02  0.89999832382E+02 0.  0.
         12    1    1    2    0    0 -0.94125386330E+00 -0.71234923279E+00 -0.26698847986E-02  0.11804267842E+01  0.00000000000E+00 0. -1.
         11    1    3    3    0    0 -0.13820138873E+02 -0.27295445091E+01  0.20323046214E+01  0.14232951698E+02  0.51100000000E-03 0. -1.
        -11    1    3    3    0    0  0.14414648806E+02 -0.37191928516E+01  0.35012055037E+02  0.38045479282E+02  0.51100000000E-03 0.  1.
         12    1    3    3    0    0  0.34674393074E+00  0.71610865936E+01 -0.37041689773E+02  0.37729142235E+02  0.00000000000E+00 0. -1.
</event>
<event>
 7    1  0.4639347E-015  0.9000766E+02  0.7816164E-02  0.1186339E+00
        -11   -1    0    0    0    0  0.00000000000E+00  0.00000000000E+00  0.45593999997E+02  0.45594000000E+02  0.51100000000E-03 0.  1.
         11   -1    0    0    0    0 -0.00000000000E+00 -0.00000000000E+00 -0.45593999997E+02  0.45594000000E+02  0.51100000000E-03 0. -1.
    9900012    2    1    2    0    0 -0.65122596562E+00  0.60839355744E-01  0.98255053759E+00  0.90007660115E+02  0.89999920428E+02 0.  0.
         12    1    1    2    0    0  0.65122596562E+00 -0.60839355744E-01 -0.98255053759E+00  0.11803398851E+01  0.00000000000E+00 0. -1.
         11    1    3    3    0    0  0.15685765516E+02  0.86164247086E+01 -0.25359011289E+02  0.31038129267E+02  0.51100000000E-03 0. -1.
        -11    1    3    3    0    0  0.65074431864E+01  0.14391582141E+02 -0.20226166966E+01  0.15923424001E+02  0.51100000000E-03 0.  1.
        -12    1    3    3    0    0 -0.22844434668E+02 -0.22947167494E+02  0.28364178524E+02  0.43046106846E+02  0.00000000000E+00 0.  1.
</event>
<event>
 7    1  0.4639347E-015  0.9000767E+02  0.7816164E-02  0.1186339E+00
        -11   -1    0    0    0    0  0.00000000000E+00  0.00000000000E+00  0.45593999997E+02  0.45594000000E+02  0.51100000000E-03 0.  1.
         11   -1    0    0    0    0 -0.00000000000E+00 -0.00000000000E+00 -0.45593999997E+02  0.45594000000E+02  0.51100000000E-03 0. -1.
    9900012    2    1    2    0    0 -0.72708773526E+00  0.52309559150E+00  0.76870334947E+00  0.90007665127E+02  0.89999925507E+02 0.  0.
         12    1    1    2    0    0  0.72708773526E+00 -0.52309559150E+00 -0.76870334947E+00  0.11803348729E+01  0.00000000000E+00 0. -1.
         11    1    3    3    0    0  0.18975022383E+01 -0.87803148433E+01  0.88677283165E+01  0.12622640344E+02  0.51100000000E-03 0. -1.
        -11    1    3    3    0    0 -0.73656037719E+00  0.33682951290E+01  0.34329299125E+02  0.34502010259E+02  0.51100000000E-03 0.  1.
         12    1    3    3    0    0 -0.18880295963E+01  0.59351153059E+01 -0.42428324092E+02  0.42883014524E+02  0.00000000000E+00 0. -1.
</event>
<event>
 7    1  0.4639347E-015  0.9000775E+02  0.7816164E-02  0.1186339E+00
        -11   -1    0    0    0    0  0.00000000000E+00  0.00000000000E+00  0.45593999997E+02  0.45594000000E+02  0.51100000000E-03 0.  1.
         11   -1    0    0    0    0 -0.00000000000E+00 -0.00000000000E+00 -0.45593999997E+02  0.45594000000E+02  0.51100000000E-03 0. -1.
    9900012    2    1    2    0    0 -0.45238037233E+00 -0.14091053868E+00  0.10809666226E+01  0.90007748916E+02  0.90000010402E+02 0.  0.
         12    1    1    2    0    0  0.45238037233E+00  0.14091053868E+00 -0.10809666226E+01  0.11802510836E+01  0.00000000000E+00 0. -1.
         11    1    3    3    0    0 -0.62328081416E+01  0.64702930028E+01  0.42143639146E+00  0.89938978071E+01  0.51100000000E-03 0. -1.
        -11    1    3    3    0    0 -0.27765626679E+02  0.22947683737E+02 -0.30454085495E+01  0.36149698854E+02  0.51100000000E-03 0.  1.
         12    1    3    3    0    0  0.33546054449E+02 -0.29558887278E+02  0.37049387806E+01  0.44864152255E+02  0.00000000000E+00 0. -1.
</event>
<event>
 7    1  0.4639347E-015  0.9000771E+02  0.7816164E-02  0.1186339E+00
        -11   -1    0    0    0    0  0.00000000000E+00  0.00000000000E+00  0.45593999997E+02  0.45594000000E+02  0.51100000000E-03 0. -1.
         11   -1    0    0    0    0 -0.00000000000E+00 -0.00000000000E+00 -0.45593999997E+02  0.45594000000E+02  0.51100000000E-03 0.  1.
    9900012    2    1    2    0    0 -0.64061919811E+00 -0.18373696388E+00 -0.97413722719E+00  0.90007705305E+02  0.89999966215E+02 0.  0.
         12    1    1    2    0    0  0.64061919811E+00  0.18373696388E+00  0.97413722719E+00  0.11802946947E+01  0.00000000000E+00 0. -1.
         11    1    3    3    0    0 -0.85232520888E+01 -0.48163273018E+01  0.32726657304E+01  0.10322459789E+02  0.51100000000E-03 0. -1.
        -11    1    3    3    0    0 -0.35290663481E+02  0.77700201723E+01 -0.43596802473E+01  0.36397952614E+02  0.51100000000E-03 0.  1.
         12    1    3    3    0    0  0.43173296371E+02 -0.31374298343E+01  0.11287728978E+00  0.43287292902E+02  0.00000000000E+00 0. -1.
</event>
<event>
 7    1  0.4639347E-015  0.9000767E+02  0.7816164E-02  0.1186339E+00
        -11   -1    0    0    0    0  0.00000000000E+00  0.00000000000E+00  0.45593999997E+02  0.45594000000E+02  0.51100000000E-03 0.  1.
         11   -1    0    0    0    0 -0.00000000000E+00 -0.00000000000E+00 -0.45593999997E+02  0.45594000000E+02  0.51100000000E-03 0. -1.
    9900012    2    1    2    0    0  0.70823020556E+00 -0.50147705531E+00  0.80007296182E+00  0.90007666994E+02  0.89999927398E+02 0.  0.
         12    1    1    2    0    0 -0.70823020556E+00  0.50147705531E+00 -0.80007296182E+00  0.11803330061E+01  0.00000000000E+00 0. -1.
         11    1    3    3    0    0 -0.37104893840E+02  0.67608825608E+01 -0.88763623079E+01  0.38746257728E+02  0.51100000000E-03 0. -1.
        -11    1    3    3    0    0 -0.35055478376E+01 -0.82399007690E+01  0.26471648514E+01  0.93376823857E+01  0.51100000000E-03 0.  1.
        -12    1    3    3    0    0  0.41318671883E+02  0.97754115286E+00  0.70292704182E+01  0.41923726880E+02  0.00000000000E+00 0.  1.
</event>
<event>
 7    1  0.4639347E-015  0.9000782E+02  0.7816164E-02  0.1186339E+00
        -11   -1    0    0    0    0  0.00000000000E+00  0.00000000000E+00  0.45593999997E+02  0.45594000000E+02  0.51100000000E-03 0.  1.
         11   -1    0    0    0    0 -0.00000000000E+00 -0.00000000000E+00 -0.45593999997E+02  0.45594000000E+02  0.51100000000E-03 0. -1.
    9900012    2    1    2    0    0 -0.53661646961E+00  0.80430671792E+00  0.67672324222E+00  0.90007821675E+02  0.90000084121E+02 0.  0.
         12    1    1    2    0    0  0.53661646961E+00 -0.80430671792E+00 -0.67672324222E+00  0.11801783249E+01  0.00000000000E+00 0. -1.
         11    1    3    3    0    0  0.19569598442E+01 -0.10546085245E+01  0.85620314456E+01  0.88459184774E+01  0.51100000000E-03 0. -1.
        -11    1    3    3    0    0  0.34600243788E+02  0.17172417114E+02 -0.12888427023E+02  0.40720760444E+02  0.51100000000E-03 0.  1.
         12    1    3    3    0    0 -0.37093820102E+02 -0.15313501872E+02  0.50031188197E+01  0.40441142754E+02  0.00000000000E+00 0. -1.
</event>
<event>
 7    1  0.4639347E-015  0.9000777E+02  0.7816164E-02  0.1186339E+00
        -11   -1    0    0    0    0  0.00000000000E+00  0.00000000000E+00  0.45593999997E+02  0.45594000000E+02  0.51100000000E-03 0.  1.
         11   -1    0    0    0    0 -0.00000000000E+00 -0.00000000000E+00 -0.45593999997E+02  0.45594000000E+02  0.51100000000E-03 0. -1.
    9900012    2    1    2    0    0 -0.16220660085E+00 -0.11323236894E+01  0.29065228263E+00  0.90007768384E+02  0.90000030126E+02 0.  0.
         12    1    1    2    0    0  0.16220660085E+00  0.11323236894E+01 -0.29065228263E+00  0.11802316164E+01  0.00000000000E+00 0. -1.
         11    1    3    3    0    0 -0.37282886537E+01  0.55636714949E-01  0.11674312841E+02  0.12255317715E+02  0.51100000000E-03 0. -1.
        -11    1    3    3    0    0 -0.44136849188E+01 -0.53535404172E+01  0.32358333704E+02  0.33093847916E+02  0.51100000000E-03 0.  1.
         12    1    3    3    0    0  0.79797669717E+01  0.41655800129E+01 -0.43741994262E+02  0.44658602752E+02  0.00000000000E+00 0. -1.
</event>
<event>
 7    1  0.4639347E-015  0.9000774E+02  0.7816164E-02  0.1186339E+00
        -11   -1    0    0    0    0  0.00000000000E+00  0.00000000000E+00  0.45593999997E+02  0.45594000000E+02  0.51100000000E-03 0.  1.
         11   -1    0    0    0    0 -0.00000000000E+00 -0.00000000000E+00 -0.45593999997E+02  0.45594000000E+02  0.51100000000E-03 0. -1.
    9900012    2    1    2    0    0 -0.18900409936E-01  0.81059915393E+00  0.85766925715E+00  0.90007735297E+02  0.89999996603E+02 0.  0.
         12    1    1    2    0    0  0.18900409936E-01 -0.81059915393E+00 -0.85766925715E+00  0.11802647027E+01  0.00000000000E+00 0. -1.
         11    1    3    3    0    0 -0.27785840962E+02 -0.12248607622E+02  0.19371852410E+02  0.36018745296E+02  0.51100000000E-03 0. -1.
        -11    1    3    3    0    0 -0.24753588827E+01 -0.53201243371E+01  0.78915768980E+01  0.98340282061E+01  0.51100000000E-03 0.  1.
        -12    1    3    3    0    0  0.30242299435E+02  0.18379331113E+02 -0.26405760051E+02  0.44154961795E+02  0.00000000000E+00 0.  1.
</event>
<event>
 7    1  0.4639347E-015  0.9000712E+02  0.7816164E-02  0.1186340E+00
        -11   -1    0    0    0    0  0.00000000000E+00  0.00000000000E+00  0.45593999997E+02  0.45594000000E+02  0.51100000000E-03 0.  1.
         11   -1    0    0    0    0 -0.00000000000E+00 -0.00000000000E+00 -0.45593999997E+02  0.45594000000E+02  0.51100000000E-03 0. -1.
    9900012    2    1    2    0    0  0.81283431416E-01 -0.95634847786E+00 -0.68794276066E+00  0.90007121239E+02  0.89999374437E+02 0.  0.
         12    1    1    2    0    0 -0.81283431416E-01  0.95634847786E+00  0.68794276066E+00  0.11808787615E+01  0.00000000000E+00 0. -1.
         11    1    3    3    0    0 -0.14112872151E+00 -0.15985045333E+01  0.98812960521E+01  0.10010751520E+02  0.51100000000E-03 0. -1.
        -11    1    3    3    0    0  0.44315170847E+01  0.37868282348E+02  0.67564107040E+01  0.38720721035E+02  0.51100000000E-03 0.  1.
         12    1    3    3    0    0 -0.42091049317E+01 -0.37226126292E+02 -0.17325649517E+02  0.41275648683E+02  0.00000000000E+00 0. -1.
</event>
<event>
 7    1  0.4639347E-015  0.9000779E+02  0.7816164E-02  0.1186339E+00
        -11   -1    0    0    0    0  0.00000000000E+00  0.00000000000E+00  0.45593999997E+02  0.45594000000E+02  0.51100000000E-03 0. -1.
         11   -1    0    0    0    0 -0.00000000000E+00 -0.00000000000E+00 -0.45593999997E+02  0.45594000000E+02  0.51100000000E-03 0.  1.
    9900012    2    1    2    0    0  0.42788243733E+00 -0.10593382365E+01  0.29600687968E+00  0.90007787751E+02  0.90000049749E+02 0.  0.
         12    1    1    2    0    0 -0.42788243733E+00  0.10593382365E+01 -0.29600687968E+00  0.11802122488E+01  0.00000000000E+00 0. -1.
         11    1    3    3    0    0  0.47918416059E+01  0.32381196047E+01 -0.67888191344E+01  0.89182526344E+01  0.51100000000E-03 0. -1.
        -11    1    3    3    0    0  0.24315637542E+02  0.11617255523E+02  0.30567728324E+02  0.40750421717E+02  0.51100000000E-03 0.  1.
         12    1    3    3    0    0 -0.28679596711E+02 -0.15914713365E+02 -0.23482902310E+02  0.40339113400E+02  0.00000000000E+00 0. -1.
</event>
<event>
 7    1  0.4639347E-015  0.9000741E+02  0.7816164E-02  0.1186340E+00
        -11   -1    0    0    0    0  0.00000000000E+00  0.00000000000E+00  0.45593999997E+02  0.45594000000E+02  0.51100000000E-03 0.  1.
         11   -1    0    0    0    0 -0.00000000000E+00 -0.00000000000E+00 -0.45593999997E+02  0.45594000000E+02  0.51100000000E-03 0. -1.
    9900012    2    1    2    0    0  0.46643078382E+00 -0.22084765058E+00  0.10618222534E+01  0.90007407836E+02  0.89999664818E+02 0.  0.
         12    1    1    2    0    0 -0.46643078382E+00  0.22084765058E+00 -0.10618222534E+01  0.11805921644E+01  0.00000000000E+00 0. -1.
         11    1    3    3    0    0 -0.64644093703E+01  0.44269451413E+01 -0.66383317638E+01  0.10269073992E+02  0.51100000000E-03 0. -1.
        -11    1    3    3    0    0  0.34544204383E+02  0.51872606770E+01 -0.19280213246E+02  0.39899077093E+02  0.51100000000E-03 0.  1.
         12    1    3    3    0    0 -0.27613364229E+02 -0.98350534689E+01  0.26980367263E+02  0.39839256750E+02  0.00000000000E+00 0. -1.
</event>
<event>
 7    1  0.4639347E-015  0.9000775E+02  0.7816164E-02  0.1186339E+00
        -11   -1    0    0    0    0  0.00000000000E+00  0.00000000000E+00  0.45593999997E+02  0.45594000000E+02  0.51100000000E-03 0. -1.
         11   -1    0    0    0    0 -0.00000000000E+00 -0.00000000000E+00 -0.45593999997E+02  0.45594000000E+02  0.51100000000E-03 0.  1.
    9900012    2    1    2    0    0  0.21327492825E+00 -0.10651678143E+01 -0.46143477799E+00  0.90007749721E+02  0.90000011217E+02 0.  0.
         12    1    1    2    0    0 -0.21327492825E+00  0.10651678143E+01  0.46143477799E+00  0.11802502794E+01  0.00000000000E+00 0. -1.
         11    1    3    3    0    0 -0.63204184871E+01 -0.36718563465E+01  0.17724209927E+01  0.75214157788E+01  0.51100000000E-03 0. -1.
        -11    1    3    3    0    0  0.36946773435E+02 -0.11083889951E+02  0.18948023784E+02  0.42976089739E+02  0.51100000000E-03 0.  1.
         12    1    3    3    0    0 -0.30413080020E+02  0.13690578483E+02 -0.21181879554E+02  0.39510244203E+02  0.00000000000E+00 0. -1.
</event>
<event>
 7    1  0.4639347E-015  0.9000776E+02  0.7816164E-02  0.1186339E+00
        -11   -1    0    0    0    0  0.00000000000E+00  0.00000000000E+00  0.45593999997E+02  0.45594000000E+02  0.51100000000E-03 0.  1.
         11   -1    0    0    0    0 -0.00000000000E+00 -0.00000000000E+00 -0.45593999997E+02  0.45594000000E+02  0.51100000000E-03 0. -1.
    9900012    2    1    2    0    0  0.78113612697E-01 -0.38441522111E+00  0.11131482515E+01  0.90007756030E+02  0.90000017610E+02 0.  0.
         12    1    1    2    0    0 -0.78113612697E-01  0.38441522111E+00 -0.11131482515E+01  0.11802439699E+01  0.00000000000E+00 0. -1.
         11    1    3    3    0    0  0.49700601313E+00  0.54259637124E+01  0.81383438319E+01  0.97939133023E+01  0.51100000000E-03 0. -1.
        -11    1    3    3    0    0 -0.21327482639E+02  0.18301772957E+02  0.23060362478E+02  0.36353771840E+02  0.51100000000E-03 0.  1.
         12    1    3    3    0    0  0.20908590239E+02 -0.24112151891E+02 -0.30085558058E+02  0.43860070888E+02  0.00000000000E+00 0. -1.
</event>
<event>
 7    1  0.4639347E-015  0.9000771E+02  0.7816164E-02  0.1186339E+00
        -11   -1    0    0    0    0  0.00000000000E+00  0.00000000000E+00  0.45593999997E+02  0.45594000000E+02  0.51100000000E-03 0. -1.
         11   -1    0    0    0    0 -0.00000000000E+00 -0.00000000000E+00 -0.45593999997E+02  0.45594000000E+02  0.51100000000E-03 0.  1.
    9900012    2    1    2    0    0 -0.79734987787E+00 -0.35593231091E+00 -0.79412567652E+00  0.90007707567E+02  0.89999968507E+02 0.  0.
         12    1    1    2    0    0  0.79734987787E+00  0.35593231091E+00  0.79412567652E+00  0.11802924332E+01  0.00000000000E+00 0. -1.
         11    1    3    3    0    0 -0.53670348705E+01 -0.57318046176E+01  0.32618208957E+02  0.33550055191E+02  0.51100000000E-03 0. -1.
        -11    1    3    3    0    0  0.73023540482E-01  0.10865877943E+02  0.85953935591E+01  0.13854725786E+02  0.51100000000E-03 0.  1.
        -12    1    3    3    0    0  0.44966614522E+01 -0.54900056367E+01 -0.42007728193E+02  0.42602926590E+02  0.00000000000E+00 0.  1.
</event>
<event>
 7    1  0.4639347E-015  0.9000800E+02  0.7816164E-02  0.1186339E+00
        -11   -1    0    0    0    0  0.00000000000E+00  0.00000000000E+00  0.45593999997E+02  0.45594000000E+02  0.51100000000E-03 0.  1.
         11   -1    0    0    0    0 -0.00000000000E+00 -0.00000000000E+00 -0.45593999997E+02  0.45594000000E+02  0.51100000000E-03 0. -1.
    9900012    2    1    2    0    0 -0.91014638740E+00  0.23309648112E-02  0.75101152228E+00  0.90008004158E+02  0.90000269013E+02 0.  0.
         12    1    1    2    0    0  0.91014638740E+00 -0.23309648112E-02 -0.75101152228E+00  0.11799958417E+01  0.00000000000E+00 0. -1.
         11    1    3    3    0    0  0.10281628306E+02 -0.79617248936E+00  0.13131783409E+01  0.10395682223E+02  0.51100000000E-03 0. -1.
        -11    1    3    3    0    0  0.19833041459E+01 -0.32106312046E+01  0.38246696597E+02  0.38432427050E+02  0.51100000000E-03 0.  1.
         12    1    3    3    0    0 -0.13175078840E+02  0.40091346588E+01 -0.38808863416E+02  0.41179894886E+02  0.00000000000E+00 0. -1.
</event>
<event>
 7    1  0.4639347E-015  0.9000773E+02  0.7816164E-02  0.1186339E+00
        -11   -1    0    0    0    0  0.00000000000E+00  0.00000000000E+00  0.45593999997E+02  0.45594000000E+02  0.51100000000E-03 0.  1.
         11   -1    0    0    0    0 -0.00000000000E+00 -0.00000000000E+00 -0.45593999997E+02  0.45594000000E+02  0.51100000000E-03 0. -1.
    9900012    2    1    2    0    0 -0.52848087167E+00  0.10276534805E+01 -0.24017364675E+00  0.90007725842E+02  0.89999987023E+02 0.  0.
         12    1    1    2    0    0  0.52848087167E+00 -0.10276534805E+01  0.24017364675E+00  0.11802741581E+01  0.00000000000E+00 0. -1.
         11    1    3    3    0    0 -0.29316598633E+02 -0.19246343882E+02 -0.14406238337E+02  0.37913380376E+02  0.51100000000E-03 0. -1.
        -11    1    3    3    0    0 -0.62898830306E+01 -0.30470101237E+01  0.59476869138E+01  0.91772479055E+01  0.51100000000E-03 0.  1.
        -12    1    3    3    0    0  0.35078000792E+02  0.23321007487E+02  0.82183777767E+01  0.42917097560E+02  0.00000000000E+00 0.  1.
</event>
<event>
 7    1  0.4639347E-015  0.9000759E+02  0.7816164E-02  0.1186339E+00
        -11   -1    0    0    0    0  0.00000000000E+00  0.00000000000E+00  0.45593999997E+02  0.45594000000E+02  0.51100000000E-03 0.  1.
         11   -1    0    0    0    0 -0.00000000000E+00 -0.00000000000E+00 -0.45593999997E+02  0.45594000000E+02  0.51100000000E-03 0. -1.
    9900012    2    1    2    0    0 -0.11404287270E+01 -0.30447344486E+00  0.88894538853E-02  0.90007592959E+02  0.89999852386E+02 0.  0.
         12    1    1    2    0    0  0.11404287270E+01  0.30447344486E+00 -0.88894538853E-02  0.11804070409E+01  0.00000000000E+00 0. -1.
         11    1    3    3    0    0 -0.91467729583E+01  0.86198035722E+00  0.59533457973E+01  0.10947547311E+02  0.51100000000E-03 0. -1.
        -11    1    3    3    0    0 -0.13802399497E+01 -0.31847264759E+01  0.35930881122E+02  0.36098140721E+02  0.51100000000E-03 0.  1.
         12    1    3    3    0    0  0.93865841810E+01  0.20182726738E+01 -0.41875337465E+02  0.42961904927E+02  0.00000000000E+00 0. -1.
</event>
<event>
 7    1  0.4639347E-015  0.9000777E+02  0.7816164E-02  0.1186339E+00
        -11   -1    0    0    0    0  0.00000000000E+00  0.00000000000E+00  0.45593999997E+02  0.45594000000E+02  0.51100000000E-03 0.  1.
         11   -1    0    0    0    0 -0.00000000000E+00 -0.00000000000E+00 -0.45593999997E+02  0.45594000000E+02  0.51100000000E-03 0. -1.
    9900012    2    1    2    0    0  0.91629951126E-01 -0.68125694859E+00  0.95938781537E+00  0.90007774573E+02  0.90000036397E+02 0.  0.
         12    1    1    2    0    0 -0.91629951126E-01  0.68125694859E+00 -0.95938781537E+00  0.11802254269E+01  0.00000000000E+00 0. -1.
         11    1    3    3    0    0 -0.10289868898E+02 -0.38983636919E+01  0.54156437812E+01  0.12264087379E+02  0.51100000000E-03 0. -1.
        -11    1    3    3    0    0 -0.11185738896E+02 -0.20537305052E+02  0.24968036920E+02  0.34209713845E+02  0.51100000000E-03 0.  1.
         12    1    3    3    0    0  0.21567237745E+02  0.23754411795E+02 -0.29424292886E+02  0.43533973349E+02  0.00000000000E+00 0. -1.
</event>
<event>
 7    1  0.4639347E-015  0.9000750E+02  0.7816164E-02  0.1186340E+00
        -11   -1    0    0    0    0  0.00000000000E+00  0.00000000000E+00  0.45593999997E+02  0.45594000000E+02  0.51100000000E-03 0.  1.
         11   -1    0    0    0    0 -0.00000000000E+00 -0.00000000000E+00 -0.45593999997E+02  0.45594000000E+02  0.51100000000E-03 0. -1.
    9900012    2    1    2    0    0 -0.67130682513E+00 -0.88087259879E+00  0.40863087454E+00  0.90007504943E+02  0.89999763208E+02 0.  0.
         12    1    1    2    0    0  0.67130682513E+00  0.88087259879E+00 -0.40863087454E+00  0.11804950573E+01  0.00000000000E+00 0. -1.
         11    1    3    3    0    0  0.68835065875E+01  0.17490805494E+02 -0.32254622309E+02  0.37331911287E+02  0.51100000000E-03 0. -1.
        -11    1    3    3    0    0  0.86683190634E+01 -0.58018434448E+01 -0.35775382738E+01  0.11027235515E+02  0.51100000000E-03 0.  1.
        -12    1    3    3    0    0 -0.16223132476E+02 -0.12569834648E+02  0.36240791457E+02  0.41648358141E+02  0.00000000000E+00 0.  1.
</event>
<event>
 7    1  0.4639347E-015  0.9000772E+02  0.7816164E-02  0.1186339E+00
        -11   -1    0    0    0    0  0.00000000000E+00  0.00000000000E+00  0.45593999997E+02  0.45594000000E+02  0.51100000000E-03 0.  1.
         11   -1    0    0    0    0 -0.00000000000E+00 -0.00000000000E+00 -0.45593999997E+02  0.45594000000E+02  0.51100000000E-03 0. -1.
    9900012    2    1    2    0    0 -0.31867658862E+00  0.10955656804E+01  0.30205944838E+00  0.90007720864E+02  0.89999981980E+02 0.  0.
         12    1    1    2    0    0  0.31867658862E+00 -0.10955656804E+01 -0.30205944838E+00  0.11802791359E+01  0.00000000000E+00 0. -1.
         11    1    3    3    0    0  0.39780919303E+01  0.83522472761E+01  0.13557561098E+01  0.93500441099E+01  0.51100000000E-03 0. -1.
        -11    1    3    3    0    0 -0.10674112061E+02  0.26731504022E+02  0.24387469954E+02  0.37726100601E+02  0.51100000000E-03 0.  1.
         12    1    3    3    0    0  0.63773435416E+01 -0.33988185618E+02 -0.25441166615E+02  0.42931576153E+02  0.00000000000E+00 0. -1.
</event>
<event>
 7    1  0.4639347E-015  0.9000804E+02  0.7816164E-02  0.1186338E+00
        -11   -1    0    0    0    0  0.00000000000E+00  0.00000000000E+00  0.45593999997E+02  0.45594000000E+02  0.51100000000E-03 0.  1.
         11   -1    0    0    0    0 -0.00000000000E+00 -0.00000000000E+00 -0.45593999997E+02  0.45594000000E+02  0.51100000000E-03 0. -1.
    9900012    2    1    2    0    0 -0.10072952851E+01 -0.37067917743E+00  0.49016441198E+00  0.90008038986E+02  0.90000304300E+02 0.  0.
         12    1    1    2    0    0  0.10072952851E+01  0.37067917743E+00 -0.49016441198E+00  0.11799610141E+01  0.00000000000E+00 0. -1.
         11    1    3    3    0    0 -0.50383293987E+01  0.19020195591E+02 -0.36281216128E+02  0.41273226763E+02  0.51100000000E-03 0. -1.
        -11    1    3    3    0    0 -0.87846728890E+00  0.59307943609E+01  0.91835184894E+01  0.10967362428E+02  0.51100000000E-03 0.  1.
        -12    1    3    3    0    0  0.49095014025E+01 -0.25321669129E+02  0.27587862050E+02  0.37767449795E+02  0.00000000000E+00 0.  1.
</event>
<event>
 7    1  0.4639347E-015  0.9000778E+02  0.7816164E-02  0.1186339E+00
        -11   -1    0    0    0    0  0.00000000000E+00  0.00000000000E+00  0.45593999997E+02  0.45594000000E+02  0.51100000000E-03 0.  1.
         11   -1    0    0    0    0 -0.00000000000E+00 -0.00000000000E+00 -0.45593999997E+02  0.45594000000E+02  0.51100000000E-03 0. -1.
    9900012    2    1    2    0    0 -0.63847669637E+00 -0.38750006732E+00 -0.91384214950E+00  0.90007781263E+02  0.90000043175E+02 0.  0.
         12    1    1    2    0    0  0.63847669637E+00  0.38750006732E+00  0.91384214950E+00  0.11802187374E+01  0.00000000000E+00 0. -1.
         11    1    3    3    0    0 -0.19497951951E+02 -0.19403047948E+02 -0.28246522979E+02  0.39427331391E+02  0.51100000000E-03 0. -1.
        -11    1    3    3    0    0  0.51138383155E+01 -0.84534727195E+01  0.66374182398E+00  0.99021763672E+01  0.51100000000E-03 0.  1.
        -12    1    3    3    0    0  0.13745636939E+02  0.27469020600E+02  0.26668939005E+02  0.40678273504E+02  0.00000000000E+00 0.  1.
</event>
<event>
 7    1  0.4639347E-015  0.9000774E+02  0.7816164E-02  0.1186339E+00
        -11   -1    0    0    0    0  0.00000000000E+00  0.00000000000E+00  0.45593999997E+02  0.45594000000E+02  0.51100000000E-03 0. -1.
         11   -1    0    0    0    0 -0.00000000000E+00 -0.00000000000E+00 -0.45593999997E+02  0.45594000000E+02  0.51100000000E-03 0.  1.
    9900012    2    1    2    0    0 -0.59159770055E+00 -0.46644029294E+00 -0.90854644145E+00  0.90007741121E+02  0.90000002503E+02 0.  0.
         12    1    1    2    0    0  0.59159770055E+00  0.46644029294E+00  0.90854644145E+00  0.11802588794E+01  0.00000000000E+00 0. -1.
         11    1    3    3    0    0 -0.18839285090E+02  0.32790147125E+02 -0.19221337737E+02  0.42421365323E+02  0.51100000000E-03 0. -1.
        -11    1    3    3    0    0 -0.58604919942E+00 -0.93396167387E+01 -0.36540447655E+01  0.10046090677E+02  0.51100000000E-03 0.  1.
        -12    1    3    3    0    0  0.18833736589E+02 -0.23916970680E+02  0.21966836061E+02  0.37540285120E+02  0.00000000000E+00 0.  1.
</event>
<event>
 7    1  0.4639347E-015  0.9000774E+02  0.7816164E-02  0.1186339E+00
        -11   -1    0    0    0    0  0.00000000000E+00  0.00000000000E+00  0.45593999997E+02  0.45594000000E+02  0.51100000000E-03 0.  1.
         11   -1    0    0    0    0 -0.00000000000E+00 -0.00000000000E+00 -0.45593999997E+02  0.45594000000E+02  0.51100000000E-03 0. -1.
    9900012    2    1    2    0    0  0.21117106389E+00  0.74063338233E-01  0.11588551967E+01  0.90007735638E+02  0.89999996949E+02 0.  0.
         12    1    1    2    0    0 -0.21117106389E+00 -0.74063338233E-01 -0.11588551967E+01  0.11802643616E+01  0.00000000000E+00 0. -1.
         11    1    3    3    0    0  0.17186631780E+00  0.10185310569E+02 -0.42125960836E+01  0.11023432108E+02  0.51100000000E-03 0. -1.
        -11    1    3    3    0    0 -0.11597014738E+02  0.86582843923E+00  0.39562389254E+02  0.41236186214E+02  0.51100000000E-03 0.  1.
         12    1    3    3    0    0  0.11636319484E+02 -0.10977075670E+02 -0.34190937973E+02  0.37748117316E+02  0.00000000000E+00 0. -1.
</event>
<event>
 7    1  0.4639347E-015  0.9000774E+02  0.7816164E-02  0.1186339E+00
        -11   -1    0    0    0    0  0.00000000000E+00  0.00000000000E+00  0.45593999997E+02  0.45594000000E+02  0.51100000000E-03 0.  1.
         11   -1    0    0    0    0 -0.00000000000E+00 -0.00000000000E+00 -0.45593999997E+02  0.45594000000E+02  0.51100000000E-03 0. -1.
    9900012    2    1    2    0    0  0.55489556729E+00 -0.44664219070E+00  0.94107592328E+00  0.90007736372E+02  0.89999997693E+02 0.  0.
         12    1    1    2    0    0 -0.55489556729E+00  0.44664219070E+00 -0.94107592328E+00  0.11802636275E+01  0.00000000000E+00 0. -1.
         11    1    3    3    0    0 -0.34657326280E+02  0.11200514354E+02  0.13307380269E+02  0.38777160244E+02  0.51100000000E-03 0. -1.
        -11    1    3    3    0    0 -0.34385363586E+01  0.25807386841E+01 -0.89178956832E+01  0.99001317225E+01  0.51100000000E-03 0.  1.
        -12    1    3    3    0    0  0.38650758206E+02 -0.14227895228E+02 -0.34484086627E+01  0.41330444406E+02  0.00000000000E+00 0.  1.
</event>
<event>
 7    1  0.4639347E-015  0.9000790E+02  0.7816164E-02  0.1186339E+00
        -11   -1    0    0    0    0  0.00000000000E+00  0.00000000000E+00  0.45593999997E+02  0.45594000000E+02  0.51100000000E-03 0.  1.
         11   -1    0    0    0    0 -0.00000000000E+00 -0.00000000000E+00 -0.45593999997E+02  0.45594000000E+02  0.51100000000E-03 0. -1.
    9900012    2    1    2    0    0  0.45885455043E+00  0.80246678269E+00 -0.73358459544E+00  0.90007895431E+02  0.90000158850E+02 0.  0.
         12    1    1    2    0    0 -0.45885455043E+00 -0.80246678269E+00  0.73358459544E+00  0.11801045693E+01  0.00000000000E+00 0. -1.
         11    1    3    3    0    0 -0.15984511085E+01 -0.16367494840E+02  0.13137757592E+02  0.21048767377E+02  0.51100000000E-03 0. -1.
        -11    1    3    3    0    0 -0.11938602708E+02  0.35517105670E+02  0.66771430903E+01  0.38060205857E+02  0.51100000000E-03 0.  1.
         12    1    3    3    0    0  0.13995908367E+02 -0.18347144047E+02 -0.20548485278E+02  0.30898922196E+02  0.00000000000E+00 0. -1.
</event>
<event>
 7    1  0.4639347E-015  0.9000783E+02  0.7816164E-02  0.1186339E+00
        -11   -1    0    0    0    0  0.00000000000E+00  0.00000000000E+00  0.45593999997E+02  0.45594000000E+02  0.51100000000E-03 0.  1.
         11   -1    0    0    0    0 -0.00000000000E+00 -0.00000000000E+00 -0.45593999997E+02  0.45594000000E+02  0.51100000000E-03 0. -1.
    9900012    2    1    2    0    0 -0.20666214637E+00  0.48423052452E+00  0.10562254505E+01  0.90007830247E+02  0.90000092806E+02 0.  0.
         12    1    1    2    0    0  0.20666214637E+00 -0.48423052452E+00 -0.10562254505E+01  0.11801697530E+01  0.00000000000E+00 0. -1.
         11    1    3    3    0    0  0.28617797826E+01  0.34065014390E+01 -0.93019123640E+01  0.10311140066E+02  0.51100000000E-03 0. -1.
        -11    1    3    3    0    0 -0.40925254482E+02 -0.41770772315E+01  0.49347301513E+01  0.41432788834E+02  0.51100000000E-03 0.  1.
         12    1    3    3    0    0  0.37856812553E+02  0.12548063171E+01  0.54234076632E+01  0.38263901347E+02  0.00000000000E+00 0. -1.
</event>
<event>
 7    1  0.4639347E-015  0.9000797E+02  0.7816164E-02  0.1186339E+00
        -11   -1    0    0    0    0  0.00000000000E+00  0.00000000000E+00  0.45593999997E+02  0.45594000000E+02  0.51100000000E-03 0. -1.
         11   -1    0    0    0    0 -0.00000000000E+00 -0.00000000000E+00 -0.45593999997E+02  0.45594000000E+02  0.51100000000E-03 0.  1.
    9900012    2    1    2    0    0  0.11627129755E+01  0.14404754572E+00 -0.14077635692E+00  0.90007970703E+02  0.90000235116E+02 0.  0.
         12    1    1    2    0    0 -0.11627129755E+01 -0.14404754572E+00  0.14077635692E+00  0.11800292969E+01  0.00000000000E+00 0. -1.
         11    1    3    3    0    0 -0.30500900889E+02  0.14951428959E+02 -0.99988703955E+01  0.35409428016E+02  0.51100000000E-03 0. -1.
        -11    1    3    3    0    0 -0.93709303099E+00  0.71105658428E+01 -0.85970204924E+01  0.11195849747E+02  0.51100000000E-03 0.  1.
        -12    1    3    3    0    0  0.32600706896E+02 -0.21917947257E+02  0.18455114531E+02  0.43402692940E+02  0.00000000000E+00 0.  1.
</event>
<event>
 7    1  0.4639347E-015  0.9000773E+02  0.7816164E-02  0.1186339E+00
        -11   -1    0    0    0    0  0.00000000000E+00  0.00000000000E+00  0.45593999997E+02  0.45594000000E+02  0.51100000000E-03 0. -1.
         11   -1    0    0    0    0 -0.00000000000E+00 -0.00000000000E+00 -0.45593999997E+02  0.45594000000E+02  0.51100000000E-03 0.  1.
    9900012    2    1    2    0    0  0.90763943885E+00  0.74714307982E-01 -0.75076242425E+00  0.90007730625E+02  0.89999991870E+02 0.  0.
         12    1    1    2    0    0 -0.90763943885E+00 -0.74714307982E-01  0.75076242425E+00  0.11802693745E+01  0.00000000000E+00 0. -1.
         11    1    3    3    0    0 -0.55688064382E+01  0.22419675531E+02 -0.27471072187E+02  0.35893080997E+02  0.51100000000E-03 0. -1.
        -11    1    3    3    0    0 -0.64393302547E+01  0.20471854028E+01 -0.75367282491E+01  0.10122164549E+02  0.51100000000E-03 0.  1.
        -12    1    3    3    0    0  0.12915776132E+02 -0.24392146625E+02  0.34257038012E+02  0.43992485079E+02  0.00000000000E+00 0.  1.
</event>
<event>
 7    1  0.4639347E-015  0.9000767E+02  0.7816164E-02  0.1186339E+00
        -11   -1    0    0    0    0  0.00000000000E+00  0.00000000000E+00  0.45593999997E+02  0.45594000000E+02  0.51100000000E-03 0.  1.
         11   -1    0    0    0    0 -0.00000000000E+00 -0.00000000000E+00 -0.45593999997E+02  0.45594000000E+02  0.51100000000E-03 0. -1.
    9900012    2    1    2    0    0  0.10341410303E+01  0.36709408445E+00 -0.43470676666E+00  0.90007671355E+02  0.89999931817E+02 0.  0.
         12    1    1    2    0    0 -0.10341410303E+01 -0.36709408445E+00  0.43470676666E+00  0.11803286451E+01  0.00000000000E+00 0. -1.
         11    1    3    3    0    0 -0.66004741733E+01 -0.69795572634E+01 -0.53133564072E+01  0.10977806497E+02  0.51100000000E-03 0. -1.
        -11    1    3    3    0    0  0.19400289738E+00 -0.27188150717E+02  0.26207448981E+02  0.37763256730E+02  0.51100000000E-03 0.  1.
         12    1    3    3    0    0  0.74406123063E+01  0.34534802064E+02 -0.21328799340E+02  0.41266608128E+02  0.00000000000E+00 0. -1.
</event>
<event>
 7    1  0.4639347E-015  0.9000772E+02  0.7816164E-02  0.1186339E+00
        -11   -1    0    0    0    0  0.00000000000E+00  0.00000000000E+00  0.45593999997E+02  0.45594000000E+02  0.51100000000E-03 0. -1.
         11   -1    0    0    0    0 -0.00000000000E+00 -0.00000000000E+00 -0.45593999997E+02  0.45594000000E+02  0.51100000000E-03 0.  1.
    9900012    2    1    2    0    0 -0.60320515967E-01  0.45921180220E+00 -0.10856044876E+01  0.90007724122E+02  0.89999985281E+02 0.  0.
         12    1    1    2    0    0  0.60320515967E-01 -0.45921180220E+00  0.10856044876E+01  0.11802758777E+01  0.00000000000E+00 0. -1.
         11    1    3    3    0    0 -0.69982799858E+01 -0.21432789188E+00 -0.23180852922E+01  0.73753222905E+01  0.51100000000E-03 0. -1.
        -11    1    3    3    0    0  0.77698235756E+01  0.17238249029E+02 -0.36671123355E+02  0.41258922385E+02  0.51100000000E-03 0.  1.
         12    1    3    3    0    0 -0.83186410578E+00 -0.16564709335E+02  0.37903604160E+02  0.41373479447E+02  0.00000000000E+00 0. -1.
</event>
<event>
 7    1  0.4639347E-015  0.9000778E+02  0.7816164E-02  0.1186339E+00
        -11   -1    0    0    0    0  0.00000000000E+00  0.00000000000E+00  0.45593999997E+02  0.45594000000E+02  0.51100000000E-03 0. -1.
         11   -1    0    0    0    0 -0.00000000000E+00 -0.00000000000E+00 -0.45593999997E+02  0.45594000000E+02  0.51100000000E-03 0.  1.
    9900012    2    1    2    0    0 -0.63224470649E+00 -0.26414804587E+00 -0.96093828471E+00  0.90007783941E+02  0.90000045889E+02 0.  0.
         12    1    1    2    0    0  0.63224470649E+00  0.26414804587E+00  0.96093828471E+00  0.11802160591E+01  0.00000000000E+00 0. -1.
         11    1    3    3    0    0 -0.15265380844E+01 -0.25281339754E+01 -0.87588596583E+01  0.92433436967E+01  0.51100000000E-03 0. -1.
        -11    1    3    3    0    0  0.18071830142E+02 -0.26461574957E+02 -0.19554990934E+02  0.37539361537E+02  0.51100000000E-03 0.  1.
         12    1    3    3    0    0 -0.17177536764E+02  0.28725560887E+02  0.27352912308E+02  0.43225078707E+02  0.00000000000E+00 0. -1.
</event>
<event>
 7    1  0.4639347E-015  0.9000777E+02  0.7816164E-02  0.1186339E+00
        -11   -1    0    0    0    0  0.00000000000E+00  0.00000000000E+00  0.45593999997E+02  0.45594000000E+02  0.51100000000E-03 0.  1.
         11   -1    0    0    0    0 -0.00000000000E+00 -0.00000000000E+00 -0.45593999997E+02  0.45594000000E+02  0.51100000000E-03 0. -1.
    9900012    2    1    2    0    0  0.63761419676E+00 -0.38577017112E+00  0.91519018005E+00  0.90007769703E+02  0.90000031463E+02 0.  0.
         12    1    1    2    0    0 -0.63761419676E+00  0.38577017112E+00 -0.91519018005E+00  0.11802302972E+01  0.00000000000E+00 0. -1.
         11    1    3    3    0    0 -0.12881698172E+02  0.12748831484E+02 -0.32740306724E+02  0.37421899159E+02  0.51100000000E-03 0. -1.
        -11    1    3    3    0    0 -0.53226946682E+01 -0.80009195602E+01 -0.38089974842E+01  0.10337033154E+02  0.51100000000E-03 0.  1.
        -12    1    3    3    0    0  0.18842007037E+02 -0.51336820947E+01  0.37464494388E+02  0.42248837390E+02  0.00000000000E+00 0.  1.
</event>
<event>
 7    1  0.4639347E-015  0.9000776E+02  0.7816164E-02  0.1186339E+00
        -11   -1    0    0    0    0  0.00000000000E+00  0.00000000000E+00  0.45593999997E+02  0.45594000000E+02  0.51100000000E-03 0.  1.
         11   -1    0    0    0    0 -0.00000000000E+00 -0.00000000000E+00 -0.45593999997E+02  0.45594000000E+02  0.51100000000E-03 0. -1.
    9900012    2    1    2    0    0 -0.11781044187E+01  0.37198964317E-01 -0.60383016910E-01  0.90007762781E+02  0.90000024450E+02 0.  0.
         12    1    1    2    0    0  0.11781044187E+01 -0.37198964317E-01  0.60383016910E-01  0.11802372189E+01  0.00000000000E+00 0. -1.
         11    1    3    3    0    0 -0.89845496797E+01  0.65683505130E+00  0.17822544881E+01  0.91831365313E+01  0.51100000000E-03 0. -1.
        -11    1    3    3    0    0 -0.87565060337E+01 -0.94521943600E+01  0.36188221895E+02  0.38413640551E+02  0.51100000000E-03 0.  1.
         12    1    3    3    0    0  0.16562951295E+02  0.88325582730E+01 -0.38030859400E+02  0.42410985699E+02  0.00000000000E+00 0. -1.
</event>
<event>
 7    1  0.4639347E-015  0.9000792E+02  0.7816164E-02  0.1186339E+00
        -11   -1    0    0    0    0  0.00000000000E+00  0.00000000000E+00  0.45593999997E+02  0.45594000000E+02  0.51100000000E-03 0. -1.
         11   -1    0    0    0    0 -0.00000000000E+00 -0.00000000000E+00 -0.45593999997E+02  0.45594000000E+02  0.51100000000E-03 0.  1.
    9900012    2    1    2    0    0  0.68962580568E+00 -0.41223083789E+00 -0.86433468914E+00  0.90007918448E+02  0.90000182171E+02 0.  0.
         12    1    1    2    0    0 -0.68962580568E+00  0.41223083789E+00  0.86433468914E+00  0.11800815524E+01  0.00000000000E+00 0. -1.
         11    1    3    3    0    0 -0.20541217838E+02 -0.24079088276E+02  0.15322874055E+02  0.35164393811E+02  0.51100000000E-03 0. -1.
        -11    1    3    3    0    0 -0.99138224190E+01 -0.35279689874E+01 -0.23274271192E+00  0.10525426811E+02  0.51100000000E-03 0.  1.
        -12    1    3    3    0    0  0.31144666063E+02  0.27194826426E+02 -0.15954466032E+02  0.44318097826E+02  0.00000000000E+00 0.  1.
</event>
<event>
 7    1  0.4639347E-015  0.9000775E+02  0.7816164E-02  0.1186339E+00
        -11   -1    0    0    0    0  0.00000000000E+00  0.00000000000E+00  0.45593999997E+02  0.45594000000E+02  0.51100000000E-03 0. -1.
         11   -1    0    0    0    0 -0.00000000000E+00 -0.00000000000E+00 -0.45593999997E+02  0.45594000000E+02  0.51100000000E-03 0.  1.
    9900012    2    1    2    0    0  0.40061526352E+00  0.69536174451E+00 -0.86543430229E+00  0.90007747029E+02  0.90000008489E+02 0.  0.
         12    1    1    2    0    0 -0.40061526352E+00 -0.69536174451E+00  0.86543430229E+00  0.11802529715E+01  0.00000000000E+00 0. -1.
         11    1    3    3    0    0 -0.23483095923E+00  0.10995022498E+02  0.50197521461E+00  0.11008980184E+02  0.51100000000E-03 0. -1.
        -11    1    3    3    0    0  0.26091666538E+02  0.21935005944E+02 -0.12722569794E+02  0.36383833373E+02  0.51100000000E-03 0.  1.
         12    1    3    3    0    0 -0.25456220316E+02 -0.32234666698E+02  0.11355160277E+02  0.42614933471E+02  0.00000000000E+00 0. -1.
</event>
<event>
 7    1  0.4639347E-015  0.9000774E+02  0.7816164E-02  0.1186339E+00
        -11   -1    0    0    0    0  0.00000000000E+00  0.00000000000E+00  0.45593999997E+02  0.45594000000E+02  0.51100000000E-03 0. -1.
         11   -1    0    0    0    0 -0.00000000000E+00 -0.00000000000E+00 -0.45593999997E+02  0.45594000000E+02  0.51100000000E-03 0.  1.
    9900012    2    1    2    0    0 -0.79372606715E+00 -0.71289050143E+00  0.50477626319E+00  0.90007740277E+02  0.90000001649E+02 0.  0.
         12    1    1    2    0    0  0.79372606715E+00  0.71289050143E+00 -0.50477626319E+00  0.11802597225E+01  0.00000000000E+00 0. -1.
         11    1    3    3    0    0  0.22069044237E+02  0.26281380950E+02 -0.81109847840E+01  0.35263887656E+02  0.51100000000E-03 0. -1.
        -11    1    3    3    0    0  0.82284718290E+01  0.17102122709E+01  0.91511699105E+01  0.12424833425E+02  0.51100000000E-03 0.  1.
        -12    1    3    3    0    0 -0.31091242133E+02 -0.28704483722E+02 -0.53540886336E+00  0.42319019197E+02  0.00000000000E+00 0.  1.
</event>
<event>
 7    1  0.4639347E-015  0.9000759E+02  0.7816164E-02  0.1186339E+00
        -11   -1    0    0    0    0  0.00000000000E+00  0.00000000000E+00  0.45593999997E+02  0.45594000000E+02  0.51100000000E-03 0.  1.
         11   -1    0    0    0    0 -0.00000000000E+00 -0.00000000000E+00 -0.45593999997E+02  0.45594000000E+02  0.51100000000E-03 0. -1.
    9900012    2    1    2    0    0  0.61058891801E+00  0.39735271030E+00  0.92879309799E+00  0.90007591333E+02  0.89999850738E+02 0.  0.
         12    1    1    2    0    0 -0.61058891801E+00 -0.39735271030E+00 -0.92879309799E+00  0.11804086674E+01  0.00000000000E+00 0. -1.
         11    1    3    3    0    0 -0.17630545082E+00 -0.32784280285E+02 -0.11417125597E+02  0.34715859122E+02  0.51100000000E-03 0. -1.
        -11    1    3    3    0    0 -0.79067945635E+01 -0.69025847140E+01 -0.38697156696E+01  0.11186499704E+02  0.51100000000E-03 0.  1.
        -12    1    3    3    0    0  0.86936889323E+01  0.40084217709E+02  0.16215634365E+02  0.44105232507E+02  0.00000000000E+00 0.  1.
</event>
<event>
 7    1  0.4639347E-015  0.9000775E+02  0.7816164E-02  0.1186339E+00
        -11   -1    0    0    0    0  0.00000000000E+00  0.00000000000E+00  0.45593999997E+02  0.45594000000E+02  0.51100000000E-03 0.  1.
         11   -1    0    0    0    0 -0.00000000000E+00 -0.00000000000E+00 -0.45593999997E+02  0.45594000000E+02  0.51100000000E-03 0. -1.
    9900012    2    1    2    0    0  0.42640048868E-01  0.97322183015E+00  0.66633946472E+00  0.90007751218E+02  0.90000012734E+02 0.  0.
         12    1    1    2    0    0 -0.42640048868E-01 -0.97322183015E+00 -0.66633946472E+00  0.11802487817E+01  0.00000000000E+00 0. -1.
         11    1    3    3    0    0  0.28775646558E+02  0.81320538653E+01  0.26164372098E+02  0.39733392788E+02  0.51100000000E-03 0. -1.
        -11    1    3    3    0    0 -0.27137716952E+01 -0.11422021751E+02  0.22977549146E+01  0.11962726094E+02  0.51100000000E-03 0.  1.
        -12    1    3    3    0    0 -0.26019234814E+02  0.42631897159E+01 -0.27795787548E+02  0.38311632336E+02  0.00000000000E+00 0.  1.
</event>
<event>
 7    1  0.5835460E-015  0.9000794E+02  0.7816164E-02  0.1186339E+00
        -11   -1    0    0    0    0  0.00000000000E+00  0.00000000000E+00  0.45593999997E+02  0.45594000000E+02  0.51100000000E-03 0.  1.
         11   -1    0    0    0    0 -0.00000000000E+00 -0.00000000000E+00 -0.45593999997E+02  0.45594000000E+02  0.51100000000E-03 0. -1.
    9900012    2    1    2    0    0 -0.98656180871E+00 -0.49739424587E+00  0.41452099178E+00  0.90007943692E+02  0.90000207748E+02 0.  0.
         12    1    1    2    0    0  0.98656180871E+00  0.49739424587E+00 -0.41452099178E+00  0.11800563083E+01  0.00000000000E+00 0. -1.
         11    1    3    3    0    0  0.68055819278E+01 -0.46234412838E+01  0.45148858590E+01  0.93849000667E+01  0.51100000000E-03 0. -1.
        -11    1    3    3    0    0 -0.38028635413E+02 -0.64828244261E+01  0.17103900761E+02  0.42198904552E+02  0.51100000000E-03 0.  1.
         12    1    3    3    0    0  0.30236491676E+02  0.10608871464E+02 -0.21204265628E+02  0.38424139073E+02  0.00000000000E+00 0. -1.
</event>
<event>
 7    1  0.4639347E-015  0.9000768E+02  0.7816164E-02  0.1186339E+00
        -11   -1    0    0    0    0  0.00000000000E+00  0.00000000000E+00  0.45593999997E+02  0.45594000000E+02  0.51100000000E-03 0. -1.
         11   -1    0    0    0    0 -0.00000000000E+00 -0.00000000000E+00 -0.45593999997E+02  0.45594000000E+02  0.51100000000E-03 0.  1.
    9900012    2    1    2    0    0  0.47981564157E+00  0.42946058196E+00  0.98918526929E+00  0.90007683543E+02  0.89999944166E+02 0.  0.
         12    1    1    2    0    0 -0.47981564157E+00 -0.42946058196E+00 -0.98918526929E+00  0.11803164569E+01  0.00000000000E+00 0. -1.
         11    1    3    3    0    0  0.33473781755E+00 -0.53876606165E+01  0.10702630999E+02  0.11986878113E+02  0.51100000000E-03 0. -1.
        -11    1    3    3    0    0 -0.26976151304E+02 -0.16456979078E+02 -0.24452562810E+02  0.39955884771E+02  0.51100000000E-03 0.  1.
         12    1    3    3    0    0  0.27121229128E+02  0.22274100277E+02  0.14739117081E+02  0.38064920660E+02  0.00000000000E+00 0. -1.
</event>
<event>
 7    1  0.4639347E-015  0.9000775E+02  0.7816164E-02  0.1186339E+00
        -11   -1    0    0    0    0  0.00000000000E+00  0.00000000000E+00  0.45593999997E+02  0.45594000000E+02  0.51100000000E-03 0. -1.
         11   -1    0    0    0    0 -0.00000000000E+00 -0.00000000000E+00 -0.45593999997E+02  0.45594000000E+02  0.51100000000E-03 0.  1.
    9900012    2    1    2    0    0 -0.75223051990E+00  0.16795301093E+00  0.89383559270E+00  0.90007745351E+02  0.90000006790E+02 0.  0.
         12    1    1    2    0    0  0.75223051990E+00 -0.16795301093E+00 -0.89383559270E+00  0.11802546487E+01  0.00000000000E+00 0. -1.
         11    1    3    3    0    0 -0.24406342362E+02 -0.70136964134E+01  0.30539693992E+02  0.39718187198E+02  0.51100000000E-03 0. -1.
        -11    1    3    3    0    0  0.11032081548E+01  0.90263215265E+01  0.38441547405E+01  0.98726427294E+01  0.51100000000E-03 0.  1.
        -12    1    3    3    0    0  0.22550903688E+02 -0.18446721022E+01 -0.33490013140E+02  0.40416915424E+02  0.00000000000E+00 0.  1.
</event>
<event>
 7    1  0.4639347E-015  0.9000775E+02  0.7816164E-02  0.1186339E+00
        -11   -1    0    0    0    0  0.00000000000E+00  0.00000000000E+00  0.45593999997E+02  0.45594000000E+02  0.51100000000E-03 0.  1.
         11   -1    0    0    0    0 -0.00000000000E+00 -0.00000000000E+00 -0.45593999997E+02  0.45594000000E+02  0.51100000000E-03 0. -1.
    9900012    2    1    2    0    0  0.96970687797E+00  0.33643645930E+00 -0.58264716585E+00  0.90007746366E+02  0.90000007818E+02 0.  0.
         12    1    1    2    0    0 -0.96970687797E+00 -0.33643645930E+00  0.58264716585E+00  0.11802536338E+01  0.00000000000E+00 0. -1.
         11    1    3    3    0    0 -0.50912525537E+01  0.38536190556E+01 -0.46252919716E+01  0.78844504231E+01  0.51100000000E-03 0. -1.
        -11    1    3    3    0    0 -0.26640379486E+02 -0.13786996573E+02  0.27414916374E+02  0.40637036478E+02  0.51100000000E-03 0.  1.
         12    1    3    3    0    0  0.32701338918E+02  0.10269813977E+02 -0.23372271568E+02  0.41486259465E+02  0.00000000000E+00 0. -1.
</event>
<event>
 7    1  0.4639347E-015  0.9000777E+02  0.7816164E-02  0.1186339E+00
        -11   -1    0    0    0    0  0.00000000000E+00  0.00000000000E+00  0.45593999997E+02  0.45594000000E+02  0.51100000000E-03 0. -1.
         11   -1    0    0    0    0 -0.00000000000E+00 -0.00000000000E+00 -0.45593999997E+02  0.45594000000E+02  0.51100000000E-03 0.  1.
    9900012    2    1    2    0    0 -0.79270352008E+00 -0.60227384576E+00  0.63390096585E+00  0.90007769899E+02  0.90000031662E+02 0.  0.
         12    1    1    2    0    0  0.79270352008E+00  0.60227384576E+00 -0.63390096585E+00  0.11802301007E+01  0.00000000000E+00 0. -1.
         11    1    3    3    0    0 -0.86812780935E+01  0.18319843540E+02  0.30314593971E+02  0.36468559946E+02  0.51100000000E-03 0. -1.
        -11    1    3    3    0    0  0.19246453341E+01  0.72149383291E+01  0.55244112999E+01  0.92886336577E+01  0.51100000000E-03 0.  1.
        -12    1    3    3    0    0  0.59639292393E+01 -0.26137055715E+02 -0.35205104305E+02  0.44250576296E+02  0.00000000000E+00 0.  1.
</event>
<event>
 7    1  0.4639347E-015  0.9000771E+02  0.7816164E-02  0.1186339E+00
        -11   -1    0    0    0    0  0.00000000000E+00  0.00000000000E+00  0.45593999997E+02  0.45594000000E+02  0.51100000000E-03 0. -1.
         11   -1    0    0    0    0 -0.00000000000E+00 -0.00000000000E+00 -0.45593999997E+02  0.45594000000E+02  0.51100000000E-03 0.  1.
    9900012    2    1    2    0    0  0.87866556652E+00  0.24726715006E+00 -0.74825630503E+00  0.90007711171E+02  0.89999972159E+02 0.  0.
         12    1    1    2    0    0 -0.87866556652E+00 -0.24726715006E+00  0.74825630503E+00  0.11802888288E+01  0.00000000000E+00 0. -1.
         11    1    3    3    0    0  0.51506238943E+00  0.62858277607E+00 -0.85954593083E+01  0.86337898141E+01  0.51100000000E-03 0. -1.
        -11    1    3    3    0    0  0.26411405166E+02 -0.24527430680E+02 -0.15109727303E+02  0.39082746040E+02  0.51100000000E-03 0.  1.
         12    1    3    3    0    0 -0.26047801989E+02  0.24146115054E+02  0.22956930306E+02  0.42291175317E+02  0.00000000000E+00 0. -1.
</event>
<event>
 7    1  0.5009292E-015  0.9000780E+02  0.7816164E-02  0.1186339E+00
        -11   -1    0    0    0    0  0.00000000000E+00  0.00000000000E+00  0.45593999997E+02  0.45594000000E+02  0.51100000000E-03 0.  1.
         11   -1    0    0    0    0 -0.00000000000E+00 -0.00000000000E+00 -0.45593999997E+02  0.45594000000E+02  0.51100000000E-03 0. -1.
    9900012    2    1    2    0    0 -0.61187380133E+00 -0.14432326388E+00  0.99882469247E+00  0.90007801068E+02  0.90000063242E+02 0.  0.
         12    1    1    2    0    0  0.61187380133E+00  0.14432326388E+00 -0.99882469247E+00  0.11801989322E+01  0.00000000000E+00 0. -1.
         11    1    3    3    0    0 -0.77411759724E+01  0.93392885368E+00  0.53793831496E+01  0.94728977547E+01  0.51100000000E-03 0. -1.
        -11    1    3    3    0    0  0.33970089857E+02 -0.11826069250E+02  0.21351760884E+02  0.41829661867E+02  0.51100000000E-03 0.  1.
         12    1    3    3    0    0 -0.26840787686E+02  0.10747817133E+02 -0.25732319341E+02  0.38705241446E+02  0.00000000000E+00 0. -1.
</event>
<event>
 7    1  0.4639347E-015  0.9000776E+02  0.7816164E-02  0.1186339E+00
        -11   -1    0    0    0    0  0.00000000000E+00  0.00000000000E+00  0.45593999997E+02  0.45594000000E+02  0.51100000000E-03 0.  1.
         11   -1    0    0    0    0 -0.00000000000E+00 -0.00000000000E+00 -0.45593999997E+02  0.45594000000E+02  0.51100000000E-03 0. -1.
    9900012    2    1    2    0    0 -0.12050105665E-01 -0.97951009080E+00 -0.65831367527E+00  0.90007761838E+02  0.90000023495E+02 0.  0.
         12    1    1    2    0    0  0.12050105665E-01  0.97951009080E+00  0.65831367527E+00  0.11802381616E+01  0.00000000000E+00 0. -1.
         11    1    3    3    0    0  0.85739310923E+01  0.59463787642E+01  0.19177792541E+01  0.10608939264E+02  0.51100000000E-03 0. -1.
        -11    1    3    3    0    0  0.48655664772E+00 -0.30077376435E+02  0.27234988161E+02  0.40578687645E+02  0.51100000000E-03 0.  1.
         12    1    3    3    0    0 -0.90725378457E+01  0.23151487580E+02 -0.29811081090E+02  0.38820134929E+02  0.00000000000E+00 0. -1.
</event>
<event>
 7    1  0.4639347E-015  0.9000778E+02  0.7816164E-02  0.1186339E+00
        -11   -1    0    0    0    0  0.00000000000E+00  0.00000000000E+00  0.45593999997E+02  0.45594000000E+02  0.51100000000E-03 0. -1.
         11   -1    0    0    0    0 -0.00000000000E+00 -0.00000000000E+00 -0.45593999997E+02  0.45594000000E+02  0.51100000000E-03 0.  1.
    9900012    2    1    2    0    0 -0.10583384091E+01  0.52144358476E+00  0.30456195741E-01  0.90007783418E+02  0.90000045359E+02 0.  0.
         12    1    1    2    0    0  0.10583384091E+01 -0.52144358476E+00 -0.30456195741E-01  0.11802165819E+01  0.00000000000E+00 0. -1.
         11    1    3    3    0    0  0.75626263334E+01  0.71486339191E+01 -0.99080727516E+01  0.14368931411E+02  0.51100000000E-03 0. -1.
        -11    1    3    3    0    0  0.18966865005E+02 -0.30665060243E+02 -0.44298070146E+01  0.36327827877E+02  0.51100000000E-03 0.  1.
         12    1    3    3    0    0 -0.27587829747E+02  0.24037869909E+02  0.14368335962E+02  0.39311024131E+02  0.00000000000E+00 0. -1.
</event>
<event>
 7    1  0.4639347E-015  0.9000743E+02  0.7816164E-02  0.1186340E+00
        -11   -1    0    0    0    0  0.00000000000E+00  0.00000000000E+00  0.45593999997E+02  0.45594000000E+02  0.51100000000E-03 0.  1.
         11   -1    0    0    0    0 -0.00000000000E+00 -0.00000000000E+00 -0.45593999997E+02  0.45594000000E+02  0.51100000000E-03 0. -1.
    9900012    2    1    2    0    0  0.90976109562E+00  0.75232808418E+00  0.91402302980E-02  0.90007429654E+02  0.89999686925E+02 0.  0.
         12    1    1    2    0    0 -0.90976109562E+00 -0.75232808418E+00 -0.91402302980E-02  0.11805703457E+01  0.00000000000E+00 0. -1.
         11    1    3    3    0    0  0.25165660270E+01  0.47593057078E+01  0.10145497645E+02  0.11485435042E+02  0.51100000000E-03 0. -1.
        -11    1    3    3    0    0 -0.10623569530E+02  0.87955183317E+01  0.31311646544E+02  0.34214625263E+02  0.51100000000E-03 0.  1.
         12    1    3    3    0    0  0.90167645987E+01 -0.12802495955E+02 -0.41448003959E+02  0.44307369350E+02  0.00000000000E+00 0. -1.
</event>
<event>
 7    1  0.4639347E-015  0.9000815E+02  0.7816164E-02  0.1186338E+00
        -11   -1    0    0    0    0  0.00000000000E+00  0.00000000000E+00  0.45593999997E+02  0.45594000000E+02  0.51100000000E-03 0. -1.
         11   -1    0    0    0    0 -0.00000000000E+00 -0.00000000000E+00 -0.45593999997E+02  0.45594000000E+02  0.51100000000E-03 0.  1.
    9900012    2    1    2    0    0 -0.68997399659E+00  0.43556077597E+00 -0.85221417885E+00  0.90008149877E+02  0.90000416655E+02 0.  0.
         12    1    1    2    0    0  0.68997399659E+00 -0.43556077597E+00  0.85221417885E+00  0.11798501228E+01  0.00000000000E+00 0. -1.
         11    1    3    3    0    0  0.22103274548E+02 -0.36990832863E+02  0.13430844189E+01  0.43112415122E+02  0.51100000000E-03 0. -1.
        -11    1    3    3    0    0  0.17493322953E+01  0.53686742519E+01 -0.32371257429E+01  0.65085950895E+01  0.51100000000E-03 0.  1.
        -12    1    3    3    0    0 -0.24542580840E+02  0.32057719387E+02  0.10418271451E+01  0.40387139666E+02  0.00000000000E+00 0.  1.
</event>
<event>
 7    1  0.4639347E-015  0.9000770E+02  0.7816164E-02  0.1186339E+00
        -11   -1    0    0    0    0  0.00000000000E+00  0.00000000000E+00  0.45593999997E+02  0.45594000000E+02  0.51100000000E-03 0.  1.
         11   -1    0    0    0    0 -0.00000000000E+00 -0.00000000000E+00 -0.45593999997E+02  0.45594000000E+02  0.51100000000E-03 0. -1.
    9900012    2    1    2    0    0  0.63915431225E+00 -0.97281431612E+00  0.19549471228E+00  0.90007701686E+02  0.89999962548E+02 0.  0.
         12    1    1    2    0    0 -0.63915431225E+00  0.97281431612E+00 -0.19549471228E+00  0.11802983144E+01  0.00000000000E+00 0. -1.
         11    1    3    3    0    0  0.56864505389E+01 -0.55729514127E+01 -0.30627041343E+01  0.85307481533E+01  0.51100000000E-03 0. -1.
        -11    1    3    3    0    0  0.17444269508E+02 -0.28219282405E+02  0.19523222713E+02  0.38493982172E+02  0.51100000000E-03 0.  1.
         12    1    3    3    0    0 -0.22491565734E+02  0.32819419501E+02 -0.16265023867E+02  0.42982971360E+02  0.00000000000E+00 0. -1.
</event>
<event>
 7    1  0.4639347E-015  0.9000761E+02  0.7816164E-02  0.1186339E+00
        -11   -1    0    0    0    0  0.00000000000E+00  0.00000000000E+00  0.45593999997E+02  0.45594000000E+02  0.51100000000E-03 0. -1.
         11   -1    0    0    0    0 -0.00000000000E+00 -0.00000000000E+00 -0.45593999997E+02  0.45594000000E+02  0.51100000000E-03 0.  1.
    9900012    2    1    2    0    0  0.96264125948E+00  0.51855330956E+00 -0.44469677355E+00  0.90007605596E+02  0.89999865189E+02 0.  0.
         12    1    1    2    0    0 -0.96264125948E+00 -0.51855330956E+00  0.44469677355E+00  0.11803944043E+01  0.00000000000E+00 0. -1.
         11    1    3    3    0    0 -0.69223959489E+01 -0.14880295825E+01  0.83723392817E+01  0.10964937894E+02  0.51100000000E-03 0. -1.
        -11    1    3    3    0    0 -0.11315137074E+02  0.10912841806E+02  0.30543990286E+02  0.34351969174E+02  0.51100000000E-03 0.  1.
         12    1    3    3    0    0  0.19200174282E+02 -0.89062589136E+01 -0.39361026341E+02  0.44690698528E+02  0.00000000000E+00 0. -1.
</event>
<event>
 7    1  0.4639347E-015  0.9000761E+02  0.7816164E-02  0.1186339E+00
        -11   -1    0    0    0    0  0.00000000000E+00  0.00000000000E+00  0.45593999997E+02  0.45594000000E+02  0.51100000000E-03 0.  1.
         11   -1    0    0    0    0 -0.00000000000E+00 -0.00000000000E+00 -0.45593999997E+02  0.45594000000E+02  0.51100000000E-03 0. -1.
    9900012    2    1    2    0    0 -0.11803507729E+01 -0.35617384689E-02 -0.86539186297E-02  0.90007612130E+02  0.89999871810E+02 0.  0.
         12    1    1    2    0    0  0.11803507729E+01  0.35617384689E-02  0.86539186297E-02  0.11803878699E+01  0.00000000000E+00 0. -1.
         11    1    3    3    0    0  0.16768630961E+02 -0.10489760518E+02  0.84579291040E+01  0.21511825237E+02  0.51100000000E-03 0. -1.
        -11    1    3    3    0    0 -0.51240333106E+00  0.26159133121E+00  0.27356975200E+02  0.27363023947E+02  0.51100000000E-03 0.  1.
        -12    1    3    3    0    0 -0.17436578403E+02  0.10224607448E+02 -0.35823558222E+02  0.41132762946E+02  0.00000000000E+00 0.  1.
</event>
<event>
 7    1  0.4639347E-015  0.9000775E+02  0.7816164E-02  0.1186339E+00
        -11   -1    0    0    0    0  0.00000000000E+00  0.00000000000E+00  0.45593999997E+02  0.45594000000E+02  0.51100000000E-03 0. -1.
         11   -1    0    0    0    0 -0.00000000000E+00 -0.00000000000E+00 -0.45593999997E+02  0.45594000000E+02  0.51100000000E-03 0.  1.
    9900012    2    1    2    0    0 -0.69772977831E-01 -0.91651811954E+00 -0.74034203609E+00  0.90007754236E+02  0.90000015792E+02 0.  0.
         12    1    1    2    0    0  0.69772977831E-01  0.91651811954E+00  0.74034203609E+00  0.11802457635E+01  0.00000000000E+00 0. -1.
         11    1    3    3    0    0  0.12171159782E+02  0.74853288383E+01  0.34793751983E+02  0.37613461095E+02  0.51100000000E-03 0. -1.
        -11    1    3    3    0    0  0.43646698028E+01  0.98779083257E+01 -0.23889097509E+01  0.11060303135E+02  0.51100000000E-03 0.  1.
        -12    1    3    3    0    0 -0.16605602562E+02 -0.18279755284E+02 -0.33145184268E+02  0.41333990006E+02  0.00000000000E+00 0.  1.
</event>
<event>
 7    1  0.4639347E-015  0.9000773E+02  0.7816164E-02  0.1186339E+00
        -11   -1    0    0    0    0  0.00000000000E+00  0.00000000000E+00  0.45593999997E+02  0.45594000000E+02  0.51100000000E-03 0.  1.
         11   -1    0    0    0    0 -0.00000000000E+00 -0.00000000000E+00 -0.45593999997E+02  0.45594000000E+02  0.51100000000E-03 0. -1.
    9900012    2    1    2    0    0 -0.66565278976E+00  0.11315712910E+00 -0.96806426699E+00  0.90007726050E+02  0.89999987234E+02 0.  0.
         12    1    1    2    0    0  0.66565278976E+00 -0.11315712910E+00  0.96806426699E+00  0.11802739502E+01  0.00000000000E+00 0. -1.
         11    1    3    3    0    0 -0.10113282112E+02 -0.26472937809E+02 -0.22385555078E+02  0.36113819899E+02  0.51100000000E-03 0. -1.
        -11    1    3    3    0    0 -0.42077183266E+00 -0.75279757584E+01 -0.55000311814E+01  0.93326208115E+01  0.51100000000E-03 0.  1.
        -12    1    3    3    0    0  0.98684011548E+01  0.34114070696E+02  0.26917521993E+02  0.44561285339E+02  0.00000000000E+00 0.  1.
</event>
<event>
 7    1  0.4639347E-015  0.9000775E+02  0.7816164E-02  0.1186339E+00
        -11   -1    0    0    0    0  0.00000000000E+00  0.00000000000E+00  0.45593999997E+02  0.45594000000E+02  0.51100000000E-03 0.  1.
         11   -1    0    0    0    0 -0.00000000000E+00 -0.00000000000E+00 -0.45593999997E+02  0.45594000000E+02  0.51100000000E-03 0. -1.
    9900012    2    1    2    0    0 -0.54665217399E+00 -0.10056573193E+01 -0.28776354147E+00  0.90007752950E+02  0.90000014489E+02 0.  0.
         12    1    1    2    0    0  0.54665217399E+00  0.10056573193E+01  0.28776354147E+00  0.11802470500E+01  0.00000000000E+00 0. -1.
         11    1    3    3    0    0  0.87518894593E+00 -0.91939272590E+01 -0.28915775734E+00  0.92400144266E+01  0.51100000000E-03 0. -1.
        -11    1    3    3    0    0  0.27436454530E+02 -0.20550940627E+02 -0.14929168068E+02  0.37389574179E+02  0.51100000000E-03 0.  1.
         12    1    3    3    0    0 -0.28858295650E+02  0.28739210567E+02  0.14930562284E+02  0.43378164345E+02  0.00000000000E+00 0. -1.
</event>
<event>
 7    1  0.4639347E-015  0.9000764E+02  0.7816164E-02  0.1186339E+00
        -11   -1    0    0    0    0  0.00000000000E+00  0.00000000000E+00  0.45593999997E+02  0.45594000000E+02  0.51100000000E-03 0.  1.
         11   -1    0    0    0    0 -0.00000000000E+00 -0.00000000000E+00 -0.45593999997E+02  0.45594000000E+02  0.51100000000E-03 0. -1.
    9900012    2    1    2    0    0  0.90095335356E+00 -0.53541961626E-01  0.76070354373E+00  0.90007638374E+02  0.89999898400E+02 0.  0.
         12    1    1    2    0    0 -0.90095335356E+00  0.53541961626E-01 -0.76070354373E+00  0.11803616261E+01  0.00000000000E+00 0. -1.
         11    1    3    3    0    0  0.28148196360E+02  0.14623375118E+02  0.22814663748E+02  0.39072662315E+02  0.51100000000E-03 0. -1.
        -11    1    3    3    0    0  0.52025574013E+01  0.46511865200E+01 -0.80469624121E+01  0.10651466748E+02  0.51100000000E-03 0.  1.
        -12    1    3    3    0    0 -0.32449800408E+02 -0.19328103600E+02 -0.14006997792E+02  0.40283509311E+02  0.00000000000E+00 0.  1.
</event>
<event>
 7    1  0.4639347E-015  0.9000755E+02  0.7816164E-02  0.1186339E+00
        -11   -1    0    0    0    0  0.00000000000E+00  0.00000000000E+00  0.45593999997E+02  0.45594000000E+02  0.51100000000E-03 0. -1.
         11   -1    0    0    0    0 -0.00000000000E+00 -0.00000000000E+00 -0.45593999997E+02  0.45594000000E+02  0.51100000000E-03 0.  1.
    9900012    2    1    2    0    0  0.62629727369E+00 -0.74647368839E+00 -0.66632058777E+00  0.90007553318E+02  0.89999812222E+02 0.  0.
         12    1    1    2    0    0 -0.62629727369E+00  0.74647368839E+00  0.66632058777E+00  0.11804466816E+01  0.00000000000E+00 0. -1.
         11    1    3    3    0    0  0.27441150044E+02  0.14633259969E+02  0.15868808955E+02  0.34913723820E+02  0.51100000000E-03 0. -1.
        -11    1    3    3    0    0 -0.41408568220E+01  0.12172698937E+02  0.45595770846E+01  0.13642251943E+02  0.51100000000E-03 0.  1.
        -12    1    3    3    0    0 -0.22673995948E+02 -0.27552432595E+02 -0.21094706627E+02  0.41451577555E+02  0.00000000000E+00 0.  1.
</event>
<event>
 7    1  0.4639347E-015  0.9000772E+02  0.7816164E-02  0.1186339E+00
        -11   -1    0    0    0    0  0.00000000000E+00  0.00000000000E+00  0.45593999997E+02  0.45594000000E+02  0.51100000000E-03 0.  1.
         11   -1    0    0    0    0 -0.00000000000E+00 -0.00000000000E+00 -0.45593999997E+02  0.45594000000E+02  0.51100000000E-03 0. -1.
    9900012    2    1    2    0    0 -0.11523298993E+01 -0.83772513333E-01  0.24122317346E+00  0.90007715860E+02  0.89999976910E+02 0.  0.
         12    1    1    2    0    0  0.11523298993E+01  0.83772513333E-01 -0.24122317346E+00  0.11802841396E+01  0.00000000000E+00 0. -1.
         11    1    3    3    0    0  0.16174035139E+02 -0.31386826262E+02  0.10588697799E+02  0.36862620591E+02  0.51100000000E-03 0. -1.
        -11    1    3    3    0    0  0.29927419569E+01 -0.12607740876E+01  0.94247854109E+01  0.99685824480E+01  0.51100000000E-03 0.  1.
        -12    1    3    3    0    0 -0.20319106995E+02  0.32563827836E+02 -0.19772260036E+02  0.43176512821E+02  0.00000000000E+00 0.  1.
</event>
<event>
 7    1  0.4639347E-015  0.9000785E+02  0.7816164E-02  0.1186339E+00
        -11   -1    0    0    0    0  0.00000000000E+00  0.00000000000E+00  0.45593999997E+02  0.45594000000E+02  0.51100000000E-03 0.  1.
         11   -1    0    0    0    0 -0.00000000000E+00 -0.00000000000E+00 -0.45593999997E+02  0.45594000000E+02  0.51100000000E-03 0. -1.
    9900012    2    1    2    0    0 -0.95997292499E+00 -0.56231743342E+00  0.39371497702E+00  0.90007847300E+02  0.90000110084E+02 0.  0.
         12    1    1    2    0    0  0.95997292499E+00  0.56231743342E+00 -0.39371497702E+00  0.11801527002E+01  0.00000000000E+00 0. -1.
         11    1    3    3    0    0  0.24504263997E+02 -0.20816776635E+02 -0.18995768777E+02  0.37344830636E+02  0.51100000000E-03 0. -1.
        -11    1    3    3    0    0  0.68497453307E+01 -0.42489399012E+01  0.56557778217E+01  0.98468433728E+01  0.51100000000E-03 0.  1.
        -12    1    3    3    0    0 -0.32313982253E+02  0.24503399103E+02  0.13733705933E+02  0.42816173291E+02  0.00000000000E+00 0.  1.
</event>
<event>
 7    1  0.4639347E-015  0.9000759E+02  0.7816164E-02  0.1186339E+00
        -11   -1    0    0    0    0  0.00000000000E+00  0.00000000000E+00  0.45593999997E+02  0.45594000000E+02  0.51100000000E-03 0.  1.
         11   -1    0    0    0    0 -0.00000000000E+00 -0.00000000000E+00 -0.45593999997E+02  0.45594000000E+02  0.51100000000E-03 0. -1.
    9900012    2    1    2    0    0  0.51100725578E+00 -0.17045483532E+00  0.10503296548E+01  0.90007586661E+02  0.89999846005E+02 0.  0.
         12    1    1    2    0    0 -0.51100725578E+00  0.17045483532E+00 -0.10503296548E+01  0.11804133387E+01  0.00000000000E+00 0. -1.
         11    1    3    3    0    0 -0.43189594476E+00  0.67734801317E+01 -0.65017057042E+01  0.93988693218E+01  0.51100000000E-03 0. -1.
        -11    1    3    3    0    0  0.35828602492E+01  0.22158319830E+02 -0.27159663900E+02  0.35234576323E+02  0.51100000000E-03 0.  1.
         12    1    3    3    0    0 -0.26399570486E+01 -0.29102254797E+02  0.34711699259E+02  0.45374141016E+02  0.00000000000E+00 0. -1.
</event>
<event>
 7    1  0.4639347E-015  0.9000788E+02  0.7816164E-02  0.1186339E+00
        -11   -1    0    0    0    0  0.00000000000E+00  0.00000000000E+00  0.45593999997E+02  0.45594000000E+02  0.51100000000E-03 0. -1.
         11   -1    0    0    0    0 -0.00000000000E+00 -0.00000000000E+00 -0.45593999997E+02  0.45594000000E+02  0.51100000000E-03 0.  1.
    9900012    2    1    2    0    0 -0.11271802623E+00  0.93748020220E+00  0.70789533335E+00  0.90007877004E+02  0.90000140180E+02 0.  0.
         12    1    1    2    0    0  0.11271802623E+00 -0.93748020220E+00 -0.70789533335E+00  0.11801229961E+01  0.00000000000E+00 0. -1.
         11    1    3    3    0    0 -0.53691172372E+01 -0.43379814910E+01  0.63261498046E+01  0.93629949768E+01  0.51100000000E-03 0. -1.
        -11    1    3    3    0    0 -0.68695901122E+01 -0.27511556878E+02 -0.27420589114E+02  0.39445731554E+02  0.51100000000E-03 0.  1.
         12    1    3    3    0    0  0.12125989323E+02  0.32787018572E+02  0.21802334643E+02  0.41199150474E+02  0.00000000000E+00 0. -1.
</event>
<event>
 7    1  0.4639347E-015  0.9000764E+02  0.7816164E-02  0.1186339E+00
        -11   -1    0    0    0    0  0.00000000000E+00  0.00000000000E+00  0.45593999997E+02  0.45594000000E+02  0.51100000000E-03 0.  1.
         11   -1    0    0    0    0 -0.00000000000E+00 -0.00000000000E+00 -0.45593999997E+02  0.45594000000E+02  0.51100000000E-03 0. -1.
    9900012    2    1    2    0    0 -0.10456537856E+01  0.29686292041E+00  0.46013746977E+00  0.90007641612E+02  0.89999901681E+02 0.  0.
         12    1    1    2    0    0  0.10456537856E+01 -0.29686292041E+00 -0.46013746977E+00  0.11803583879E+01  0.00000000000E+00 0. -1.
         11    1    3    3    0    0  0.28548749204E+01 -0.10434295702E+02 -0.39078272659E+02  0.40547949786E+02  0.51100000000E-03 0. -1.
        -11    1    3    3    0    0  0.64810381479E+01 -0.67620916589E+01  0.11983237225E+02  0.15209461323E+02  0.51100000000E-03 0.  1.
        -12    1    3    3    0    0 -0.10381566854E+02  0.17493250281E+02  0.27555172904E+02  0.34250230503E+02  0.00000000000E+00 0.  1.
</event>
<event>
 7    1  0.4639347E-015  0.9000782E+02  0.7816164E-02  0.1186339E+00
        -11   -1    0    0    0    0  0.00000000000E+00  0.00000000000E+00  0.45593999997E+02  0.45594000000E+02  0.51100000000E-03 0.  1.
         11   -1    0    0    0    0 -0.00000000000E+00 -0.00000000000E+00 -0.45593999997E+02  0.45594000000E+02  0.51100000000E-03 0. -1.
    9900012    2    1    2    0    0  0.72507434704E+00 -0.87328486026E+00  0.32321688092E+00  0.90007818485E+02  0.90000080889E+02 0.  0.
         12    1    1    2    0    0 -0.72507434704E+00  0.87328486026E+00 -0.32321688092E+00  0.11801815149E+01  0.00000000000E+00 0. -1.
         11    1    3    3    0    0 -0.54505195480E+00 -0.12358020213E+02 -0.40619361960E+02  0.42461162390E+02  0.51100000000E-03 0. -1.
        -11    1    3    3    0    0  0.40680995710E+01 -0.53245710061E+01  0.78240408176E+01  0.10301267179E+02  0.51100000000E-03 0.  1.
        -12    1    3    3    0    0 -0.27979732692E+01  0.16809306359E+02  0.33118538023E+02  0.37245388916E+02  0.00000000000E+00 0.  1.
</event>
<event>
 7    1  0.4639347E-015  0.9000774E+02  0.7816164E-02  0.1186339E+00
        -11   -1    0    0    0    0  0.00000000000E+00  0.00000000000E+00  0.45593999997E+02  0.45594000000E+02  0.51100000000E-03 0.  1.
         11   -1    0    0    0    0 -0.00000000000E+00 -0.00000000000E+00 -0.45593999997E+02  0.45594000000E+02  0.51100000000E-03 0. -1.
    9900012    2    1    2    0    0  0.56796608518E+00 -0.13593993798E-02  0.10346100323E+01  0.90007743570E+02  0.90000004985E+02 0.  0.
         12    1    1    2    0    0 -0.56796608518E+00  0.13593993798E-02 -0.10346100323E+01  0.11802564301E+01  0.00000000000E+00 0. -1.
         11    1    3    3    0    0  0.16968549206E+02 -0.31925429652E+02 -0.13439025284E+02  0.38571649193E+02  0.51100000000E-03 0. -1.
        -11    1    3    3    0    0  0.90504679640E+01  0.18317945995E+01 -0.56781745498E+00  0.92514246873E+01  0.51100000000E-03 0.  1.
        -12    1    3    3    0    0 -0.25451051085E+02  0.30092275653E+02  0.15041452772E+02  0.42184669689E+02  0.00000000000E+00 0.  1.
</event>
<event>
 7    1  0.4639347E-015  0.9000771E+02  0.7816164E-02  0.1186339E+00
        -11   -1    0    0    0    0  0.00000000000E+00  0.00000000000E+00  0.45593999997E+02  0.45594000000E+02  0.51100000000E-03 0. -1.
         11   -1    0    0    0    0 -0.00000000000E+00 -0.00000000000E+00 -0.45593999997E+02  0.45594000000E+02  0.51100000000E-03 0.  1.
    9900012    2    1    2    0    0  0.11604419900E+01 -0.15390708321E+00 -0.15087395251E+00  0.90007713614E+02  0.89999974634E+02 0.  0.
         12    1    1    2    0    0 -0.11604419900E+01  0.15390708321E+00  0.15087395251E+00  0.11802863856E+01  0.00000000000E+00 0. -1.
         11    1    3    3    0    0 -0.62304572189E+01  0.31611583168E+02  0.23224427553E+02  0.39717563155E+02  0.51100000000E-03 0. -1.
        -11    1    3    3    0    0 -0.94389869566E+01 -0.29542322341E+01 -0.63420723318E+00  0.99108113662E+01  0.51100000000E-03 0.  1.
        -12    1    3    3    0    0  0.16829886166E+02 -0.28811258017E+02 -0.22741094272E+02  0.40379339093E+02  0.00000000000E+00 0.  1.
</event>
<event>
 7    1  0.4639347E-015  0.9000775E+02  0.7816164E-02  0.1186339E+00
        -11   -1    0    0    0    0  0.00000000000E+00  0.00000000000E+00  0.45593999997E+02  0.45594000000E+02  0.51100000000E-03 0. -1.
         11   -1    0    0    0    0 -0.00000000000E+00 -0.00000000000E+00 -0.45593999997E+02  0.45594000000E+02  0.51100000000E-03 0.  1.
    9900012    2    1    2    0    0  0.42866059496E+00  0.69336266701E+00 -0.85351877632E+00  0.90007747487E+02  0.90000008954E+02 0.  0.
         12    1    1    2    0    0 -0.42866059496E+00 -0.69336266701E+00  0.85351877632E+00  0.11802525133E+01  0.00000000000E+00 0. -1.
         11    1    3    3    0    0 -0.31821134115E+02 -0.33761178605E+01  0.10024502553E+02  0.33533168653E+02  0.51100000000E-03 0. -1.
        -11    1    3    3    0    0 -0.28536653576E+01 -0.11192444892E+02  0.77452253940E+01  0.13906931556E+02  0.51100000000E-03 0.  1.
        -12    1    3    3    0    0  0.35103460068E+02  0.15261925420E+02 -0.18623246724E+02  0.42567647278E+02  0.00000000000E+00 0.  1.
</event>
<event>
 7    1  0.4639347E-015  0.9000814E+02  0.7816164E-02  0.1186338E+00
        -11   -1    0    0    0    0  0.00000000000E+00  0.00000000000E+00  0.45593999997E+02  0.45594000000E+02  0.51100000000E-03 0. -1.
         11   -1    0    0    0    0 -0.00000000000E+00 -0.00000000000E+00 -0.45593999997E+02  0.45594000000E+02  0.51100000000E-03 0.  1.
    9900012    2    1    2    0    0  0.96858115615E+00 -0.18634256004E+00 -0.64746211762E+00  0.90008135516E+02  0.90000402104E+02 0.  0.
         12    1    1    2    0    0 -0.96858115615E+00  0.18634256004E+00  0.64746211762E+00  0.11798644835E+01  0.00000000000E+00 0. -1.
         11    1    3    3    0    0 -0.25724029346E+01 -0.29250212148E+02  0.18586072629E+02  0.34751032555E+02  0.51100000000E-03 0. -1.
        -11    1    3    3    0    0 -0.34788878574E+01 -0.72652302982E+01  0.63630755882E+01  0.10265230792E+02  0.51100000000E-03 0.  1.
        -12    1    3    3    0    0  0.70198719481E+01  0.36329099886E+02 -0.25596610335E+02  0.44991872170E+02  0.00000000000E+00 0.  1.
</event>
<event>
 7    1  0.4639347E-015  0.9000782E+02  0.7816164E-02  0.1186339E+00
        -11   -1    0    0    0    0  0.00000000000E+00  0.00000000000E+00  0.45593999997E+02  0.45594000000E+02  0.51100000000E-03 0. -1.
         11   -1    0    0    0    0 -0.00000000000E+00 -0.00000000000E+00 -0.45593999997E+02  0.45594000000E+02  0.51100000000E-03 0.  1.
    9900012    2    1    2    0    0 -0.93188919220E+00  0.66107428867E+00 -0.29560510388E+00  0.90007822446E+02  0.90000084902E+02 0.  0.
         12    1    1    2    0    0  0.93188919220E+00 -0.66107428867E+00  0.29560510388E+00  0.11801775541E+01  0.00000000000E+00 0. -1.
         11    1    3    3    0    0 -0.44555515653E+01 -0.85261969112E+01  0.37803827703E+02  0.39008683172E+02  0.51100000000E-03 0. -1.
        -11    1    3    3    0    0 -0.17438208416E+01  0.86876124918E+01  0.31557201281E+01  0.94060667510E+01  0.51100000000E-03 0.  1.
        -12    1    3    3    0    0  0.52674832147E+01  0.49965870802E+00 -0.41255152935E+02  0.41593072523E+02  0.00000000000E+00 0.  1.
</event>
<event>
 7    1  0.4639347E-015  0.9000769E+02  0.7816164E-02  0.1186339E+00
        -11   -1    0    0    0    0  0.00000000000E+00  0.00000000000E+00  0.45593999997E+02  0.45594000000E+02  0.51100000000E-03 0.  1.
         11   -1    0    0    0    0 -0.00000000000E+00 -0.00000000000E+00 -0.45593999997E+02  0.45594000000E+02  0.51100000000E-03 0. -1.
    9900012    2    1    2    0    0  0.74207674106E+00  0.22632649586E+00  0.88950644355E+00  0.90007693563E+02  0.89999954318E+02 0.  0.
         12    1    1    2    0    0 -0.74207674106E+00 -0.22632649586E+00 -0.88950644355E+00  0.11803064371E+01  0.00000000000E+00 0. -1.
         11    1    3    3    0    0  0.36926371651E+02  0.15745567427E+02 -0.61805110901E+01  0.40616234864E+02  0.51100000000E-03 0. -1.
        -11    1    3    3    0    0  0.15533989392E+01 -0.70292325796E+01 -0.51214890644E+01  0.88347501051E+01  0.51100000000E-03 0.  1.
        -12    1    3    3    0    0 -0.37737693849E+02 -0.84900083515E+01  0.12191506598E+02  0.40556708594E+02  0.00000000000E+00 0.  1.
</event>
<event>
 7    1  0.4639347E-015  0.9000773E+02  0.7816164E-02  0.1186339E+00
        -11   -1    0    0    0    0  0.00000000000E+00  0.00000000000E+00  0.45593999997E+02  0.45594000000E+02  0.51100000000E-03 0.  1.
         11   -1    0    0    0    0 -0.00000000000E+00 -0.00000000000E+00 -0.45593999997E+02  0.45594000000E+02  0.51100000000E-03 0. -1.
    9900012    2    1    2    0    0 -0.13673380769E+00 -0.49816753150E+00  0.10612087689E+01  0.90007732626E+02  0.89999993896E+02 0.  0.
         12    1    1    2    0    0  0.13673380769E+00  0.49816753150E+00 -0.10612087689E+01  0.11802673743E+01  0.00000000000E+00 0. -1.
         11    1    3    3    0    0  0.15581143837E+02 -0.80777817142E+01 -0.11245440943E+02  0.20844244840E+02  0.51100000000E-03 0. -1.
        -11    1    3    3    0    0  0.13074015346E+02 -0.20579806925E+01  0.30862143696E+02  0.33580307854E+02  0.51100000000E-03 0.  1.
         12    1    3    3    0    0 -0.28791892991E+02  0.96375948752E+01 -0.18555493984E+02  0.35583179931E+02  0.00000000000E+00 0. -1.
</event>
<event>
 7    1  0.4639347E-015  0.9000779E+02  0.7816164E-02  0.1186339E+00
        -11   -1    0    0    0    0  0.00000000000E+00  0.00000000000E+00  0.45593999997E+02  0.45594000000E+02  0.51100000000E-03 0.  1.
         11   -1    0    0    0    0 -0.00000000000E+00 -0.00000000000E+00 -0.45593999997E+02  0.45594000000E+02  0.51100000000E-03 0. -1.
    9900012    2    1    2    0    0 -0.55961447435E+00  0.86321968660E+00  0.57843749116E+00  0.90007785393E+02  0.90000047360E+02 0.  0.
         12    1    1    2    0    0  0.55961447435E+00 -0.86321968660E+00 -0.57843749116E+00  0.11802146069E+01  0.00000000000E+00 0. -1.
         11    1    3    3    0    0  0.70346021928E+01  0.66141798487E+01 -0.38133665623E-01  0.96557991652E+01  0.51100000000E-03 0. -1.
        -11    1    3    3    0    0  0.11032533016E+02  0.24879606947E+02 -0.24468099515E+02  0.36597807594E+02  0.51100000000E-03 0.  1.
         12    1    3    3    0    0 -0.18626749683E+02 -0.30630567109E+02  0.25084670671E+02  0.43754178633E+02  0.00000000000E+00 0. -1.
</event>
<event>
 7    1  0.4639347E-015  0.9000775E+02  0.7816164E-02  0.1186339E+00
        -11   -1    0    0    0    0  0.00000000000E+00  0.00000000000E+00  0.45593999997E+02  0.45594000000E+02  0.51100000000E-03 0. -1.
         11   -1    0    0    0    0 -0.00000000000E+00 -0.00000000000E+00 -0.45593999997E+02  0.45594000000E+02  0.51100000000E-03 0.  1.
    9900012    2    1    2    0    0  0.45029495838E+00  0.82393057904E+00 -0.71510436074E+00  0.90007745199E+02  0.90000006636E+02 0.  0.
         12    1    1    2    0    0 -0.45029495838E+00 -0.82393057904E+00  0.71510436074E+00  0.11802548010E+01  0.00000000000E+00 0. -1.
         11    1    3    3    0    0  0.85759857607E+01 -0.36582876045E+02  0.75266388140E+00  0.37582187997E+02  0.51100000000E-03 0. -1.
        -11    1    3    3    0    0 -0.34268113168E+01 -0.42737364610E+01  0.77398492296E+01  0.94822531867E+01  0.51100000000E-03 0.  1.
        -12    1    3    3    0    0 -0.46988794856E+01  0.41680543085E+02 -0.92076174717E+01  0.42943304015E+02  0.00000000000E+00 0.  1.
</event>
<event>
 7    1  0.4639347E-015  0.9000774E+02  0.7816164E-02  0.1186339E+00
        -11   -1    0    0    0    0  0.00000000000E+00  0.00000000000E+00  0.45593999997E+02  0.45594000000E+02  0.51100000000E-03 0. -1.
         11   -1    0    0    0    0 -0.00000000000E+00 -0.00000000000E+00 -0.45593999997E+02  0.45594000000E+02  0.51100000000E-03 0.  1.
    9900012    2    1    2    0    0 -0.11723829506E+01 -0.73340429223E-01  0.11471592660E+00  0.90007737171E+02  0.89999998502E+02 0.  0.
         12    1    1    2    0    0  0.11723829506E+01  0.73340429223E-01 -0.11471592660E+00  0.11802628289E+01  0.00000000000E+00 0. -1.
         11    1    3    3    0    0  0.29531269388E+00 -0.44967774920E+01 -0.10406847845E+02  0.11340665753E+02  0.51100000000E-03 0. -1.
        -11    1    3    3    0    0  0.22397596460E+02  0.26582901896E+02 -0.14433803223E+02  0.37638247517E+02  0.51100000000E-03 0.  1.
         12    1    3    3    0    0 -0.23865292105E+02 -0.22159464833E+02  0.24955366994E+02  0.41028823901E+02  0.00000000000E+00 0. -1.
</event>
<event>
 7    1  0.4639347E-015  0.9000774E+02  0.7816164E-02  0.1186339E+00
        -11   -1    0    0    0    0  0.00000000000E+00  0.00000000000E+00  0.45593999997E+02  0.45594000000E+02  0.51100000000E-03 0.  1.
         11   -1    0    0    0    0 -0.00000000000E+00 -0.00000000000E+00 -0.45593999997E+02  0.45594000000E+02  0.51100000000E-03 0. -1.
    9900012    2    1    2    0    0 -0.72628421847E+00 -0.98955030146E-01  0.92506057427E+00  0.90007738194E+02  0.89999999538E+02 0.  0.
         12    1    1    2    0    0  0.72628421847E+00  0.98955030146E-01 -0.92506057427E+00  0.11802618057E+01  0.00000000000E+00 0. -1.
         11    1    3    3    0    0 -0.11191193146E+02 -0.24992489122E+02 -0.32516452048E+02  0.42511021755E+02  0.51100000000E-03 0. -1.
        -11    1    3    3    0    0  0.68139568237E+01  0.46612695694E+00  0.12851919357E+01  0.69497482334E+01  0.51100000000E-03 0.  1.
        -12    1    3    3    0    0  0.36509521040E+01  0.24427407135E+02  0.32156320687E+02  0.40546968206E+02  0.00000000000E+00 0.  1.
</event>
<event>
 7    1  0.4639347E-015  0.9000769E+02  0.7816164E-02  0.1186339E+00
        -11   -1    0    0    0    0  0.00000000000E+00  0.00000000000E+00  0.45593999997E+02  0.45594000000E+02  0.51100000000E-03 0. -1.
         11   -1    0    0    0    0 -0.00000000000E+00 -0.00000000000E+00 -0.45593999997E+02  0.45594000000E+02  0.51100000000E-03 0.  1.
    9900012    2    1    2    0    0 -0.35647079183E+00 -0.25961270071E+00 -0.10948293377E+01  0.90007694337E+02  0.89999955102E+02 0.  0.
         12    1    1    2    0    0  0.35647079183E+00  0.25961270071E+00  0.10948293377E+01  0.11803056632E+01  0.00000000000E+00 0. -1.
         11    1    3    3    0    0 -0.95497156971E+01  0.35982822810E+02  0.46873866242E+01  0.37522422642E+02  0.51100000000E-03 0. -1.
        -11    1    3    3    0    0  0.16298199296E+02 -0.39352300266E+01  0.53237348716E+01  0.17591460681E+02  0.51100000000E-03 0.  1.
         12    1    3    3    0    0 -0.71049543910E+01 -0.32307205485E+02 -0.11105950833E+02  0.34893811013E+02  0.00000000000E+00 0. -1.
</event>
<event>
 7    1  0.4639347E-015  0.9000765E+02  0.7816164E-02  0.1186339E+00
        -11   -1    0    0    0    0  0.00000000000E+00  0.00000000000E+00  0.45593999997E+02  0.45594000000E+02  0.51100000000E-03 0.  1.
         11   -1    0    0    0    0 -0.00000000000E+00 -0.00000000000E+00 -0.45593999997E+02  0.45594000000E+02  0.51100000000E-03 0. -1.
    9900012    2    1    2    0    0 -0.10639391018E+01  0.45409978282E+00 -0.23463902984E+00  0.90007648993E+02  0.89999909160E+02 0.  0.
         12    1    1    2    0    0  0.10639391018E+01 -0.45409978282E+00  0.23463902984E+00  0.11803510069E+01  0.00000000000E+00 0. -1.
         11    1    3    3    0    0 -0.37157291273E+02  0.12057318736E+01  0.23848128817E+01  0.37253260486E+02  0.51100000000E-03 0. -1.
        -11    1    3    3    0    0 -0.66950640841E+01 -0.40800761551E+01  0.48102833892E+01  0.91983548022E+01  0.51100000000E-03 0.  1.
        -12    1    3    3    0    0  0.42788416255E+02  0.33284440643E+01 -0.74297353008E+01  0.43556033705E+02  0.00000000000E+00 0.  1.
</event>
<event>
 7    1  0.4639347E-015  0.9000772E+02  0.7816164E-02  0.1186339E+00
        -11   -1    0    0    0    0  0.00000000000E+00  0.00000000000E+00  0.45593999997E+02  0.45594000000E+02  0.51100000000E-03 0.  1.
         11   -1    0    0    0    0 -0.00000000000E+00 -0.00000000000E+00 -0.45593999997E+02  0.45594000000E+02  0.51100000000E-03 0. -1.
    9900012    2    1    2    0    0 -0.98294626601E+00  0.63747426325E+00 -0.14321602588E+00  0.90007717141E+02  0.89999978207E+02 0.  0.
         12    1    1    2    0    0  0.98294626601E+00 -0.63747426325E+00  0.14321602588E+00  0.11802828594E+01  0.00000000000E+00 0. -1.
         11    1    3    3    0    0 -0.28463395771E+01  0.57441718831E+01 -0.68888914983E+01  0.94103127444E+01  0.51100000000E-03 0. -1.
        -11    1    3    3    0    0  0.39132203050E+02 -0.14581338337E+02  0.55176919853E+01  0.42123504938E+02  0.51100000000E-03 0.  1.
         12    1    3    3    0    0 -0.37268809738E+02  0.94746407167E+01  0.12279834871E+01  0.38473899458E+02  0.00000000000E+00 0. -1.
</event>
<event>
 7    1  0.4639347E-015  0.9000779E+02  0.7816164E-02  0.1186339E+00
        -11   -1    0    0    0    0  0.00000000000E+00  0.00000000000E+00  0.45593999997E+02  0.45594000000E+02  0.51100000000E-03 0.  1.
         11   -1    0    0    0    0 -0.00000000000E+00 -0.00000000000E+00 -0.45593999997E+02  0.45594000000E+02  0.51100000000E-03 0. -1.
    9900012    2    1    2    0    0 -0.51181579914E+00 -0.53024634128E+00  0.92182928463E+00  0.90007794160E+02  0.90000056243E+02 0.  0.
         12    1    1    2    0    0  0.51181579914E+00  0.53024634128E+00 -0.92182928463E+00  0.11802058400E+01  0.00000000000E+00 0. -1.
         11    1    3    3    0    0 -0.10345810918E+02  0.42973686466E+01 -0.34030454465E+02  0.35827015117E+02  0.51100000000E-03 0. -1.
        -11    1    3    3    0    0  0.36650807184E+01  0.31461252729E+00 -0.88837002268E+01  0.96151925459E+01  0.51100000000E-03 0.  1.
        -12    1    3    3    0    0  0.61689144003E+01 -0.51422275151E+01  0.43835983976E+02  0.44565586497E+02  0.00000000000E+00 0.  1.
</event>
<event>
 7    1  0.4639347E-015  0.9000772E+02  0.7816164E-02  0.1186339E+00
        -11   -1    0    0    0    0  0.00000000000E+00  0.00000000000E+00  0.45593999997E+02  0.45594000000E+02  0.51100000000E-03 0.  1.
         11   -1    0    0    0    0 -0.00000000000E+00 -0.00000000000E+00 -0.45593999997E+02  0.45594000000E+02  0.51100000000E-03 0. -1.
    9900012    2    1    2    0    0  0.77782990834E+00  0.10053417186E-01  0.88766129510E+00  0.90007719096E+02  0.89999980188E+02 0.  0.
         12    1    1    2    0    0 -0.77782990834E+00 -0.10053417186E-01 -0.88766129510E+00  0.11802809040E+01  0.00000000000E+00 0. -1.
         11    1    3    3    0    0 -0.14642038071E+02  0.10306595702E+01  0.44850323244E+01  0.15348193811E+02  0.51100000000E-03 0. -1.
        -11    1    3    3    0    0 -0.25120859955E+02 -0.17452211361E+02 -0.44310041752E+01  0.30907460015E+02  0.51100000000E-03 0.  1.
         12    1    3    3    0    0  0.40540727935E+02  0.16431605208E+02  0.83363314587E+00  0.43752065271E+02  0.00000000000E+00 0. -1.
</event>
<event>
 7    1  0.4639347E-015  0.9000767E+02  0.7816164E-02  0.1186339E+00
        -11   -1    0    0    0    0  0.00000000000E+00  0.00000000000E+00  0.45593999997E+02  0.45594000000E+02  0.51100000000E-03 0. -1.
         11   -1    0    0    0    0 -0.00000000000E+00 -0.00000000000E+00 -0.45593999997E+02  0.45594000000E+02  0.51100000000E-03 0.  1.
    9900012    2    1    2    0    0  0.69471821704E+00 -0.65404588815E+00  0.69482277908E+00  0.90007666098E+02  0.89999926491E+02 0.  0.
         12    1    1    2    0    0 -0.69471821704E+00  0.65404588815E+00 -0.69482277908E+00  0.11803339016E+01  0.00000000000E+00 0. -1.
         11    1    3    3    0    0 -0.70192574902E+01 -0.64276473644E+01  0.40184330534E+02  0.41296065758E+02  0.51100000000E-03 0. -1.
        -11    1    3    3    0    0  0.70160802934E+01  0.54456419279E+01  0.32713969454E+00  0.88874866712E+01  0.51100000000E-03 0.  1.
        -12    1    3    3    0    0  0.69789541381E+00  0.32795954832E+00 -0.39816647449E+02  0.39824113670E+02  0.00000000000E+00 0.  1.
</event>
<event>
 7    1  0.4639347E-015  0.9000831E+02  0.7816164E-02  0.1186338E+00
        -11   -1    0    0    0    0  0.00000000000E+00  0.00000000000E+00  0.45593999997E+02  0.45594000000E+02  0.51100000000E-03 0. -1.
         11   -1    0    0    0    0 -0.00000000000E+00 -0.00000000000E+00 -0.45593999997E+02  0.45594000000E+02  0.51100000000E-03 0.  1.
    9900012    2    1    2    0    0  0.47704982279E+00 -0.10707607557E+01  0.13254583142E+00  0.90008307868E+02  0.90000576730E+02 0.  0.
         12    1    1    2    0    0 -0.47704982279E+00  0.10707607557E+01 -0.13254583142E+00  0.11796921322E+01  0.00000000000E+00 0. -1.
         11    1    3    3    0    0  0.21308033688E+02  0.20990877415E+02  0.26079385756E+02  0.39683543138E+02  0.51100000000E-03 0. -1.
        -11    1    3    3    0    0  0.42121463308E+01 -0.91881333374E+01  0.23795438939E+01  0.10383939539E+02  0.51100000000E-03 0.  1.
        -12    1    3    3    0    0 -0.25043130196E+02 -0.12873504833E+02 -0.28326383819E+02  0.39940825191E+02  0.00000000000E+00 0.  1.
</event>
<event>
 7    1  0.4639347E-015  0.9000807E+02  0.7816164E-02  0.1186338E+00
        -11   -1    0    0    0    0  0.00000000000E+00  0.00000000000E+00  0.45593999997E+02  0.45594000000E+02  0.51100000000E-03 0.  1.
         11   -1    0    0    0    0 -0.00000000000E+00 -0.00000000000E+00 -0.45593999997E+02  0.45594000000E+02  0.51100000000E-03 0. -1.
    9900012    2    1    2    0    0  0.11360445418E+01  0.36046799127E-01  0.31674830258E+00  0.90008073706E+02  0.90000339478E+02 0.  0.
         12    1    1    2    0    0 -0.11360445418E+01 -0.36046799127E-01 -0.31674830258E+00  0.11799262942E+01  0.00000000000E+00 0. -1.
         11    1    3    3    0    0 -0.70902994754E+01 -0.16307414612E+01 -0.68918559318E+01  0.10021444148E+02  0.51100000000E-03 0. -1.
        -11    1    3    3    0    0 -0.29548544924E+01  0.33546387356E+02 -0.17670478361E+02  0.38030738560E+02  0.51100000000E-03 0.  1.
         12    1    3    3    0    0  0.11181198510E+02 -0.31879599095E+02  0.24879082596E+02  0.41955890997E+02  0.00000000000E+00 0. -1.
</event>
<event>
 7    1  0.4639347E-015  0.9000772E+02  0.7816164E-02  0.1186339E+00
        -11   -1    0    0    0    0  0.00000000000E+00  0.00000000000E+00  0.45593999997E+02  0.45594000000E+02  0.51100000000E-03 0. -1.
         11   -1    0    0    0    0 -0.00000000000E+00 -0.00000000000E+00 -0.45593999997E+02  0.45594000000E+02  0.51100000000E-03 0.  1.
    9900012    2    1    2    0    0 -0.53234567898E+00 -0.61456284344E+00 -0.85555274487E+00  0.90007724647E+02  0.89999985812E+02 0.  0.
         12    1    1    2    0    0  0.53234567898E+00  0.61456284344E+00  0.85555274487E+00  0.11802753533E+01  0.00000000000E+00 0. -1.
         11    1    3    3    0    0  0.51153303880E+01  0.20690864997E+01 -0.36594976065E+02  0.37008647603E+02  0.51100000000E-03 0. -1.
        -11    1    3    3    0    0 -0.19067334523E+01  0.91554471462E+01 -0.48629759632E+01  0.10540701133E+02  0.51100000000E-03 0.  1.
         12    1    3    3    0    0 -0.37409426147E+01 -0.11839096489E+02  0.40602399284E+02  0.42458375910E+02  0.00000000000E+00 0. -1.
</event>
<event>
 7    1  0.4639347E-015  0.9000751E+02  0.7816164E-02  0.1186340E+00
        -11   -1    0    0    0    0  0.00000000000E+00  0.00000000000E+00  0.45593999997E+02  0.45594000000E+02  0.51100000000E-03 0.  1.
         11   -1    0    0    0    0 -0.00000000000E+00 -0.00000000000E+00 -0.45593999997E+02  0.45594000000E+02  0.51100000000E-03 0. -1.
    9900012    2    1    2    0    0  0.86996722793E+00 -0.70504004441E+00  0.37368270523E+00  0.90007507219E+02  0.89999765514E+02 0.  0.
         12    1    1    2    0    0 -0.86996722793E+00  0.70504004441E+00 -0.37368270523E+00  0.11804927810E+01  0.00000000000E+00 0. -1.
         11    1    3    3    0    0  0.26493073595E+02  0.27393870870E+02 -0.17678911159E+02  0.42010129847E+02  0.51100000000E-03 0. -1.
        -11    1    3    3    0    0  0.38157380153E+01 -0.54561586812E+01  0.59680458384E+01  0.89413139720E+01  0.51100000000E-03 0.  1.
        -12    1    3    3    0    0 -0.29438844382E+02 -0.22642752234E+02  0.12084548026E+02  0.39056063399E+02  0.00000000000E+00 0.  1.
</event>
<event>
 7    1  0.4639347E-015  0.9000774E+02  0.7816164E-02  0.1186339E+00
        -11   -1    0    0    0    0  0.00000000000E+00  0.00000000000E+00  0.45593999997E+02  0.45594000000E+02  0.51100000000E-03 0.  1.
         11   -1    0    0    0    0 -0.00000000000E+00 -0.00000000000E+00 -0.45593999997E+02  0.45594000000E+02  0.51100000000E-03 0. -1.
    9900012    2    1    2    0    0  0.10673865746E+01  0.54508350449E-02  0.50365867171E+00  0.90007739068E+02  0.90000000423E+02 0.  0.
         12    1    1    2    0    0 -0.10673865746E+01 -0.54508350449E-02 -0.50365867171E+00  0.11802609325E+01  0.00000000000E+00 0. -1.
         11    1    3    3    0    0 -0.19882354603E+02  0.31429090961E+02  0.19101344775E+02  0.41808577537E+02  0.51100000000E-03 0. -1.
        -11    1    3    3    0    0 -0.40378065255E+01 -0.85322867264E+01  0.21028310272E+00  0.94418227882E+01  0.51100000000E-03 0.  1.
        -12    1    3    3    0    0  0.24987547704E+02 -0.22891353399E+02 -0.18807969206E+02  0.38757338742E+02  0.00000000000E+00 0.  1.
</event>
<event>
 7    1  0.4639347E-015  0.9000817E+02  0.7816164E-02  0.1186338E+00
        -11   -1    0    0    0    0  0.00000000000E+00  0.00000000000E+00  0.45593999997E+02  0.45594000000E+02  0.51100000000E-03 0.  1.
         11   -1    0    0    0    0 -0.00000000000E+00 -0.00000000000E+00 -0.45593999997E+02  0.45594000000E+02  0.51100000000E-03 0. -1.
    9900012    2    1    2    0    0  0.71212134410E+00 -0.66026212319E+00  0.67003388996E+00  0.90008165989E+02  0.90000432979E+02 0.  0.
         12    1    1    2    0    0 -0.71212134410E+00  0.66026212319E+00 -0.67003388996E+00  0.11798340111E+01  0.00000000000E+00 0. -1.
         11    1    3    3    0    0  0.10028221589E+02 -0.24022050227E+02 -0.21089908012E+02  0.33502363283E+02  0.51100000000E-03 0. -1.
        -11    1    3    3    0    0  0.43270924855E+00 -0.13038672863E+02  0.11060456361E+00  0.13046319825E+02  0.51100000000E-03 0.  1.
         12    1    3    3    0    0 -0.97488094933E+01  0.36400460967E+02  0.21649337338E+02  0.43459482881E+02  0.00000000000E+00 0. -1.
</event>
<event>
 7    1  0.4639347E-015  0.9000769E+02  0.7816164E-02  0.1186339E+00
        -11   -1    0    0    0    0  0.00000000000E+00  0.00000000000E+00  0.45593999997E+02  0.45594000000E+02  0.51100000000E-03 0. -1.
         11   -1    0    0    0    0 -0.00000000000E+00 -0.00000000000E+00 -0.45593999997E+02  0.45594000000E+02  0.51100000000E-03 0.  1.
    9900012    2    1    2    0    0  0.60855652841E+00  0.90278869752E+00 -0.45581672665E+00  0.90007687597E+02  0.89999948273E+02 0.  0.
         12    1    1    2    0    0 -0.60855652841E+00 -0.90278869752E+00  0.45581672665E+00  0.11803124031E+01  0.00000000000E+00 0. -1.
         11    1    3    3    0    0 -0.37336362255E+01  0.10700844240E+02 -0.76353152159E+00  0.11359185162E+02  0.51100000000E-03 0. -1.
        -11    1    3    3    0    0 -0.27776286054E+02 -0.44808000085E+01 -0.24823931342E+02  0.37521023483E+02  0.51100000000E-03 0.  1.
         12    1    3    3    0    0  0.32118478808E+02 -0.53172555338E+01  0.25131646137E+02  0.41127478951E+02  0.00000000000E+00 0. -1.
</event>
<event>
 7    1  0.4639347E-015  0.9000767E+02  0.7816164E-02  0.1186339E+00
        -11   -1    0    0    0    0  0.00000000000E+00  0.00000000000E+00  0.45593999997E+02  0.45594000000E+02  0.51100000000E-03 0.  1.
         11   -1    0    0    0    0 -0.00000000000E+00 -0.00000000000E+00 -0.45593999997E+02  0.45594000000E+02  0.51100000000E-03 0. -1.
    9900012    2    1    2    0    0 -0.47935367087E+00  0.61148165340E+00 -0.88853661980E+00  0.90007666539E+02  0.89999926937E+02 0.  0.
         12    1    1    2    0    0  0.47935367087E+00 -0.61148165340E+00  0.88853661980E+00  0.11803334609E+01  0.00000000000E+00 0. -1.
         11    1    3    3    0    0 -0.15158389442E+02 -0.38163478038E+02  0.79044482546E+00  0.41071311517E+02  0.51100000000E-03 0. -1.
        -11    1    3    3    0    0  0.49813315765E+01  0.64521295352E+00 -0.76404086227E+01  0.91436211762E+01  0.51100000000E-03 0.  1.
        -12    1    3    3    0    0  0.96977041943E+01  0.38129746738E+02  0.59614271775E+01  0.39792733846E+02  0.00000000000E+00 0.  1.
</event>
<event>
 7    1  0.4639347E-015  0.9000771E+02  0.7816164E-02  0.1186339E+00
        -11   -1    0    0    0    0  0.00000000000E+00  0.00000000000E+00  0.45593999997E+02  0.45594000000E+02  0.51100000000E-03 0. -1.
         11   -1    0    0    0    0 -0.00000000000E+00 -0.00000000000E+00 -0.45593999997E+02  0.45594000000E+02  0.51100000000E-03 0.  1.
    9900012    2    1    2    0    0  0.17862172355E+00 -0.11302467564E+01  0.28936145238E+00  0.90007706180E+02  0.89999967102E+02 0.  0.
         12    1    1    2    0    0 -0.17862172355E+00  0.11302467564E+01 -0.28936145238E+00  0.11802938196E+01  0.00000000000E+00 0. -1.
         11    1    3    3    0    0  0.38128790739E+02  0.10275980497E+02  0.41862180274E+01  0.39710513470E+02  0.51100000000E-03 0. -1.
        -11    1    3    3    0    0 -0.20369861044E+01  0.68181882720E+01 -0.69009947209E+01  0.99126551489E+01  0.51100000000E-03 0.  1.
        -12    1    3    3    0    0 -0.35913182911E+02 -0.18224415525E+02  0.30041381458E+01  0.40384537562E+02  0.00000000000E+00 0.  1.
</event>
<event>
 7    1  0.4639347E-015  0.9000769E+02  0.7816164E-02  0.1186339E+00
        -11   -1    0    0    0    0  0.00000000000E+00  0.00000000000E+00  0.45593999997E+02  0.45594000000E+02  0.51100000000E-03 0. -1.
         11   -1    0    0    0    0 -0.00000000000E+00 -0.00000000000E+00 -0.45593999997E+02  0.45594000000E+02  0.51100000000E-03 0.  1.
    9900012    2    1    2    0    0  0.87679989888E+00 -0.60555241621E+00  0.50759814128E+00  0.90007691708E+02  0.89999952438E+02 0.  0.
         12    1    1    2    0    0 -0.87679989888E+00  0.60555241621E+00 -0.50759814128E+00  0.11803082921E+01  0.00000000000E+00 0. -1.
         11    1    3    3    0    0  0.73695427844E+01 -0.27127433874E+00 -0.18810600335E+01  0.76106594805E+01  0.51100000000E-03 0. -1.
        -11    1    3    3    0    0  0.16965994154E+02 -0.12572597640E+02 -0.32409573509E+02  0.38681980615E+02  0.51100000000E-03 0.  1.
         12    1    3    3    0    0 -0.23458737039E+02  0.12238319562E+02  0.34798231683E+02  0.43715051612E+02  0.00000000000E+00 0. -1.
</event>
<event>
 7    1  0.8595507E-015  0.9000679E+02  0.7816164E-02  0.1186341E+00
        -11   -1    0    0    0    0  0.00000000000E+00  0.00000000000E+00  0.45593999997E+02  0.45594000000E+02  0.51100000000E-03 0. -1.
         11   -1    0    0    0    0 -0.00000000000E+00 -0.00000000000E+00 -0.45593999997E+02  0.45594000000E+02  0.51100000000E-03 0.  1.
    9900012    2    1    2    0    0 -0.53821421606E+00 -0.74191034973E+00 -0.74507999356E+00  0.90006793115E+02  0.89999041979E+02 0.  0.
         12    1    1    2    0    0  0.53821421606E+00  0.74191034973E+00  0.74507999356E+00  0.11812068854E+01  0.00000000000E+00 0. -1.
         11    1    3    3    0    0 -0.56531621833E+01  0.63711753983E+01 -0.44465465205E+01  0.96084283234E+01  0.51100000000E-03 0. -1.
        -11    1    3    3    0    0 -0.16936293115E+02 -0.47813213066E+01 -0.33068561268E+02  0.37459695707E+02  0.51100000000E-03 0.  1.
         12    1    3    3    0    0  0.22051241082E+02 -0.23317644414E+01  0.36770027794E+02  0.42938669084E+02  0.00000000000E+00 0. -1.
</event>
<event>
 7    1  0.4639347E-015  0.9000782E+02  0.7816164E-02  0.1186339E+00
        -11   -1    0    0    0    0  0.00000000000E+00  0.00000000000E+00  0.45593999997E+02  0.45594000000E+02  0.51100000000E-03 0.  1.
         11   -1    0    0    0    0 -0.00000000000E+00 -0.00000000000E+00 -0.45593999997E+02  0.45594000000E+02  0.51100000000E-03 0. -1.
    9900012    2    1    2    0    0 -0.84311464349E+00 -0.71612526949E+00 -0.41126506223E+00  0.90007823464E+02  0.90000085934E+02 0.  0.
         12    1    1    2    0    0  0.84311464349E+00  0.71612526949E+00  0.41126506223E+00  0.11801765356E+01  0.00000000000E+00 0. -1.
         11    1    3    3    0    0 -0.46054543880E+01 -0.10488562412E+02  0.19716220144E+02  0.22802400940E+02  0.51100000000E-03 0. -1.
        -11    1    3    3    0    0 -0.79526850221E+01  0.34942028498E+02 -0.70730618643E+01  0.36526959345E+02  0.51100000000E-03 0.  1.
         12    1    3    3    0    0  0.11715024767E+02 -0.25169591355E+02 -0.13054423342E+02  0.30678463180E+02  0.00000000000E+00 0. -1.
</event>
<event>
 7    1  0.4639347E-015  0.9000675E+02  0.7816164E-02  0.1186341E+00
        -11   -1    0    0    0    0  0.00000000000E+00  0.00000000000E+00  0.45593999997E+02  0.45594000000E+02  0.51100000000E-03 0.  1.
         11   -1    0    0    0    0 -0.00000000000E+00 -0.00000000000E+00 -0.45593999997E+02  0.45594000000E+02  0.51100000000E-03 0. -1.
    9900012    2    1    2    0    0 -0.84782655948E+00  0.78705443466E+00  0.23890470146E+00  0.90006754888E+02  0.89999003247E+02 0.  0.
         12    1    1    2    0    0  0.84782655948E+00 -0.78705443466E+00 -0.23890470146E+00  0.11812451119E+01  0.00000000000E+00 0. -1.
         11    1    3    3    0    0  0.13215066146E+02  0.22091466748E+02  0.25423946658E+02  0.36180767546E+02  0.51100000000E-03 0. -1.
        -11    1    3    3    0    0 -0.46086119249E+00  0.24926804571E+01  0.93773324849E+01  0.97139185550E+01  0.51100000000E-03 0.  1.
        -12    1    3    3    0    0 -0.13602031513E+02 -0.23797092770E+02 -0.34562374442E+02  0.44112068787E+02  0.00000000000E+00 0.  1.
</event>
<event>
 7    1  0.4639347E-015  0.9000772E+02  0.7816164E-02  0.1186339E+00
        -11   -1    0    0    0    0  0.00000000000E+00  0.00000000000E+00  0.45593999997E+02  0.45594000000E+02  0.51100000000E-03 0.  1.
         11   -1    0    0    0    0 -0.00000000000E+00 -0.00000000000E+00 -0.45593999997E+02  0.45594000000E+02  0.51100000000E-03 0. -1.
    9900012    2    1    2    0    0  0.90332223609E+00 -0.18848435983E+00  0.73588836969E+00  0.90007724986E+02  0.89999986156E+02 0.  0.
         12    1    1    2    0    0 -0.90332223609E+00  0.18848435983E+00 -0.73588836969E+00  0.11802750140E+01  0.00000000000E+00 0. -1.
         11    1    3    3    0    0  0.17391830498E+01 -0.60749285201E+01  0.68903556826E+01  0.93491451962E+01  0.51100000000E-03 0. -1.
        -11    1    3    3    0    0 -0.11312541472E+02 -0.35743194755E+02 -0.33211531996E+01  0.37637476332E+02  0.51100000000E-03 0.  1.
         12    1    3    3    0    0  0.10476680659E+02  0.41629638915E+02 -0.28333141134E+01  0.43021103457E+02  0.00000000000E+00 0. -1.
</event>
<event>
 7    1  0.4639347E-015  0.9000798E+02  0.7816164E-02  0.1186339E+00
        -11   -1    0    0    0    0  0.00000000000E+00  0.00000000000E+00  0.45593999997E+02  0.45594000000E+02  0.51100000000E-03 0.  1.
         11   -1    0    0    0    0 -0.00000000000E+00 -0.00000000000E+00 -0.45593999997E+02  0.45594000000E+02  0.51100000000E-03 0. -1.
    9900012    2    1    2    0    0 -0.23250653136E+00  0.10450572144E+01  0.49623053721E+00  0.90007979401E+02  0.90000243929E+02 0.  0.
         12    1    1    2    0    0  0.23250653136E+00 -0.10450572144E+01 -0.49623053721E+00  0.11800205992E+01  0.00000000000E+00 0. -1.
         11    1    3    3    0    0  0.82977267674E+00  0.99635263515E+01  0.24136027541E+01  0.10285225256E+02  0.51100000000E-03 0. -1.
        -11    1    3    3    0    0 -0.16493436047E+00  0.21710692696E+02  0.28977657235E+02  0.36208921549E+02  0.51100000000E-03 0.  1.
         12    1    3    3    0    0 -0.89734484763E+00 -0.30629161833E+02 -0.30895029452E+02  0.43513832596E+02  0.00000000000E+00 0. -1.
</event>
<event>
 7    1  0.4639347E-015  0.9000797E+02  0.7816164E-02  0.1186339E+00
        -11   -1    0    0    0    0  0.00000000000E+00  0.00000000000E+00  0.45593999997E+02  0.45594000000E+02  0.51100000000E-03 0. -1.
         11   -1    0    0    0    0 -0.00000000000E+00 -0.00000000000E+00 -0.45593999997E+02  0.45594000000E+02  0.51100000000E-03 0.  1.
    9900012    2    1    2    0    0  0.14595524903E+00 -0.86552371666E+00  0.78868890687E+00  0.90007972699E+02  0.90000237139E+02 0.  0.
         12    1    1    2    0    0 -0.14595524903E+00  0.86552371666E+00 -0.78868890687E+00  0.11800273008E+01  0.00000000000E+00 0. -1.
         11    1    3    3    0    0 -0.10702152138E+02  0.17582644121E+01 -0.18653750632E+01  0.11004870672E+02  0.51100000000E-03 0. -1.
        -11    1    3    3    0    0 -0.67546310486E+01  0.25538467101E+02 -0.24557275037E+02  0.36067965010E+02  0.51100000000E-03 0.  1.
         12    1    3    3    0    0  0.17602738435E+02 -0.28162255230E+02  0.27211339007E+02  0.42935137017E+02  0.00000000000E+00 0. -1.
</event>
<event>
 7    1  0.4639347E-015  0.9000771E+02  0.7816164E-02  0.1186339E+00
        -11   -1    0    0    0    0  0.00000000000E+00  0.00000000000E+00  0.45593999997E+02  0.45594000000E+02  0.51100000000E-03 0.  1.
         11   -1    0    0    0    0 -0.00000000000E+00 -0.00000000000E+00 -0.45593999997E+02  0.45594000000E+02  0.51100000000E-03 0. -1.
    9900012    2    1    2    0    0  0.89619134417E+00 -0.36805203330E+00  0.67414495424E+00  0.90007706543E+02  0.89999967470E+02 0.  0.
         12    1    1    2    0    0 -0.89619134417E+00  0.36805203330E+00 -0.67414495424E+00  0.11802934567E+01  0.00000000000E+00 0. -1.
         11    1    3    3    0    0  0.75755163521E+01 -0.20857803638E+00 -0.45452031730E+01  0.88369013202E+01  0.51100000000E-03 0. -1.
        -11    1    3    3    0    0  0.27912476043E+02 -0.25152109346E+02  0.79603703824E+01  0.38407062115E+02  0.51100000000E-03 0.  1.
         12    1    3    3    0    0 -0.34591801051E+02  0.24992635349E+02 -0.27410222552E+01  0.42763743108E+02  0.00000000000E+00 0. -1.
</event>
<event>
 7    1  0.4639347E-015  0.9000774E+02  0.7816164E-02  0.1186339E+00
        -11   -1    0    0    0    0  0.00000000000E+00  0.00000000000E+00  0.45593999997E+02  0.45594000000E+02  0.51100000000E-03 0.  1.
         11   -1    0    0    0    0 -0.00000000000E+00 -0.00000000000E+00 -0.45593999997E+02  0.45594000000E+02  0.51100000000E-03 0. -1.
    9900012    2    1    2    0    0  0.77920782882E-01  0.11409179537E+01  0.29195923143E+00  0.90007743410E+02  0.90000004823E+02 0.  0.
         12    1    1    2    0    0 -0.77920782882E-01 -0.11409179537E+01 -0.29195923143E+00  0.11802565901E+01  0.00000000000E+00 0. -1.
         11    1    3    3    0    0 -0.80829098964E+01  0.78545831522E+01  0.22000974516E+01  0.11483394008E+02  0.51100000000E-03 0. -1.
        -11    1    3    3    0    0 -0.29250831112E+01  0.22315980098E+02  0.27639787163E+02  0.35644311097E+02  0.51100000000E-03 0.  1.
         12    1    3    3    0    0  0.11085913791E+02 -0.29029645296E+02 -0.29547925383E+02  0.42880038305E+02  0.00000000000E+00 0. -1.
</event>
<event>
 7    1  0.4639347E-015  0.9000757E+02  0.7816164E-02  0.1186339E+00
        -11   -1    0    0    0    0  0.00000000000E+00  0.00000000000E+00  0.45593999997E+02  0.45594000000E+02  0.51100000000E-03 0.  1.
         11   -1    0    0    0    0 -0.00000000000E+00 -0.00000000000E+00 -0.45593999997E+02  0.45594000000E+02  0.51100000000E-03 0. -1.
    9900012    2    1    2    0    0  0.26516256815E+00  0.96794890298E+00  0.62142811440E+00  0.90007572464E+02  0.89999831620E+02 0.  0.
         12    1    1    2    0    0 -0.26516256815E+00 -0.96794890298E+00 -0.62142811440E+00  0.11804275360E+01  0.00000000000E+00 0. -1.
         11    1    3    3    0    0  0.25050857672E+02  0.25041700241E+02 -0.15790019127E+02  0.38780883504E+02  0.51100000000E-03 0. -1.
        -11    1    3    3    0    0 -0.69249716604E+01  0.58803364573E+01 -0.49338691739E+01  0.10338116590E+02  0.51100000000E-03 0.  1.
        -12    1    3    3    0    0 -0.17860723443E+02 -0.29954087795E+02  0.21345316416E+02  0.40888572370E+02  0.00000000000E+00 0.  1.
</event>
<event>
 7    1  0.4639347E-015  0.9000761E+02  0.7816164E-02  0.1186339E+00
        -11   -1    0    0    0    0  0.00000000000E+00  0.00000000000E+00  0.45593999997E+02  0.45594000000E+02  0.51100000000E-03 0.  1.
         11   -1    0    0    0    0 -0.00000000000E+00 -0.00000000000E+00 -0.45593999997E+02  0.45594000000E+02  0.51100000000E-03 0. -1.
    9900012    2    1    2    0    0 -0.77267233138E+00  0.53855735582E+00  0.71150806074E+00  0.90007614352E+02  0.89999874061E+02 0.  0.
         12    1    1    2    0    0  0.77267233138E+00 -0.53855735582E+00 -0.71150806074E+00  0.11803856479E+01  0.00000000000E+00 0. -1.
         11    1    3    3    0    0  0.58538930284E+01 -0.27477290506E+01 -0.86040273292E+01  0.10763241383E+02  0.51100000000E-03 0. -1.
        -11    1    3    3    0    0  0.18102489813E+02 -0.18324134901E+02  0.30684904266E+02  0.40062918109E+02  0.51100000000E-03 0.  1.
         12    1    3    3    0    0 -0.24729055173E+02  0.21610421308E+02 -0.21369368876E+02  0.39181454861E+02  0.00000000000E+00 0. -1.
</event>
<event>
 7    1  0.4639347E-015  0.9000762E+02  0.7816164E-02  0.1186339E+00
        -11   -1    0    0    0    0  0.00000000000E+00  0.00000000000E+00  0.45593999997E+02  0.45594000000E+02  0.51100000000E-03 0. -1.
         11   -1    0    0    0    0 -0.00000000000E+00 -0.00000000000E+00 -0.45593999997E+02  0.45594000000E+02  0.51100000000E-03 0.  1.
    9900012    2    1    2    0    0  0.25282385889E+00 -0.90015084024E+00 -0.72048792464E+00  0.90007621125E+02  0.89999880924E+02 0.  0.
         12    1    1    2    0    0 -0.25282385889E+00  0.90015084024E+00  0.72048792464E+00  0.11803788749E+01  0.00000000000E+00 0. -1.
         11    1    3    3    0    0 -0.24619005708E+01 -0.33240716390E+02  0.21371313886E+02  0.39594686993E+02  0.51100000000E-03 0. -1.
        -11    1    3    3    0    0  0.32230195550E+01  0.26179444952E+01  0.74337602011E+01  0.85148270341E+01  0.51100000000E-03 0.  1.
        -12    1    3    3    0    0 -0.50829512536E+00  0.29722621055E+02 -0.29525562012E+02  0.41898107098E+02  0.00000000000E+00 0.  1.
</event>
<event>
 7    1  0.4639347E-015  0.9000767E+02  0.7816164E-02  0.1186339E+00
        -11   -1    0    0    0    0  0.00000000000E+00  0.00000000000E+00  0.45593999997E+02  0.45594000000E+02  0.51100000000E-03 0.  1.
         11   -1    0    0    0    0 -0.00000000000E+00 -0.00000000000E+00 -0.45593999997E+02  0.45594000000E+02  0.51100000000E-03 0. -1.
    9900012    2    1    2    0    0 -0.39833327668E+00  0.12762961703E+00  0.11037292661E+01  0.90007670804E+02  0.89999931258E+02 0.  0.
         12    1    1    2    0    0  0.39833327668E+00 -0.12762961703E+00 -0.11037292661E+01  0.11803291962E+01  0.00000000000E+00 0. -1.
         11    1    3    3    0    0 -0.73494477746E+01 -0.20153320671E+01  0.37931640613E+01  0.85125812648E+01  0.51100000000E-03 0. -1.
        -11    1    3    3    0    0 -0.19171327927E+02  0.22638381275E+02  0.24582936227E+02  0.38527352298E+02  0.51100000000E-03 0.  1.
         12    1    3    3    0    0  0.26122442425E+02 -0.20495419591E+02 -0.27272371023E+02  0.42967737242E+02  0.00000000000E+00 0. -1.
</event>
<event>
 7    1  0.4639347E-015  0.9000758E+02  0.7816164E-02  0.1186339E+00
        -11   -1    0    0    0    0  0.00000000000E+00  0.00000000000E+00  0.45593999997E+02  0.45594000000E+02  0.51100000000E-03 0. -1.
         11   -1    0    0    0    0 -0.00000000000E+00 -0.00000000000E+00 -0.45593999997E+02  0.45594000000E+02  0.51100000000E-03 0.  1.
    9900012    2    1    2    0    0  0.38175382395E+00 -0.55497205827E+00 -0.96935778546E+00  0.90007582920E+02  0.89999842214E+02 0.  0.
         12    1    1    2    0    0 -0.38175382395E+00  0.55497205827E+00  0.96935778546E+00  0.11804170804E+01  0.00000000000E+00 0. -1.
         11    1    3    3    0    0 -0.77013906665E+01  0.25412174404E+02  0.24375583469E+02  0.36045236798E+02  0.51100000000E-03 0. -1.
        -11    1    3    3    0    0 -0.71619835489E+01  0.27716238532E+01  0.52509986381E+01  0.93031658104E+01  0.51100000000E-03 0.  1.
        -12    1    3    3    0    0  0.15245128039E+02 -0.28738770315E+02 -0.30595939892E+02  0.44659180311E+02  0.00000000000E+00 0.  1.
</event>
<event>
 7    1  0.4639347E-015  0.9000773E+02  0.7816164E-02  0.1186339E+00
        -11   -1    0    0    0    0  0.00000000000E+00  0.00000000000E+00  0.45593999997E+02  0.45594000000E+02  0.51100000000E-03 0.  1.
         11   -1    0    0    0    0 -0.00000000000E+00 -0.00000000000E+00 -0.45593999997E+02  0.45594000000E+02  0.51100000000E-03 0. -1.
    9900012    2    1    2    0    0 -0.56645799153E+00  0.74697062260E+00  0.71707889649E+00  0.90007728035E+02  0.89999989245E+02 0.  0.
         12    1    1    2    0    0  0.56645799153E+00 -0.74697062260E+00 -0.71707889649E+00  0.11802719648E+01  0.00000000000E+00 0. -1.
         11    1    3    3    0    0 -0.26940254905E+02 -0.48520733260E+01 -0.18791655095E+02  0.33203106050E+02  0.51100000000E-03 0. -1.
        -11    1    3    3    0    0 -0.12259441082E+02  0.79656531933E+01  0.45947915042E+01  0.15325065601E+02  0.51100000000E-03 0.  1.
        -12    1    3    3    0    0  0.38633237995E+02 -0.23666092447E+01  0.14913942487E+02  0.41479556384E+02  0.00000000000E+00 0.  1.
</event>
<event>
 7    1  0.4639347E-015  0.9000778E+02  0.7816164E-02  0.1186339E+00
        -11   -1    0    0    0    0  0.00000000000E+00  0.00000000000E+00  0.45593999997E+02  0.45594000000E+02  0.51100000000E-03 0. -1.
         11   -1    0    0    0    0 -0.00000000000E+00 -0.00000000000E+00 -0.45593999997E+02  0.45594000000E+02  0.51100000000E-03 0.  1.
    9900012    2    1    2    0    0  0.20407871371E+00  0.11499619081E+01 -0.16988948245E+00  0.90007778433E+02  0.90000040308E+02 0.  0.
         12    1    1    2    0    0 -0.20407871371E+00 -0.11499619081E+01  0.16988948245E+00  0.11802215673E+01  0.00000000000E+00 0. -1.
         11    1    3    3    0    0 -0.63609253055E+01  0.70695600315E+01  0.44498696825E+01  0.10499590003E+02  0.51100000000E-03 0. -1.
        -11    1    3    3    0    0 -0.26747007944E+02 -0.26183596007E+02 -0.13006498129E+02  0.39625145144E+02  0.51100000000E-03 0.  1.
         12    1    3    3    0    0  0.33312011964E+02  0.20263997883E+02  0.83867389645E+01  0.39883043286E+02  0.00000000000E+00 0. -1.
</event>
<event>
 7    1  0.4639347E-015  0.9000787E+02  0.7816164E-02  0.1186339E+00
        -11   -1    0    0    0    0  0.00000000000E+00  0.00000000000E+00  0.45593999997E+02  0.45594000000E+02  0.51100000000E-03 0.  1.
         11   -1    0    0    0    0 -0.00000000000E+00 -0.00000000000E+00 -0.45593999997E+02  0.45594000000E+02  0.51100000000E-03 0. -1.
    9900012    2    1    2    0    0  0.50317140212E+00 -0.10563629557E+01 -0.15371416697E+00  0.90007867720E+02  0.90000130773E+02 0.  0.
         12    1    1    2    0    0 -0.50317140212E+00  0.10563629557E+01  0.15371416697E+00  0.11801322804E+01  0.00000000000E+00 0. -1.
         11    1    3    3    0    0 -0.89230578653E+01 -0.86025419444E+01 -0.91942273587E+01  0.15432384993E+02  0.51100000000E-03 0. -1.
        -11    1    3    3    0    0 -0.13140278757E+02 -0.27120216769E+02 -0.56864995332E+01  0.30667725064E+02  0.51100000000E-03 0.  1.
         12    1    3    3    0    0  0.22566508024E+02  0.34666395757E+02  0.14727012725E+02  0.43907757663E+02  0.00000000000E+00 0. -1.
</event>
<event>
 7    1  0.4639347E-015  0.9000769E+02  0.7816164E-02  0.1186339E+00
        -11   -1    0    0    0    0  0.00000000000E+00  0.00000000000E+00  0.45593999997E+02  0.45594000000E+02  0.51100000000E-03 0.  1.
         11   -1    0    0    0    0 -0.00000000000E+00 -0.00000000000E+00 -0.45593999997E+02  0.45594000000E+02  0.51100000000E-03 0. -1.
    9900012    2    1    2    0    0  0.89178079445E+00  0.28640487253E+00  0.71821319310E+00  0.90007690326E+02  0.89999951038E+02 0.  0.
         12    1    1    2    0    0 -0.89178079445E+00 -0.28640487253E+00 -0.71821319310E+00  0.11803096742E+01  0.00000000000E+00 0. -1.
         11    1    3    3    0    0  0.13021467627E+02  0.80381411636E+01 -0.12320337838E+02  0.19645891612E+02  0.51100000000E-03 0. -1.
        -11    1    3    3    0    0 -0.78893020503E+01  0.29371933493E+02  0.12797733330E+02  0.32995962520E+02  0.51100000000E-03 0.  1.
         12    1    3    3    0    0 -0.42403847819E+01 -0.37123669784E+02  0.24081770070E+00  0.37365836194E+02  0.00000000000E+00 0. -1.
</event>
<event>
 7    1  0.4639347E-015  0.9000754E+02  0.7816164E-02  0.1186339E+00
        -11   -1    0    0    0    0  0.00000000000E+00  0.00000000000E+00  0.45593999997E+02  0.45594000000E+02  0.51100000000E-03 0.  1.
         11   -1    0    0    0    0 -0.00000000000E+00 -0.00000000000E+00 -0.45593999997E+02  0.45594000000E+02  0.51100000000E-03 0. -1.
    9900012    2    1    2    0    0 -0.91598660298E+00 -0.72169147195E+00  0.18331552025E+00  0.90007544741E+02  0.89999803532E+02 0.  0.
         12    1    1    2    0    0  0.91598660298E+00  0.72169147195E+00 -0.18331552025E+00  0.11804552586E+01  0.00000000000E+00 0. -1.
         11    1    3    3    0    0 -0.29208993255E+02  0.21631044027E+02  0.22739359408E+01  0.36417552603E+02  0.51100000000E-03 0. -1.
        -11    1    3    3    0    0 -0.26286613919E+01  0.77559283961E+01 -0.61489782379E+01  0.10240811473E+02  0.51100000000E-03 0.  1.
        -12    1    3    3    0    0  0.30921668044E+02 -0.30108663895E+02  0.40583578174E+01  0.43349180665E+02  0.00000000000E+00 0.  1.
</event>
<event>
 7    1  0.4639347E-015  0.9000773E+02  0.7816164E-02  0.1186339E+00
        -11   -1    0    0    0    0  0.00000000000E+00  0.00000000000E+00  0.45593999997E+02  0.45594000000E+02  0.51100000000E-03 0.  1.
         11   -1    0    0    0    0 -0.00000000000E+00 -0.00000000000E+00 -0.45593999997E+02  0.45594000000E+02  0.51100000000E-03 0. -1.
    9900012    2    1    2    0    0  0.86550555178E+00 -0.76198683178E+00 -0.25159879968E+00  0.90007734882E+02  0.89999996183E+02 0.  0.
         12    1    1    2    0    0 -0.86550555178E+00  0.76198683178E+00  0.25159879968E+00  0.11802651177E+01  0.00000000000E+00 0. -1.
         11    1    3    3    0    0  0.47831779044E+01  0.91680475821E+01 -0.66245999976E+01  0.12280765966E+02  0.51100000000E-03 0. -1.
        -11    1    3    3    0    0 -0.10149664998E+02  0.15911858502E+02  0.34313391126E+02  0.39161355331E+02  0.51100000000E-03 0.  1.
         12    1    3    3    0    0  0.62319926452E+01 -0.25841892916E+02 -0.27940389928E+02  0.38565613585E+02  0.00000000000E+00 0. -1.
</event>
<event>
 7    1  0.4639347E-015  0.9000778E+02  0.7816164E-02  0.1186339E+00
        -11   -1    0    0    0    0  0.00000000000E+00  0.00000000000E+00  0.45593999997E+02  0.45594000000E+02  0.51100000000E-03 0.  1.
         11   -1    0    0    0    0 -0.00000000000E+00 -0.00000000000E+00 -0.45593999997E+02  0.45594000000E+02  0.51100000000E-03 0. -1.
    9900012    2    1    2    0    0  0.45202289250E+00  0.10556890430E+01 -0.27222015623E+00  0.90007784823E+02  0.90000046782E+02 0.  0.
         12    1    1    2    0    0 -0.45202289250E+00 -0.10556890430E+01  0.27222015623E+00  0.11802151772E+01  0.00000000000E+00 0. -1.
         11    1    3    3    0    0  0.78821319860E+01 -0.11505955435E+02  0.95348869734E+01  0.16894646636E+02  0.51100000000E-03 0. -1.
        -11    1    3    3    0    0  0.20377694755E+02  0.93896382708E+01  0.21530796044E+02  0.31096477758E+02  0.51100000000E-03 0.  1.
         12    1    3    3    0    0 -0.27807803848E+02  0.31720062070E+01 -0.31337903174E+02  0.42016660429E+02  0.00000000000E+00 0. -1.
</event>
<event>
 7    1  0.4639347E-015  0.9000769E+02  0.7816164E-02  0.1186339E+00
        -11   -1    0    0    0    0  0.00000000000E+00  0.00000000000E+00  0.45593999997E+02  0.45594000000E+02  0.51100000000E-03 0. -1.
         11   -1    0    0    0    0 -0.00000000000E+00 -0.00000000000E+00 -0.45593999997E+02  0.45594000000E+02  0.51100000000E-03 0.  1.
    9900012    2    1    2    0    0 -0.69719824661E+00 -0.80187993806E+00 -0.51383236102E+00  0.90007694732E+02  0.89999955503E+02 0.  0.
         12    1    1    2    0    0  0.69719824661E+00  0.80187993806E+00  0.51383236102E+00  0.11803052679E+01  0.00000000000E+00 0. -1.
         11    1    3    3    0    0  0.80448530261E+01 -0.74797543104E+01 -0.22989446174E+02  0.25479030994E+02  0.51100000000E-03 0. -1.
        -11    1    3    3    0    0  0.10036721840E+02 -0.13340502952E+02 -0.11927714267E+02  0.20517679503E+02  0.51100000000E-03 0.  1.
         12    1    3    3    0    0 -0.18778773112E+02  0.20018377324E+02  0.34403328080E+02  0.44010984235E+02  0.00000000000E+00 0. -1.
</event>
<event>
 7    1  0.4639347E-015  0.9000774E+02  0.7816164E-02  0.1186339E+00
        -11   -1    0    0    0    0  0.00000000000E+00  0.00000000000E+00  0.45593999997E+02  0.45594000000E+02  0.51100000000E-03 0. -1.
         11   -1    0    0    0    0 -0.00000000000E+00 -0.00000000000E+00 -0.45593999997E+02  0.45594000000E+02  0.51100000000E-03 0.  1.
    9900012    2    1    2    0    0 -0.10234961350E+01 -0.32395062813E+00 -0.49044367627E+00  0.90007735899E+02  0.89999997213E+02 0.  0.
         12    1    1    2    0    0  0.10234961350E+01  0.32395062813E+00  0.49044367627E+00  0.11802641007E+01  0.00000000000E+00 0. -1.
         11    1    3    3    0    0 -0.22906371789E+02 -0.25725476797E+02  0.12668452666E+02  0.36701385780E+02  0.51100000000E-03 0. -1.
        -11    1    3    3    0    0 -0.29272093457E+00 -0.60952192537E+01  0.74415547734E+01  0.96236230705E+01  0.51100000000E-03 0.  1.
        -12    1    3    3    0    0  0.22175596589E+02  0.31496745422E+02 -0.20600451116E+02  0.43682727049E+02  0.00000000000E+00 0.  1.
</event>
<event>
 7    1  0.4639347E-015  0.9000765E+02  0.7816164E-02  0.1186339E+00
        -11   -1    0    0    0    0  0.00000000000E+00  0.00000000000E+00  0.45593999997E+02  0.45594000000E+02  0.51100000000E-03 0.  1.
         11   -1    0    0    0    0 -0.00000000000E+00 -0.00000000000E+00 -0.45593999997E+02  0.45594000000E+02  0.51100000000E-03 0. -1.
    9900012    2    1    2    0    0 -0.89398399518E+00 -0.74276276302E+00  0.20569960906E+00  0.90007654188E+02  0.89999914424E+02 0.  0.
         12    1    1    2    0    0  0.89398399518E+00  0.74276276302E+00 -0.20569960906E+00  0.11803458116E+01  0.00000000000E+00 0. -1.
         11    1    3    3    0    0  0.48554847992E+00 -0.11419619832E+01  0.90981325738E+01  0.91823663120E+01  0.51100000000E-03 0. -1.
        -11    1    3    3    0    0 -0.26830456887E+02  0.22550210983E+02  0.16362785805E+02  0.38679790482E+02  0.51100000000E-03 0.  1.
         12    1    3    3    0    0  0.25450924412E+02 -0.22151011763E+02 -0.25255218769E+02  0.42145497395E+02  0.00000000000E+00 0. -1.
</event>
<event>
 7    1  0.4639347E-015  0.9000767E+02  0.7816164E-02  0.1186339E+00
        -11   -1    0    0    0    0  0.00000000000E+00  0.00000000000E+00  0.45593999997E+02  0.45594000000E+02  0.51100000000E-03 0. -1.
         11   -1    0    0    0    0 -0.00000000000E+00 -0.00000000000E+00 -0.45593999997E+02  0.45594000000E+02  0.51100000000E-03 0.  1.
    9900012    2    1    2    0    0  0.16452385350E+00  0.10748488777E+01 -0.45912893384E+00  0.90007674796E+02  0.89999935304E+02 0.  0.
         12    1    1    2    0    0 -0.16452385350E+00 -0.10748488777E+01  0.45912893384E+00  0.11803252036E+01  0.00000000000E+00 0. -1.
         11    1    3    3    0    0  0.33248794830E+02  0.37950100587E+01  0.24217600902E+02  0.41308312150E+02  0.51100000000E-03 0. -1.
        -11    1    3    3    0    0 -0.70649642584E+01 -0.30999913583E+01  0.50277508107E+01  0.92087971456E+01  0.51100000000E-03 0.  1.
        -12    1    3    3    0    0 -0.26019306718E+02  0.37983017729E+00 -0.29704480647E+02  0.39490565500E+02  0.00000000000E+00 0.  1.
</event>
<event>
 7    1  0.4639347E-015  0.9000778E+02  0.7816164E-02  0.1186339E+00
        -11   -1    0    0    0    0  0.00000000000E+00  0.00000000000E+00  0.45593999997E+02  0.45594000000E+02  0.51100000000E-03 0.  1.
         11   -1    0    0    0    0 -0.00000000000E+00 -0.00000000000E+00 -0.45593999997E+02  0.45594000000E+02  0.51100000000E-03 0. -1.
    9900012    2    1    2    0    0  0.18720471638E+00  0.82126126530E+00 -0.82668615427E+00  0.90007777280E+02  0.90000039140E+02 0.  0.
         12    1    1    2    0    0 -0.18720471638E+00 -0.82126126530E+00  0.82668615427E+00  0.11802227202E+01  0.00000000000E+00 0. -1.
         11    1    3    3    0    0  0.41469915867E+01  0.59408093331E+01  0.37808043438E+01  0.81722234734E+01  0.51100000000E-03 0. -1.
        -11    1    3    3    0    0 -0.25510382314E+02  0.89717305226E+01  0.28899136698E+02  0.39578171465E+02  0.51100000000E-03 0.  1.
         12    1    3    3    0    0  0.21550595444E+02 -0.14091278590E+02 -0.33506627196E+02  0.42257382341E+02  0.00000000000E+00 0. -1.
</event>
<event>
 7    1  0.4639347E-015  0.9000775E+02  0.7816164E-02  0.1186339E+00
        -11   -1    0    0    0    0  0.00000000000E+00  0.00000000000E+00  0.45593999997E+02  0.45594000000E+02  0.51100000000E-03 0.  1.
         11   -1    0    0    0    0 -0.00000000000E+00 -0.00000000000E+00 -0.45593999997E+02  0.45594000000E+02  0.51100000000E-03 0. -1.
    9900012    2    1    2    0    0  0.86467688609E+00  0.71461976985E+00  0.36692221308E+00  0.90007754499E+02  0.90000016058E+02 0.  0.
         12    1    1    2    0    0 -0.86467688609E+00 -0.71461976985E+00 -0.36692221308E+00  0.11802455013E+01  0.00000000000E+00 0. -1.
         11    1    3    3    0    0 -0.15188720324E+02 -0.22149449090E+02  0.17870872325E+02  0.32259314903E+02  0.51100000000E-03 0. -1.
        -11    1    3    3    0    0 -0.78503698142E+01 -0.89317809378E+01  0.39785912031E+01  0.12539306407E+02  0.51100000000E-03 0.  1.
        -12    1    3    3    0    0  0.23903767025E+02  0.31795849798E+02 -0.21482541315E+02  0.45209133189E+02  0.00000000000E+00 0.  1.
</event>
<event>
 7    1  0.4639347E-015  0.9000778E+02  0.7816164E-02  0.1186339E+00
        -11   -1    0    0    0    0  0.00000000000E+00  0.00000000000E+00  0.45593999997E+02  0.45594000000E+02  0.51100000000E-03 0. -1.
         11   -1    0    0    0    0 -0.00000000000E+00 -0.00000000000E+00 -0.45593999997E+02  0.45594000000E+02  0.51100000000E-03 0.  1.
    9900012    2    1    2    0    0  0.56685447342E+00  0.26191089154E+00 -0.10014977819E+01  0.90007780056E+02  0.90000041953E+02 0.  0.
         12    1    1    2    0    0 -0.56685447342E+00 -0.26191089154E+00  0.10014977819E+01  0.11802199440E+01  0.00000000000E+00 0. -1.
         11    1    3    3    0    0  0.27721506021E+02  0.23023289930E+02  0.14835159081E+02  0.38969676936E+02  0.51100000000E-03 0. -1.
        -11    1    3    3    0    0  0.58485497359E+01 -0.16862690854E+00 -0.85869029612E+01  0.10390807080E+02  0.51100000000E-03 0.  1.
        -12    1    3    3    0    0 -0.33003201284E+02 -0.22592752129E+02 -0.72497539013E+01  0.40647296040E+02  0.00000000000E+00 0.  1.
</event>
<event>
 7    1  0.4639347E-015  0.9000779E+02  0.7816164E-02  0.1186339E+00
        -11   -1    0    0    0    0  0.00000000000E+00  0.00000000000E+00  0.45593999997E+02  0.45594000000E+02  0.51100000000E-03 0.  1.
         11   -1    0    0    0    0 -0.00000000000E+00 -0.00000000000E+00 -0.45593999997E+02  0.45594000000E+02  0.51100000000E-03 0. -1.
    9900012    2    1    2    0    0 -0.15963455769E+00  0.98435375867E+00 -0.63124134028E+00  0.90007787670E+02  0.90000049667E+02 0.  0.
         12    1    1    2    0    0  0.15963455769E+00 -0.98435375867E+00  0.63124134028E+00  0.11802123300E+01  0.00000000000E+00 0. -1.
         11    1    3    3    0    0  0.90972521851E+01 -0.38855447084E+00  0.70778716246E+01  0.11532876436E+02  0.51100000000E-03 0. -1.
        -11    1    3    3    0    0 -0.20708120494E+02  0.26820426412E+02  0.19836935513E+02  0.39264048927E+02  0.51100000000E-03 0.  1.
         12    1    3    3    0    0  0.11451233751E+02 -0.25447518183E+02 -0.27546048478E+02  0.39210862307E+02  0.00000000000E+00 0. -1.
</event>
<event>
 7    1  0.4639347E-015  0.9000771E+02  0.7816164E-02  0.1186339E+00
        -11   -1    0    0    0    0  0.00000000000E+00  0.00000000000E+00  0.45593999997E+02  0.45594000000E+02  0.51100000000E-03 0.  1.
         11   -1    0    0    0    0 -0.00000000000E+00 -0.00000000000E+00 -0.45593999997E+02  0.45594000000E+02  0.51100000000E-03 0. -1.
    9900012    2    1    2    0    0  0.16115660603E+00 -0.11685945515E+01 -0.38693103908E-01  0.90007711123E+02  0.89999972110E+02 0.  0.
         12    1    1    2    0    0 -0.16115660603E+00  0.11685945515E+01  0.38693103908E-01  0.11802888773E+01  0.00000000000E+00 0. -1.
         11    1    3    3    0    0 -0.62705660719E+01 -0.13037609659E+01  0.68970420808E+01  0.94121719727E+01  0.51100000000E-03 0. -1.
        -11    1    3    3    0    0 -0.74323057492E+01  0.25333997652E+02  0.25872665842E+02  0.36965462851E+02  0.51100000000E-03 0.  1.
         12    1    3    3    0    0  0.13864028427E+02 -0.25198831238E+02 -0.32808401026E+02  0.43630076299E+02  0.00000000000E+00 0. -1.
</event>
<event>
 7    1  0.8156928E-015  0.9000753E+02  0.7816164E-02  0.1186339E+00
        -11   -1    0    0    0    0  0.00000000000E+00  0.00000000000E+00  0.45593999997E+02  0.45594000000E+02  0.51100000000E-03 0. -1.
         11   -1    0    0    0    0 -0.00000000000E+00 -0.00000000000E+00 -0.45593999997E+02  0.45594000000E+02  0.51100000000E-03 0.  1.
    9900012    2    1    2    0    0  0.10859076710E+01 -0.28846245110E+00 -0.36209736218E+00  0.90007525284E+02  0.89999783817E+02 0.  0.
         12    1    1    2    0    0 -0.10859076710E+01  0.28846245110E+00  0.36209736218E+00  0.11804747161E+01  0.00000000000E+00 0. -1.
         11    1    3    3    0    0 -0.98403957036E+00 -0.62014212174E+01  0.75241370451E+01  0.97999284450E+01  0.51100000000E-03 0. -1.
        -11    1    3    3    0    0  0.67100837761E+01 -0.35352247348E+02 -0.13232993194E+02  0.38339519115E+02  0.51100000000E-03 0.  1.
         12    1    3    3    0    0 -0.46401365347E+01  0.41265206115E+02  0.53467587863E+01  0.41868077724E+02  0.00000000000E+00 0. -1.
</event>
<event>
 7    1  0.4639347E-015  0.9000773E+02  0.7816164E-02  0.1186339E+00
        -11   -1    0    0    0    0  0.00000000000E+00  0.00000000000E+00  0.45593999997E+02  0.45594000000E+02  0.51100000000E-03 0.  1.
         11   -1    0    0    0    0 -0.00000000000E+00 -0.00000000000E+00 -0.45593999997E+02  0.45594000000E+02  0.51100000000E-03 0. -1.
    9900012    2    1    2    0    0  0.89228019364E+00 -0.53385516499E+00  0.55845490568E+00  0.90007730047E+02  0.89999991283E+02 0.  0.
         12    1    1    2    0    0 -0.89228019364E+00  0.53385516499E+00 -0.55845490568E+00  0.11802699534E+01  0.00000000000E+00 0. -1.
         11    1    3    3    0    0  0.24404319287E+01 -0.80340727690E+01  0.72950996343E+01  0.11122972273E+02  0.51100000000E-03 0. -1.
        -11    1    3    3    0    0 -0.31590633563E+02 -0.32494362611E+01  0.19765763614E+02  0.37406047324E+02  0.51100000000E-03 0.  1.
         12    1    3    3    0    0  0.30042481828E+02  0.10749653865E+02 -0.26502408342E+02  0.41478710449E+02  0.00000000000E+00 0. -1.
</event>
<event>
 7    1  0.4639347E-015  0.9000776E+02  0.7816164E-02  0.1186339E+00
        -11   -1    0    0    0    0  0.00000000000E+00  0.00000000000E+00  0.45593999997E+02  0.45594000000E+02  0.51100000000E-03 0. -1.
         11   -1    0    0    0    0 -0.00000000000E+00 -0.00000000000E+00 -0.45593999997E+02  0.45594000000E+02  0.51100000000E-03 0.  1.
    9900012    2    1    2    0    0 -0.55018434679E+00  0.46846215032E+00 -0.93317488780E+00  0.90007756393E+02  0.90000017977E+02 0.  0.
         12    1    1    2    0    0  0.55018434679E+00 -0.46846215032E+00  0.93317488780E+00  0.11802436075E+01  0.00000000000E+00 0. -1.
         11    1    3    3    0    0  0.14376250207E+01 -0.44167326715E+01 -0.95244857489E+01  0.10596703366E+02  0.51100000000E-03 0. -1.
        -11    1    3    3    0    0  0.17443394394E+02  0.70006429839E+01 -0.30430715446E+02  0.35767435650E+02  0.51100000000E-03 0.  1.
         12    1    3    3    0    0 -0.19431203761E+02 -0.21154481621E+01  0.39022026307E+02  0.43643617376E+02  0.00000000000E+00 0. -1.
</event>
<event>
 7    1  0.4639347E-015  0.9000777E+02  0.7816164E-02  0.1186339E+00
        -11   -1    0    0    0    0  0.00000000000E+00  0.00000000000E+00  0.45593999997E+02  0.45594000000E+02  0.51100000000E-03 0. -1.
         11   -1    0    0    0    0 -0.00000000000E+00 -0.00000000000E+00 -0.45593999997E+02  0.45594000000E+02  0.51100000000E-03 0.  1.
    9900012    2    1    2    0    0 -0.14603773387E+00 -0.11665257680E+01 -0.10411091167E+00  0.90007767621E+02  0.90000029353E+02 0.  0.
         12    1    1    2    0    0  0.14603773387E+00  0.11665257680E+01  0.10411091167E+00  0.11802323792E+01  0.00000000000E+00 0. -1.
         11    1    3    3    0    0 -0.18868324244E+02 -0.30071664455E+02  0.22454255209E+02  0.42006097654E+02  0.51100000000E-03 0. -1.
        -11    1    3    3    0    0 -0.61276099959E+01  0.58135755900E+01 -0.43303613963E+01  0.94919595178E+01  0.51100000000E-03 0.  1.
        -12    1    3    3    0    0  0.24849896506E+02  0.23091563097E+02 -0.18228004725E+02  0.38509710449E+02  0.00000000000E+00 0.  1.
</event>
<event>
 7    1  0.4639347E-015  0.9000787E+02  0.7816164E-02  0.1186339E+00
        -11   -1    0    0    0    0  0.00000000000E+00  0.00000000000E+00  0.45593999997E+02  0.45594000000E+02  0.51100000000E-03 0.  1.
         11   -1    0    0    0    0 -0.00000000000E+00 -0.00000000000E+00 -0.45593999997E+02  0.45594000000E+02  0.51100000000E-03 0. -1.
    9900012    2    1    2    0    0  0.85395772411E+00 -0.79098063945E+00 -0.19448365982E+00  0.90007865236E+02  0.90000128257E+02 0.  0.
         12    1    1    2    0    0 -0.85395772411E+00  0.79098063945E+00  0.19448365982E+00  0.11801347637E+01  0.00000000000E+00 0. -1.
         11    1    3    3    0    0 -0.24246474152E+01 -0.36780034833E+01 -0.74250297260E+01  0.86335213792E+01  0.51100000000E-03 0. -1.
        -11    1    3    3    0    0 -0.32049536618E+01 -0.38471690414E+02  0.83411542683E+01  0.39495791498E+02  0.51100000000E-03 0.  1.
         12    1    3    3    0    0  0.64835588010E+01  0.41358713258E+02 -0.11106082021E+01  0.41878552359E+02  0.00000000000E+00 0. -1.
</event>
<event>
 7    1  0.4639347E-015  0.9000781E+02  0.7816164E-02  0.1186339E+00
        -11   -1    0    0    0    0  0.00000000000E+00  0.00000000000E+00  0.45593999997E+02  0.45594000000E+02  0.51100000000E-03 0. -1.
         11   -1    0    0    0    0 -0.00000000000E+00 -0.00000000000E+00 -0.45593999997E+02  0.45594000000E+02  0.51100000000E-03 0.  1.
    9900012    2    1    2    0    0  0.27737503776E+00 -0.13265015544E+00 -0.11394316114E+01  0.90007814687E+02  0.90000077041E+02 0.  0.
         12    1    1    2    0    0 -0.27737503776E+00  0.13265015544E+00  0.11394316114E+01  0.11801853128E+01  0.00000000000E+00 0. -1.
         11    1    3    3    0    0 -0.45459519319E+01 -0.27925213883E+02  0.28287553929E+02  0.40008361088E+02  0.51100000000E-03 0. -1.
        -11    1    3    3    0    0  0.46456199569E+01  0.71126033592E+01  0.49859783101E+01  0.98504259451E+01  0.51100000000E-03 0.  1.
        -12    1    3    3    0    0  0.17770701278E+00  0.20679960368E+02 -0.34412963851E+02  0.40149027654E+02  0.00000000000E+00 0.  1.
</event>
<event>
 7    1  0.4639347E-015  0.9000780E+02  0.7816164E-02  0.1186339E+00
        -11   -1    0    0    0    0  0.00000000000E+00  0.00000000000E+00  0.45593999997E+02  0.45594000000E+02  0.51100000000E-03 0. -1.
         11   -1    0    0    0    0 -0.00000000000E+00 -0.00000000000E+00 -0.45593999997E+02  0.45594000000E+02  0.51100000000E-03 0.  1.
    9900012    2    1    2    0    0 -0.10405655530E+00  0.11470585700E+01 -0.25746937554E+00  0.90007804419E+02  0.90000066637E+02 0.  0.
         12    1    1    2    0    0  0.10405655530E+00 -0.11470585700E+01  0.25746937554E+00  0.11801955809E+01  0.00000000000E+00 0. -1.
         11    1    3    3    0    0  0.13929585342E+00  0.75879718787E+01 -0.80153830458E+01  0.11038255578E+02  0.51100000000E-03 0. -1.
        -11    1    3    3    0    0 -0.24493320117E+02  0.26863610140E+02 -0.27360618412E+01  0.36456306927E+02  0.51100000000E-03 0.  1.
         12    1    3    3    0    0  0.24249967708E+02 -0.33304523449E+02  0.10493975511E+02  0.42513241914E+02  0.00000000000E+00 0. -1.
</event>
<event>
 7    1  0.4639347E-015  0.9000790E+02  0.7816164E-02  0.1186339E+00
        -11   -1    0    0    0    0  0.00000000000E+00  0.00000000000E+00  0.45593999997E+02  0.45594000000E+02  0.51100000000E-03 0.  1.
         11   -1    0    0    0    0 -0.00000000000E+00 -0.00000000000E+00 -0.45593999997E+02  0.45594000000E+02  0.51100000000E-03 0. -1.
    9900012    2    1    2    0    0  0.11014436520E-01 -0.44169050571E+00  0.10942697453E+01  0.90007899116E+02  0.90000162584E+02 0.  0.
         12    1    1    2    0    0 -0.11014436520E-01  0.44169050571E+00 -0.10942697453E+01  0.11801008839E+01  0.00000000000E+00 0. -1.
         11    1    3    3    0    0  0.46994590707E+01  0.25099811456E+01 -0.35695152102E+02  0.36090563929E+02  0.51100000000E-03 0. -1.
        -11    1    3    3    0    0  0.11394361551E+01  0.66354063428E+01 -0.64032397002E+01  0.92913083580E+01  0.51100000000E-03 0.  1.
        -12    1    3    3    0    0 -0.58278807893E+01 -0.95870779941E+01  0.43192661547E+02  0.44626026829E+02  0.00000000000E+00 0.  1.
</event>
<event>
 7    1  0.4639347E-015  0.9000780E+02  0.7816164E-02  0.1186339E+00
        -11   -1    0    0    0    0  0.00000000000E+00  0.00000000000E+00  0.45593999997E+02  0.45594000000E+02  0.51100000000E-03 0.  1.
         11   -1    0    0    0    0 -0.00000000000E+00 -0.00000000000E+00 -0.45593999997E+02  0.45594000000E+02  0.51100000000E-03 0. -1.
    9900012    2    1    2    0    0 -0.11766151907E+00 -0.73332352663E+00  0.91720690563E+00  0.90007798265E+02  0.90000060402E+02 0.  0.
         12    1    1    2    0    0  0.11766151907E+00  0.73332352663E+00 -0.91720690563E+00  0.11802017351E+01  0.00000000000E+00 0. -1.
         11    1    3    3    0    0  0.22509572810E+01  0.25934655872E+01  0.92943819544E+01  0.99085018347E+01  0.51100000000E-03 0. -1.
        -11    1    3    3    0    0  0.27862257925E+02 -0.13490380634E+01  0.23242282533E+02  0.36308800834E+02  0.51100000000E-03 0.  1.
         12    1    3    3    0    0 -0.30230876725E+02 -0.19777510504E+01 -0.31619457582E+02  0.43790495596E+02  0.00000000000E+00 0. -1.
</event>
<event>
 7    1  0.4639347E-015  0.9000772E+02  0.7816164E-02  0.1186339E+00
        -11   -1    0    0    0    0  0.00000000000E+00  0.00000000000E+00  0.45593999997E+02  0.45594000000E+02  0.51100000000E-03 0.  1.
         11   -1    0    0    0    0 -0.00000000000E+00 -0.00000000000E+00 -0.45593999997E+02  0.45594000000E+02  0.51100000000E-03 0. -1.
    9900012    2    1    2    0    0 -0.45498996948E+00  0.96962373260E+00  0.49585566739E+00  0.90007720839E+02  0.89999981954E+02 0.  0.
         12    1    1    2    0    0  0.45498996948E+00 -0.96962373260E+00 -0.49585566739E+00  0.11802791611E+01  0.00000000000E+00 0. -1.
         11    1    3    3    0    0  0.62770251461E+01 -0.24176635419E+01 -0.69132277775E+01  0.96456653608E+01  0.51100000000E-03 0. -1.
        -11    1    3    3    0    0 -0.19279025268E+02 -0.12568633123E+01  0.40388859166E+02  0.44771871367E+02  0.51100000000E-03 0.  1.
         12    1    3    3    0    0  0.12547010152E+02  0.46441505868E+01 -0.32979775722E+02  0.35590184111E+02  0.00000000000E+00 0. -1.
</event>
<event>
 7    1  0.4639347E-015  0.9000773E+02  0.7816164E-02  0.1186339E+00
        -11   -1    0    0    0    0  0.00000000000E+00  0.00000000000E+00  0.45593999997E+02  0.45594000000E+02  0.51100000000E-03 0.  1.
         11   -1    0    0    0    0 -0.00000000000E+00 -0.00000000000E+00 -0.45593999997E+02  0.45594000000E+02  0.51100000000E-03 0. -1.
    9900012    2    1    2    0    0  0.10409950227E+01 -0.94491503074E-01  0.54812676724E+00  0.90007727898E+02  0.89999989106E+02 0.  0.
         12    1    1    2    0    0 -0.10409950227E+01  0.94491503074E-01 -0.54812676724E+00  0.11802721018E+01  0.00000000000E+00 0. -1.
         11    1    3    3    0    0  0.45469894008E+01 -0.66435728878E+00  0.57491273763E+01  0.73599557790E+01  0.51100000000E-03 0. -1.
        -11    1    3    3    0    0  0.30931435971E+02 -0.15143418301E+02 -0.22386908524E+02  0.41076155159E+02  0.51100000000E-03 0.  1.
         12    1    3    3    0    0 -0.34437430349E+02  0.15713284087E+02  0.17185907915E+02  0.41571616961E+02  0.00000000000E+00 0. -1.
</event>
<event>
 7    1  0.4639347E-015  0.9000775E+02  0.7816164E-02  0.1186339E+00
        -11   -1    0    0    0    0  0.00000000000E+00  0.00000000000E+00  0.45593999997E+02  0.45594000000E+02  0.51100000000E-03 0. -1.
         11   -1    0    0    0    0 -0.00000000000E+00 -0.00000000000E+00 -0.45593999997E+02  0.45594000000E+02  0.51100000000E-03 0.  1.
    9900012    2    1    2    0    0 -0.14836075321E+00  0.82749356797E+00 -0.82839909185E+00  0.90007745123E+02  0.90000006559E+02 0.  0.
         12    1    1    2    0    0  0.14836075321E+00 -0.82749356797E+00  0.82839909185E+00  0.11802548765E+01  0.00000000000E+00 0. -1.
         11    1    3    3    0    0  0.18392537505E+02  0.33387371861E+02  0.13415340072E+02  0.40410065395E+02  0.51100000000E-03 0. -1.
        -11    1    3    3    0    0  0.46604868397E+01 -0.13369982685E+01 -0.91644208183E+01  0.10367946332E+02  0.51100000000E-03 0.  1.
        -12    1    3    3    0    0 -0.23201385098E+02 -0.31222880025E+02 -0.50793183453E+01  0.39229733397E+02  0.00000000000E+00 0.  1.
</event>
<event>
 7    1  0.4639347E-015  0.9000775E+02  0.7816164E-02  0.1186339E+00
        -11   -1    0    0    0    0  0.00000000000E+00  0.00000000000E+00  0.45593999997E+02  0.45594000000E+02  0.51100000000E-03 0.  1.
         11   -1    0    0    0    0 -0.00000000000E+00 -0.00000000000E+00 -0.45593999997E+02  0.45594000000E+02  0.51100000000E-03 0. -1.
    9900012    2    1    2    0    0 -0.28353238173E+00  0.11337162478E+01  0.16519166441E+00  0.90007749422E+02  0.90000010914E+02 0.  0.
         12    1    1    2    0    0  0.28353238173E+00 -0.11337162478E+01 -0.16519166441E+00  0.11802505785E+01  0.00000000000E+00 0. -1.
         11    1    3    3    0    0  0.21763922670E+01 -0.77332352374E+01  0.65437175465E+01  0.10361459845E+02  0.51100000000E-03 0. -1.
        -11    1    3    3    0    0  0.33090491284E+02  0.16389579322E+02  0.12127858969E+02  0.38867517122E+02  0.51100000000E-03 0.  1.
         12    1    3    3    0    0 -0.35550415933E+02 -0.75226278372E+01 -0.18506384851E+02  0.40778772454E+02  0.00000000000E+00 0. -1.
</event>
<event>
 7    1  0.4639347E-015  0.9000816E+02  0.7816164E-02  0.1186338E+00
        -11   -1    0    0    0    0  0.00000000000E+00  0.00000000000E+00  0.45593999997E+02  0.45594000000E+02  0.51100000000E-03 0. -1.
         11   -1    0    0    0    0 -0.00000000000E+00 -0.00000000000E+00 -0.45593999997E+02  0.45594000000E+02  0.51100000000E-03 0.  1.
    9900012    2    1    2    0    0 -0.71341742206E+00 -0.56058206305E+00 -0.75419650662E+00  0.90008157198E+02  0.90000424072E+02 0.  0.
         12    1    1    2    0    0  0.71341742206E+00  0.56058206305E+00  0.75419650662E+00  0.11798428023E+01  0.00000000000E+00 0. -1.
         11    1    3    3    0    0 -0.20896225496E+02 -0.29367238981E+02  0.12625073145E+02  0.38190043697E+02  0.51100000000E-03 0. -1.
        -11    1    3    3    0    0 -0.49201485718E+01 -0.50347917771E+01 -0.55432019303E+01  0.89601382862E+01  0.51100000000E-03 0.  1.
        -12    1    3    3    0    0  0.25102956646E+02  0.33841448696E+02 -0.78360677212E+01  0.42857975215E+02  0.00000000000E+00 0.  1.
</event>
<event>
 7    1  0.4639347E-015  0.9000767E+02  0.7816164E-02  0.1186339E+00
        -11   -1    0    0    0    0  0.00000000000E+00  0.00000000000E+00  0.45593999997E+02  0.45594000000E+02  0.51100000000E-03 0.  1.
         11   -1    0    0    0    0 -0.00000000000E+00 -0.00000000000E+00 -0.45593999997E+02  0.45594000000E+02  0.51100000000E-03 0. -1.
    9900012    2    1    2    0    0  0.44394697929E+00 -0.10815077825E+01 -0.16256878139E+00  0.90007670973E+02  0.89999931430E+02 0.  0.
         12    1    1    2    0    0 -0.44394697929E+00  0.10815077825E+01  0.16256878139E+00  0.11803290273E+01  0.00000000000E+00 0. -1.
         11    1    3    3    0    0 -0.77883847175E+01 -0.31192960031E+01 -0.10076280917E+02  0.13111841268E+02  0.51100000000E-03 0. -1.
        -11    1    3    3    0    0  0.15684999526E+02 -0.18146188929E+02  0.35889323012E+02  0.43166501935E+02  0.51100000000E-03 0.  1.
         12    1    3    3    0    0 -0.74526678292E+01  0.20183977150E+02 -0.25975610877E+02  0.33729327769E+02  0.00000000000E+00 0. -1.
</event>
<event>
 7    1  0.4639347E-015  0.9000773E+02  0.7816164E-02  0.1186339E+00
        -11   -1    0    0    0    0  0.00000000000E+00  0.00000000000E+00  0.45593999997E+02  0.45594000000E+02  0.51100000000E-03 0.  1.
         11   -1    0    0    0    0 -0.00000000000E+00 -0.00000000000E+00 -0.45593999997E+02  0.45594000000E+02  0.51100000000E-03 0. -1.
    9900012    2    1    2    0    0 -0.21919542345E+00 -0.11455676701E+01  0.18072218558E+00  0.90007732052E+02  0.89999993315E+02 0.  0.
         12    1    1    2    0    0  0.21919542345E+00  0.11455676701E+01 -0.18072218558E+00  0.11802679479E+01  0.00000000000E+00 0. -1.
         11    1    3    3    0    0 -0.13789843612E+02  0.28873289128E+01 -0.37727116715E+02  0.40271972772E+02  0.51100000000E-03 0. -1.
        -11    1    3    3    0    0  0.10440515088E+01 -0.10991248643E+02  0.21969691123E+01  0.11257187207E+02  0.51100000000E-03 0.  1.
        -12    1    3    3    0    0  0.12526596679E+02  0.69583520597E+01  0.35710869788E+02  0.38478572073E+02  0.00000000000E+00 0.  1.
</event>
<event>
 7    1  0.4639347E-015  0.9000772E+02  0.7816164E-02  0.1186339E+00
        -11   -1    0    0    0    0  0.00000000000E+00  0.00000000000E+00  0.45593999997E+02  0.45594000000E+02  0.51100000000E-03 0.  1.
         11   -1    0    0    0    0 -0.00000000000E+00 -0.00000000000E+00 -0.45593999997E+02  0.45594000000E+02  0.51100000000E-03 0. -1.
    9900012    2    1    2    0    0  0.34326014151E+00  0.10417430381E-01  0.11292149881E+01  0.90007719297E+02  0.89999980392E+02 0.  0.
         12    1    1    2    0    0 -0.34326014151E+00 -0.10417430381E-01 -0.11292149881E+01  0.11802807026E+01  0.00000000000E+00 0. -1.
         11    1    3    3    0    0  0.18546096963E+02 -0.19695224713E+02 -0.30356795807E+02  0.40661955695E+02  0.51100000000E-03 0. -1.
        -11    1    3    3    0    0 -0.80111097613E+01 -0.26929505469E+01 -0.10879649381E+01  0.85213572994E+01  0.51100000000E-03 0.  1.
        -12    1    3    3    0    0 -0.10191727060E+02  0.22398592690E+02  0.32573975733E+02  0.40824406303E+02  0.00000000000E+00 0.  1.
</event>
<event>
 7    1  0.4639347E-015  0.9000774E+02  0.7816164E-02  0.1186339E+00
        -11   -1    0    0    0    0  0.00000000000E+00  0.00000000000E+00  0.45593999997E+02  0.45594000000E+02  0.51100000000E-03 0.  1.
         11   -1    0    0    0    0 -0.00000000000E+00 -0.00000000000E+00 -0.45593999997E+02  0.45594000000E+02  0.51100000000E-03 0. -1.
    9900012    2    1    2    0    0 -0.71997598410E+00  0.62501902974E+00  0.69570701858E+00  0.90007736275E+02  0.89999997594E+02 0.  0.
         12    1    1    2    0    0  0.71997598410E+00 -0.62501902974E+00 -0.69570701858E+00  0.11802637252E+01  0.00000000000E+00 0. -1.
         11    1    3    3    0    0  0.19418101934E+01  0.25002414746E+01  0.15366021228E+02  0.15688736179E+02  0.51100000000E-03 0. -1.
        -11    1    3    3    0    0 -0.10165934725E+01 -0.10032170412E+02  0.28563793927E+02  0.30291388697E+02  0.51100000000E-03 0.  1.
         12    1    3    3    0    0 -0.16451927050E+01  0.81569479672E+01 -0.43234108136E+02  0.44027611399E+02  0.00000000000E+00 0. -1.
</event>
<event>
 7    1  0.4639347E-015  0.9000777E+02  0.7816164E-02  0.1186339E+00
        -11   -1    0    0    0    0  0.00000000000E+00  0.00000000000E+00  0.45593999997E+02  0.45594000000E+02  0.51100000000E-03 0.  1.
         11   -1    0    0    0    0 -0.00000000000E+00 -0.00000000000E+00 -0.45593999997E+02  0.45594000000E+02  0.51100000000E-03 0. -1.
    9900012    2    1    2    0    0  0.99615968456E+00  0.41064094433E+00 -0.48164238095E+00  0.90007771427E+02  0.90000033209E+02 0.  0.
         12    1    1    2    0    0 -0.99615968456E+00 -0.41064094433E+00  0.48164238095E+00  0.11802285734E+01  0.00000000000E+00 0. -1.
         11    1    3    3    0    0  0.87090226161E+00  0.77860253012E+01  0.36373145520E+01  0.86377496000E+01  0.51100000000E-03 0. -1.
        -11    1    3    3    0    0  0.38581117230E+02 -0.14974657565E+02  0.31392887675E+01  0.41504193886E+02  0.51100000000E-03 0.  1.
         12    1    3    3    0    0 -0.38455859807E+02  0.75992732077E+01 -0.72582457004E+01  0.39865827941E+02  0.00000000000E+00 0. -1.
</event>
<event>
 7    1  0.4639347E-015  0.9000802E+02  0.7816164E-02  0.1186338E+00
        -11   -1    0    0    0    0  0.00000000000E+00  0.00000000000E+00  0.45593999997E+02  0.45594000000E+02  0.51100000000E-03 0.  1.
         11   -1    0    0    0    0 -0.00000000000E+00 -0.00000000000E+00 -0.45593999997E+02  0.45594000000E+02  0.51100000000E-03 0. -1.
    9900012    2    1    2    0    0  0.10530538951E-01  0.11057997958E+01 -0.41164603790E+00  0.90008018415E+02  0.90000283458E+02 0.  0.
         12    1    1    2    0    0 -0.10530538951E-01 -0.11057997958E+01  0.41164603790E+00  0.11799815851E+01  0.00000000000E+00 0. -1.
         11    1    3    3    0    0  0.31256577577E+02  0.21065162957E+02  0.49127351931E+01  0.38011178613E+02  0.51100000000E-03 0. -1.
        -11    1    3    3    0    0  0.45448972477E+01 -0.18077067667E+01  0.82851567297E+01  0.96212118282E+01  0.51100000000E-03 0.  1.
        -12    1    3    3    0    0 -0.35790944285E+02 -0.18151656394E+02 -0.13609537961E+02  0.42375627974E+02  0.00000000000E+00 0.  1.
</event>
<event>
 7    1  0.4639347E-015  0.9000816E+02  0.7816164E-02  0.1186338E+00
        -11   -1    0    0    0    0  0.00000000000E+00  0.00000000000E+00  0.45593999997E+02  0.45594000000E+02  0.51100000000E-03 0.  1.
         11   -1    0    0    0    0 -0.00000000000E+00 -0.00000000000E+00 -0.45593999997E+02  0.45594000000E+02  0.51100000000E-03 0. -1.
    9900012    2    1    2    0    0 -0.74649781246E+00 -0.10396893624E+00  0.90772238037E+00  0.90008157450E+02  0.90000424327E+02 0.  0.
         12    1    1    2    0    0  0.74649781246E+00  0.10396893624E+00 -0.90772238037E+00  0.11798425503E+01  0.00000000000E+00 0. -1.
         11    1    3    3    0    0  0.19032294364E+01 -0.76369636268E+01  0.85593060632E+01  0.11627863788E+02  0.51100000000E-03 0. -1.
        -11    1    3    3    0    0  0.36328710755E+02  0.74231643196E+01  0.49658945272E+01  0.37410409011E+02  0.51100000000E-03 0.  1.
         12    1    3    3    0    0 -0.38978438004E+02  0.10983037094E+00 -0.12617478210E+02  0.40969884651E+02  0.00000000000E+00 0. -1.
</event>
<event>
 7    1  0.4639347E-015  0.9000772E+02  0.7816164E-02  0.1186339E+00
        -11   -1    0    0    0    0  0.00000000000E+00  0.00000000000E+00  0.45593999997E+02  0.45594000000E+02  0.51100000000E-03 0.  1.
         11   -1    0    0    0    0 -0.00000000000E+00 -0.00000000000E+00 -0.45593999997E+02  0.45594000000E+02  0.51100000000E-03 0. -1.
    9900012    2    1    2    0    0 -0.80386737890E+00 -0.86267863708E+00  0.51368451845E-01  0.90007722104E+02  0.89999983236E+02 0.  0.
         12    1    1    2    0    0  0.80386737890E+00  0.86267863708E+00 -0.51368451845E-01  0.11802778959E+01  0.00000000000E+00 0. -1.
         11    1    3    3    0    0 -0.57248869224E+01  0.40329031133E+01 -0.20443597625E+02  0.21609704345E+02  0.51100000000E-03 0. -1.
        -11    1    3    3    0    0 -0.12442652525E+02 -0.55592418313E+01 -0.20074820821E+02  0.24263618915E+02  0.51100000000E-03 0.  1.
        -12    1    3    3    0    0  0.17363672068E+02  0.66366008091E+00  0.40569786898E+02  0.44134398844E+02  0.00000000000E+00 0.  1.
</event>
<event>
 7    1  0.4639347E-015  0.9000770E+02  0.7816164E-02  0.1186339E+00
        -11   -1    0    0    0    0  0.00000000000E+00  0.00000000000E+00  0.45593999997E+02  0.45594000000E+02  0.51100000000E-03 0.  1.
         11   -1    0    0    0    0 -0.00000000000E+00 -0.00000000000E+00 -0.45593999997E+02  0.45594000000E+02  0.51100000000E-03 0. -1.
    9900012    2    1    2    0    0 -0.10856244632E+01  0.26494051536E+00 -0.37990246193E+00  0.90007703498E+02  0.89999964384E+02 0.  0.
         12    1    1    2    0    0  0.10856244632E+01 -0.26494051536E+00  0.37990246193E+00  0.11802965019E+01  0.00000000000E+00 0. -1.
         11    1    3    3    0    0 -0.34055483432E+01 -0.73616324237E+01 -0.46736608059E+01  0.93613298761E+01  0.51100000000E-03 0. -1.
        -11    1    3    3    0    0 -0.20349006751E+02  0.35538008073E+02  0.14209732312E+02  0.43346840556E+02  0.51100000000E-03 0.  1.
         12    1    3    3    0    0  0.22668930631E+02 -0.27911435134E+02 -0.99159739684E+01  0.37299533066E+02  0.00000000000E+00 0. -1.
</event>
<event>
 7    1  0.4639347E-015  0.9000760E+02  0.7816164E-02  0.1186339E+00
        -11   -1    0    0    0    0  0.00000000000E+00  0.00000000000E+00  0.45593999997E+02  0.45594000000E+02  0.51100000000E-03 0.  1.
         11   -1    0    0    0    0 -0.00000000000E+00 -0.00000000000E+00 -0.45593999997E+02  0.45594000000E+02  0.51100000000E-03 0. -1.
    9900012    2    1    2    0    0  0.14033420103E+00  0.76227916239E+00  0.89027522022E+00  0.90007596180E+02  0.89999855650E+02 0.  0.
         12    1    1    2    0    0 -0.14033420103E+00 -0.76227916239E+00 -0.89027522022E+00  0.11804038195E+01  0.00000000000E+00 0. -1.
         11    1    3    3    0    0 -0.29877077174E+02  0.11286654477E+01 -0.22704805032E+02  0.37542266820E+02  0.51100000000E-03 0. -1.
        -11    1    3    3    0    0 -0.74309042874E+01  0.50962836871E+01  0.48420523349E+01  0.10229169909E+02  0.51100000000E-03 0.  1.
        -12    1    3    3    0    0  0.37448315662E+02 -0.54626699724E+01  0.18753027917E+02  0.42236159452E+02  0.00000000000E+00 0.  1.
</event>
<event>
 7    1  0.4639347E-015  0.9000774E+02  0.7816164E-02  0.1186339E+00
        -11   -1    0    0    0    0  0.00000000000E+00  0.00000000000E+00  0.45593999997E+02  0.45594000000E+02  0.51100000000E-03 0.  1.
         11   -1    0    0    0    0 -0.00000000000E+00 -0.00000000000E+00 -0.45593999997E+02  0.45594000000E+02  0.51100000000E-03 0. -1.
    9900012    2    1    2    0    0  0.94216982032E+00  0.65719469443E+00 -0.27096645623E+00  0.90007740852E+02  0.90000002231E+02 0.  0.
         12    1    1    2    0    0 -0.94216982032E+00 -0.65719469443E+00  0.27096645623E+00  0.11802591483E+01  0.00000000000E+00 0. -1.
         11    1    3    3    0    0 -0.26024785697E+01 -0.52046530697E+01  0.85279186162E+01  0.10324083711E+02  0.51100000000E-03 0. -1.
        -11    1    3    3    0    0 -0.42597538485E+01  0.24089552297E+01  0.34858314773E+02  0.35200151665E+02  0.51100000000E-03 0.  1.
         12    1    3    3    0    0  0.78044022385E+01  0.34528925344E+01 -0.43657199845E+02  0.44483505476E+02  0.00000000000E+00 0. -1.
</event>
<event>
 7    1  0.4639347E-015  0.9000777E+02  0.7816164E-02  0.1186339E+00
        -11   -1    0    0    0    0  0.00000000000E+00  0.00000000000E+00  0.45593999997E+02  0.45594000000E+02  0.51100000000E-03 0. -1.
         11   -1    0    0    0    0 -0.00000000000E+00 -0.00000000000E+00 -0.45593999997E+02  0.45594000000E+02  0.51100000000E-03 0.  1.
    9900012    2    1    2    0    0  0.25076292363E+00 -0.92762758794E+00  0.68525095591E+00  0.90007769574E+02  0.90000031332E+02 0.  0.
         12    1    1    2    0    0 -0.25076292363E+00  0.92762758794E+00 -0.68525095591E+00  0.11802304260E+01  0.00000000000E+00 0. -1.
         11    1    3    3    0    0  0.28841933644E+02 -0.26600239924E+02  0.20003089818E+01  0.39286526146E+02  0.51100000000E-03 0. -1.
        -11    1    3    3    0    0  0.25549949731E+01  0.10297724665E+01 -0.97395907194E+01  0.10121662822E+02  0.51100000000E-03 0.  1.
        -12    1    3    3    0    0 -0.31146165694E+02  0.24642839869E+02  0.84245326934E+01  0.40599580606E+02  0.00000000000E+00 0.  1.
</event>
<event>
 7    1  0.4639347E-015  0.9000781E+02  0.7816164E-02  0.1186339E+00
        -11   -1    0    0    0    0  0.00000000000E+00  0.00000000000E+00  0.45593999997E+02  0.45594000000E+02  0.51100000000E-03 0.  1.
         11   -1    0    0    0    0 -0.00000000000E+00 -0.00000000000E+00 -0.45593999997E+02  0.45594000000E+02  0.51100000000E-03 0. -1.
    9900012    2    1    2    0    0  0.10003974120E+01 -0.45227505526E+00  0.43299992675E+00  0.90007814996E+02  0.90000077354E+02 0.  0.
         12    1    1    2    0    0 -0.10003974120E+01  0.45227505526E+00 -0.43299992675E+00  0.11801850042E+01  0.00000000000E+00 0. -1.
         11    1    3    3    0    0  0.12516916311E+01 -0.69535452599E+01 -0.73616681342E+01  0.10203562202E+02  0.51100000000E-03 0. -1.
        -11    1    3    3    0    0  0.15496112511E+02  0.20341823114E+02  0.36310154037E+02  0.44411108486E+02  0.51100000000E-03 0.  1.
         12    1    3    3    0    0 -0.15747406730E+02 -0.13840552909E+02 -0.28515485976E+02  0.35393144308E+02  0.00000000000E+00 0. -1.
</event>
<event>
 7    1  0.4639347E-015  0.9000774E+02  0.7816164E-02  0.1186339E+00
        -11   -1    0    0    0    0  0.00000000000E+00  0.00000000000E+00  0.45593999997E+02  0.45594000000E+02  0.51100000000E-03 0.  1.
         11   -1    0    0    0    0 -0.00000000000E+00 -0.00000000000E+00 -0.45593999997E+02  0.45594000000E+02  0.51100000000E-03 0. -1.
    9900012    2    1    2    0    0 -0.11612944860E+01 -0.57701522768E-01 -0.20266846642E+00  0.90007742038E+02  0.90000003433E+02 0.  0.
         12    1    1    2    0    0  0.11612944860E+01  0.57701522768E-01  0.20266846642E+00  0.11802579618E+01  0.00000000000E+00 0. -1.
         11    1    3    3    0    0 -0.27724875458E+02 -0.17012605840E+02  0.82896156035E+01  0.33568068216E+02  0.51100000000E-03 0. -1.
        -11    1    3    3    0    0 -0.55138032261E+01  0.11261680273E+02  0.12482459753E+02  0.17692915824E+02  0.51100000000E-03 0.  1.
        -12    1    3    3    0    0  0.32077384198E+02  0.56932240434E+01 -0.20974743823E+02  0.38746757999E+02  0.00000000000E+00 0.  1.
</event>
<event>
 7    1  0.4639347E-015  0.9000788E+02  0.7816164E-02  0.1186339E+00
        -11   -1    0    0    0    0  0.00000000000E+00  0.00000000000E+00  0.45593999997E+02  0.45594000000E+02  0.51100000000E-03 0.  1.
         11   -1    0    0    0    0 -0.00000000000E+00 -0.00000000000E+00 -0.45593999997E+02  0.45594000000E+02  0.51100000000E-03 0. -1.
    9900012    2    1    2    0    0  0.10071959940E+01  0.31594691129E+00 -0.52765302047E+00  0.90007879696E+02  0.90000142908E+02 0.  0.
         12    1    1    2    0    0 -0.10071959940E+01 -0.31594691129E+00  0.52765302047E+00  0.11801203037E+01  0.00000000000E+00 0. -1.
         11    1    3    3    0    0 -0.47458852395E+01  0.11517306522E+01  0.66879508749E+01  0.82812195580E+01  0.51100000000E-03 0. -1.
        -11    1    3    3    0    0 -0.13172606918E+02  0.25042241046E+02  0.23908405629E+02  0.37043802041E+02  0.51100000000E-03 0.  1.
         12    1    3    3    0    0  0.18925688152E+02 -0.25878024787E+02 -0.31124009525E+02  0.44682858098E+02  0.00000000000E+00 0. -1.
</event>
<event>
 7    1  0.4639347E-015  0.9000775E+02  0.7816164E-02  0.1186339E+00
        -11   -1    0    0    0    0  0.00000000000E+00  0.00000000000E+00  0.45593999997E+02  0.45594000000E+02  0.51100000000E-03 0.  1.
         11   -1    0    0    0    0 -0.00000000000E+00 -0.00000000000E+00 -0.45593999997E+02  0.45594000000E+02  0.51100000000E-03 0. -1.
    9900012    2    1    2    0    0  0.89226436112E+00 -0.60116897501E-01  0.77021833380E+00  0.90007751715E+02  0.90000013238E+02 0.  0.
         12    1    1    2    0    0 -0.89226436112E+00  0.60116897501E-01 -0.77021833380E+00  0.11802482846E+01  0.00000000000E+00 0. -1.
         11    1    3    3    0    0 -0.14317052790E+01  0.27153272278E+01 -0.97410106717E+01  0.10213230200E+02  0.51100000000E-03 0. -1.
        -11    1    3    3    0    0 -0.23207094353E+02 -0.23318695636E+02 -0.16978240969E+02  0.37021499985E+02  0.51100000000E-03 0.  1.
         12    1    3    3    0    0  0.25531063994E+02  0.20543251511E+02  0.27489469975E+02  0.42773021530E+02  0.00000000000E+00 0. -1.
</event>
<event>
 7    1  0.9633176E-015  0.9000778E+02  0.7816164E-02  0.1186339E+00
        -11   -1    0    0    0    0  0.00000000000E+00  0.00000000000E+00  0.45593999997E+02  0.45594000000E+02  0.51100000000E-03 0. -1.
         11   -1    0    0    0    0 -0.00000000000E+00 -0.00000000000E+00 -0.45593999997E+02  0.45594000000E+02  0.51100000000E-03 0.  1.
    9900012    2    1    2    0    0  0.85372175699E-01 -0.28733828371E+00 -0.11415186728E+01  0.90007781131E+02  0.90000043042E+02 0.  0.
         12    1    1    2    0    0 -0.85372175699E-01  0.28733828371E+00  0.11415186728E+01  0.11802188687E+01  0.00000000000E+00 0. -1.
         11    1    3    3    0    0  0.76828495030E+01 -0.40985465163E+01 -0.37298099474E+01  0.94728951507E+01  0.51100000000E-03 0. -1.
        -11    1    3    3    0    0  0.18150675453E+01 -0.17727546447E+02 -0.33221787547E+02  0.37699436883E+02  0.51100000000E-03 0.  1.
         12    1    3    3    0    0 -0.94125448726E+01  0.21538754680E+02  0.35810078822E+02  0.42835449097E+02  0.00000000000E+00 0. -1.
</event>
<event>
 7    1  0.4639347E-015  0.9000759E+02  0.7816164E-02  0.1186339E+00
        -11   -1    0    0    0    0  0.00000000000E+00  0.00000000000E+00  0.45593999997E+02  0.45594000000E+02  0.51100000000E-03 0. -1.
         11   -1    0    0    0    0 -0.00000000000E+00 -0.00000000000E+00 -0.45593999997E+02  0.45594000000E+02  0.51100000000E-03 0.  1.
    9900012    2    1    2    0    0 -0.67984564879E+00  0.53408220163E+00  0.80370462467E+00  0.90007586925E+02  0.89999846272E+02 0.  0.
         12    1    1    2    0    0  0.67984564879E+00 -0.53408220163E+00 -0.80370462467E+00  0.11804130752E+01  0.00000000000E+00 0. -1.
         11    1    3    3    0    0  0.97652877031E+00 -0.15797799112E+02 -0.21892400150E+02  0.27014833885E+02  0.51100000000E-03 0. -1.
        -11    1    3    3    0    0 -0.25653212883E+01  0.14979694205E+02 -0.17263462424E+02  0.22999983629E+02  0.51100000000E-03 0.  1.
         12    1    3    3    0    0  0.90894686924E+00  0.13521871089E+01  0.39959567199E+02  0.39992769411E+02  0.00000000000E+00 0. -1.
</event>
<event>
 7    1  0.4639347E-015  0.9000771E+02  0.7816164E-02  0.1186339E+00
        -11   -1    0    0    0    0  0.00000000000E+00  0.00000000000E+00  0.45593999997E+02  0.45594000000E+02  0.51100000000E-03 0.  1.
         11   -1    0    0    0    0 -0.00000000000E+00 -0.00000000000E+00 -0.45593999997E+02  0.45594000000E+02  0.51100000000E-03 0. -1.
    9900012    2    1    2    0    0 -0.96976637195E+00 -0.65164788965E+00  0.16729320111E+00  0.90007712406E+02  0.89999973410E+02 0.  0.
         12    1    1    2    0    0  0.96976637195E+00  0.65164788965E+00 -0.16729320111E+00  0.11802875935E+01  0.00000000000E+00 0. -1.
         11    1    3    3    0    0  0.14829031905E+02 -0.38337905464E+02  0.10506661296E+02  0.42427409943E+02  0.51100000000E-03 0. -1.
        -11    1    3    3    0    0  0.46097571542E+01  0.14209440103E+02 -0.47385660164E+00  0.14945989074E+02  0.51100000000E-03 0.  1.
        -12    1    3    3    0    0 -0.20408555431E+02  0.23476817471E+02 -0.98655114928E+01  0.32634313389E+02  0.00000000000E+00 0.  1.
</event>
<event>
 7    1  0.4639347E-015  0.9000784E+02  0.7816164E-02  0.1186339E+00
        -11   -1    0    0    0    0  0.00000000000E+00  0.00000000000E+00  0.45593999997E+02  0.45594000000E+02  0.51100000000E-03 0. -1.
         11   -1    0    0    0    0 -0.00000000000E+00 -0.00000000000E+00 -0.45593999997E+02  0.45594000000E+02  0.51100000000E-03 0.  1.
    9900012    2    1    2    0    0 -0.81358997058E+00  0.81044964017E+00 -0.27207865908E+00  0.90007837276E+02  0.90000099928E+02 0.  0.
         12    1    1    2    0    0  0.81358997058E+00 -0.81044964017E+00  0.27207865908E+00  0.11801627245E+01  0.00000000000E+00 0. -1.
         11    1    3    3    0    0 -0.16299656895E+02 -0.28788085630E+02  0.23677965216E+02  0.40682658789E+02  0.51100000000E-03 0. -1.
        -11    1    3    3    0    0 -0.76559253953E+01  0.59224946661E+01 -0.80895040672E+01  0.12614642803E+02  0.51100000000E-03 0.  1.
        -12    1    3    3    0    0  0.23141992319E+02  0.23676040604E+02 -0.15860539808E+02  0.36710535684E+02  0.00000000000E+00 0.  1.
</event>
<event>
 7    1  0.4639347E-015  0.9000750E+02  0.7816164E-02  0.1186340E+00
        -11   -1    0    0    0    0  0.00000000000E+00  0.00000000000E+00  0.45593999997E+02  0.45594000000E+02  0.51100000000E-03 0. -1.
         11   -1    0    0    0    0 -0.00000000000E+00 -0.00000000000E+00 -0.45593999997E+02  0.45594000000E+02  0.51100000000E-03 0.  1.
    9900012    2    1    2    0    0  0.61627781356E+00  0.99390151764E+00 -0.16105798265E+00  0.90007500850E+02  0.89999759061E+02 0.  0.
         12    1    1    2    0    0 -0.61627781356E+00 -0.99390151764E+00  0.16105798265E+00  0.11804991504E+01  0.00000000000E+00 0. -1.
         11    1    3    3    0    0 -0.16772151468E+02  0.39579163603E+01 -0.10408869991E+01  0.17264229285E+02  0.51100000000E-03 0. -1.
        -11    1    3    3    0    0  0.17483302197E+01  0.27340776820E+02 -0.18933719098E+02  0.33302559283E+02  0.51100000000E-03 0.  1.
         12    1    3    3    0    0  0.15640099062E+02 -0.30304791663E+02  0.19813548114E+02  0.39440712282E+02  0.00000000000E+00 0. -1.
</event>
<event>
 7    1  0.4639347E-015  0.9000762E+02  0.7816164E-02  0.1186339E+00
        -11   -1    0    0    0    0  0.00000000000E+00  0.00000000000E+00  0.45593999997E+02  0.45594000000E+02  0.51100000000E-03 0. -1.
         11   -1    0    0    0    0 -0.00000000000E+00 -0.00000000000E+00 -0.45593999997E+02  0.45594000000E+02  0.51100000000E-03 0.  1.
    9900012    2    1    2    0    0 -0.10670022873E+01  0.23222120957E+00 -0.44818308597E+00  0.90007623514E+02  0.89999883344E+02 0.  0.
         12    1    1    2    0    0  0.10670022873E+01 -0.23222120957E+00  0.44818308597E+00  0.11803764865E+01  0.00000000000E+00 0. -1.
         11    1    3    3    0    0  0.23481344749E+02 -0.27678374124E+02  0.32846444365E+01  0.36445230617E+02  0.51100000000E-03 0. -1.
        -11    1    3    3    0    0  0.41122552463E+01 -0.64329504312E+01  0.32337948891E+01  0.82916177014E+01  0.51100000000E-03 0.  1.
        -12    1    3    3    0    0 -0.28660602283E+02  0.34343545765E+02 -0.69666224116E+01  0.45270775195E+02  0.00000000000E+00 0.  1.
</event>
<event>
 7    1  0.4639347E-015  0.9000770E+02  0.7816164E-02  0.1186339E+00
        -11   -1    0    0    0    0  0.00000000000E+00  0.00000000000E+00  0.45593999997E+02  0.45594000000E+02  0.51100000000E-03 0. -1.
         11   -1    0    0    0    0 -0.00000000000E+00 -0.00000000000E+00 -0.45593999997E+02  0.45594000000E+02  0.51100000000E-03 0.  1.
    9900012    2    1    2    0    0 -0.70129106802E+00  0.90326938111E+00 -0.29222262833E+00  0.90007703935E+02  0.89999964827E+02 0.  0.
         12    1    1    2    0    0  0.70129106802E+00 -0.90326938111E+00  0.29222262833E+00  0.11802960652E+01  0.00000000000E+00 0. -1.
         11    1    3    3    0    0  0.23653107118E+01  0.96046999166E+01 -0.10399957149E+01  0.99461825139E+01  0.51100000000E-03 0. -1.
        -11    1    3    3    0    0 -0.11109065157E+02  0.29999221395E+02  0.18253087744E+02  0.36831234373E+02  0.51100000000E-03 0.  1.
         12    1    3    3    0    0  0.80424633774E+01 -0.38700651931E+02 -0.17505314657E+02  0.43230287048E+02  0.00000000000E+00 0. -1.
</event>
<event>
 7    1  0.4639347E-015  0.9000773E+02  0.7816164E-02  0.1186339E+00
        -11   -1    0    0    0    0  0.00000000000E+00  0.00000000000E+00  0.45593999997E+02  0.45594000000E+02  0.51100000000E-03 0. -1.
         11   -1    0    0    0    0 -0.00000000000E+00 -0.00000000000E+00 -0.45593999997E+02  0.45594000000E+02  0.51100000000E-03 0.  1.
    9900012    2    1    2    0    0  0.47820079851E+00 -0.38318364001E+00 -0.10087280580E+01  0.90007729692E+02  0.89999990924E+02 0.  0.
         12    1    1    2    0    0 -0.47820079851E+00  0.38318364001E+00  0.10087280580E+01  0.11802703083E+01  0.00000000000E+00 0. -1.
         11    1    3    3    0    0 -0.34154746055E+01 -0.58770586333E+01 -0.18326303863E+02  0.19546321866E+02  0.51100000000E-03 0. -1.
        -11    1    3    3    0    0 -0.98453267870E+00 -0.19760955641E+02 -0.18014769497E+02  0.26758112652E+02  0.51100000000E-03 0.  1.
         12    1    3    3    0    0  0.48782080827E+01  0.25254830634E+02  0.35332345302E+02  0.43703295173E+02  0.00000000000E+00 0. -1.
</event>
