<event>
 7    1  0.5935282E-013  0.5052887E+02  0.7816164E-02  0.1300439E+00
        -11   -1    0    0    0    0  0.00000000000E+00  0.00000000000E+00  0.45593999997E+02  0.45594000000E+02  0.51100000000E-03 0.  1.
         11   -1    0    0    0    0 -0.00000000000E+00 -0.00000000000E+00 -0.45593999997E+02  0.45594000000E+02  0.51100000000E-03 0. -1.
    9900012    2    1    2    0    0  0.14292385858E+02 -0.20113342719E+00 -0.38063789723E+02  0.50528870198E+02  0.30000031454E+02 0.  0.
        -12    1    1    2    0    0 -0.14292385858E+02  0.20113342719E+00  0.38063789723E+02  0.40659129802E+02  0.00000000000E+00 0.  1.
         11    1    3    3    0    0  0.50472783159E+01  0.19065791640E+01 -0.15332592089E+02  0.16254182322E+02  0.51100000000E-03 0. -1.
        -11    1    3    3    0    0  0.10336817448E+01  0.10324489670E+02 -0.12272764748E+02  0.16071227076E+02  0.51100000000E-03 0.  1.
         12    1    3    3    0    0  0.82114257973E+01 -0.12432202261E+02 -0.10458432885E+02  0.18203460800E+02  0.00000000000E+00 0. -1.
</event>
<event>
 7    1  0.5935282E-013  0.5052886E+02  0.7816164E-02  0.1300439E+00
        -11   -1    0    0    0    0  0.00000000000E+00  0.00000000000E+00  0.45593999997E+02  0.45594000000E+02  0.51100000000E-03 0. -1.
         11   -1    0    0    0    0 -0.00000000000E+00 -0.00000000000E+00 -0.45593999997E+02  0.45594000000E+02  0.51100000000E-03 0.  1.
    9900012    2    1    2    0    0 -0.35497011771E+01  0.14990295227E+02  0.37627865700E+02  0.50528860725E+02  0.30000002660E+02 0.  0.
        -12    1    1    2    0    0  0.35497011771E+01 -0.14990295227E+02 -0.37627865700E+02  0.40659139275E+02  0.00000000000E+00 0.  1.
         11    1    3    3    0    0  0.99034596132E+00  0.41577282399E+01  0.58528579481E+00  0.43139365969E+01  0.51100000000E-03 0. -1.
        -11    1    3    3    0    0  0.21736466821E+01  0.15498249604E+02  0.11569872685E+02  0.19462333748E+02  0.51100000000E-03 0.  1.
         12    1    3    3    0    0 -0.67136938205E+01 -0.46656826164E+01  0.25472707219E+02  0.26752590381E+02  0.00000000000E+00 0. -1.
</event>
<event>
 7    1  0.5935282E-013  0.5052887E+02  0.7816164E-02  0.1300439E+00
        -11   -1    0    0    0    0  0.00000000000E+00  0.00000000000E+00  0.45593999997E+02  0.45594000000E+02  0.51100000000E-03 0.  1.
         11   -1    0    0    0    0 -0.00000000000E+00 -0.00000000000E+00 -0.45593999997E+02  0.45594000000E+02  0.51100000000E-03 0. -1.
    9900012    2    1    2    0    0  0.20903984442E+02 -0.27677079040E+02 -0.21217157481E+02  0.50528867676E+02  0.30000023789E+02 0.  0.
        -12    1    1    2    0    0 -0.20903984442E+02  0.27677079040E+02  0.21217157481E+02  0.40659132324E+02  0.00000000000E+00 0.  1.
         11    1    3    3    0    0  0.11962986832E+02 -0.61894372512E+01 -0.22938146048E+01  0.13663227039E+02  0.51100000000E-03 0. -1.
        -11    1    3    3    0    0  0.14553715847E+02 -0.21557259456E+02 -0.15124158772E+02  0.30087642962E+02  0.51100000000E-03 0.  1.
        -12    1    3    3    0    0 -0.56127182364E+01  0.69617667083E-01 -0.37991841049E+01  0.67779976751E+01  0.00000000000E+00 0.  1.
</event>
<event>
 7    1  0.5935282E-013  0.5052886E+02  0.7816164E-02  0.1300439E+00
        -11   -1    0    0    0    0  0.00000000000E+00  0.00000000000E+00  0.45593999997E+02  0.45594000000E+02  0.51100000000E-03 0.  1.
         11   -1    0    0    0    0 -0.00000000000E+00 -0.00000000000E+00 -0.45593999997E+02  0.45594000000E+02  0.51100000000E-03 0. -1.
    9900012    2    1    2    0    0 -0.81566270810E+01 -0.37770746800E+02 -0.12649338640E+02  0.50528860225E+02  0.30000001141E+02 0.  0.
        -12    1    1    2    0    0  0.81566270810E+01  0.37770746800E+02  0.12649338640E+02  0.40659139775E+02  0.00000000000E+00 0.  1.
         11    1    3    3    0    0 -0.63667428230E+01 -0.14051064012E+02 -0.63981462903E+01  0.16700421859E+02  0.51100000000E-03 0. -1.
        -11    1    3    3    0    0 -0.12241314118E+02 -0.92211385027E+01 -0.19883087506E+01  0.15454207795E+02  0.51100000000E-03 0.  1.
         12    1    3    3    0    0  0.10451429860E+02 -0.14498544285E+02 -0.42628835994E+01  0.18374230571E+02  0.00000000000E+00 0. -1.
</event>
<event>
 7    1  0.5935282E-013  0.5052885E+02  0.7816164E-02  0.1300439E+00
        -11   -1    0    0    0    0  0.00000000000E+00  0.00000000000E+00  0.45593999997E+02  0.45594000000E+02  0.51100000000E-03 0.  1.
         11   -1    0    0    0    0 -0.00000000000E+00 -0.00000000000E+00 -0.45593999997E+02  0.45594000000E+02  0.51100000000E-03 0. -1.
    9900012    2    1    2    0    0  0.29253131811E+02 -0.21640428343E+02 -0.18141467584E+02  0.50528847209E+02  0.29999961576E+02 0.  0.
        -12    1    1    2    0    0 -0.29253131811E+02  0.21640428343E+02  0.18141467584E+02  0.40659152791E+02  0.00000000000E+00 0.  1.
         11    1    3    3    0    0  0.20079029305E+02 -0.85223462361E+00 -0.81487233853E+01  0.21686295552E+02  0.51100000000E-03 0. -1.
        -11    1    3    3    0    0  0.11346941098E+02 -0.79505369071E+01 -0.68133340499E+01  0.15439741919E+02  0.51100000000E-03 0.  1.
        -12    1    3    3    0    0 -0.21728385923E+01 -0.12837656812E+02 -0.31794101484E+01  0.13402809738E+02  0.00000000000E+00 0.  1.
</event>
<event>
 7    1  0.5935282E-013  0.5052875E+02  0.7816164E-02  0.1300439E+00
        -11   -1    0    0    0    0  0.00000000000E+00  0.00000000000E+00  0.45593999997E+02  0.45594000000E+02  0.51100000000E-03 0. -1.
         11   -1    0    0    0    0 -0.00000000000E+00 -0.00000000000E+00 -0.45593999997E+02  0.45594000000E+02  0.51100000000E-03 0.  1.
    9900012    2    1    2    0    0  0.12077775393E+02 -0.37515517943E+02  0.99944041866E+01  0.50528746932E+02  0.29999656773E+02 0.  0.
        -12    1    1    2    0    0 -0.12077775393E+02  0.37515517943E+02 -0.99944041866E+01  0.40659253068E+02  0.00000000000E+00 0.  1.
         11    1    3    3    0    0  0.63013019058E+01 -0.20176173267E+02  0.46207003794E+01  0.21636433293E+02  0.51100000000E-03 0. -1.
        -11    1    3    3    0    0  0.76974299225E+01 -0.19911480097E+01 -0.57737368650E+01  0.98260437337E+01  0.51100000000E-03 0.  1.
         12    1    3    3    0    0 -0.19209564354E+01 -0.15348196667E+02  0.11147440672E+02  0.19066269905E+02  0.00000000000E+00 0. -1.
</event>
<event>
 7    1  0.5935282E-013  0.5052886E+02  0.7816164E-02  0.1300439E+00
        -11   -1    0    0    0    0  0.00000000000E+00  0.00000000000E+00  0.45593999997E+02  0.45594000000E+02  0.51100000000E-03 0. -1.
         11   -1    0    0    0    0 -0.00000000000E+00 -0.00000000000E+00 -0.45593999997E+02  0.45594000000E+02  0.51100000000E-03 0.  1.
    9900012    2    1    2    0    0  0.89857034876E+00  0.86834701669E+01  0.39710903664E+02  0.50528856469E+02  0.29999989724E+02 0.  0.
        -12    1    1    2    0    0 -0.89857034876E+00 -0.86834701669E+01 -0.39710903664E+02  0.40659143531E+02  0.00000000000E+00 0.  1.
         11    1    3    3    0    0 -0.70412584406E+01  0.23624063676E+01  0.13197118743E+01  0.75433363948E+01  0.51100000000E-03 0. -1.
        -11    1    3    3    0    0 -0.38661279509E+01  0.40399844114E+01  0.50216722713E+01  0.75156910553E+01  0.51100000000E-03 0.  1.
         12    1    3    3    0    0  0.11805956740E+02  0.22810793879E+01  0.33369519519E+02  0.35469829019E+02  0.00000000000E+00 0. -1.
</event>
<event>
 7    1  0.5935282E-013  0.5052885E+02  0.7816164E-02  0.1300439E+00
        -11   -1    0    0    0    0  0.00000000000E+00  0.00000000000E+00  0.45593999997E+02  0.45594000000E+02  0.51100000000E-03 0.  1.
         11   -1    0    0    0    0 -0.00000000000E+00 -0.00000000000E+00 -0.45593999997E+02  0.45594000000E+02  0.51100000000E-03 0. -1.
    9900012    2    1    2    0    0 -0.20388821025E+02 -0.23894506125E+02 -0.25816948401E+02  0.50528852561E+02  0.29999977844E+02 0.  0.
        -12    1    1    2    0    0  0.20388821025E+02  0.23894506125E+02  0.25816948401E+02  0.40659147439E+02  0.00000000000E+00 0.  1.
         11    1    3    3    0    0 -0.21718893503E+02 -0.17997224798E+02 -0.16531498836E+02  0.32694049756E+02  0.51100000000E-03 0. -1.
        -11    1    3    3    0    0 -0.16316023517E+00 -0.67864165951E+00  0.36975050482E+01  0.37628074103E+01  0.51100000000E-03 0.  1.
        -12    1    3    3    0    0  0.14932327127E+01 -0.52186396671E+01 -0.12982954613E+02  0.14071995395E+02  0.00000000000E+00 0.  1.
</event>
<event>
 7    1  0.5935282E-013  0.5052890E+02  0.7816164E-02  0.1300439E+00
        -11   -1    0    0    0    0  0.00000000000E+00  0.00000000000E+00  0.45593999997E+02  0.45594000000E+02  0.51100000000E-03 0.  1.
         11   -1    0    0    0    0 -0.00000000000E+00 -0.00000000000E+00 -0.45593999997E+02  0.45594000000E+02  0.51100000000E-03 0. -1.
    9900012    2    1    2    0    0 -0.12465312816E+02 -0.27028926476E+02 -0.27698650357E+02  0.50528903581E+02  0.30000132925E+02 0.  0.
        -12    1    1    2    0    0  0.12465312816E+02  0.27028926476E+02  0.27698650357E+02  0.40659096419E+02  0.00000000000E+00 0.  1.
         11    1    3    3    0    0 -0.58526571987E+01 -0.11584374094E+02 -0.16877906180E+02  0.21291196226E+02  0.51100000000E-03 0. -1.
        -11    1    3    3    0    0 -0.23209789196E+01 -0.81202765712E+00 -0.13528589173E+02  0.13750238446E+02  0.51100000000E-03 0.  1.
        -12    1    3    3    0    0 -0.42916766974E+01 -0.14632524724E+02  0.27078449965E+01  0.15487468909E+02  0.00000000000E+00 0.  1.
</event>
<event>
 7    1  0.5935282E-013  0.5052886E+02  0.7816164E-02  0.1300439E+00
        -11   -1    0    0    0    0  0.00000000000E+00  0.00000000000E+00  0.45593999997E+02  0.45594000000E+02  0.51100000000E-03 0.  1.
         11   -1    0    0    0    0 -0.00000000000E+00 -0.00000000000E+00 -0.45593999997E+02  0.45594000000E+02  0.51100000000E-03 0. -1.
    9900012    2    1    2    0    0 -0.30507272086E+02 -0.22770222078E+01 -0.26782224341E+02  0.50528855630E+02  0.29999987173E+02 0.  0.
        -12    1    1    2    0    0  0.30507272086E+02  0.22770222078E+01  0.26782224341E+02  0.40659144370E+02  0.00000000000E+00 0.  1.
         11    1    3    3    0    0 -0.24569179553E+02 -0.14554157109E+00 -0.25408663514E+02  0.35344956473E+02  0.51100000000E-03 0. -1.
        -11    1    3    3    0    0  0.11708504586E+01 -0.30889026500E+01 -0.58573922834E+01  0.67246750851E+01  0.51100000000E-03 0.  1.
        -12    1    3    3    0    0 -0.71089429915E+01  0.95742201330E+00  0.44838314563E+01  0.84592240718E+01  0.00000000000E+00 0.  1.
</event>
<event>
 7    1  0.5935282E-013  0.5052886E+02  0.7816164E-02  0.1300439E+00
        -11   -1    0    0    0    0  0.00000000000E+00  0.00000000000E+00  0.45593999997E+02  0.45594000000E+02  0.51100000000E-03 0.  1.
         11   -1    0    0    0    0 -0.00000000000E+00 -0.00000000000E+00 -0.45593999997E+02  0.45594000000E+02  0.51100000000E-03 0. -1.
    9900012    2    1    2    0    0  0.81577759558E+01 -0.20467288554E+02 -0.34171715583E+02  0.50528863817E+02  0.30000012058E+02 0.  0.
        -12    1    1    2    0    0 -0.81577759558E+01  0.20467288554E+02  0.34171715583E+02  0.40659136183E+02  0.00000000000E+00 0.  1.
         11    1    3    3    0    0 -0.36427839892E+01 -0.10344984324E+02 -0.21882883464E+02  0.24477523666E+02  0.51100000000E-03 0. -1.
        -11    1    3    3    0    0 -0.10517725251E+01 -0.89863077226E+01 -0.89443640711E+01  0.12722484067E+02  0.51100000000E-03 0.  1.
        -12    1    3    3    0    0  0.12852332470E+02 -0.11359965074E+01 -0.33444680473E+01  0.13328856084E+02  0.00000000000E+00 0.  1.
</event>
<event>
 7    1  0.5935282E-013  0.5052886E+02  0.7816164E-02  0.1300439E+00
        -11   -1    0    0    0    0  0.00000000000E+00  0.00000000000E+00  0.45593999997E+02  0.45594000000E+02  0.51100000000E-03 0. -1.
         11   -1    0    0    0    0 -0.00000000000E+00 -0.00000000000E+00 -0.45593999997E+02  0.45594000000E+02  0.51100000000E-03 0.  1.
    9900012    2    1    2    0    0  0.33307386946E+02 -0.23228426768E+02  0.20552708851E+01  0.50528856210E+02  0.29999988937E+02 0.  0.
        -12    1    1    2    0    0 -0.33307386946E+02  0.23228426768E+02 -0.20552708851E+01  0.40659143790E+02  0.00000000000E+00 0.  1.
         11    1    3    3    0    0  0.18283303502E+02 -0.12529155579E+02  0.21512649924E+01  0.22268517414E+02  0.51100000000E-03 0. -1.
        -11    1    3    3    0    0 -0.58954701038E+00 -0.10577581199E+02 -0.52421830626E+01  0.11820036939E+02  0.51100000000E-03 0.  1.
         12    1    3    3    0    0  0.15613630454E+02 -0.12168998998E+00  0.51461889553E+01  0.16440301858E+02  0.00000000000E+00 0. -1.
</event>
<event>
 7    1  0.5935282E-013  0.5052886E+02  0.7816164E-02  0.1300439E+00
        -11   -1    0    0    0    0  0.00000000000E+00  0.00000000000E+00  0.45593999997E+02  0.45594000000E+02  0.51100000000E-03 0.  1.
         11   -1    0    0    0    0 -0.00000000000E+00 -0.00000000000E+00 -0.45593999997E+02  0.45594000000E+02  0.51100000000E-03 0. -1.
    9900012    2    1    2    0    0 -0.13952350933E+02 -0.13601712550E+02 -0.35686007089E+02  0.50528858558E+02  0.29999996073E+02 0.  0.
        -12    1    1    2    0    0  0.13952350933E+02  0.13601712550E+02  0.35686007089E+02  0.40659141442E+02  0.00000000000E+00 0.  1.
         11    1    3    3    0    0 -0.11950812737E+02 -0.78681327584E+01 -0.89605183412E+01  0.16882545050E+02  0.51100000000E-03 0. -1.
        -11    1    3    3    0    0 -0.51622601361E+01  0.11025233731E+01  0.59000488975E+00  0.53115528362E+01  0.51100000000E-03 0.  1.
        -12    1    3    3    0    0  0.31607219396E+01 -0.68361031651E+01 -0.27315493637E+02  0.28334760672E+02  0.00000000000E+00 0.  1.
</event>
<event>
 7    1  0.5935282E-013  0.5052886E+02  0.7816164E-02  0.1300439E+00
        -11   -1    0    0    0    0  0.00000000000E+00  0.00000000000E+00  0.45593999997E+02  0.45594000000E+02  0.51100000000E-03 0.  1.
         11   -1    0    0    0    0 -0.00000000000E+00 -0.00000000000E+00 -0.45593999997E+02  0.45594000000E+02  0.51100000000E-03 0. -1.
    9900012    2    1    2    0    0  0.25462377405E+02  0.28248643584E+02  0.14382180280E+02  0.50528860350E+02  0.30000001521E+02 0.  0.
        -12    1    1    2    0    0 -0.25462377405E+02 -0.28248643584E+02 -0.14382180280E+02  0.40659139650E+02  0.00000000000E+00 0.  1.
         11    1    3    3    0    0  0.56854415657E+01  0.57157034214E+01  0.25010062227E+01  0.84408852489E+01  0.51100000000E-03 0. -1.
        -11    1    3    3    0    0  0.18331153868E+02  0.28487836079E+02  0.12056498983E+02  0.35957574648E+02  0.51100000000E-03 0.  1.
        -12    1    3    3    0    0  0.14457819712E+01 -0.59548959165E+01 -0.17532492596E+00  0.61304004530E+01  0.00000000000E+00 0.  1.
</event>
<event>
 7    1  0.5935282E-013  0.5052884E+02  0.7816164E-02  0.1300439E+00
        -11   -1    0    0    0    0  0.00000000000E+00  0.00000000000E+00  0.45593999997E+02  0.45594000000E+02  0.51100000000E-03 0.  1.
         11   -1    0    0    0    0 -0.00000000000E+00 -0.00000000000E+00 -0.45593999997E+02  0.45594000000E+02  0.51100000000E-03 0. -1.
    9900012    2    1    2    0    0  0.15099524675E+02  0.11984067906E+02 -0.35798790859E+02  0.50528844131E+02  0.29999952221E+02 0.  0.
        -12    1    1    2    0    0 -0.15099524675E+02 -0.11984067906E+02  0.35798790859E+02  0.40659155869E+02  0.00000000000E+00 0.  1.
         11    1    3    3    0    0  0.32040650262E+01 -0.78715543453E+01 -0.11826005653E+02  0.14563028891E+02  0.51100000000E-03 0. -1.
        -11    1    3    3    0    0  0.10051894351E+02  0.62995802047E+01 -0.57603848267E+01  0.13187392632E+02  0.51100000000E-03 0.  1.
         12    1    3    3    0    0  0.18435652972E+01  0.13556042046E+02 -0.18212400380E+02  0.22778422609E+02  0.00000000000E+00 0. -1.
</event>
<event>
 7    1  0.5935282E-013  0.5052888E+02  0.7816164E-02  0.1300439E+00
        -11   -1    0    0    0    0  0.00000000000E+00  0.00000000000E+00  0.45593999997E+02  0.45594000000E+02  0.51100000000E-03 0.  1.
         11   -1    0    0    0    0 -0.00000000000E+00 -0.00000000000E+00 -0.45593999997E+02  0.45594000000E+02  0.51100000000E-03 0. -1.
    9900012    2    1    2    0    0 -0.74804852066E+01 -0.53310228624E+00 -0.39961507692E+02  0.50528881048E+02  0.30000064433E+02 0.  0.
        -12    1    1    2    0    0  0.74804852066E+01  0.53310228624E+00  0.39961507692E+02  0.40659118952E+02  0.00000000000E+00 0.  1.
         11    1    3    3    0    0  0.68135838530E+01  0.48035752970E+01 -0.80070054790E+01  0.11559039647E+02  0.51100000000E-03 0. -1.
        -11    1    3    3    0    0 -0.23968322785E+01  0.16529331370E+01  0.11300442876E+01  0.31231383703E+01  0.51100000000E-03 0.  1.
         12    1    3    3    0    0 -0.11897236781E+02 -0.69896107202E+01 -0.33084546500E+02  0.35846703031E+02  0.00000000000E+00 0. -1.
</event>
<event>
 7    1  0.5935282E-013  0.5052877E+02  0.7816164E-02  0.1300439E+00
        -11   -1    0    0    0    0  0.00000000000E+00  0.00000000000E+00  0.45593999997E+02  0.45594000000E+02  0.51100000000E-03 0.  1.
         11   -1    0    0    0    0 -0.00000000000E+00 -0.00000000000E+00 -0.45593999997E+02  0.45594000000E+02  0.51100000000E-03 0. -1.
    9900012    2    1    2    0    0 -0.12916110036E+02  0.11278641086E+02 -0.36866503366E+02  0.50528773327E+02  0.29999737003E+02 0.  0.
        -12    1    1    2    0    0  0.12916110036E+02 -0.11278641086E+02  0.36866503366E+02  0.40659226673E+02  0.00000000000E+00 0.  1.
         11    1    3    3    0    0  0.17519526852E+01  0.11514785608E+02 -0.19788567251E+02  0.22961860114E+02  0.51100000000E-03 0. -1.
        -11    1    3    3    0    0 -0.15030532171E+01  0.54304179260E+01 -0.10237127893E+02  0.11685349613E+02  0.51100000000E-03 0.  1.
        -12    1    3    3    0    0 -0.13165009504E+02 -0.56665624483E+01 -0.68408082226E+01  0.15881563600E+02  0.00000000000E+00 0.  1.
</event>
<event>
 7    1  0.5935282E-013  0.5052886E+02  0.7816164E-02  0.1300439E+00
        -11   -1    0    0    0    0  0.00000000000E+00  0.00000000000E+00  0.45593999997E+02  0.45594000000E+02  0.51100000000E-03 0.  1.
         11   -1    0    0    0    0 -0.00000000000E+00 -0.00000000000E+00 -0.45593999997E+02  0.45594000000E+02  0.51100000000E-03 0. -1.
    9900012    2    1    2    0    0  0.37769111920E+01  0.14813647926E+02 -0.37675675404E+02  0.50528859082E+02  0.29999997666E+02 0.  0.
        -12    1    1    2    0    0 -0.37769111920E+01 -0.14813647926E+02  0.37675675404E+02  0.40659140918E+02  0.00000000000E+00 0.  1.
         11    1    3    3    0    0 -0.10465647009E+01  0.13104493224E+02 -0.37591477496E+02  0.39823890077E+02  0.51100000000E-03 0. -1.
        -11    1    3    3    0    0  0.35142649172E+01 -0.15241236551E+01 -0.39470406450E+01  0.55001946273E+01  0.51100000000E-03 0.  1.
        -12    1    3    3    0    0  0.13092109758E+01  0.32332783573E+01  0.38628427363E+01  0.52047743774E+01  0.00000000000E+00 0.  1.
</event>
<event>
 7    1  0.5935282E-013  0.5052886E+02  0.7816164E-02  0.1300439E+00
        -11   -1    0    0    0    0  0.00000000000E+00  0.00000000000E+00  0.45593999997E+02  0.45594000000E+02  0.51100000000E-03 0.  1.
         11   -1    0    0    0    0 -0.00000000000E+00 -0.00000000000E+00 -0.45593999997E+02  0.45594000000E+02  0.51100000000E-03 0. -1.
    9900012    2    1    2    0    0  0.28689879195E+02  0.28783258199E+02  0.12570825042E+01  0.50528863546E+02  0.30000011234E+02 0.  0.
        -12    1    1    2    0    0 -0.28689879195E+02 -0.28783258199E+02 -0.12570825042E+01  0.40659136454E+02  0.00000000000E+00 0.  1.
         11    1    3    3    0    0  0.75757168176E+01  0.19732044497E+01  0.35496644282E+01  0.85956465094E+01  0.51100000000E-03 0. -1.
        -11    1    3    3    0    0  0.25184187085E+02  0.16403235676E+02  0.16067538179E+01  0.30098024484E+02  0.51100000000E-03 0.  1.
        -12    1    3    3    0    0 -0.40700247069E+01  0.10406818073E+02 -0.38993357419E+01  0.11835192552E+02  0.00000000000E+00 0.  1.
</event>
<event>
 7    1  0.5935282E-013  0.5052885E+02  0.7816164E-02  0.1300439E+00
        -11   -1    0    0    0    0  0.00000000000E+00  0.00000000000E+00  0.45593999997E+02  0.45594000000E+02  0.51100000000E-03 0. -1.
         11   -1    0    0    0    0 -0.00000000000E+00 -0.00000000000E+00 -0.45593999997E+02  0.45594000000E+02  0.51100000000E-03 0.  1.
    9900012    2    1    2    0    0  0.17588405200E+02 -0.17199140752E+02  0.32372887589E+02  0.50528852309E+02  0.29999977080E+02 0.  0.
        -12    1    1    2    0    0 -0.17588405200E+02  0.17199140752E+02 -0.32372887589E+02  0.40659147691E+02  0.00000000000E+00 0.  1.
         11    1    3    3    0    0  0.13668653844E+01 -0.14526790360E+02  0.60760597786E+01  0.15805519980E+02  0.51100000000E-03 0. -1.
        -11    1    3    3    0    0  0.11054620882E+02 -0.31100353785E+01  0.45260010202E+01  0.12343486072E+02  0.51100000000E-03 0.  1.
         12    1    3    3    0    0  0.51669189335E+01  0.43768498643E+00  0.21770826790E+02  0.22379846258E+02  0.00000000000E+00 0. -1.
</event>
<event>
 7    1  0.5935282E-013  0.5052881E+02  0.7816164E-02  0.1300439E+00
        -11   -1    0    0    0    0  0.00000000000E+00  0.00000000000E+00  0.45593999997E+02  0.45594000000E+02  0.51100000000E-03 0. -1.
         11   -1    0    0    0    0 -0.00000000000E+00 -0.00000000000E+00 -0.45593999997E+02  0.45594000000E+02  0.51100000000E-03 0.  1.
    9900012    2    1    2    0    0  0.38979177630E+02 -0.76464727406E+01  0.86790011417E+01  0.50528807990E+02  0.29999842366E+02 0.  0.
        -12    1    1    2    0    0 -0.38979177630E+02  0.76464727406E+01 -0.86790011417E+01  0.40659192010E+02  0.00000000000E+00 0.  1.
         11    1    3    3    0    0  0.20670606511E+02 -0.10876510593E+01 -0.83997214117E+01  0.22338582731E+02  0.51100000000E-03 0. -1.
        -11    1    3    3    0    0  0.19273189863E+01  0.65004947479E-02  0.82214460096E+01  0.84443339277E+01  0.51100000000E-03 0.  1.
        -12    1    3    3    0    0  0.16381252132E+02 -0.65653221761E+01  0.88572765438E+01  0.19745891331E+02  0.00000000000E+00 0.  1.
</event>
<event>
 7    1  0.5935282E-013  0.5052886E+02  0.7816164E-02  0.1300439E+00
        -11   -1    0    0    0    0  0.00000000000E+00  0.00000000000E+00  0.45593999997E+02  0.45594000000E+02  0.51100000000E-03 0.  1.
         11   -1    0    0    0    0 -0.00000000000E+00 -0.00000000000E+00 -0.45593999997E+02  0.45594000000E+02  0.51100000000E-03 0. -1.
    9900012    2    1    2    0    0  0.30850120549E+02 -0.19078864789E+02 -0.18369335097E+02  0.50528862141E+02  0.30000006964E+02 0.  0.
        -12    1    1    2    0    0 -0.30850120549E+02  0.19078864789E+02  0.18369335097E+02  0.40659137859E+02  0.00000000000E+00 0.  1.
         11    1    3    3    0    0  0.14039443547E+02 -0.75033969525E+01 -0.15946934451E+02  0.22532457913E+02  0.51100000000E-03 0. -1.
        -11    1    3    3    0    0  0.17279169428E+02 -0.11834624517E+01 -0.30011948763E+01  0.17577754420E+02  0.51100000000E-03 0.  1.
         12    1    3    3    0    0 -0.46849242683E+00 -0.10392005385E+02  0.57879422960E+00  0.10418649808E+02  0.00000000000E+00 0. -1.
</event>
<event>
 7    1  0.5935282E-013  0.5052886E+02  0.7816164E-02  0.1300439E+00
        -11   -1    0    0    0    0  0.00000000000E+00  0.00000000000E+00  0.45593999997E+02  0.45594000000E+02  0.51100000000E-03 0.  1.
         11   -1    0    0    0    0 -0.00000000000E+00 -0.00000000000E+00 -0.45593999997E+02  0.45594000000E+02  0.51100000000E-03 0. -1.
    9900012    2    1    2    0    0  0.33701549143E+02 -0.21515130837E+02  0.73804182889E+01  0.50528857810E+02  0.29999993798E+02 0.  0.
        -12    1    1    2    0    0 -0.33701549143E+02  0.21515130837E+02 -0.73804182889E+01  0.40659142190E+02  0.00000000000E+00 0.  1.
         11    1    3    3    0    0  0.98230886274E+01 -0.12890567009E+02 -0.99623011517E+00  0.16237372408E+02  0.51100000000E-03 0. -1.
        -11    1    3    3    0    0 -0.53992117667E+00 -0.87270854741E+01  0.33327888423E+01  0.93574044199E+01  0.51100000000E-03 0.  1.
         12    1    3    3    0    0  0.24418381692E+02  0.10252164664E+00  0.50438595618E+01  0.24934080982E+02  0.00000000000E+00 0. -1.
</event>
<event>
 7    1  0.5935282E-013  0.5052885E+02  0.7816164E-02  0.1300439E+00
        -11   -1    0    0    0    0  0.00000000000E+00  0.00000000000E+00  0.45593999997E+02  0.45594000000E+02  0.51100000000E-03 0.  1.
         11   -1    0    0    0    0 -0.00000000000E+00 -0.00000000000E+00 -0.45593999997E+02  0.45594000000E+02  0.51100000000E-03 0. -1.
    9900012    2    1    2    0    0  0.15559719910E+02  0.33400036169E+02  0.17190077949E+02  0.50528854907E+02  0.29999984976E+02 0.  0.
        -12    1    1    2    0    0 -0.15559719910E+02 -0.33400036169E+02 -0.17190077949E+02  0.40659145093E+02  0.00000000000E+00 0.  1.
         11    1    3    3    0    0  0.11856625615E+02  0.14269622242E+02  0.11571219177E+02  0.21865379105E+02  0.51100000000E-03 0. -1.
        -11    1    3    3    0    0  0.41010751412E+01  0.69807260928E-01  0.84469105812E+01  0.93901005849E+01  0.51100000000E-03 0.  1.
         12    1    3    3    0    0 -0.39798084605E+00  0.19060606667E+02 -0.28280518092E+01  0.19273375218E+02  0.00000000000E+00 0. -1.
</event>
<event>
 7    1  0.5935282E-013  0.5052888E+02  0.7816164E-02  0.1300439E+00
        -11   -1    0    0    0    0  0.00000000000E+00  0.00000000000E+00  0.45593999997E+02  0.45594000000E+02  0.51100000000E-03 0. -1.
         11   -1    0    0    0    0 -0.00000000000E+00 -0.00000000000E+00 -0.45593999997E+02  0.45594000000E+02  0.51100000000E-03 0.  1.
    9900012    2    1    2    0    0 -0.39789801611E+02 -0.36994325730E+01 -0.74999899092E+01  0.50528880946E+02  0.30000064124E+02 0.  0.
        -12    1    1    2    0    0  0.39789801611E+02  0.36994325730E+01  0.74999899092E+01  0.40659119054E+02  0.00000000000E+00 0.  1.
         11    1    3    3    0    0 -0.23238956361E+02 -0.27995494563E+01 -0.15846544234E+02  0.28266579813E+02  0.51100000000E-03 0. -1.
        -11    1    3    3    0    0 -0.56471723756E+01  0.22298708618E+01 -0.25011719000E+01  0.65664862015E+01  0.51100000000E-03 0.  1.
         12    1    3    3    0    0 -0.10903672874E+02 -0.31297539786E+01  0.10847726225E+02  0.15695814931E+02  0.00000000000E+00 0. -1.
</event>
<event>
 7    1  0.5935282E-013  0.5052886E+02  0.7816164E-02  0.1300439E+00
        -11   -1    0    0    0    0  0.00000000000E+00  0.00000000000E+00  0.45593999997E+02  0.45594000000E+02  0.51100000000E-03 0.  1.
         11   -1    0    0    0    0 -0.00000000000E+00 -0.00000000000E+00 -0.45593999997E+02  0.45594000000E+02  0.51100000000E-03 0. -1.
    9900012    2    1    2    0    0 -0.64172856483E+01 -0.31519599869E+02 -0.24869642749E+02  0.50528857591E+02  0.29999993132E+02 0.  0.
        -12    1    1    2    0    0  0.64172856483E+01  0.31519599869E+02  0.24869642749E+02  0.40659142409E+02  0.00000000000E+00 0.  1.
         11    1    3    3    0    0 -0.27064166914E+01 -0.18349755433E+02 -0.11385706633E+02  0.21764019196E+02  0.51100000000E-03 0. -1.
        -11    1    3    3    0    0 -0.12354606350E+02 -0.10124558138E+02 -0.65111282817E+01  0.17249283096E+02  0.51100000000E-03 0.  1.
        -12    1    3    3    0    0  0.86437373929E+01 -0.30452862980E+01 -0.69728078342E+01  0.11515555299E+02  0.00000000000E+00 0.  1.
</event>
<event>
 7    1  0.5935282E-013  0.5052886E+02  0.7816164E-02  0.1300439E+00
        -11   -1    0    0    0    0  0.00000000000E+00  0.00000000000E+00  0.45593999997E+02  0.45594000000E+02  0.51100000000E-03 0.  1.
         11   -1    0    0    0    0 -0.00000000000E+00 -0.00000000000E+00 -0.45593999997E+02  0.45594000000E+02  0.51100000000E-03 0. -1.
    9900012    2    1    2    0    0 -0.30204838049E+02  0.16303058052E+02 -0.21795502462E+02  0.50528857474E+02  0.29999992777E+02 0.  0.
        -12    1    1    2    0    0  0.30204838049E+02 -0.16303058052E+02  0.21795502462E+02  0.40659142526E+02  0.00000000000E+00 0.  1.
         11    1    3    3    0    0 -0.14335552436E+02  0.67582740058E+01 -0.25817205460E+01  0.16057634086E+02  0.51100000000E-03 0. -1.
        -11    1    3    3    0    0 -0.98916249589E+01 -0.15570585055E+01  0.15957356094E+01  0.10139775536E+02  0.51100000000E-03 0.  1.
         12    1    3    3    0    0 -0.59776606535E+01  0.11101842552E+02 -0.20809517525E+02  0.24331447852E+02  0.00000000000E+00 0. -1.
</event>
<event>
 7    1  0.5935282E-013  0.5052886E+02  0.7816164E-02  0.1300439E+00
        -11   -1    0    0    0    0  0.00000000000E+00  0.00000000000E+00  0.45593999997E+02  0.45594000000E+02  0.51100000000E-03 0. -1.
         11   -1    0    0    0    0 -0.00000000000E+00 -0.00000000000E+00 -0.45593999997E+02  0.45594000000E+02  0.51100000000E-03 0.  1.
    9900012    2    1    2    0    0 -0.27086153481E+02  0.30027527828E+02  0.42253506185E+01  0.50528859260E+02  0.29999998206E+02 0.  0.
        -12    1    1    2    0    0  0.27086153481E+02 -0.30027527828E+02 -0.42253506185E+01  0.40659140740E+02  0.00000000000E+00 0.  1.
         11    1    3    3    0    0 -0.77009436756E+00  0.61864145298E+01  0.32961500646E-01  0.62342486950E+01  0.51100000000E-03 0. -1.
        -11    1    3    3    0    0 -0.18213567498E+02  0.19513702099E+02 -0.90436573261E+01  0.28183441037E+02  0.51100000000E-03 0.  1.
        -12    1    3    3    0    0 -0.81024916155E+01  0.43274111998E+01  0.13236046444E+02  0.16111169527E+02  0.00000000000E+00 0.  1.
</event>
<event>
 7    1  0.5935282E-013  0.5052886E+02  0.7816164E-02  0.1300439E+00
        -11   -1    0    0    0    0  0.00000000000E+00  0.00000000000E+00  0.45593999997E+02  0.45594000000E+02  0.51100000000E-03 0.  1.
         11   -1    0    0    0    0 -0.00000000000E+00 -0.00000000000E+00 -0.45593999997E+02  0.45594000000E+02  0.51100000000E-03 0. -1.
    9900012    2    1    2    0    0 -0.25594519284E+02 -0.18676975944E+02 -0.25480519830E+02  0.50528859101E+02  0.29999997724E+02 0.  0.
        -12    1    1    2    0    0  0.25594519284E+02  0.18676975944E+02  0.25480519830E+02  0.40659140899E+02  0.00000000000E+00 0.  1.
         11    1    3    3    0    0 -0.15850723499E+02 -0.21244015375E+02 -0.18909239220E+02  0.32559375805E+02  0.51100000000E-03 0. -1.
        -11    1    3    3    0    0 -0.33428189527E+01 -0.48093902575E+01  0.54947820455E+00  0.58827374374E+01  0.51100000000E-03 0.  1.
        -12    1    3    3    0    0 -0.64009768325E+01  0.73764296878E+01 -0.71207588152E+01  0.12086745859E+02  0.00000000000E+00 0.  1.
</event>
<event>
 7    1  0.5935282E-013  0.5052886E+02  0.7816164E-02  0.1300439E+00
        -11   -1    0    0    0    0  0.00000000000E+00  0.00000000000E+00  0.45593999997E+02  0.45594000000E+02  0.51100000000E-03 0. -1.
         11   -1    0    0    0    0 -0.00000000000E+00 -0.00000000000E+00 -0.45593999997E+02  0.45594000000E+02  0.51100000000E-03 0.  1.
    9900012    2    1    2    0    0  0.29022331943E+02 -0.25108082224E+02 -0.13433322868E+02  0.50528859482E+02  0.29999998882E+02 0.  0.
        -12    1    1    2    0    0 -0.29022331943E+02  0.25108082224E+02  0.13433322868E+02  0.40659140518E+02  0.00000000000E+00 0.  1.
         11    1    3    3    0    0  0.45231040481E+01 -0.10951059534E+02 -0.77191478185E+01  0.14141054361E+02  0.51100000000E-03 0.  1.
        -11    1    3    3    0    0  0.10381975699E+02 -0.17983836605E+02 -0.22992650994E+00  0.20766720128E+02  0.51100000000E-03 0. -1.
        -12    1    3    3    0    0  0.14117252196E+02  0.38268139141E+01 -0.54842485400E+01  0.15621084993E+02  0.00000000000E+00 0.  1.
</event>
<event>
 7    1  0.5935282E-013  0.5052886E+02  0.7816164E-02  0.1300439E+00
        -11   -1    0    0    0    0  0.00000000000E+00  0.00000000000E+00  0.45593999997E+02  0.45594000000E+02  0.51100000000E-03 0. -1.
         11   -1    0    0    0    0 -0.00000000000E+00 -0.00000000000E+00 -0.45593999997E+02  0.45594000000E+02  0.51100000000E-03 0.  1.
    9900012    2    1    2    0    0 -0.28586931596E+02  0.26625917961E+02 -0.11270013915E+02  0.50528863524E+02  0.30000011168E+02 0.  0.
        -12    1    1    2    0    0  0.28586931596E+02 -0.26625917961E+02  0.11270013915E+02  0.40659136476E+02  0.00000000000E+00 0.  1.
         11    1    3    3    0    0 -0.55164698312E+01 -0.22028216099E+00 -0.89892673017E+01  0.10549260188E+02  0.51100000000E-03 0. -1.
        -11    1    3    3    0    0 -0.11102217287E+02  0.79772626190E+01 -0.93279933439E+01  0.16550148267E+02  0.51100000000E-03 0.  1.
         12    1    3    3    0    0 -0.11968244477E+02  0.18868937503E+02  0.70472467307E+01  0.23429455069E+02  0.00000000000E+00 0. -1.
</event>
<event>
 7    1  0.5935282E-013  0.5052886E+02  0.7816164E-02  0.1300439E+00
        -11   -1    0    0    0    0  0.00000000000E+00  0.00000000000E+00  0.45593999997E+02  0.45594000000E+02  0.51100000000E-03 0.  1.
         11   -1    0    0    0    0 -0.00000000000E+00 -0.00000000000E+00 -0.45593999997E+02  0.45594000000E+02  0.51100000000E-03 0. -1.
    9900012    2    1    2    0    0 -0.10021151392E+02 -0.97752058884E+01 -0.38173130216E+02  0.50528855938E+02  0.29999988108E+02 0.  0.
        -12    1    1    2    0    0  0.10021151392E+02  0.97752058884E+01  0.38173130216E+02  0.40659144062E+02  0.00000000000E+00 0.  1.
         11    1    3    3    0    0 -0.35412636647E+01 -0.70734969771E+01 -0.23346710714E+02  0.24650432233E+02  0.51100000000E-03 0. -1.
        -11    1    3    3    0    0 -0.17145987284E+01  0.63971148616E+01 -0.14104375404E+02  0.15581923281E+02  0.51100000000E-03 0.  1.
         12    1    3    3    0    0 -0.47652889990E+01 -0.90988237728E+01 -0.72204409797E+00  0.10296500424E+02  0.00000000000E+00 0. -1.
</event>
<event>
 7    1  0.5935282E-013  0.5052886E+02  0.7816164E-02  0.1300439E+00
        -11   -1    0    0    0    0  0.00000000000E+00  0.00000000000E+00  0.45593999997E+02  0.45594000000E+02  0.51100000000E-03 0.  1.
         11   -1    0    0    0    0 -0.00000000000E+00 -0.00000000000E+00 -0.45593999997E+02  0.45594000000E+02  0.51100000000E-03 0. -1.
    9900012    2    1    2    0    0  0.16981506273E+02  0.16296618643E+01 -0.36907154322E+02  0.50528863348E+02  0.30000010634E+02 0.  0.
        -12    1    1    2    0    0 -0.16981506273E+02 -0.16296618643E+01  0.36907154322E+02  0.40659136652E+02  0.00000000000E+00 0.  1.
         11    1    3    3    0    0 -0.26131742256E+01  0.27984521722E+00 -0.28381826899E+01  0.38681098900E+01  0.51100000000E-03 0. -1.
        -11    1    3    3    0    0 -0.55558629940E+01  0.35984012327E+01 -0.65466040788E+01  0.93098942135E+01  0.51100000000E-03 0.  1.
         12    1    3    3    0    0  0.25150543492E+02 -0.22485845857E+01 -0.27522367554E+02  0.37350859245E+02  0.00000000000E+00 0. -1.
</event>
<event>
 7    1  0.5935282E-013  0.5052888E+02  0.7816164E-02  0.1300439E+00
        -11   -1    0    0    0    0  0.00000000000E+00  0.00000000000E+00  0.45593999997E+02  0.45594000000E+02  0.51100000000E-03 0.  1.
         11   -1    0    0    0    0 -0.00000000000E+00 -0.00000000000E+00 -0.45593999997E+02  0.45594000000E+02  0.51100000000E-03 0. -1.
    9900012    2    1    2    0    0 -0.11759816381E+02 -0.35581672721E+02 -0.15773874782E+02  0.50528882442E+02  0.30000068671E+02 0.  0.
        -12    1    1    2    0    0  0.11759816381E+02  0.35581672721E+02  0.15773874782E+02  0.40659117558E+02  0.00000000000E+00 0.  1.
         11    1    3    3    0    0 -0.53030153618E+01 -0.26955296323E+01 -0.11789217522E+02  0.13205055925E+02  0.51100000000E-03 0. -1.
        -11    1    3    3    0    0 -0.59699732892E+01 -0.24838132592E+01 -0.23284574645E+01  0.68725267410E+01  0.51100000000E-03 0.  1.
         12    1    3    3    0    0 -0.48682772942E+00 -0.30402329830E+02 -0.16561997951E+01  0.30451299776E+02  0.00000000000E+00 0. -1.
</event>
<event>
 7    1  0.5935282E-013  0.5052888E+02  0.7816164E-02  0.1300439E+00
        -11   -1    0    0    0    0  0.00000000000E+00  0.00000000000E+00  0.45593999997E+02  0.45594000000E+02  0.51100000000E-03 0.  1.
         11   -1    0    0    0    0 -0.00000000000E+00 -0.00000000000E+00 -0.45593999997E+02  0.45594000000E+02  0.51100000000E-03 0. -1.
    9900012    2    1    2    0    0  0.36429523445E+02  0.38538575911E+01 -0.17640906480E+02  0.50528880750E+02  0.30000063526E+02 0.  0.
        -12    1    1    2    0    0 -0.36429523445E+02 -0.38538575911E+01  0.17640906480E+02  0.40659119250E+02  0.00000000000E+00 0.  1.
         11    1    3    3    0    0  0.36227548835E+00  0.24768781953E+01  0.21107808131E+01  0.32743800979E+01  0.51100000000E-03 0.  1.
        -11    1    3    3    0    0  0.38532832740E+02  0.23678938972E+01 -0.21387583834E+02  0.44134055593E+02  0.51100000000E-03 0. -1.
         12    1    3    3    0    0 -0.24655847837E+01 -0.99091450134E+00  0.16358965409E+01  0.31204450592E+01  0.00000000000E+00 0. -1.
</event>
<event>
 7    1  0.5935282E-013  0.5052886E+02  0.7816164E-02  0.1300439E+00
        -11   -1    0    0    0    0  0.00000000000E+00  0.00000000000E+00  0.45593999997E+02  0.45594000000E+02  0.51100000000E-03 0.  1.
         11   -1    0    0    0    0 -0.00000000000E+00 -0.00000000000E+00 -0.45593999997E+02  0.45594000000E+02  0.51100000000E-03 0. -1.
    9900012    2    1    2    0    0 -0.11224231366E+02  0.25130564140E+02 -0.29927193798E+02  0.50528861391E+02  0.30000004685E+02 0.  0.
        -12    1    1    2    0    0  0.11224231366E+02 -0.25130564140E+02  0.29927193798E+02  0.40659138609E+02  0.00000000000E+00 0.  1.
         11    1    3    3    0    0 -0.61136614390E+01  0.64544516794E+01 -0.66038483300E+01  0.11074638400E+02  0.51100000000E-03 0. -1.
        -11    1    3    3    0    0 -0.13759602431E+02  0.74037851038E+01 -0.52902290621E+01  0.16496339495E+02  0.51100000000E-03 0.  1.
         12    1    3    3    0    0  0.86490325045E+01  0.11272327357E+02 -0.18033116406E+02  0.22957883496E+02  0.00000000000E+00 0. -1.
</event>
<event>
 7    1  0.5935282E-013  0.5052887E+02  0.7816164E-02  0.1300439E+00
        -11   -1    0    0    0    0  0.00000000000E+00  0.00000000000E+00  0.45593999997E+02  0.45594000000E+02  0.51100000000E-03 0.  1.
         11   -1    0    0    0    0 -0.00000000000E+00 -0.00000000000E+00 -0.45593999997E+02  0.45594000000E+02  0.51100000000E-03 0. -1.
    9900012    2    1    2    0    0 -0.24931174243E+02 -0.31714349892E+02 -0.50795380309E+01  0.50528866403E+02  0.30000019920E+02 0.  0.
        -12    1    1    2    0    0  0.24931174243E+02  0.31714349892E+02  0.50795380309E+01  0.40659133597E+02  0.00000000000E+00 0.  1.
         11    1    3    3    0    0 -0.41770240379E+01 -0.69550071160E+00  0.36322816835E+01  0.55789534451E+01  0.51100000000E-03 0. -1.
        -11    1    3    3    0    0 -0.13746872216E+02 -0.34111845012E+01  0.24196249346E+01  0.14368968666E+02  0.51100000000E-03 0.  1.
         12    1    3    3    0    0 -0.70072779888E+01 -0.27607664679E+02 -0.11131444649E+02  0.30580944293E+02  0.00000000000E+00 0. -1.
</event>
<event>
 7    1  0.5935282E-013  0.5052887E+02  0.7816164E-02  0.1300439E+00
        -11   -1    0    0    0    0  0.00000000000E+00  0.00000000000E+00  0.45593999997E+02  0.45594000000E+02  0.51100000000E-03 0.  1.
         11   -1    0    0    0    0 -0.00000000000E+00 -0.00000000000E+00 -0.45593999997E+02  0.45594000000E+02  0.51100000000E-03 0. -1.
    9900012    2    1    2    0    0  0.16820162878E+02 -0.44082273954E+01 -0.36753427687E+02  0.50528870708E+02  0.30000033005E+02 0.  0.
        -12    1    1    2    0    0 -0.16820162878E+02  0.44082273954E+01  0.36753427687E+02  0.40659129292E+02  0.00000000000E+00 0.  1.
         11    1    3    3    0    0 -0.18970197494E+01 -0.20534006891E+01 -0.61040317634E+01  0.67137427974E+01  0.51100000000E-03 0. -1.
        -11    1    3    3    0    0 -0.41340366921E+01  0.44004756449E+01 -0.12431182451E+02  0.13819867679E+02  0.51100000000E-03 0.  1.
        -12    1    3    3    0    0  0.22851219319E+02 -0.67553023512E+01 -0.18218213473E+02  0.29995260232E+02  0.00000000000E+00 0.  1.
</event>
<event>
 7    1  0.5935282E-013  0.5052884E+02  0.7816164E-02  0.1300439E+00
        -11   -1    0    0    0    0  0.00000000000E+00  0.00000000000E+00  0.45593999997E+02  0.45594000000E+02  0.51100000000E-03 0.  1.
         11   -1    0    0    0    0 -0.00000000000E+00 -0.00000000000E+00 -0.45593999997E+02  0.45594000000E+02  0.51100000000E-03 0. -1.
    9900012    2    1    2    0    0  0.69824747726E+01 -0.58000689325E+01 -0.39632958209E+02  0.50528841991E+02  0.29999945716E+02 0.  0.
        -12    1    1    2    0    0 -0.69824747726E+01  0.58000689325E+01  0.39632958209E+02  0.40659158009E+02  0.00000000000E+00 0.  1.
         11    1    3    3    0    0  0.63794177875E+01  0.36394016450E+00 -0.12977906069E+02  0.14465665209E+02  0.51100000000E-03 0. -1.
        -11    1    3    3    0    0  0.18630301789E+01 -0.85311027463E+01 -0.30302793385E+02  0.31535850753E+02  0.51100000000E-03 0.  1.
        -12    1    3    3    0    0 -0.12599731939E+01  0.23670936493E+01  0.36477412439E+01  0.45273260294E+01  0.00000000000E+00 0.  1.
</event>
<event>
 7    1  0.5935282E-013  0.5052886E+02  0.7816164E-02  0.1300439E+00
        -11   -1    0    0    0    0  0.00000000000E+00  0.00000000000E+00  0.45593999997E+02  0.45594000000E+02  0.51100000000E-03 0.  1.
         11   -1    0    0    0    0 -0.00000000000E+00 -0.00000000000E+00 -0.45593999997E+02  0.45594000000E+02  0.51100000000E-03 0. -1.
    9900012    2    1    2    0    0 -0.17333262260E+02 -0.20972929562E+02 -0.30213575005E+02  0.50528857491E+02  0.29999992829E+02 0.  0.
        -12    1    1    2    0    0  0.17333262260E+02  0.20972929562E+02  0.30213575005E+02  0.40659142509E+02  0.00000000000E+00 0.  1.
         11    1    3    3    0    0 -0.12912718838E+02 -0.54593399269E+01 -0.22917366952E+02  0.26865375645E+02  0.51100000000E-03 0. -1.
        -11    1    3    3    0    0 -0.99131044899E+01 -0.13165114641E+02 -0.46022118918E+01  0.17110530053E+02  0.51100000000E-03 0.  1.
        -12    1    3    3    0    0  0.54925610683E+01 -0.23484749944E+01 -0.26939961610E+01  0.65529517932E+01  0.00000000000E+00 0.  1.
</event>
<event>
 7    1  0.5935282E-013  0.5052886E+02  0.7816164E-02  0.1300439E+00
        -11   -1    0    0    0    0  0.00000000000E+00  0.00000000000E+00  0.45593999997E+02  0.45594000000E+02  0.51100000000E-03 0. -1.
         11   -1    0    0    0    0 -0.00000000000E+00 -0.00000000000E+00 -0.45593999997E+02  0.45594000000E+02  0.51100000000E-03 0.  1.
    9900012    2    1    2    0    0  0.11940332069E+02  0.48665217985E+01  0.38560482836E+02  0.50528863254E+02  0.30000010348E+02 0.  0.
        -12    1    1    2    0    0 -0.11940332069E+02 -0.48665217985E+01 -0.38560482836E+02  0.40659136746E+02  0.00000000000E+00 0.  1.
         11    1    3    3    0    0  0.61326108183E+01 -0.80750924629E+01  0.32867555641E+01  0.10659211797E+02  0.51100000000E-03 0. -1.
        -11    1    3    3    0    0 -0.21536519136E+00 -0.22355153219E+01  0.38684154722E+01  0.44730917101E+01  0.51100000000E-03 0.  1.
        -12    1    3    3    0    0  0.60230864425E+01  0.15177129583E+02  0.31405311800E+02  0.35396559747E+02  0.00000000000E+00 0.  1.
</event>
<event>
 7    1  0.5935282E-013  0.5052886E+02  0.7816164E-02  0.1300439E+00
        -11   -1    0    0    0    0  0.00000000000E+00  0.00000000000E+00  0.45593999997E+02  0.45594000000E+02  0.51100000000E-03 0.  1.
         11   -1    0    0    0    0 -0.00000000000E+00 -0.00000000000E+00 -0.45593999997E+02  0.45594000000E+02  0.51100000000E-03 0. -1.
    9900012    2    1    2    0    0  0.70827175196E+01 -0.80044161842E+01 -0.39229201813E+02  0.50528857845E+02  0.29999993905E+02 0.  0.
        -12    1    1    2    0    0 -0.70827175196E+01  0.80044161842E+01  0.39229201813E+02  0.40659142155E+02  0.00000000000E+00 0.  1.
         11    1    3    3    0    0 -0.43117545095E+01 -0.88042864528E+00 -0.25026699378E+02  0.25410668302E+02  0.51100000000E-03 0. -1.
        -11    1    3    3    0    0  0.16225407899E+01 -0.21687390500E+01 -0.13895884403E+02  0.14157389283E+02  0.51100000000E-03 0.  1.
        -12    1    3    3    0    0  0.97719312392E+01 -0.49552484889E+01 -0.30661803203E+00  0.10960800260E+02  0.00000000000E+00 0.  1.
</event>
<event>
 7    1  0.5935282E-013  0.5052886E+02  0.7816164E-02  0.1300439E+00
        -11   -1    0    0    0    0  0.00000000000E+00  0.00000000000E+00  0.45593999997E+02  0.45594000000E+02  0.51100000000E-03 0.  1.
         11   -1    0    0    0    0 -0.00000000000E+00 -0.00000000000E+00 -0.45593999997E+02  0.45594000000E+02  0.51100000000E-03 0. -1.
    9900012    2    1    2    0    0 -0.20757176597E+02  0.17309208571E+02 -0.30375915829E+02  0.50528863953E+02  0.30000012472E+02 0.  0.
        -12    1    1    2    0    0  0.20757176597E+02 -0.17309208571E+02  0.30375915829E+02  0.40659136047E+02  0.00000000000E+00 0.  1.
         11    1    3    3    0    0 -0.56276973240E+01  0.14349758803E+02 -0.16007478270E+02  0.22222194214E+02  0.51100000000E-03 0. -1.
        -11    1    3    3    0    0 -0.30627238624E+01  0.96843394499E+01 -0.35470208279E+01  0.10758627471E+02  0.51100000000E-03 0.  1.
         12    1    3    3    0    0 -0.12066755411E+02 -0.67248896821E+01 -0.10821416731E+02  0.17548042268E+02  0.00000000000E+00 0. -1.
</event>
<event>
 7    1  0.5935282E-013  0.5052886E+02  0.7816164E-02  0.1300439E+00
        -11   -1    0    0    0    0  0.00000000000E+00  0.00000000000E+00  0.45593999997E+02  0.45594000000E+02  0.51100000000E-03 0. -1.
         11   -1    0    0    0    0 -0.00000000000E+00 -0.00000000000E+00 -0.45593999997E+02  0.45594000000E+02  0.51100000000E-03 0.  1.
    9900012    2    1    2    0    0 -0.65079879344E+01  0.64340365327E+01  0.39615837695E+02  0.50528864134E+02  0.30000013023E+02 0.  0.
        -12    1    1    2    0    0  0.65079879344E+01 -0.64340365327E+01 -0.39615837695E+02  0.40659135866E+02  0.00000000000E+00 0.  1.
         11    1    3    3    0    0 -0.39306896860E+01  0.51434473030E+01  0.23844052388E+01  0.68986056686E+01  0.51100000000E-03 0. -1.
        -11    1    3    3    0    0 -0.57105013897E+01  0.11010029473E+02  0.18062060828E+02  0.21910468200E+02  0.51100000000E-03 0.  1.
        -12    1    3    3    0    0  0.31332031413E+01 -0.97194402434E+01  0.19169371628E+02  0.21719790266E+02  0.00000000000E+00 0.  1.
</event>
<event>
 7    1  0.5935282E-013  0.5052886E+02  0.7816164E-02  0.1300439E+00
        -11   -1    0    0    0    0  0.00000000000E+00  0.00000000000E+00  0.45593999997E+02  0.45594000000E+02  0.51100000000E-03 0.  1.
         11   -1    0    0    0    0 -0.00000000000E+00 -0.00000000000E+00 -0.45593999997E+02  0.45594000000E+02  0.51100000000E-03 0. -1.
    9900012    2    1    2    0    0 -0.10710029675E+00  0.92227201858E+01 -0.39599188073E+02  0.50528859156E+02  0.29999997891E+02 0.  0.
        -12    1    1    2    0    0  0.10710029675E+00 -0.92227201858E+01  0.39599188073E+02  0.40659140844E+02  0.00000000000E+00 0.  1.
         11    1    3    3    0    0 -0.44542889950E+01  0.83820921625E+00 -0.23624849392E+02  0.24055701906E+02  0.51100000000E-03 0. -1.
        -11    1    3    3    0    0 -0.74950238263E+01  0.28397081067E+01 -0.66249226900E+01  0.10398505912E+02  0.51100000000E-03 0.  1.
         12    1    3    3    0    0  0.11842212525E+02  0.55448028628E+01 -0.93494159915E+01  0.16074651338E+02  0.00000000000E+00 0. -1.
</event>
<event>
 7    1  0.5935282E-013  0.5052886E+02  0.7816164E-02  0.1300439E+00
        -11   -1    0    0    0    0  0.00000000000E+00  0.00000000000E+00  0.45593999997E+02  0.45594000000E+02  0.51100000000E-03 0. -1.
         11   -1    0    0    0    0 -0.00000000000E+00 -0.00000000000E+00 -0.45593999997E+02  0.45594000000E+02  0.51100000000E-03 0.  1.
    9900012    2    1    2    0    0  0.15794453780E+02 -0.29970398162E+02  0.22482797031E+02  0.50528859594E+02  0.29999999223E+02 0.  0.
        -12    1    1    2    0    0 -0.15794453780E+02  0.29970398162E+02 -0.22482797031E+02  0.40659140406E+02  0.00000000000E+00 0.  1.
         11    1    3    3    0    0 -0.81371289437E+01 -0.71202438621E+01  0.29078031603E+01  0.11196698602E+02  0.51100000000E-03 0.  1.
        -11    1    3    3    0    0  0.40649292622E+01 -0.41076140423E+01  0.75037146481E+01  0.94711074753E+01  0.51100000000E-03 0. -1.
        -12    1    3    3    0    0  0.19866653462E+02 -0.18742540257E+02  0.12071279223E+02  0.29861053517E+02  0.00000000000E+00 0.  1.
</event>
<event>
 7    1  0.5935282E-013  0.5052885E+02  0.7816164E-02  0.1300439E+00
        -11   -1    0    0    0    0  0.00000000000E+00  0.00000000000E+00  0.45593999997E+02  0.45594000000E+02  0.51100000000E-03 0.  1.
         11   -1    0    0    0    0 -0.00000000000E+00 -0.00000000000E+00 -0.45593999997E+02  0.45594000000E+02  0.51100000000E-03 0. -1.
    9900012    2    1    2    0    0 -0.73568741102E+01  0.36806069538E+02  0.15631884557E+02  0.50528853842E+02  0.29999981737E+02 0.  0.
        -12    1    1    2    0    0  0.73568741102E+01 -0.36806069538E+02 -0.15631884557E+02  0.40659146158E+02  0.00000000000E+00 0.  1.
         11    1    3    3    0    0 -0.12691247107E+01  0.79709893032E+01  0.10185036540E+02  0.12995472965E+02  0.51100000000E-03 0. -1.
        -11    1    3    3    0    0 -0.17715959605E+00  0.13766138045E+02  0.13649689493E+02  0.19386901911E+02  0.51100000000E-03 0.  1.
         12    1    3    3    0    0 -0.59105898034E+01  0.15068942190E+02 -0.82028414763E+01  0.18146478965E+02  0.00000000000E+00 0. -1.
</event>
<event>
 7    1  0.5935282E-013  0.5052885E+02  0.7816164E-02  0.1300439E+00
        -11   -1    0    0    0    0  0.00000000000E+00  0.00000000000E+00  0.45593999997E+02  0.45594000000E+02  0.51100000000E-03 0.  1.
         11   -1    0    0    0    0 -0.00000000000E+00 -0.00000000000E+00 -0.45593999997E+02  0.45594000000E+02  0.51100000000E-03 0. -1.
    9900012    2    1    2    0    0  0.36061272512E+02  0.12552387889E+02 -0.13970981850E+02  0.50528854033E+02  0.29999982319E+02 0.  0.
        -12    1    1    2    0    0 -0.36061272512E+02 -0.12552387889E+02  0.13970981850E+02  0.40659145967E+02  0.00000000000E+00 0.  1.
         11    1    3    3    0    0  0.16897606792E+02 -0.16153280521E+01 -0.49788638978E+00  0.16981940147E+02  0.51100000000E-03 0. -1.
        -11    1    3    3    0    0  0.24121797314E+01 -0.36729803178E+01  0.17456570963E+01  0.47282887423E+01  0.51100000000E-03 0.  1.
         12    1    3    3    0    0  0.16751485989E+02  0.17840696259E+02 -0.15218752556E+02  0.28818625144E+02  0.00000000000E+00 0. -1.
</event>
<event>
 7    1  0.5935282E-013  0.5052885E+02  0.7816164E-02  0.1300439E+00
        -11   -1    0    0    0    0  0.00000000000E+00  0.00000000000E+00  0.45593999997E+02  0.45594000000E+02  0.51100000000E-03 0. -1.
         11   -1    0    0    0    0 -0.00000000000E+00 -0.00000000000E+00 -0.45593999997E+02  0.45594000000E+02  0.51100000000E-03 0.  1.
    9900012    2    1    2    0    0 -0.13935890704E+02 -0.36705421949E+02  0.10567393512E+02  0.50528845363E+02  0.29999955966E+02 0.  0.
        -12    1    1    2    0    0  0.13935890704E+02  0.36705421949E+02 -0.10567393512E+02  0.40659154637E+02  0.00000000000E+00 0.  1.
         11    1    3    3    0    0 -0.11268014480E+01 -0.70425623845E+01  0.43489623134E+01  0.83534926771E+01  0.51100000000E-03 0. -1.
        -11    1    3    3    0    0 -0.20042902924E+02 -0.27747714302E+02  0.49465824868E+01  0.34585000869E+02  0.51100000000E-03 0.  1.
        -12    1    3    3    0    0  0.72338136679E+01 -0.19151452624E+01  0.12718487121E+01  0.75903518169E+01  0.00000000000E+00 0.  1.
</event>
<event>
 7    1  0.5935282E-013  0.5052888E+02  0.7816164E-02  0.1300439E+00
        -11   -1    0    0    0    0  0.00000000000E+00  0.00000000000E+00  0.45593999997E+02  0.45594000000E+02  0.51100000000E-03 0.  1.
         11   -1    0    0    0    0 -0.00000000000E+00 -0.00000000000E+00 -0.45593999997E+02  0.45594000000E+02  0.51100000000E-03 0. -1.
    9900012    2    1    2    0    0 -0.17013088611E+02 -0.62096977783E+00 -0.36923345174E+02  0.50528877944E+02  0.30000054999E+02 0.  0.
        -12    1    1    2    0    0  0.17013088611E+02  0.62096977783E+00  0.36923345174E+02  0.40659122056E+02  0.00000000000E+00 0.  1.
         11    1    3    3    0    0 -0.41249774445E-01 -0.92068689906E+00  0.53726653039E+00  0.10667809034E+01  0.51100000000E-03 0. -1.
        -11    1    3    3    0    0  0.58722643249E+01  0.54420501053E+01 -0.15066350721E+02  0.17061486511E+02  0.51100000000E-03 0.  1.
         12    1    3    3    0    0 -0.22844103161E+02 -0.51423329841E+01 -0.22394260983E+02  0.32400610530E+02  0.00000000000E+00 0. -1.
</event>
<event>
 7    1  0.5935282E-013  0.5052886E+02  0.7816164E-02  0.1300439E+00
        -11   -1    0    0    0    0  0.00000000000E+00  0.00000000000E+00  0.45593999997E+02  0.45594000000E+02  0.51100000000E-03 0.  1.
         11   -1    0    0    0    0 -0.00000000000E+00 -0.00000000000E+00 -0.45593999997E+02  0.45594000000E+02  0.51100000000E-03 0. -1.
    9900012    2    1    2    0    0 -0.65911598133E+00  0.28867984470E+02 -0.28624655068E+02  0.50528857867E+02  0.29999993971E+02 0.  0.
        -12    1    1    2    0    0  0.65911598133E+00 -0.28867984470E+02  0.28624655068E+02  0.40659142133E+02  0.00000000000E+00 0.  1.
         11    1    3    3    0    0  0.57486299754E+00  0.18365449331E+02 -0.27891318819E+00  0.18376560870E+02  0.51100000000E-03 0. -1.
        -11    1    3    3    0    0 -0.16663952071E+01  0.40197990628E+01 -0.16121922294E+01  0.46405626315E+01  0.51100000000E-03 0.  1.
        -12    1    3    3    0    0  0.43241622821E+00  0.64827360764E+01 -0.26733549651E+02  0.27511734365E+02  0.00000000000E+00 0.  1.
</event>
<event>
 7    1  0.5935282E-013  0.5052886E+02  0.7816164E-02  0.1300439E+00
        -11   -1    0    0    0    0  0.00000000000E+00  0.00000000000E+00  0.45593999997E+02  0.45594000000E+02  0.51100000000E-03 0. -1.
         11   -1    0    0    0    0 -0.00000000000E+00 -0.00000000000E+00 -0.45593999997E+02  0.45594000000E+02  0.51100000000E-03 0.  1.
    9900012    2    1    2    0    0  0.32987260356E+02 -0.23021575827E+02 -0.59172192397E+01  0.50528858557E+02  0.29999996070E+02 0.  0.
        -12    1    1    2    0    0 -0.32987260356E+02  0.23021575827E+02  0.59172192397E+01  0.40659141443E+02  0.00000000000E+00 0.  1.
         11    1    3    3    0    0  0.15873728061E+02 -0.38796904391E+01 -0.84151463567E+01  0.18380476842E+02  0.51100000000E-03 0. -1.
        -11    1    3    3    0    0  0.12573894821E+01 -0.10247277137E+02  0.81021026489E+01  0.13123710779E+02  0.51100000000E-03 0.  1.
         12    1    3    3    0    0  0.15856142813E+02 -0.88946082506E+01 -0.56041755319E+01  0.19024670936E+02  0.00000000000E+00 0. -1.
</event>
<event>
 7    1  0.5935282E-013  0.5052886E+02  0.7816164E-02  0.1300439E+00
        -11   -1    0    0    0    0  0.00000000000E+00  0.00000000000E+00  0.45593999997E+02  0.45594000000E+02  0.51100000000E-03 0.  1.
         11   -1    0    0    0    0 -0.00000000000E+00 -0.00000000000E+00 -0.45593999997E+02  0.45594000000E+02  0.51100000000E-03 0. -1.
    9900012    2    1    2    0    0  0.40553816539E+02  0.29069258390E+01  0.32177778081E+00  0.50528858412E+02  0.29999995630E+02 0.  0.
        -12    1    1    2    0    0 -0.40553816539E+02 -0.29069258390E+01 -0.32177778081E+00  0.40659141588E+02  0.00000000000E+00 0.  1.
         11    1    3    3    0    0  0.23508136503E+02  0.12676237121E+02 -0.26038331097E+01  0.26834668184E+02  0.51100000000E-03 0. -1.
        -11    1    3    3    0    0  0.16810033781E+02 -0.65330992547E+01 -0.16219299557E+01  0.18107713235E+02  0.51100000000E-03 0.  1.
        -12    1    3    3    0    0  0.23564625485E+00 -0.32362120276E+01  0.45475408462E+01  0.55864769929E+01  0.00000000000E+00 0.  1.
</event>
<event>
 7    1  0.5935282E-013  0.5052887E+02  0.7816164E-02  0.1300439E+00
        -11   -1    0    0    0    0  0.00000000000E+00  0.00000000000E+00  0.45593999997E+02  0.45594000000E+02  0.51100000000E-03 0.  1.
         11   -1    0    0    0    0 -0.00000000000E+00 -0.00000000000E+00 -0.45593999997E+02  0.45594000000E+02  0.51100000000E-03 0. -1.
    9900012    2    1    2    0    0  0.15714163199E+02  0.28419481544E+02 -0.24465539604E+02  0.50528874525E+02  0.30000044606E+02 0.  0.
        -12    1    1    2    0    0 -0.15714163199E+02 -0.28419481544E+02  0.24465539604E+02  0.40659125475E+02  0.00000000000E+00 0.  1.
         11    1    3    3    0    0  0.46313220192E+01  0.15537711719E+01 -0.12304933500E+02  0.13239136573E+02  0.51100000000E-03 0. -1.
        -11    1    3    3    0    0  0.24117628190E+01 -0.13206277108E+01 -0.67754335477E+01  0.73121240051E+01  0.51100000000E-03 0.  1.
         12    1    3    3    0    0  0.86710783607E+01  0.28186338083E+02 -0.53851725558E+01  0.29977613947E+02  0.00000000000E+00 0. -1.
</event>
<event>
 7    1  0.5935282E-013  0.5052885E+02  0.7816164E-02  0.1300439E+00
        -11   -1    0    0    0    0  0.00000000000E+00  0.00000000000E+00  0.45593999997E+02  0.45594000000E+02  0.51100000000E-03 0. -1.
         11   -1    0    0    0    0 -0.00000000000E+00 -0.00000000000E+00 -0.45593999997E+02  0.45594000000E+02  0.51100000000E-03 0.  1.
    9900012    2    1    2    0    0 -0.15619712301E+02  0.28996524171E+02  0.23840981291E+02  0.50528853240E+02  0.29999979907E+02 0.  0.
        -12    1    1    2    0    0  0.15619712301E+02 -0.28996524171E+02 -0.23840981291E+02  0.40659146760E+02  0.00000000000E+00 0.  1.
         11    1    3    3    0    0 -0.34171180323E+01  0.25396079922E+02  0.20089418189E+02  0.32561054874E+02  0.51100000000E-03 0. -1.
        -11    1    3    3    0    0 -0.39176675143E+01  0.32435582968E+01 -0.41113870747E+01  0.65400529903E+01  0.51100000000E-03 0.  1.
        -12    1    3    3    0    0 -0.82849267540E+01  0.35688595280E+00  0.78629501760E+01  0.11427745376E+02  0.00000000000E+00 0.  1.
</event>
<event>
 7    1  0.5935282E-013  0.5052886E+02  0.7816164E-02  0.1300439E+00
        -11   -1    0    0    0    0  0.00000000000E+00  0.00000000000E+00  0.45593999997E+02  0.45594000000E+02  0.51100000000E-03 0. -1.
         11   -1    0    0    0    0 -0.00000000000E+00 -0.00000000000E+00 -0.45593999997E+02  0.45594000000E+02  0.51100000000E-03 0.  1.
    9900012    2    1    2    0    0 -0.22856771497E+02 -0.29813160606E+02  0.15553427220E+02  0.50528860230E+02  0.30000001154E+02 0.  0.
        -12    1    1    2    0    0  0.22856771497E+02  0.29813160606E+02 -0.15553427220E+02  0.40659139770E+02  0.00000000000E+00 0.  1.
         11    1    3    3    0    0 -0.70854880152E+01 -0.17907905744E+02  0.24480279277E+01  0.19413656780E+02  0.51100000000E-03 0. -1.
        -11    1    3    3    0    0 -0.16860763642E+02 -0.73748321341E+01  0.13296195703E+01  0.18451053847E+02  0.51100000000E-03 0.  1.
         12    1    3    3    0    0  0.10894801606E+01 -0.45304227281E+01  0.11775779722E+02  0.12664149603E+02  0.00000000000E+00 0. -1.
</event>
<event>
 7    1  0.5935282E-013  0.5052878E+02  0.7816164E-02  0.1300439E+00
        -11   -1    0    0    0    0  0.00000000000E+00  0.00000000000E+00  0.45593999997E+02  0.45594000000E+02  0.51100000000E-03 0.  1.
         11   -1    0    0    0    0 -0.00000000000E+00 -0.00000000000E+00 -0.45593999997E+02  0.45594000000E+02  0.51100000000E-03 0. -1.
    9900012    2    1    2    0    0  0.32344356916E+01 -0.27819592299E+02 -0.29475084845E+02  0.50528783130E+02  0.29999766800E+02 0.  0.
        -12    1    1    2    0    0 -0.32344356916E+01  0.27819592299E+02  0.29475084845E+02  0.40659216870E+02  0.00000000000E+00 0.  1.
         11    1    3    3    0    0  0.10129527680E+02 -0.32022894930E+00 -0.81592690187E+01  0.13010901152E+02  0.51100000000E-03 0. -1.
        -11    1    3    3    0    0 -0.29295357301E+01 -0.17757936130E+02 -0.60657712453E+01  0.18992631631E+02  0.51100000000E-03 0.  1.
        -12    1    3    3    0    0 -0.39655562588E+01 -0.97414272194E+01 -0.15250044580E+02  0.18525250347E+02  0.00000000000E+00 0.  1.
</event>
<event>
 7    1  0.5935282E-013  0.5052884E+02  0.7816164E-02  0.1300439E+00
        -11   -1    0    0    0    0  0.00000000000E+00  0.00000000000E+00  0.45593999997E+02  0.45594000000E+02  0.51100000000E-03 0. -1.
         11   -1    0    0    0    0 -0.00000000000E+00 -0.00000000000E+00 -0.45593999997E+02  0.45594000000E+02  0.51100000000E-03 0.  1.
    9900012    2    1    2    0    0 -0.17236039956E+02  0.26329420449E+02  0.25745829891E+02  0.50528840991E+02  0.29999942677E+02 0.  0.
        -12    1    1    2    0    0  0.17236039956E+02 -0.26329420449E+02 -0.25745829891E+02  0.40659159009E+02  0.00000000000E+00 0.  1.
         11    1    3    3    0    0 -0.13533603655E+02  0.21396909616E+02  0.73971233707E+01  0.26376193877E+02  0.51100000000E-03 0. -1.
        -11    1    3    3    0    0 -0.83649169234E+01  0.64641528568E+01  0.14342203476E+02  0.17817292390E+02  0.51100000000E-03 0.  1.
        -12    1    3    3    0    0  0.46624806231E+01 -0.15316420236E+01  0.40065030440E+01  0.63353547250E+01  0.00000000000E+00 0.  1.
</event>
<event>
 7    1  0.5935282E-013  0.5052885E+02  0.7816164E-02  0.1300439E+00
        -11   -1    0    0    0    0  0.00000000000E+00  0.00000000000E+00  0.45593999997E+02  0.45594000000E+02  0.51100000000E-03 0.  1.
         11   -1    0    0    0    0 -0.00000000000E+00 -0.00000000000E+00 -0.45593999997E+02  0.45594000000E+02  0.51100000000E-03 0. -1.
    9900012    2    1    2    0    0  0.30693671526E+02 -0.17884612114E+02 -0.19778913104E+02  0.50528853110E+02  0.29999979514E+02 0.  0.
        -12    1    1    2    0    0 -0.30693671526E+02  0.17884612114E+02  0.19778913104E+02  0.40659146890E+02  0.00000000000E+00 0.  1.
         11    1    3    3    0    0  0.20203232744E+01 -0.14831225312E+02 -0.20171364500E+01  0.15103502577E+02  0.51100000000E-03 0. -1.
        -11    1    3    3    0    0  0.16740150723E+02 -0.50604867826E+01 -0.58381881190E+01  0.18437071717E+02  0.51100000000E-03 0.  1.
        -12    1    3    3    0    0  0.11933197528E+02  0.20070999805E+01 -0.11923588535E+02  0.16988278816E+02  0.00000000000E+00 0.  1.
</event>
<event>
 7    1  0.5935282E-013  0.5052884E+02  0.7816164E-02  0.1300439E+00
        -11   -1    0    0    0    0  0.00000000000E+00  0.00000000000E+00  0.45593999997E+02  0.45594000000E+02  0.51100000000E-03 0.  1.
         11   -1    0    0    0    0 -0.00000000000E+00 -0.00000000000E+00 -0.45593999997E+02  0.45594000000E+02  0.51100000000E-03 0. -1.
    9900012    2    1    2    0    0 -0.11259426237E+02 -0.16707540124E+01 -0.39033330618E+02  0.50528843623E+02  0.29999950677E+02 0.  0.
        -12    1    1    2    0    0  0.11259426237E+02  0.16707540124E+01  0.39033330618E+02  0.40659156377E+02  0.00000000000E+00 0.  1.
         11    1    3    3    0    0  0.62953916045E+01 -0.69009347718E+01 -0.25297486489E+02  0.26966973858E+02  0.51100000000E-03 0. -1.
        -11    1    3    3    0    0 -0.76557451453E+01  0.33768161910E-01 -0.35552163261E+01  0.84410388819E+01  0.51100000000E-03 0.  1.
        -12    1    3    3    0    0 -0.98990726964E+01  0.51964125975E+01 -0.10180627803E+02  0.15120830883E+02  0.00000000000E+00 0.  1.
</event>
<event>
 7    1  0.5935282E-013  0.5052887E+02  0.7816164E-02  0.1300439E+00
        -11   -1    0    0    0    0  0.00000000000E+00  0.00000000000E+00  0.45593999997E+02  0.45594000000E+02  0.51100000000E-03 0.  1.
         11   -1    0    0    0    0 -0.00000000000E+00 -0.00000000000E+00 -0.45593999997E+02  0.45594000000E+02  0.51100000000E-03 0. -1.
    9900012    2    1    2    0    0 -0.16064741025E+02  0.35847182415E+02 -0.10491332855E+02  0.50528874870E+02  0.30000045655E+02 0.  0.
        -12    1    1    2    0    0  0.16064741025E+02 -0.35847182415E+02  0.10491332855E+02  0.40659125130E+02  0.00000000000E+00 0.  1.
         11    1    3    3    0    0 -0.24734097855E+01  0.67368811046E+01  0.66802168084E+01  0.98045203786E+01  0.51100000000E-03 0.  1.
        -11    1    3    3    0    0 -0.13649482507E+02  0.92457992003E+01 -0.42440032521E+01  0.17023652353E+02  0.51100000000E-03 0. -1.
         12    1    3    3    0    0  0.58151267663E-01  0.19864502110E+02 -0.12927546412E+02  0.23700702139E+02  0.00000000000E+00 0. -1.
</event>
<event>
 7    1  0.5935282E-013  0.5052885E+02  0.7816164E-02  0.1300439E+00
        -11   -1    0    0    0    0  0.00000000000E+00  0.00000000000E+00  0.45593999997E+02  0.45594000000E+02  0.51100000000E-03 0. -1.
         11   -1    0    0    0    0 -0.00000000000E+00 -0.00000000000E+00 -0.45593999997E+02  0.45594000000E+02  0.51100000000E-03 0.  1.
    9900012    2    1    2    0    0  0.11492719570E+02 -0.17727865158E+02  0.34739123530E+02  0.50528849618E+02  0.29999968898E+02 0.  0.
        -12    1    1    2    0    0 -0.11492719570E+02  0.17727865158E+02 -0.34739123530E+02  0.40659150382E+02  0.00000000000E+00 0.  1.
         11    1    3    3    0    0  0.13592887301E+02 -0.10726669288E+02  0.13771400867E+02  0.22124183630E+02  0.51100000000E-03 0. -1.
        -11    1    3    3    0    0  0.60800138588E+01 -0.76745920847E+01  0.64417377160E+01  0.11720150052E+02  0.51100000000E-03 0.  1.
        -12    1    3    3    0    0 -0.81801815901E+01  0.67339621488E+00  0.14525984947E+02  0.16684515935E+02  0.00000000000E+00 0.  1.
</event>
<event>
 7    1  0.5935282E-013  0.5052888E+02  0.7816164E-02  0.1300439E+00
        -11   -1    0    0    0    0  0.00000000000E+00  0.00000000000E+00  0.45593999997E+02  0.45594000000E+02  0.51100000000E-03 0.  1.
         11   -1    0    0    0    0 -0.00000000000E+00 -0.00000000000E+00 -0.45593999997E+02  0.45594000000E+02  0.51100000000E-03 0. -1.
    9900012    2    1    2    0    0 -0.35504672296E+02 -0.37967820167E+01 -0.19446504927E+02  0.50528882174E+02  0.30000067856E+02 0.  0.
        -12    1    1    2    0    0  0.35504672296E+02  0.37967820167E+01  0.19446504927E+02  0.40659117826E+02  0.00000000000E+00 0.  1.
         11    1    3    3    0    0 -0.14643539007E+01 -0.14010776362E+01  0.27912540392E+01  0.34494130315E+01  0.51100000000E-03 0.  1.
        -11    1    3    3    0    0 -0.28692304619E+02  0.38633547196E+01 -0.70396519901E+01  0.29794807508E+02  0.51100000000E-03 0. -1.
         12    1    3    3    0    0 -0.53480137758E+01 -0.62590591001E+01 -0.15198106976E+02  0.17284661634E+02  0.00000000000E+00 0. -1.
</event>
<event>
 7    1  0.5935282E-013  0.5052886E+02  0.7816164E-02  0.1300439E+00
        -11   -1    0    0    0    0  0.00000000000E+00  0.00000000000E+00  0.45593999997E+02  0.45594000000E+02  0.51100000000E-03 0. -1.
         11   -1    0    0    0    0 -0.00000000000E+00 -0.00000000000E+00 -0.45593999997E+02  0.45594000000E+02  0.51100000000E-03 0.  1.
    9900012    2    1    2    0    0  0.30171655751E+02 -0.20956742589E+02  0.17425611293E+02  0.50528858351E+02  0.29999995444E+02 0.  0.
        -12    1    1    2    0    0 -0.30171655751E+02  0.20956742589E+02 -0.17425611293E+02  0.40659141649E+02  0.00000000000E+00 0.  1.
         11    1    3    3    0    0  0.14856614868E+02 -0.14084177806E+02  0.13070286618E+02  0.24288175360E+02  0.51100000000E-03 0. -1.
        -11    1    3    3    0    0  0.16008777246E+01 -0.48865581577E+01  0.10026263440E+02  0.11267973151E+02  0.51100000000E-03 0.  1.
         12    1    3    3    0    0  0.13714163159E+02 -0.19860066246E+01 -0.56709387643E+01  0.14972709839E+02  0.00000000000E+00 0. -1.
</event>
<event>
 7    1  0.5935282E-013  0.5052885E+02  0.7816164E-02  0.1300439E+00
        -11   -1    0    0    0    0  0.00000000000E+00  0.00000000000E+00  0.45593999997E+02  0.45594000000E+02  0.51100000000E-03 0.  1.
         11   -1    0    0    0    0 -0.00000000000E+00 -0.00000000000E+00 -0.45593999997E+02  0.45594000000E+02  0.51100000000E-03 0. -1.
    9900012    2    1    2    0    0  0.44961532054E+01  0.39796681496E+02 -0.70124795453E+01  0.50528854398E+02  0.29999983428E+02 0.  0.
        -12    1    1    2    0    0 -0.44961532054E+01 -0.39796681496E+02  0.70124795453E+01  0.40659145602E+02  0.00000000000E+00 0.  1.
         11    1    3    3    0    0 -0.82588397149E+01  0.84639360412E+01  0.77996931976E+00  0.11851371193E+02  0.51100000000E-03 0.  1.
        -11    1    3    3    0    0 -0.29553761251E+01  0.14252645564E+02 -0.45189202832E+01  0.15241154628E+02  0.51100000000E-03 0. -1.
        -12    1    3    3    0    0  0.15710369045E+02  0.17080099890E+02 -0.32735285819E+01  0.23436328577E+02  0.00000000000E+00 0.  1.
</event>
<event>
 7    1  0.5935282E-013  0.5052886E+02  0.7816164E-02  0.1300439E+00
        -11   -1    0    0    0    0  0.00000000000E+00  0.00000000000E+00  0.45593999997E+02  0.45594000000E+02  0.51100000000E-03 0.  1.
         11   -1    0    0    0    0 -0.00000000000E+00 -0.00000000000E+00 -0.45593999997E+02  0.45594000000E+02  0.51100000000E-03 0. -1.
    9900012    2    1    2    0    0  0.33707290723E+02 -0.17403657511E+02 -0.14632043962E+02  0.50528862612E+02  0.30000008395E+02 0.  0.
        -12    1    1    2    0    0 -0.33707290723E+02  0.17403657511E+02  0.14632043962E+02  0.40659137388E+02  0.00000000000E+00 0.  1.
         11    1    3    3    0    0  0.11529733256E+02 -0.71000910311E+01 -0.19400264428E+02  0.23658324153E+02  0.51100000000E-03 0. -1.
        -11    1    3    3    0    0  0.14370936690E+02 -0.43022281307E+01 -0.16881899093E+01  0.15095793244E+02  0.51100000000E-03 0.  1.
        -12    1    3    3    0    0  0.78066207771E+01 -0.60013383493E+01  0.64564103752E+01  0.11774745215E+02  0.00000000000E+00 0.  1.
</event>
<event>
 7    1  0.5935282E-013  0.5052886E+02  0.7816164E-02  0.1300439E+00
        -11   -1    0    0    0    0  0.00000000000E+00  0.00000000000E+00  0.45593999997E+02  0.45594000000E+02  0.51100000000E-03 0. -1.
         11   -1    0    0    0    0 -0.00000000000E+00 -0.00000000000E+00 -0.45593999997E+02  0.45594000000E+02  0.51100000000E-03 0.  1.
    9900012    2    1    2    0    0 -0.16406124804E+02  0.18759882165E+02  0.32125868387E+02  0.50528861672E+02  0.30000005538E+02 0.  0.
        -12    1    1    2    0    0  0.16406124804E+02 -0.18759882165E+02 -0.32125868387E+02  0.40659138328E+02  0.00000000000E+00 0.  1.
         11    1    3    3    0    0 -0.12488132388E+02  0.10659837592E+02  0.24296905483E+02  0.29324481314E+02  0.51100000000E-03 0. -1.
        -11    1    3    3    0    0 -0.67554005459E+01 -0.33227707692E+01  0.51849520507E+01  0.91411142728E+01  0.51100000000E-03 0.  1.
        -12    1    3    3    0    0  0.28374081298E+01  0.11422815342E+02  0.26440108534E+01  0.12063266085E+02  0.00000000000E+00 0.  1.
</event>
<event>
 7    1  0.5935282E-013  0.5052886E+02  0.7816164E-02  0.1300439E+00
        -11   -1    0    0    0    0  0.00000000000E+00  0.00000000000E+00  0.45593999997E+02  0.45594000000E+02  0.51100000000E-03 0.  1.
         11   -1    0    0    0    0 -0.00000000000E+00 -0.00000000000E+00 -0.45593999997E+02  0.45594000000E+02  0.51100000000E-03 0. -1.
    9900012    2    1    2    0    0 -0.13287438057E+02  0.35347197427E+02 -0.15072660961E+02  0.50528862227E+02  0.30000007224E+02 0.  0.
        -12    1    1    2    0    0  0.13287438057E+02 -0.35347197427E+02  0.15072660961E+02  0.40659137773E+02  0.00000000000E+00 0.  1.
         11    1    3    3    0    0  0.28401629140E+01  0.12188623410E+02  0.29398617658E+01  0.12855810106E+02  0.51100000000E-03 0. -1.
        -11    1    3    3    0    0  0.18608752397E+01  0.10501318328E+02 -0.31257445956E+01  0.11113542316E+02  0.51100000000E-03 0.  1.
        -12    1    3    3    0    0 -0.17988476210E+02  0.12657255688E+02 -0.14886778131E+02  0.26559509804E+02  0.00000000000E+00 0.  1.
</event>
<event>
 7    1  0.5935282E-013  0.5052886E+02  0.7816164E-02  0.1300439E+00
        -11   -1    0    0    0    0  0.00000000000E+00  0.00000000000E+00  0.45593999997E+02  0.45594000000E+02  0.51100000000E-03 0. -1.
         11   -1    0    0    0    0 -0.00000000000E+00 -0.00000000000E+00 -0.45593999997E+02  0.45594000000E+02  0.51100000000E-03 0.  1.
    9900012    2    1    2    0    0  0.26319847185E+02  0.20152093752E+02  0.23544095016E+02  0.50528860209E+02  0.30000001092E+02 0.  0.
        -12    1    1    2    0    0 -0.26319847185E+02 -0.20152093752E+02 -0.23544095016E+02  0.40659139791E+02  0.00000000000E+00 0.  1.
         11    1    3    3    0    0  0.17071326419E+02  0.17528508327E+02  0.24448817621E+02  0.34589354912E+02  0.51100000000E-03 0. -1.
        -11    1    3    3    0    0  0.74331916482E+01  0.20589999120E+01  0.53600352738E+01  0.93926459059E+01  0.51100000000E-03 0.  1.
        -12    1    3    3    0    0  0.18153291178E+01  0.56458551255E+00 -0.62647578791E+01  0.65468593914E+01  0.00000000000E+00 0.  1.
</event>
<event>
 7    1  0.5935282E-013  0.5052885E+02  0.7816164E-02  0.1300439E+00
        -11   -1    0    0    0    0  0.00000000000E+00  0.00000000000E+00  0.45593999997E+02  0.45594000000E+02  0.51100000000E-03 0.  1.
         11   -1    0    0    0    0 -0.00000000000E+00 -0.00000000000E+00 -0.45593999997E+02  0.45594000000E+02  0.51100000000E-03 0. -1.
    9900012    2    1    2    0    0  0.13972301413E+02  0.62020059138E+01 -0.37675939663E+02  0.50528849571E+02  0.29999968755E+02 0.  0.
        -12    1    1    2    0    0 -0.13972301413E+02 -0.62020059138E+01  0.37675939663E+02  0.40659150429E+02  0.00000000000E+00 0.  1.
         11    1    3    3    0    0  0.71317343642E+01 -0.12521772740E+01 -0.10462970203E+02  0.12724123888E+02  0.51100000000E-03 0. -1.
        -11    1    3    3    0    0  0.10072423088E+02  0.37586277670E+01 -0.30201035502E+02  0.32057503571E+02  0.51100000000E-03 0.  1.
        -12    1    3    3    0    0 -0.32318560389E+01  0.36955554209E+01  0.29880660429E+01  0.57472221117E+01  0.00000000000E+00 0.  1.
</event>
<event>
 7    1  0.5935282E-013  0.5052885E+02  0.7816164E-02  0.1300439E+00
        -11   -1    0    0    0    0  0.00000000000E+00  0.00000000000E+00  0.45593999997E+02  0.45594000000E+02  0.51100000000E-03 0. -1.
         11   -1    0    0    0    0 -0.00000000000E+00 -0.00000000000E+00 -0.45593999997E+02  0.45594000000E+02  0.51100000000E-03 0.  1.
    9900012    2    1    2    0    0 -0.30699941953E+01  0.13495363392E+02  0.38231093359E+02  0.50528853466E+02  0.29999980597E+02 0.  0.
        -12    1    1    2    0    0  0.30699941953E+01 -0.13495363392E+02 -0.38231093359E+02  0.40659146534E+02  0.00000000000E+00 0.  1.
         11    1    3    3    0    0  0.37726018473E+00  0.36516580957E+01 -0.24555267171E+01  0.44166213121E+01  0.51100000000E-03 0. -1.
        -11    1    3    3    0    0  0.12489477850E+01 -0.11530657973E+01 -0.14979449631E+01  0.22656722349E+01  0.51100000000E-03 0.  1.
         12    1    3    3    0    0 -0.46962021651E+01  0.10996771094E+02  0.42184565039E+02  0.43846559919E+02  0.00000000000E+00 0. -1.
</event>
<event>
 7    1  0.5935282E-013  0.5052890E+02  0.7816164E-02  0.1300439E+00
        -11   -1    0    0    0    0  0.00000000000E+00  0.00000000000E+00  0.45593999997E+02  0.45594000000E+02  0.51100000000E-03 0.  1.
         11   -1    0    0    0    0 -0.00000000000E+00 -0.00000000000E+00 -0.45593999997E+02  0.45594000000E+02  0.51100000000E-03 0. -1.
    9900012    2    1    2    0    0 -0.35604187973E+02  0.25078727443E+01 -0.19473429764E+02  0.50528903924E+02  0.30000133967E+02 0.  0.
        -12    1    1    2    0    0  0.35604187973E+02 -0.25078727443E+01  0.19473429764E+02  0.40659096076E+02  0.00000000000E+00 0.  1.
         11    1    3    3    0    0 -0.14056611663E+02 -0.20273377286E+01  0.36639924989E+01  0.14667081202E+02  0.51100000000E-03 0. -1.
        -11    1    3    3    0    0 -0.94095275244E+01 -0.23409250822E-01 -0.81173328964E-01  0.94099067794E+01  0.51100000000E-03 0.  1.
         12    1    3    3    0    0 -0.12138048786E+02  0.45586197237E+01 -0.23056248934E+02  0.26451915943E+02  0.00000000000E+00 0. -1.
</event>
<event>
 7    1  0.5935282E-013  0.5052887E+02  0.7816164E-02  0.1300439E+00
        -11   -1    0    0    0    0  0.00000000000E+00  0.00000000000E+00  0.45593999997E+02  0.45594000000E+02  0.51100000000E-03 0.  1.
         11   -1    0    0    0    0 -0.00000000000E+00 -0.00000000000E+00 -0.45593999997E+02  0.45594000000E+02  0.51100000000E-03 0. -1.
    9900012    2    1    2    0    0  0.49242272458E+01  0.94092220069E+01 -0.39247719434E+02  0.50528868756E+02  0.30000027070E+02 0.  0.
        -12    1    1    2    0    0 -0.49242272458E+01 -0.94092220069E+01  0.39247719434E+02  0.40659131244E+02  0.00000000000E+00 0.  1.
         11    1    3    3    0    0 -0.25808198572E+01 -0.99119867875E+00 -0.14445352334E+01  0.31192608512E+01  0.51100000000E-03 0. -1.
        -11    1    3    3    0    0 -0.51131421717E+01  0.27399287612E+01 -0.30300618735E+02  0.30850914548E+02  0.51100000000E-03 0.  1.
        -12    1    3    3    0    0  0.12618189275E+02  0.76604919245E+01 -0.75025654658E+01  0.16558693356E+02  0.00000000000E+00 0.  1.
</event>
<event>
 7    1  0.5935282E-013  0.5052881E+02  0.7816164E-02  0.1300439E+00
        -11   -1    0    0    0    0  0.00000000000E+00  0.00000000000E+00  0.45593999997E+02  0.45594000000E+02  0.51100000000E-03 0. -1.
         11   -1    0    0    0    0 -0.00000000000E+00 -0.00000000000E+00 -0.45593999997E+02  0.45594000000E+02  0.51100000000E-03 0.  1.
    9900012    2    1    2    0    0 -0.14409438153E+02  0.36956210674E+02 -0.89317504958E+01  0.50528811836E+02  0.29999854055E+02 0.  0.
        -12    1    1    2    0    0  0.14409438153E+02 -0.36956210674E+02  0.89317504958E+01  0.40659188164E+02  0.00000000000E+00 0.  1.
         11    1    3    3    0    0  0.12112295332E+01 -0.11237257555E+01 -0.26008524733E-01  0.16524264765E+01  0.51100000000E-03 0. -1.
        -11    1    3    3    0    0 -0.14812412314E+02  0.79255762977E+01  0.17364237787E+01  0.16888975280E+02  0.51100000000E-03 0.  1.
         12    1    3    3    0    0 -0.80825537169E+00  0.30154360132E+02 -0.10642165750E+02  0.31987410079E+02  0.00000000000E+00 0. -1.
</event>
<event>
 7    1  0.5935282E-013  0.5052886E+02  0.7816164E-02  0.1300439E+00
        -11   -1    0    0    0    0  0.00000000000E+00  0.00000000000E+00  0.45593999997E+02  0.45594000000E+02  0.51100000000E-03 0. -1.
         11   -1    0    0    0    0 -0.00000000000E+00 -0.00000000000E+00 -0.45593999997E+02  0.45594000000E+02  0.51100000000E-03 0.  1.
    9900012    2    1    2    0    0 -0.35926833086E+02 -0.76246968926E+01 -0.17443978620E+02  0.50528859227E+02  0.29999998106E+02 0.  0.
        -12    1    1    2    0    0  0.35926833086E+02  0.76246968926E+01  0.17443978620E+02  0.40659140773E+02  0.00000000000E+00 0.  1.
         11    1    3    3    0    0 -0.38391802567E+01  0.27549144390E+00  0.59423115626E+01  0.70799906460E+01  0.51100000000E-03 0. -1.
        -11    1    3    3    0    0 -0.92208569570E+01  0.27535765195E+01 -0.91790302442E+00  0.96668988251E+01  0.51100000000E-03 0.  1.
        -12    1    3    3    0    0 -0.22866795873E+02 -0.10653764856E+02 -0.22468387158E+02  0.33781969756E+02  0.00000000000E+00 0.  1.
</event>
<event>
 7    1  0.5935282E-013  0.5052885E+02  0.7816164E-02  0.1300439E+00
        -11   -1    0    0    0    0  0.00000000000E+00  0.00000000000E+00  0.45593999997E+02  0.45594000000E+02  0.51100000000E-03 0. -1.
         11   -1    0    0    0    0 -0.00000000000E+00 -0.00000000000E+00 -0.45593999997E+02  0.45594000000E+02  0.51100000000E-03 0.  1.
    9900012    2    1    2    0    0 -0.38283282415E+02  0.10150432172E+02  0.91937571931E+01  0.50528853956E+02  0.29999982083E+02 0.  0.
        -12    1    1    2    0    0  0.38283282415E+02 -0.10150432172E+02 -0.91937571931E+01  0.40659146044E+02  0.00000000000E+00 0.  1.
         11    1    3    3    0    0 -0.43745451599E+01 -0.64547562915E+01  0.71125893917E+01  0.10554120155E+02  0.51100000000E-03 0. -1.
        -11    1    3    3    0    0 -0.93055565451E+01 -0.88743066760E+00  0.28640823806E+01  0.97767010769E+01  0.51100000000E-03 0.  1.
         12    1    3    3    0    0 -0.24603180710E+02  0.17492619131E+02 -0.78291457912E+00  0.30198032723E+02  0.00000000000E+00 0. -1.
</event>
<event>
 7    1  0.5935282E-013  0.5052887E+02  0.7816164E-02  0.1300439E+00
        -11   -1    0    0    0    0  0.00000000000E+00  0.00000000000E+00  0.45593999997E+02  0.45594000000E+02  0.51100000000E-03 0.  1.
         11   -1    0    0    0    0 -0.00000000000E+00 -0.00000000000E+00 -0.45593999997E+02  0.45594000000E+02  0.51100000000E-03 0. -1.
    9900012    2    1    2    0    0 -0.37983615633E+02  0.90081504348E+01 -0.11369394314E+02  0.50528868702E+02  0.30000026907E+02 0.  0.
        -12    1    1    2    0    0  0.37983615633E+02 -0.90081504348E+01  0.11369394314E+02  0.40659131298E+02  0.00000000000E+00 0.  1.
         11    1    3    3    0    0 -0.85524712061E+01  0.77144522324E+00 -0.13699277492E+02  0.16168181577E+02  0.51100000000E-03 0. -1.
        -11    1    3    3    0    0 -0.19434199817E+02 -0.24325009217E+01  0.21050098165E+00  0.19586972563E+02  0.51100000000E-03 0.  1.
        -12    1    3    3    0    0 -0.99969446098E+01  0.10669206133E+02  0.21193821963E+01  0.14773714561E+02  0.00000000000E+00 0.  1.
</event>
<event>
 7    1  0.5935282E-013  0.5052886E+02  0.7816164E-02  0.1300439E+00
        -11   -1    0    0    0    0  0.00000000000E+00  0.00000000000E+00  0.45593999997E+02  0.45594000000E+02  0.51100000000E-03 0.  1.
         11   -1    0    0    0    0 -0.00000000000E+00 -0.00000000000E+00 -0.45593999997E+02  0.45594000000E+02  0.51100000000E-03 0. -1.
    9900012    2    1    2    0    0  0.35806665653E+02  0.59455321189E+01  0.18322093173E+02  0.50528858892E+02  0.29999997089E+02 0.  0.
        -12    1    1    2    0    0 -0.35806665653E+02 -0.59455321189E+01 -0.18322093173E+02  0.40659141108E+02  0.00000000000E+00 0.  1.
         11    1    3    3    0    0  0.26642674224E+01 -0.64324567214E+00 -0.11966178440E+01  0.29906488290E+01  0.51100000000E-03 0. -1.
        -11    1    3    3    0    0  0.26259852713E+02 -0.57702651929E+01  0.51512229495E+01  0.27375370738E+02  0.51100000000E-03 0.  1.
        -12    1    3    3    0    0  0.68825455172E+01  0.12359042984E+02  0.14367488068E+02  0.20162839325E+02  0.00000000000E+00 0.  1.
</event>
<event>
 7    1  0.5935282E-013  0.5052886E+02  0.7816164E-02  0.1300439E+00
        -11   -1    0    0    0    0  0.00000000000E+00  0.00000000000E+00  0.45593999997E+02  0.45594000000E+02  0.51100000000E-03 0. -1.
         11   -1    0    0    0    0 -0.00000000000E+00 -0.00000000000E+00 -0.45593999997E+02  0.45594000000E+02  0.51100000000E-03 0.  1.
    9900012    2    1    2    0    0  0.56691023096E+01 -0.27254798511E+02  0.29634488471E+02  0.50528859948E+02  0.30000000297E+02 0.  0.
        -12    1    1    2    0    0 -0.56691023096E+01  0.27254798511E+02 -0.29634488471E+02  0.40659140052E+02  0.00000000000E+00 0.  1.
         11    1    3    3    0    0  0.33736322428E+00 -0.15687012190E+02  0.15075507885E+02  0.21759299245E+02  0.51100000000E-03 0. -1.
        -11    1    3    3    0    0 -0.25748097458E+01 -0.15553712447E+02  0.11015043873E+02  0.19232233565E+02  0.51100000000E-03 0.  1.
        -12    1    3    3    0    0  0.79065488311E+01  0.39859261261E+01  0.35439367134E+01  0.95373271376E+01  0.00000000000E+00 0.  1.
</event>
<event>
 7    1  0.5935282E-013  0.5052886E+02  0.7816164E-02  0.1300439E+00
        -11   -1    0    0    0    0  0.00000000000E+00  0.00000000000E+00  0.45593999997E+02  0.45594000000E+02  0.51100000000E-03 0. -1.
         11   -1    0    0    0    0 -0.00000000000E+00 -0.00000000000E+00 -0.45593999997E+02  0.45594000000E+02  0.51100000000E-03 0.  1.
    9900012    2    1    2    0    0 -0.38638052720E+02 -0.12653395501E+02 -0.39720163398E+00  0.50528864436E+02  0.30000013940E+02 0.  0.
        -12    1    1    2    0    0  0.38638052720E+02  0.12653395501E+02  0.39720163398E+00  0.40659135564E+02  0.00000000000E+00 0.  1.
         11    1    3    3    0    0 -0.58526995147E+01 -0.58622822251E+01  0.30658300207E+01  0.88328793988E+01  0.51100000000E-03 0. -1.
        -11    1    3    3    0    0 -0.37587111348E+01 -0.95421421933E+01  0.48963084402E+01  0.11364603981E+02  0.51100000000E-03 0.  1.
         12    1    3    3    0    0 -0.29026642070E+02  0.27510289175E+01 -0.83593400950E+01  0.30331381057E+02  0.00000000000E+00 0. -1.
</event>
<event>
 7    1  0.5935282E-013  0.5052891E+02  0.7816164E-02  0.1300439E+00
        -11   -1    0    0    0    0  0.00000000000E+00  0.00000000000E+00  0.45593999997E+02  0.45594000000E+02  0.51100000000E-03 0.  1.
         11   -1    0    0    0    0 -0.00000000000E+00 -0.00000000000E+00 -0.45593999997E+02  0.45594000000E+02  0.51100000000E-03 0. -1.
    9900012    2    1    2    0    0  0.23821777033E+02 -0.10177586226E+02 -0.31338497109E+02  0.50528908477E+02  0.30000147806E+02 0.  0.
        -12    1    1    2    0    0 -0.23821777033E+02  0.10177586226E+02  0.31338497109E+02  0.40659091523E+02  0.00000000000E+00 0.  1.
         11    1    3    3    0    0  0.92380073662E+01 -0.39953985472E+00 -0.34668895782E+01  0.98752081397E+01  0.51100000000E-03 0. -1.
        -11    1    3    3    0    0 -0.35221260948E+01 -0.91161571364E+01 -0.37095290753E+01  0.10453243486E+02  0.51100000000E-03 0.  1.
         12    1    3    3    0    0  0.18105895762E+02 -0.66188923503E+00 -0.24162078456E+02  0.30200456851E+02  0.00000000000E+00 0. -1.
</event>
<event>
 7    1  0.5935282E-013  0.5052887E+02  0.7816164E-02  0.1300439E+00
        -11   -1    0    0    0    0  0.00000000000E+00  0.00000000000E+00  0.45593999997E+02  0.45594000000E+02  0.51100000000E-03 0.  1.
         11   -1    0    0    0    0 -0.00000000000E+00 -0.00000000000E+00 -0.45593999997E+02  0.45594000000E+02  0.51100000000E-03 0. -1.
    9900012    2    1    2    0    0  0.16753026075E+02  0.13768720185E+02 -0.34393651639E+02  0.50528870505E+02  0.30000032387E+02 0.  0.
        -12    1    1    2    0    0 -0.16753026075E+02 -0.13768720185E+02  0.34393651639E+02  0.40659129495E+02  0.00000000000E+00 0.  1.
         11    1    3    3    0    0  0.77441765006E+00  0.43762114687E+01  0.17176562451E+01  0.47645873644E+01  0.51100000000E-03 0. -1.
        -11    1    3    3    0    0  0.76055218031E+01 -0.34299634087E+01 -0.23122364362E+01  0.86576583717E+01  0.51100000000E-03 0.  1.
         12    1    3    3    0    0  0.83730866220E+01  0.12822472125E+02 -0.33799071448E+02  0.37106624769E+02  0.00000000000E+00 0. -1.
</event>
<event>
 7    1  0.5935282E-013  0.5052887E+02  0.7816164E-02  0.1300439E+00
        -11   -1    0    0    0    0  0.00000000000E+00  0.00000000000E+00  0.45593999997E+02  0.45594000000E+02  0.51100000000E-03 0.  1.
         11   -1    0    0    0    0 -0.00000000000E+00 -0.00000000000E+00 -0.45593999997E+02  0.45594000000E+02  0.51100000000E-03 0. -1.
    9900012    2    1    2    0    0 -0.40433080371E+02  0.38841756874E+01  0.18011832679E+01  0.50528867320E+02  0.30000022707E+02 0.  0.
        -12    1    1    2    0    0  0.40433080371E+02 -0.38841756874E+01 -0.18011832679E+01  0.40659132680E+02  0.00000000000E+00 0.  1.
         11    1    3    3    0    0 -0.28238666446E+02  0.15826904120E+01  0.51449414710E+01  0.28747132285E+02  0.51100000000E-03 0. -1.
        -11    1    3    3    0    0 -0.80503495352E+01  0.12711475717E+01  0.69031187572E+01  0.10680683153E+02  0.51100000000E-03 0.  1.
        -12    1    3    3    0    0 -0.41440643904E+01  0.10303377036E+01 -0.10246876960E+02  0.11101051882E+02  0.00000000000E+00 0.  1.
</event>
<event>
 7    1  0.5935282E-013  0.5052886E+02  0.7816164E-02  0.1300439E+00
        -11   -1    0    0    0    0  0.00000000000E+00  0.00000000000E+00  0.45593999997E+02  0.45594000000E+02  0.51100000000E-03 0. -1.
         11   -1    0    0    0    0 -0.00000000000E+00 -0.00000000000E+00 -0.45593999997E+02  0.45594000000E+02  0.51100000000E-03 0.  1.
    9900012    2    1    2    0    0 -0.10852425039E+02  0.35217597054E+02  0.17178811879E+02  0.50528857743E+02  0.29999993595E+02 0.  0.
        -12    1    1    2    0    0  0.10852425039E+02 -0.35217597054E+02 -0.17178811879E+02  0.40659142257E+02  0.00000000000E+00 0.  1.
         11    1    3    3    0    0 -0.54510390093E+01  0.57605556772E+01 -0.21781767738E+01  0.82244928299E+01  0.51100000000E-03 0. -1.
        -11    1    3    3    0    0 -0.11876709518E+02  0.20682031173E+02  0.51585063172E+01  0.24401082560E+02  0.51100000000E-03 0.  1.
        -12    1    3    3    0    0  0.64753234882E+01  0.87750102039E+01  0.14198482336E+02  0.17903282352E+02  0.00000000000E+00 0.  1.
</event>
<event>
 7    1  0.5935282E-013  0.5052886E+02  0.7816164E-02  0.1300439E+00
        -11   -1    0    0    0    0  0.00000000000E+00  0.00000000000E+00  0.45593999997E+02  0.45594000000E+02  0.51100000000E-03 0. -1.
         11   -1    0    0    0    0 -0.00000000000E+00 -0.00000000000E+00 -0.45593999997E+02  0.45594000000E+02  0.51100000000E-03 0.  1.
    9900012    2    1    2    0    0  0.33034898419E+02 -0.21842734384E+02  0.92063207564E+01  0.50528857107E+02  0.29999991663E+02 0.  0.
        -12    1    1    2    0    0 -0.33034898419E+02  0.21842734384E+02 -0.92063207564E+01  0.40659142893E+02  0.00000000000E+00 0.  1.
         11    1    3    3    0    0  0.38917303194E+01 -0.47012538260E+01 -0.57363426950E+01  0.83757375909E+01  0.51100000000E-03 0. -1.
        -11    1    3    3    0    0  0.78754682077E+01 -0.11231904934E+01  0.13274545457E+02  0.15475726598E+02  0.51100000000E-03 0.  1.
         12    1    3    3    0    0  0.21267699891E+02 -0.16018290065E+02  0.16681179940E+01  0.26677392918E+02  0.00000000000E+00 0. -1.
</event>
<event>
 7    1  0.5935282E-013  0.5052891E+02  0.7816164E-02  0.1300439E+00
        -11   -1    0    0    0    0  0.00000000000E+00  0.00000000000E+00  0.45593999997E+02  0.45594000000E+02  0.51100000000E-03 0.  1.
         11   -1    0    0    0    0 -0.00000000000E+00 -0.00000000000E+00 -0.45593999997E+02  0.45594000000E+02  0.51100000000E-03 0. -1.
    9900012    2    1    2    0    0 -0.82302974545E+01 -0.17855600469E+02 -0.35589347122E+02  0.50528906394E+02  0.30000141474E+02 0.  0.
        -12    1    1    2    0    0  0.82302974545E+01  0.17855600469E+02  0.35589347122E+02  0.40659093606E+02  0.00000000000E+00 0.  1.
         11    1    3    3    0    0 -0.23284872787E+01 -0.16953967720E+02 -0.11132207883E+02  0.20415311094E+02  0.51100000000E-03 0. -1.
        -11    1    3    3    0    0  0.45780349609E+01 -0.37008153277E+01 -0.45396788042E+01  0.74339170092E+01  0.51100000000E-03 0.  1.
         12    1    3    3    0    0 -0.10479845137E+02  0.27991825786E+01 -0.19917460435E+02  0.22679678291E+02  0.00000000000E+00 0. -1.
</event>
<event>
 7    1  0.5935282E-013  0.5052886E+02  0.7816164E-02  0.1300439E+00
        -11   -1    0    0    0    0  0.00000000000E+00  0.00000000000E+00  0.45593999997E+02  0.45594000000E+02  0.51100000000E-03 0.  1.
         11   -1    0    0    0    0 -0.00000000000E+00 -0.00000000000E+00 -0.45593999997E+02  0.45594000000E+02  0.51100000000E-03 0. -1.
    9900012    2    1    2    0    0 -0.32886037366E+02  0.86588137631E+00 -0.23894026087E+02  0.50528859738E+02  0.29999999661E+02 0.  0.
        -12    1    1    2    0    0  0.32886037366E+02 -0.86588137631E+00  0.23894026087E+02  0.40659140262E+02  0.00000000000E+00 0.  1.
         11    1    3    3    0    0 -0.54265286778E+00 -0.90734377232E+01 -0.48796019733E+01  0.10316601181E+02  0.51100000000E-03 0. -1.
        -11    1    3    3    0    0  0.46122591224E+00  0.11115834837E+01 -0.16996236456E+01  0.20825628396E+01  0.51100000000E-03 0.  1.
         12    1    3    3    0    0 -0.32804610410E+02  0.88277356158E+01 -0.17314800468E+02  0.38129695718E+02  0.00000000000E+00 0. -1.
</event>
<event>
 7    1  0.5935282E-013  0.5052886E+02  0.7816164E-02  0.1300439E+00
        -11   -1    0    0    0    0  0.00000000000E+00  0.00000000000E+00  0.45593999997E+02  0.45594000000E+02  0.51100000000E-03 0. -1.
         11   -1    0    0    0    0 -0.00000000000E+00 -0.00000000000E+00 -0.45593999997E+02  0.45594000000E+02  0.51100000000E-03 0.  1.
    9900012    2    1    2    0    0  0.26105181423E+01  0.38031157187E+02  0.14141492170E+02  0.50528861756E+02  0.30000005794E+02 0.  0.
        -12    1    1    2    0    0 -0.26105181423E+01 -0.38031157187E+02 -0.14141492170E+02  0.40659138244E+02  0.00000000000E+00 0.  1.
         11    1    3    3    0    0  0.13162621501E+01  0.32476778483E+01  0.25811341477E+01  0.43522650658E+01  0.51100000000E-03 0. -1.
        -11    1    3    3    0    0  0.12160494313E+01 -0.46373883095E+01 -0.80607483108E+00  0.48614713253E+01  0.51100000000E-03 0.  1.
        -12    1    3    3    0    0  0.78206560974E-01  0.39420867648E+02  0.12366432853E+02  0.41315125365E+02  0.00000000000E+00 0.  1.
</event>
<event>
 7    1  0.5935282E-013  0.5052886E+02  0.7816164E-02  0.1300439E+00
        -11   -1    0    0    0    0  0.00000000000E+00  0.00000000000E+00  0.45593999997E+02  0.45594000000E+02  0.51100000000E-03 0. -1.
         11   -1    0    0    0    0 -0.00000000000E+00 -0.00000000000E+00 -0.45593999997E+02  0.45594000000E+02  0.51100000000E-03 0.  1.
    9900012    2    1    2    0    0 -0.86021143046E+01 -0.31635882185E+02 -0.24048705795E+02  0.50528860037E+02  0.30000000568E+02 0.  0.
        -12    1    1    2    0    0  0.86021143046E+01  0.31635882185E+02  0.24048705795E+02  0.40659139963E+02  0.00000000000E+00 0.  1.
         11    1    3    3    0    0 -0.12568921337E+02 -0.24808219979E+02 -0.70851915589E+01  0.28698876315E+02  0.51100000000E-03 0. -1.
        -11    1    3    3    0    0  0.53235670687E+01 -0.18021962646E+01 -0.19651558256E+01  0.59539999489E+01  0.51100000000E-03 0.  1.
        -12    1    3    3    0    0 -0.13567600366E+01 -0.50254659414E+01 -0.14998358411E+02  0.15875983773E+02  0.00000000000E+00 0.  1.
</event>
<event>
 7    1  0.5935282E-013  0.5052886E+02  0.7816164E-02  0.1300439E+00
        -11   -1    0    0    0    0  0.00000000000E+00  0.00000000000E+00  0.45593999997E+02  0.45594000000E+02  0.51100000000E-03 0.  1.
         11   -1    0    0    0    0 -0.00000000000E+00 -0.00000000000E+00 -0.45593999997E+02  0.45594000000E+02  0.51100000000E-03 0. -1.
    9900012    2    1    2    0    0  0.14720532455E+02 -0.11867218829E+00 -0.37900625388E+02  0.50528861253E+02  0.30000004266E+02 0.  0.
        -12    1    1    2    0    0 -0.14720532455E+02  0.11867218829E+00  0.37900625388E+02  0.40659138747E+02  0.00000000000E+00 0.  1.
         11    1    3    3    0    0 -0.17871768875E+01 -0.28850286085E+01 -0.10053787063E+02  0.10611127455E+02  0.51100000000E-03 0. -1.
        -11    1    3    3    0    0  0.79136628084E+01  0.26642671087E+01 -0.29931050635E+02  0.31073978996E+02  0.51100000000E-03 0.  1.
        -12    1    3    3    0    0  0.85940465336E+01  0.10208931151E+00  0.20842123103E+01  0.88437548023E+01  0.00000000000E+00 0.  1.
</event>
<event>
 7    1  0.5935282E-013  0.5052887E+02  0.7816164E-02  0.1300439E+00
        -11   -1    0    0    0    0  0.00000000000E+00  0.00000000000E+00  0.45593999997E+02  0.45594000000E+02  0.51100000000E-03 0.  1.
         11   -1    0    0    0    0 -0.00000000000E+00 -0.00000000000E+00 -0.45593999997E+02  0.45594000000E+02  0.51100000000E-03 0. -1.
    9900012    2    1    2    0    0 -0.39020348836E+02 -0.33656812402E+01 -0.10920153342E+02  0.50528865940E+02  0.30000018510E+02 0.  0.
        -12    1    1    2    0    0  0.39020348836E+02  0.33656812402E+01  0.10920153342E+02  0.40659134060E+02  0.00000000000E+00 0.  1.
         11    1    3    3    0    0 -0.18163851560E+02 -0.38613862328E+01 -0.10760824019E+02  0.21462319096E+02  0.51100000000E-03 0. -1.
        -11    1    3    3    0    0 -0.10568874628E+02 -0.40110975030E+01 -0.92583156614E+01  0.14611858993E+02  0.51100000000E-03 0.  1.
        -12    1    3    3    0    0 -0.10287622648E+02  0.45068024957E+01  0.90989863384E+01  0.14454687851E+02  0.00000000000E+00 0.  1.
</event>
<event>
 7    1  0.5935282E-013  0.5052886E+02  0.7816164E-02  0.1300439E+00
        -11   -1    0    0    0    0  0.00000000000E+00  0.00000000000E+00  0.45593999997E+02  0.45594000000E+02  0.51100000000E-03 0.  1.
         11   -1    0    0    0    0 -0.00000000000E+00 -0.00000000000E+00 -0.45593999997E+02  0.45594000000E+02  0.51100000000E-03 0. -1.
    9900012    2    1    2    0    0 -0.15577609434E+00 -0.30517574207E+02 -0.26866687771E+02  0.50528861870E+02  0.30000006140E+02 0.  0.
        -12    1    1    2    0    0  0.15577609434E+00  0.30517574207E+02  0.26866687771E+02  0.40659138130E+02  0.00000000000E+00 0.  1.
         11    1    3    3    0    0  0.96689144460E+01 -0.16130226715E+02 -0.10362919425E+01  0.18834702591E+02  0.51100000000E-03 0. -1.
        -11    1    3    3    0    0 -0.95091975254E+00 -0.44451925129E+00 -0.24987577217E-01  0.10499858955E+01  0.51100000000E-03 0.  1.
         12    1    3    3    0    0 -0.88737707878E+01 -0.13942828241E+02 -0.25805408251E+02  0.30644173384E+02  0.00000000000E+00 0. -1.
</event>
<event>
 7    1  0.5935282E-013  0.5052885E+02  0.7816164E-02  0.1300439E+00
        -11   -1    0    0    0    0  0.00000000000E+00  0.00000000000E+00  0.45593999997E+02  0.45594000000E+02  0.51100000000E-03 0. -1.
         11   -1    0    0    0    0 -0.00000000000E+00 -0.00000000000E+00 -0.45593999997E+02  0.45594000000E+02  0.51100000000E-03 0.  1.
    9900012    2    1    2    0    0 -0.49089381157E+01 -0.40316590455E+02 -0.19081235191E+01  0.50528854968E+02  0.29999985160E+02 0.  0.
        -12    1    1    2    0    0  0.49089381157E+01  0.40316590455E+02  0.19081235191E+01  0.40659145032E+02  0.00000000000E+00 0.  1.
         11    1    3    3    0    0 -0.51210256796E+01 -0.23088232393E+01 -0.73282336696E+01  0.92335571552E+01  0.51100000000E-03 0. -1.
        -11    1    3    3    0    0  0.87763618677E+00  0.13288098092E+01  0.10880023289E+00  0.15961887536E+01  0.51100000000E-03 0.  1.
         12    1    3    3    0    0 -0.66554862289E+00 -0.39336577025E+02  0.53113099176E+01  0.39699109059E+02  0.00000000000E+00 0. -1.
</event>
<event>
 7    1  0.5935282E-013  0.5052886E+02  0.7816164E-02  0.1300439E+00
        -11   -1    0    0    0    0  0.00000000000E+00  0.00000000000E+00  0.45593999997E+02  0.45594000000E+02  0.51100000000E-03 0. -1.
         11   -1    0    0    0    0 -0.00000000000E+00 -0.00000000000E+00 -0.45593999997E+02  0.45594000000E+02  0.51100000000E-03 0.  1.
    9900012    2    1    2    0    0  0.39555179491E+02  0.94059954144E+01  0.28366394428E+00  0.50528862780E+02  0.30000008905E+02 0.  0.
        -12    1    1    2    0    0 -0.39555179491E+02 -0.94059954144E+01 -0.28366394428E+00  0.40659137220E+02  0.00000000000E+00 0.  1.
         11    1    3    3    0    0  0.35765212520E+02  0.38451840515E+01 -0.39968768249E+01  0.36192691135E+02  0.51100000000E-03 0. -1.
        -11    1    3    3    0    0  0.14030128600E+01 -0.29389416425E+01  0.44398434484E+01  0.55061813601E+01  0.51100000000E-03 0.  1.
        -12    1    3    3    0    0  0.23869541110E+01  0.84997530055E+01 -0.15930267922E+00  0.88299902846E+01  0.00000000000E+00 0.  1.
</event>
<event>
 7    1  0.5935282E-013  0.5052885E+02  0.7816164E-02  0.1300439E+00
        -11   -1    0    0    0    0  0.00000000000E+00  0.00000000000E+00  0.45593999997E+02  0.45594000000E+02  0.51100000000E-03 0.  1.
         11   -1    0    0    0    0 -0.00000000000E+00 -0.00000000000E+00 -0.45593999997E+02  0.45594000000E+02  0.51100000000E-03 0. -1.
    9900012    2    1    2    0    0 -0.40240143057E+02 -0.41919601766E+01  0.40403501303E+01  0.50528854995E+02  0.29999985243E+02 0.  0.
        -12    1    1    2    0    0  0.40240143057E+02  0.41919601766E+01 -0.40403501303E+01  0.40659145005E+02  0.00000000000E+00 0.  1.
         11    1    3    3    0    0 -0.15672131837E+02 -0.60566459109E+01 -0.45219520243E+01  0.17399618570E+02  0.51100000000E-03 0. -1.
        -11    1    3    3    0    0 -0.14369973496E+02 -0.82312237626E+01  0.88485570653E+01  0.18776212219E+02  0.51100000000E-03 0.  1.
        -12    1    3    3    0    0 -0.10198037724E+02  0.10095909497E+02 -0.28625491065E+00  0.14353024206E+02  0.00000000000E+00 0.  1.
</event>
<event>
 7    1  0.5935282E-013  0.5052886E+02  0.7816164E-02  0.1300439E+00
        -11   -1    0    0    0    0  0.00000000000E+00  0.00000000000E+00  0.45593999997E+02  0.45594000000E+02  0.51100000000E-03 0.  1.
         11   -1    0    0    0    0 -0.00000000000E+00 -0.00000000000E+00 -0.45593999997E+02  0.45594000000E+02  0.51100000000E-03 0. -1.
    9900012    2    1    2    0    0  0.15110711089E+02 -0.26273646879E+02 -0.27102170199E+02  0.50528859092E+02  0.29999997695E+02 0.  0.
        -12    1    1    2    0    0 -0.15110711089E+02  0.26273646879E+02  0.27102170199E+02  0.40659140908E+02  0.00000000000E+00 0.  1.
         11    1    3    3    0    0  0.21379335995E+02 -0.20860950574E+02 -0.14331093052E+02  0.33130582469E+02  0.51100000000E-03 0. -1.
        -11    1    3    3    0    0  0.90194949091E-01 -0.51968316705E+00  0.11867457947E+01  0.12986807019E+01  0.51100000000E-03 0.  1.
        -12    1    3    3    0    0 -0.63588198555E+01 -0.48930131376E+01 -0.13957822942E+02  0.16099595920E+02  0.00000000000E+00 0.  1.
</event>
<event>
 7    1  0.5935282E-013  0.5052886E+02  0.7816164E-02  0.1300439E+00
        -11   -1    0    0    0    0  0.00000000000E+00  0.00000000000E+00  0.45593999997E+02  0.45594000000E+02  0.51100000000E-03 0.  1.
         11   -1    0    0    0    0 -0.00000000000E+00 -0.00000000000E+00 -0.45593999997E+02  0.45594000000E+02  0.51100000000E-03 0. -1.
    9900012    2    1    2    0    0  0.16314976701E+02 -0.22923569295E+02 -0.29351269960E+02  0.50528861516E+02  0.30000005065E+02 0.  0.
        -12    1    1    2    0    0 -0.16314976701E+02  0.22923569295E+02  0.29351269960E+02  0.40659138484E+02  0.00000000000E+00 0.  1.
         11    1    3    3    0    0  0.14745450300E+02 -0.10121489073E+02 -0.23406576160E+02  0.29457437998E+02  0.51100000000E-03 0. -1.
        -11    1    3    3    0    0  0.19949058798E+01 -0.13147833797E+02 -0.10213322400E+02  0.16767740984E+02  0.51100000000E-03 0.  1.
        -12    1    3    3    0    0 -0.42537947848E+00  0.34575357470E+00  0.42686285995E+01  0.43036825342E+01  0.00000000000E+00 0.  1.
</event>
<event>
 7    1  0.5935282E-013  0.5052885E+02  0.7816164E-02  0.1300439E+00
        -11   -1    0    0    0    0  0.00000000000E+00  0.00000000000E+00  0.45593999997E+02  0.45594000000E+02  0.51100000000E-03 0. -1.
         11   -1    0    0    0    0 -0.00000000000E+00 -0.00000000000E+00 -0.45593999997E+02  0.45594000000E+02  0.51100000000E-03 0.  1.
    9900012    2    1    2    0    0  0.36548867127E+02  0.86234547035E+01  0.15587916719E+02  0.50528845964E+02  0.29999957793E+02 0.  0.
        -12    1    1    2    0    0 -0.36548867127E+02 -0.86234547035E+01 -0.15587916719E+02  0.40659154036E+02  0.00000000000E+00 0.  1.
         11    1    3    3    0    0  0.26373806504E+02 -0.14582586974E+01 -0.18086950766E+01  0.26475943158E+02  0.51100000000E-03 0.  1.
        -11    1    3    3    0    0  0.58784705406E+01  0.20447110939E+01  0.11847938672E+02  0.13383232434E+02  0.51100000000E-03 0. -1.
        -12    1    3    3    0    0  0.42965900814E+01  0.80370023070E+01  0.55486731239E+01  0.10669670372E+02  0.00000000000E+00 0.  1.
</event>
<event>
 7    1  0.5935282E-013  0.5052889E+02  0.7816164E-02  0.1300439E+00
        -11   -1    0    0    0    0  0.00000000000E+00  0.00000000000E+00  0.45593999997E+02  0.45594000000E+02  0.51100000000E-03 0.  1.
         11   -1    0    0    0    0 -0.00000000000E+00 -0.00000000000E+00 -0.45593999997E+02  0.45594000000E+02  0.51100000000E-03 0. -1.
    9900012    2    1    2    0    0  0.32466975259E+02 -0.16799148391E+02 -0.17800213116E+02  0.50528887170E+02  0.30000083042E+02 0.  0.
        -12    1    1    2    0    0 -0.32466975259E+02  0.16799148391E+02  0.17800213116E+02  0.40659112830E+02  0.00000000000E+00 0.  1.
         11    1    3    3    0    0  0.18051243864E+02 -0.60375167622E+00 -0.74373860529E+01  0.19532706743E+02  0.51100000000E-03 0. -1.
        -11    1    3    3    0    0  0.56363584008E+01 -0.43621493550E+01  0.57533967467E+01  0.91596101120E+01  0.51100000000E-03 0.  1.
        -12    1    3    3    0    0  0.87793729937E+01 -0.11833247360E+02 -0.16116223810E+02  0.21836570316E+02  0.00000000000E+00 0.  1.
</event>
<event>
 7    1  0.5935282E-013  0.5052887E+02  0.7816164E-02  0.1300439E+00
        -11   -1    0    0    0    0  0.00000000000E+00  0.00000000000E+00  0.45593999997E+02  0.45594000000E+02  0.51100000000E-03 0.  1.
         11   -1    0    0    0    0 -0.00000000000E+00 -0.00000000000E+00 -0.45593999997E+02  0.45594000000E+02  0.51100000000E-03 0. -1.
    9900012    2    1    2    0    0  0.24519539061E+02 -0.62724545771E+01 -0.31821591279E+02  0.50528866294E+02  0.30000019588E+02 0.  0.
        -12    1    1    2    0    0 -0.24519539061E+02  0.62724545771E+01  0.31821591279E+02  0.40659133706E+02  0.00000000000E+00 0.  1.
         11    1    3    3    0    0  0.11617562524E+02 -0.92457749516E+01 -0.23525944975E+02  0.27819457232E+02  0.51100000000E-03 0. -1.
        -11    1    3    3    0    0  0.30326877898E+01 -0.15002545291E+01 -0.11027167966E+02  0.11534573789E+02  0.51100000000E-03 0.  1.
        -12    1    3    3    0    0  0.98692887472E+01  0.44735749036E+01  0.27315216621E+01  0.11174835273E+02  0.00000000000E+00 0.  1.
</event>
<event>
 7    1  0.5935282E-013  0.5052885E+02  0.7816164E-02  0.1300439E+00
        -11   -1    0    0    0    0  0.00000000000E+00  0.00000000000E+00  0.45593999997E+02  0.45594000000E+02  0.51100000000E-03 0. -1.
         11   -1    0    0    0    0 -0.00000000000E+00 -0.00000000000E+00 -0.45593999997E+02  0.45594000000E+02  0.51100000000E-03 0.  1.
    9900012    2    1    2    0    0 -0.65589096582E+01 -0.24099834650E+02  0.32083410769E+02  0.50528848845E+02  0.29999966549E+02 0.  0.
        -12    1    1    2    0    0  0.65589096582E+01  0.24099834650E+02 -0.32083410769E+02  0.40659151155E+02  0.00000000000E+00 0.  1.
         11    1    3    3    0    0 -0.72165437250E+01 -0.47557665735E+01  0.19019756780E+02  0.20891313201E+02  0.51100000000E-03 0. -1.
        -11    1    3    3    0    0 -0.46819916089E+01 -0.75801593977E+01  0.14097825176E+02  0.16677186120E+02  0.51100000000E-03 0.  1.
        -12    1    3    3    0    0  0.53396256757E+01 -0.11763908678E+02 -0.10341711864E+01  0.12960349524E+02  0.00000000000E+00 0.  1.
</event>
<event>
 7    1  0.5935282E-013  0.5052885E+02  0.7816164E-02  0.1300439E+00
        -11   -1    0    0    0    0  0.00000000000E+00  0.00000000000E+00  0.45593999997E+02  0.45594000000E+02  0.51100000000E-03 0. -1.
         11   -1    0    0    0    0 -0.00000000000E+00 -0.00000000000E+00 -0.45593999997E+02  0.45594000000E+02  0.51100000000E-03 0.  1.
    9900012    2    1    2    0    0 -0.20139376627E+02  0.40319267427E+01  0.35090105856E+02  0.50528850315E+02  0.29999971017E+02 0.  0.
        -12    1    1    2    0    0  0.20139376627E+02 -0.40319267427E+01 -0.35090105856E+02  0.40659149685E+02  0.00000000000E+00 0.  1.
         11    1    3    3    0    0  0.17048348509E+01 -0.43817926984E+00  0.22949743904E+01  0.28922950498E+01  0.51100000000E-03 0. -1.
        -11    1    3    3    0    0  0.30614835948E+01  0.86557063346E+01  0.70818273832E+01  0.11595094364E+02  0.51100000000E-03 0.  1.
         12    1    3    3    0    0 -0.24905695073E+02 -0.41856003221E+01  0.25713304082E+02  0.36041460901E+02  0.00000000000E+00 0. -1.
</event>
<event>
 7    1  0.5935282E-013  0.5052886E+02  0.7816164E-02  0.1300439E+00
        -11   -1    0    0    0    0  0.00000000000E+00  0.00000000000E+00  0.45593999997E+02  0.45594000000E+02  0.51100000000E-03 0.  1.
         11   -1    0    0    0    0 -0.00000000000E+00 -0.00000000000E+00 -0.45593999997E+02  0.45594000000E+02  0.51100000000E-03 0. -1.
    9900012    2    1    2    0    0 -0.46937029485E+01 -0.32574851040E+02 -0.23874962794E+02  0.50528860609E+02  0.30000002306E+02 0.  0.
        -12    1    1    2    0    0  0.46937029485E+01  0.32574851040E+02  0.23874962794E+02  0.40659139391E+02  0.00000000000E+00 0.  1.
         11    1    3    3    0    0  0.32017940608E+01  0.15684113339E+01 -0.10185605221E+02  0.10791568621E+02  0.51100000000E-03 0. -1.
        -11    1    3    3    0    0 -0.19687754643E+01  0.56923421810E+00 -0.11906449883E+01  0.23701772451E+01  0.51100000000E-03 0.  1.
        -12    1    3    3    0    0 -0.59267215450E+01 -0.34712496592E+02 -0.12498712585E+02  0.37367114743E+02  0.00000000000E+00 0.  1.
</event>
<event>
 7    1  0.5935282E-013  0.5052886E+02  0.7816164E-02  0.1300439E+00
        -11   -1    0    0    0    0  0.00000000000E+00  0.00000000000E+00  0.45593999997E+02  0.45594000000E+02  0.51100000000E-03 0.  1.
         11   -1    0    0    0    0 -0.00000000000E+00 -0.00000000000E+00 -0.45593999997E+02  0.45594000000E+02  0.51100000000E-03 0. -1.
    9900012    2    1    2    0    0  0.16464364204E+02  0.33750968146E+02 -0.15587257268E+02  0.50528859225E+02  0.29999998100E+02 0.  0.
        -12    1    1    2    0    0 -0.16464364204E+02 -0.33750968146E+02  0.15587257268E+02  0.40659140775E+02  0.00000000000E+00 0.  1.
         11    1    3    3    0    0  0.86461586730E+01  0.12827456044E+02 -0.10125369721E+02  0.18488450465E+02  0.51100000000E-03 0. -1.
        -11    1    3    3    0    0  0.11363300425E+02  0.17885984856E+02  0.39304480427E+01  0.21551832240E+02  0.51100000000E-03 0.  1.
         12    1    3    3    0    0 -0.35450948941E+01  0.30375272463E+01 -0.93923355897E+01  0.10488576520E+02  0.00000000000E+00 0. -1.
</event>
<event>
 7    1  0.5935282E-013  0.5052885E+02  0.7816164E-02  0.1300439E+00
        -11   -1    0    0    0    0  0.00000000000E+00  0.00000000000E+00  0.45593999997E+02  0.45594000000E+02  0.51100000000E-03 0. -1.
         11   -1    0    0    0    0 -0.00000000000E+00 -0.00000000000E+00 -0.45593999997E+02  0.45594000000E+02  0.51100000000E-03 0.  1.
    9900012    2    1    2    0    0 -0.29765460617E+02  0.81792283245E+01  0.26462878053E+02  0.50528851748E+02  0.29999975372E+02 0.  0.
        -12    1    1    2    0    0  0.29765460617E+02 -0.81792283245E+01 -0.26462878053E+02  0.40659148252E+02  0.00000000000E+00 0.  1.
         11    1    3    3    0    0 -0.93434439142E+01 -0.53878236025E+01  0.54490214968E+01  0.12083891049E+02  0.51100000000E-03 0. -1.
        -11    1    3    3    0    0 -0.98002070776E+01 -0.48488430821E+01  0.71328387714E+01  0.13054988594E+02  0.51100000000E-03 0.  1.
        -12    1    3    3    0    0 -0.10621809625E+02  0.18415895009E+02  0.13881017785E+02  0.25389972104E+02  0.00000000000E+00 0.  1.
</event>
<event>
 7    1  0.5935282E-013  0.5052886E+02  0.7816164E-02  0.1300439E+00
        -11   -1    0    0    0    0  0.00000000000E+00  0.00000000000E+00  0.45593999997E+02  0.45594000000E+02  0.51100000000E-03 0.  1.
         11   -1    0    0    0    0 -0.00000000000E+00 -0.00000000000E+00 -0.45593999997E+02  0.45594000000E+02  0.51100000000E-03 0. -1.
    9900012    2    1    2    0    0  0.14312711280E+01  0.13708133695E+02 -0.38251855700E+02  0.50528856736E+02  0.29999990534E+02 0.  0.
        -12    1    1    2    0    0 -0.14312711280E+01 -0.13708133695E+02  0.38251855700E+02  0.40659143264E+02  0.00000000000E+00 0.  1.
         11    1    3    3    0    0  0.30126911404E+01 -0.60346260825E+01 -0.10649492444E+02  0.12605741130E+02  0.51100000000E-03 0. -1.
        -11    1    3    3    0    0  0.84456381028E+00  0.37841835773E+01  0.18815344463E+01  0.43096990045E+01  0.51100000000E-03 0.  1.
        -12    1    3    3    0    0 -0.24259838226E+01  0.15958576201E+02 -0.29483897703E+02  0.33613416601E+02  0.00000000000E+00 0.  1.
</event>
<event>
 7    1  0.5935282E-013  0.5052886E+02  0.7816164E-02  0.1300439E+00
        -11   -1    0    0    0    0  0.00000000000E+00  0.00000000000E+00  0.45593999997E+02  0.45594000000E+02  0.51100000000E-03 0.  1.
         11   -1    0    0    0    0 -0.00000000000E+00 -0.00000000000E+00 -0.45593999997E+02  0.45594000000E+02  0.51100000000E-03 0. -1.
    9900012    2    1    2    0    0  0.16889579900E+02 -0.35168109034E+02 -0.11450406983E+02  0.50528860531E+02  0.30000002071E+02 0.  0.
        -12    1    1    2    0    0 -0.16889579900E+02  0.35168109034E+02  0.11450406983E+02  0.40659139469E+02  0.00000000000E+00 0.  1.
         11    1    3    3    0    0  0.70369467067E+01 -0.11491771890E+01 -0.97066292763E+00  0.71959303738E+01  0.51100000000E-03 0. -1.
        -11    1    3    3    0    0 -0.62482492071E+01 -0.84036661453E+01 -0.76035802479E+01  0.12941277204E+02  0.51100000000E-03 0.  1.
         12    1    3    3    0    0  0.16100882401E+02 -0.25615265700E+02 -0.28761638073E+01  0.30391652953E+02  0.00000000000E+00 0. -1.
</event>
<event>
 7    1  0.5935282E-013  0.5052886E+02  0.7816164E-02  0.1300439E+00
        -11   -1    0    0    0    0  0.00000000000E+00  0.00000000000E+00  0.45593999997E+02  0.45594000000E+02  0.51100000000E-03 0.  1.
         11   -1    0    0    0    0 -0.00000000000E+00 -0.00000000000E+00 -0.45593999997E+02  0.45594000000E+02  0.51100000000E-03 0. -1.
    9900012    2    1    2    0    0 -0.18321063272E+02 -0.33631081627E+02 -0.13654842636E+02  0.50528859106E+02  0.29999997738E+02 0.  0.
        -12    1    1    2    0    0  0.18321063272E+02  0.33631081627E+02  0.13654842636E+02  0.40659140894E+02  0.00000000000E+00 0.  1.
         11    1    3    3    0    0 -0.13144543401E+02 -0.18783479131E+02 -0.15121708573E+02  0.27463870446E+02  0.51100000000E-03 0. -1.
        -11    1    3    3    0    0  0.40811395419E+01 -0.26323457706E+01 -0.44968267336E+01  0.66186399773E+01  0.51100000000E-03 0.  1.
        -12    1    3    3    0    0 -0.92576594134E+01 -0.12215256726E+02  0.59636926707E+01  0.16446348682E+02  0.00000000000E+00 0.  1.
</event>
<event>
 7    1  0.5935282E-013  0.5052886E+02  0.7816164E-02  0.1300439E+00
        -11   -1    0    0    0    0  0.00000000000E+00  0.00000000000E+00  0.45593999997E+02  0.45594000000E+02  0.51100000000E-03 0.  1.
         11   -1    0    0    0    0 -0.00000000000E+00 -0.00000000000E+00 -0.45593999997E+02  0.45594000000E+02  0.51100000000E-03 0. -1.
    9900012    2    1    2    0    0 -0.38983697093E+02  0.92146636691E+01 -0.69661197254E+01  0.50528862163E+02  0.30000007032E+02 0.  0.
        -12    1    1    2    0    0  0.38983697093E+02 -0.92146636691E+01  0.69661197254E+01  0.40659137837E+02  0.00000000000E+00 0.  1.
         11    1    3    3    0    0 -0.22736548467E+02  0.13359454771E+02 -0.59150160916E+01  0.27026155546E+02  0.51100000000E-03 0. -1.
        -11    1    3    3    0    0  0.69741423112E+00  0.10855035134E+01  0.46891159348E+01  0.48633849321E+01  0.51100000000E-03 0.  1.
         12    1    3    3    0    0 -0.16944562858E+02 -0.52302946152E+01 -0.57402195685E+01  0.18639321685E+02  0.00000000000E+00 0. -1.
</event>
<event>
 7    1  0.5935282E-013  0.5052886E+02  0.7816164E-02  0.1300439E+00
        -11   -1    0    0    0    0  0.00000000000E+00  0.00000000000E+00  0.45593999997E+02  0.45594000000E+02  0.51100000000E-03 0.  1.
         11   -1    0    0    0    0 -0.00000000000E+00 -0.00000000000E+00 -0.45593999997E+02  0.45594000000E+02  0.51100000000E-03 0. -1.
    9900012    2    1    2    0    0 -0.23696599390E+02  0.10385992924E+02 -0.31365081087E+02  0.50528856093E+02  0.29999988582E+02 0.  0.
        -12    1    1    2    0    0  0.23696599390E+02 -0.10385992924E+02  0.31365081087E+02  0.40659143907E+02  0.00000000000E+00 0.  1.
         11    1    3    3    0    0 -0.35631916697E+01  0.37026195603E+01 -0.14845004194E+01  0.53487819398E+01  0.51100000000E-03 0. -1.
        -11    1    3    3    0    0 -0.23917346511E+02  0.36143088177E+01 -0.12696294306E+02  0.27318465948E+02  0.51100000000E-03 0.  1.
        -12    1    3    3    0    0  0.37839387910E+01  0.30690645455E+01 -0.17184286361E+02  0.17861608206E+02  0.00000000000E+00 0.  1.
</event>
<event>
 7    1  0.5935282E-013  0.5052888E+02  0.7816164E-02  0.1300439E+00
        -11   -1    0    0    0    0  0.00000000000E+00  0.00000000000E+00  0.45593999997E+02  0.45594000000E+02  0.51100000000E-03 0.  1.
         11   -1    0    0    0    0 -0.00000000000E+00 -0.00000000000E+00 -0.45593999997E+02  0.45594000000E+02  0.51100000000E-03 0. -1.
    9900012    2    1    2    0    0  0.27275163658E+02  0.20708083664E+02 -0.21918139229E+02  0.50528879143E+02  0.30000058643E+02 0.  0.
        -12    1    1    2    0    0 -0.27275163658E+02 -0.20708083664E+02  0.21918139229E+02  0.40659120857E+02  0.00000000000E+00 0.  1.
         11    1    3    3    0    0  0.12763794981E+02  0.16046721797E+02 -0.21500424706E+02  0.29709931093E+02  0.51100000000E-03 0. -1.
        -11    1    3    3    0    0  0.23802969746E+01  0.13122695255E+01 -0.63490247074E+01  0.69063724191E+01  0.51100000000E-03 0.  1.
         12    1    3    3    0    0  0.12131071703E+02  0.33490923418E+01  0.59313101851E+01  0.13912575631E+02  0.00000000000E+00 0. -1.
</event>
<event>
 7    1  0.5935282E-013  0.5052886E+02  0.7816164E-02  0.1300439E+00
        -11   -1    0    0    0    0  0.00000000000E+00  0.00000000000E+00  0.45593999997E+02  0.45594000000E+02  0.51100000000E-03 0. -1.
         11   -1    0    0    0    0 -0.00000000000E+00 -0.00000000000E+00 -0.45593999997E+02  0.45594000000E+02  0.51100000000E-03 0.  1.
    9900012    2    1    2    0    0  0.34847415268E+01  0.19823274681E+02  0.35327889499E+02  0.50528863031E+02  0.30000009670E+02 0.  0.
        -12    1    1    2    0    0 -0.34847415268E+01 -0.19823274681E+02 -0.35327889499E+02  0.40659136969E+02  0.00000000000E+00 0.  1.
         11    1    3    3    0    0 -0.21363737009E+01  0.11760799812E+02  0.10514180995E+02  0.15919438025E+02  0.51100000000E-03 0. -1.
        -11    1    3    3    0    0 -0.71889217494E+01  0.53231958721E+01  0.35280525277E+01  0.96158288832E+01  0.51100000000E-03 0.  1.
         12    1    3    3    0    0  0.12810036977E+02  0.27392789973E+01  0.21285655977E+02  0.24993596123E+02  0.00000000000E+00 0. -1.
</event>
<event>
 7    1  0.5935282E-013  0.5052886E+02  0.7816164E-02  0.1300439E+00
        -11   -1    0    0    0    0  0.00000000000E+00  0.00000000000E+00  0.45593999997E+02  0.45594000000E+02  0.51100000000E-03 0.  1.
         11   -1    0    0    0    0 -0.00000000000E+00 -0.00000000000E+00 -0.45593999997E+02  0.45594000000E+02  0.51100000000E-03 0. -1.
    9900012    2    1    2    0    0  0.38121032956E+02 -0.13687064061E+02 -0.35520164830E+01  0.50528859609E+02  0.29999999268E+02 0.  0.
        -12    1    1    2    0    0 -0.38121032956E+02  0.13687064061E+02  0.35520164830E+01  0.40659140391E+02  0.00000000000E+00 0.  1.
         11    1    3    3    0    0  0.84180319434E+01 -0.13642968860E+02  0.35207391379E+01  0.16413088236E+02  0.51100000000E-03 0. -1.
        -11    1    3    3    0    0  0.41677434809E+01 -0.56929226538E+01 -0.29186136347E+01  0.76352969736E+01  0.51100000000E-03 0.  1.
        -12    1    3    3    0    0  0.25535257531E+02  0.56488274527E+01 -0.41541419863E+01  0.26480474400E+02  0.00000000000E+00 0.  1.
</event>
<event>
 7    1  0.5935282E-013  0.5052885E+02  0.7816164E-02  0.1300439E+00
        -11   -1    0    0    0    0  0.00000000000E+00  0.00000000000E+00  0.45593999997E+02  0.45594000000E+02  0.51100000000E-03 0. -1.
         11   -1    0    0    0    0 -0.00000000000E+00 -0.00000000000E+00 -0.45593999997E+02  0.45594000000E+02  0.51100000000E-03 0.  1.
    9900012    2    1    2    0    0 -0.25572984696E+02 -0.13363184670E+02  0.28646360122E+02  0.50528853439E+02  0.29999980515E+02 0.  0.
        -12    1    1    2    0    0  0.25572984696E+02  0.13363184670E+02 -0.28646360122E+02  0.40659146561E+02  0.00000000000E+00 0.  1.
         11    1    3    3    0    0 -0.16513498122E+01  0.11207093277E+00 -0.13284718049E+01  0.21223462709E+01  0.51100000000E-03 0. -1.
        -11    1    3    3    0    0  0.51619231538E+01  0.13713119351E+01  0.37587432638E+01  0.65310105079E+01  0.51100000000E-03 0.  1.
         12    1    3    3    0    0 -0.29083558038E+02 -0.14846567538E+02  0.26216088663E+02  0.41875496661E+02  0.00000000000E+00 0. -1.
</event>
<event>
 7    1  0.5935282E-013  0.5052885E+02  0.7816164E-02  0.1300439E+00
        -11   -1    0    0    0    0  0.00000000000E+00  0.00000000000E+00  0.45593999997E+02  0.45594000000E+02  0.51100000000E-03 0.  1.
         11   -1    0    0    0    0 -0.00000000000E+00 -0.00000000000E+00 -0.45593999997E+02  0.45594000000E+02  0.51100000000E-03 0. -1.
    9900012    2    1    2    0    0  0.10153580165E+02  0.18600842971E+02 -0.34699860038E+02  0.50528845605E+02  0.29999956701E+02 0.  0.
        -12    1    1    2    0    0 -0.10153580165E+02 -0.18600842971E+02  0.34699860038E+02  0.40659154395E+02  0.00000000000E+00 0.  1.
         11    1    3    3    0    0  0.25712267184E+01  0.29266561269E+00 -0.94381300290E+01  0.97864783607E+01  0.51100000000E-03 0. -1.
        -11    1    3    3    0    0 -0.36499760352E+01 -0.18704338930E+01 -0.14856718020E+02  0.15412427408E+02  0.51100000000E-03 0.  1.
         12    1    3    3    0    0  0.11232329482E+02  0.20178611252E+02 -0.10405011989E+02  0.25329939837E+02  0.00000000000E+00 0. -1.
</event>
<event>
 7    1  0.5935282E-013  0.5052886E+02  0.7816164E-02  0.1300439E+00
        -11   -1    0    0    0    0  0.00000000000E+00  0.00000000000E+00  0.45593999997E+02  0.45594000000E+02  0.51100000000E-03 0.  1.
         11   -1    0    0    0    0 -0.00000000000E+00 -0.00000000000E+00 -0.45593999997E+02  0.45594000000E+02  0.51100000000E-03 0. -1.
    9900012    2    1    2    0    0  0.35175574831E+02 -0.41910636313E+01 -0.19956948368E+02  0.50528857520E+02  0.29999992919E+02 0.  0.
        -12    1    1    2    0    0 -0.35175574831E+02  0.41910636313E+01  0.19956948368E+02  0.40659142480E+02  0.00000000000E+00 0.  1.
         11    1    3    3    0    0  0.89687999804E+01 -0.18273592313E+01 -0.63148491160E+01  0.11120068996E+02  0.51100000000E-03 0.  1.
        -11    1    3    3    0    0  0.22846965504E+02 -0.55257861250E+00 -0.21052961892E+02  0.31072759462E+02  0.51100000000E-03 0. -1.
        -12    1    3    3    0    0  0.33598093461E+01 -0.18111257876E+01  0.74108626405E+01  0.83360290629E+01  0.00000000000E+00 0.  1.
</event>
<event>
 7    1  0.5935282E-013  0.5052886E+02  0.7816164E-02  0.1300439E+00
        -11   -1    0    0    0    0  0.00000000000E+00  0.00000000000E+00  0.45593999997E+02  0.45594000000E+02  0.51100000000E-03 0. -1.
         11   -1    0    0    0    0 -0.00000000000E+00 -0.00000000000E+00 -0.45593999997E+02  0.45594000000E+02  0.51100000000E-03 0.  1.
    9900012    2    1    2    0    0 -0.25154493900E+02  0.78348742982E+01  0.30968243476E+02  0.50528856839E+02  0.29999990848E+02 0.  0.
        -12    1    1    2    0    0  0.25154493900E+02 -0.78348742982E+01 -0.30968243476E+02  0.40659143161E+02  0.00000000000E+00 0.  1.
         11    1    3    3    0    0  0.14161979044E+01 -0.21997778674E+00 -0.20768058161E+01  0.25233171402E+01  0.51100000000E-03 0.  1.
        -11    1    3    3    0    0 -0.12238214745E+02  0.14582207311E+02  0.19163583607E+02  0.27012175165E+02  0.51100000000E-03 0. -1.
         12    1    3    3    0    0 -0.14332477059E+02 -0.65273552262E+01  0.13881465685E+02  0.20993364534E+02  0.00000000000E+00 0. -1.
</event>
<event>
 7    1  0.5935282E-013  0.5052886E+02  0.7816164E-02  0.1300439E+00
        -11   -1    0    0    0    0  0.00000000000E+00  0.00000000000E+00  0.45593999997E+02  0.45594000000E+02  0.51100000000E-03 0.  1.
         11   -1    0    0    0    0 -0.00000000000E+00 -0.00000000000E+00 -0.45593999997E+02  0.45594000000E+02  0.51100000000E-03 0. -1.
    9900012    2    1    2    0    0  0.26878653262E+02  0.29961401569E+02 -0.57461315678E+01  0.50528860645E+02  0.30000002416E+02 0.  0.
        -12    1    1    2    0    0 -0.26878653262E+02 -0.29961401569E+02  0.57461315678E+01  0.40659139355E+02  0.00000000000E+00 0.  1.
         11    1    3    3    0    0  0.66259162306E+01  0.20563198770E+02 -0.44796588072E+01  0.22063890247E+02  0.51100000000E-03 0. -1.
        -11    1    3    3    0    0 -0.17779177564E+01 -0.11067715950E+00  0.35676842080E+01  0.39876825163E+01  0.51100000000E-03 0.  1.
         12    1    3    3    0    0  0.22030654787E+02  0.95088799579E+01 -0.48341569686E+01  0.24477287881E+02  0.00000000000E+00 0. -1.
</event>
<event>
 7    1  0.5935282E-013  0.5052887E+02  0.7816164E-02  0.1300439E+00
        -11   -1    0    0    0    0  0.00000000000E+00  0.00000000000E+00  0.45593999997E+02  0.45594000000E+02  0.51100000000E-03 0.  1.
         11   -1    0    0    0    0 -0.00000000000E+00 -0.00000000000E+00 -0.45593999997E+02  0.45594000000E+02  0.51100000000E-03 0. -1.
    9900012    2    1    2    0    0  0.24943984938E+02 -0.98895948288E-01 -0.32108452283E+02  0.50528869746E+02  0.30000030080E+02 0.  0.
        -12    1    1    2    0    0 -0.24943984938E+02  0.98895948288E-01  0.32108452283E+02  0.40659130254E+02  0.00000000000E+00 0.  1.
         11    1    3    3    0    0  0.86981694582E+01 -0.35375489620E+01 -0.23940068439E+02  0.25715739960E+02  0.51100000000E-03 0. -1.
        -11    1    3    3    0    0 -0.16063120307E+01  0.40998538098E+01 -0.50129352618E+01  0.66722230030E+01  0.51100000000E-03 0.  1.
         12    1    3    3    0    0  0.17852127511E+02 -0.66120079612E+00 -0.31554485822E+01  0.18140906783E+02  0.00000000000E+00 0. -1.
</event>
<event>
 7    1  0.5935282E-013  0.5052885E+02  0.7816164E-02  0.1300439E+00
        -11   -1    0    0    0    0  0.00000000000E+00  0.00000000000E+00  0.45593999997E+02  0.45594000000E+02  0.51100000000E-03 0. -1.
         11   -1    0    0    0    0 -0.00000000000E+00 -0.00000000000E+00 -0.45593999997E+02  0.45594000000E+02  0.51100000000E-03 0.  1.
    9900012    2    1    2    0    0  0.12214543235E+02 -0.33173727987E+02 -0.20086687210E+02  0.50528852222E+02  0.29999976813E+02 0.  0.
        -12    1    1    2    0    0 -0.12214543235E+02  0.33173727987E+02  0.20086687210E+02  0.40659147778E+02  0.00000000000E+00 0.  1.
         11    1    3    3    0    0 -0.10166345835E+00 -0.51392620315E+01 -0.83471720022E+01  0.98029398846E+01  0.51100000000E-03 0. -1.
        -11    1    3    3    0    0  0.79303983411E+01 -0.18613451969E+00 -0.95998859834E+01  0.12453259616E+02  0.51100000000E-03 0.  1.
         12    1    3    3    0    0  0.43858083525E+01 -0.27848331436E+02 -0.21396292245E+01  0.28272652721E+02  0.00000000000E+00 0. -1.
</event>
<event>
 7    1  0.5935282E-013  0.5052886E+02  0.7816164E-02  0.1300439E+00
        -11   -1    0    0    0    0  0.00000000000E+00  0.00000000000E+00  0.45593999997E+02  0.45594000000E+02  0.51100000000E-03 0. -1.
         11   -1    0    0    0    0 -0.00000000000E+00 -0.00000000000E+00 -0.45593999997E+02  0.45594000000E+02  0.51100000000E-03 0.  1.
    9900012    2    1    2    0    0  0.12469786290E+02  0.78201374079E+01  0.37901387073E+02  0.50528864971E+02  0.30000015567E+02 0.  0.
        -12    1    1    2    0    0 -0.12469786290E+02 -0.78201374079E+01 -0.37901387073E+02  0.40659135029E+02  0.00000000000E+00 0.  1.
         11    1    3    3    0    0  0.36835089943E+01  0.72491323732E+01  0.11684604709E+02  0.14235453844E+02  0.51100000000E-03 0. -1.
        -11    1    3    3    0    0  0.68303221372E+01 -0.67013184092E+01  0.27072880507E+02  0.28714139864E+02  0.51100000000E-03 0.  1.
         12    1    3    3    0    0  0.19559551581E+01  0.72723234439E+01 -0.85609814275E+00  0.75792712633E+01  0.00000000000E+00 0. -1.
</event>
<event>
 7    1  0.5935282E-013  0.5052889E+02  0.7816164E-02  0.1300439E+00
        -11   -1    0    0    0    0  0.00000000000E+00  0.00000000000E+00  0.45593999997E+02  0.45594000000E+02  0.51100000000E-03 0. -1.
         11   -1    0    0    0    0 -0.00000000000E+00 -0.00000000000E+00 -0.45593999997E+02  0.45594000000E+02  0.51100000000E-03 0.  1.
    9900012    2    1    2    0    0  0.32696729501E+02  0.24110697765E+02  0.16617895972E+01  0.50528887719E+02  0.30000084711E+02 0.  0.
        -12    1    1    2    0    0 -0.32696729501E+02 -0.24110697765E+02 -0.16617895972E+01  0.40659112281E+02  0.00000000000E+00 0.  1.
         11    1    3    3    0    0  0.17131847147E+02  0.38477614227E+01  0.49073927595E+01  0.18231510047E+02  0.51100000000E-03 0. -1.
        -11    1    3    3    0    0  0.50676409638E+01 -0.24071581500E+01  0.32507641627E+01  0.64840468227E+01  0.51100000000E-03 0.  1.
        -12    1    3    3    0    0  0.10497241390E+02  0.22670094493E+02 -0.64963673251E+01  0.25813330849E+02  0.00000000000E+00 0.  1.
</event>
<event>
 7    1  0.5935282E-013  0.5052884E+02  0.7816164E-02  0.1300439E+00
        -11   -1    0    0    0    0  0.00000000000E+00  0.00000000000E+00  0.45593999997E+02  0.45594000000E+02  0.51100000000E-03 0.  1.
         11   -1    0    0    0    0 -0.00000000000E+00 -0.00000000000E+00 -0.45593999997E+02  0.45594000000E+02  0.51100000000E-03 0. -1.
    9900012    2    1    2    0    0  0.38390735987E+02 -0.58753645211E+01  0.12033249640E+02  0.50528836030E+02  0.29999927596E+02 0.  0.
        -12    1    1    2    0    0 -0.38390735987E+02  0.58753645211E+01 -0.12033249640E+02  0.40659163970E+02  0.00000000000E+00 0.  1.
         11    1    3    3    0    0  0.22432681713E+02 -0.72794915809E+01  0.55697820432E+01  0.24233008042E+02  0.51100000000E-03 0. -1.
        -11    1    3    3    0    0  0.18269027576E+02 -0.28725245740E+01  0.92657477269E+01  0.20684845834E+02  0.51100000000E-03 0.  1.
        -12    1    3    3    0    0 -0.23109733017E+01  0.42766516339E+01 -0.28022801302E+01  0.56109821535E+01  0.00000000000E+00 0.  1.
</event>
<event>
 7    1  0.5935282E-013  0.5052886E+02  0.7816164E-02  0.1300439E+00
        -11   -1    0    0    0    0  0.00000000000E+00  0.00000000000E+00  0.45593999997E+02  0.45594000000E+02  0.51100000000E-03 0.  1.
         11   -1    0    0    0    0 -0.00000000000E+00 -0.00000000000E+00 -0.45593999997E+02  0.45594000000E+02  0.51100000000E-03 0. -1.
    9900012    2    1    2    0    0  0.23820296077E+02  0.11261148616E+02 -0.30966850067E+02  0.50528858636E+02  0.29999996310E+02 0.  0.
        -12    1    1    2    0    0 -0.23820296077E+02 -0.11261148616E+02  0.30966850067E+02  0.40659141364E+02  0.00000000000E+00 0.  1.
         11    1    3    3    0    0  0.17069518249E+02  0.10085071266E+02 -0.13798223254E+02  0.24155083956E+02  0.51100000000E-03 0. -1.
        -11    1    3    3    0    0  0.34650291785E+01 -0.57570894045E+01  0.86599345469E+00  0.67749871250E+01  0.51100000000E-03 0.  1.
         12    1    3    3    0    0  0.32857486503E+01  0.69331667552E+01 -0.18034620267E+02  0.19598787555E+02  0.00000000000E+00 0. -1.
</event>
<event>
 7    1  0.5935282E-013  0.5052888E+02  0.7816164E-02  0.1300439E+00
        -11   -1    0    0    0    0  0.00000000000E+00  0.00000000000E+00  0.45593999997E+02  0.45594000000E+02  0.51100000000E-03 0. -1.
         11   -1    0    0    0    0 -0.00000000000E+00 -0.00000000000E+00 -0.45593999997E+02  0.45594000000E+02  0.51100000000E-03 0.  1.
    9900012    2    1    2    0    0 -0.38822220711E+02 -0.88661660520E+01  0.82091835243E+01  0.50528875372E+02  0.30000047181E+02 0.  0.
        -12    1    1    2    0    0  0.38822220711E+02  0.88661660520E+01 -0.82091835243E+01  0.40659124628E+02  0.00000000000E+00 0.  1.
         11    1    3    3    0    0  0.21448923697E+01 -0.45654644044E+01  0.23444924492E+01  0.55624341444E+01  0.51100000000E-03 0. -1.
        -11    1    3    3    0    0 -0.47380014249E+00  0.15333996576E+01 -0.27254630334E+01  0.31629021630E+01  0.51100000000E-03 0.  1.
         12    1    3    3    0    0 -0.40493312938E+02 -0.58341013052E+01  0.85901541085E+01  0.41803539065E+02  0.00000000000E+00 0. -1.
</event>
<event>
 7    1  0.5935282E-013  0.5052887E+02  0.7816164E-02  0.1300439E+00
        -11   -1    0    0    0    0  0.00000000000E+00  0.00000000000E+00  0.45593999997E+02  0.45594000000E+02  0.51100000000E-03 0. -1.
         11   -1    0    0    0    0 -0.00000000000E+00 -0.00000000000E+00 -0.45593999997E+02  0.45594000000E+02  0.51100000000E-03 0.  1.
    9900012    2    1    2    0    0  0.35571711663E+01  0.32445270330E+02  0.24244914125E+02  0.50528869483E+02  0.30000029279E+02 0.  0.
        -12    1    1    2    0    0 -0.35571711663E+01 -0.32445270330E+02 -0.24244914125E+02  0.40659130517E+02  0.00000000000E+00 0.  1.
         11    1    3    3    0    0 -0.20766865390E+00  0.33974061110E+01  0.72577967969E+01  0.80163027113E+01  0.51100000000E-03 0. -1.
        -11    1    3    3    0    0 -0.40799220200E+01 -0.34876507319E+01  0.11617601103E+01  0.54917354390E+01  0.51100000000E-03 0.  1.
        -12    1    3    3    0    0  0.78447618403E+01  0.32535514951E+02  0.15825357217E+02  0.37020831332E+02  0.00000000000E+00 0.  1.
</event>
<event>
 7    1  0.5935282E-013  0.5052889E+02  0.7816164E-02  0.1300439E+00
        -11   -1    0    0    0    0  0.00000000000E+00  0.00000000000E+00  0.45593999997E+02  0.45594000000E+02  0.51100000000E-03 0.  1.
         11   -1    0    0    0    0 -0.00000000000E+00 -0.00000000000E+00 -0.45593999997E+02  0.45594000000E+02  0.51100000000E-03 0. -1.
    9900012    2    1    2    0    0 -0.21168502557E+02 -0.34329881376E+02  0.51494871368E+01  0.50528886955E+02  0.30000082390E+02 0.  0.
        -12    1    1    2    0    0  0.21168502557E+02  0.34329881376E+02 -0.51494871368E+01  0.40659113045E+02  0.00000000000E+00 0.  1.
         11    1    3    3    0    0  0.59016942461E+01 -0.10459626486E+02  0.42261380333E+01  0.12731615142E+02  0.51100000000E-03 0. -1.
        -11    1    3    3    0    0 -0.29214453876E+01 -0.78101981227E+01  0.26354631569E+01  0.87452675305E+01  0.51100000000E-03 0.  1.
        -12    1    3    3    0    0 -0.24148751415E+02 -0.16060056768E+02 -0.17121140534E+01  0.29052004283E+02  0.00000000000E+00 0.  1.
</event>
<event>
 7    1  0.5935282E-013  0.5052885E+02  0.7816164E-02  0.1300439E+00
        -11   -1    0    0    0    0  0.00000000000E+00  0.00000000000E+00  0.45593999997E+02  0.45594000000E+02  0.51100000000E-03 0.  1.
         11   -1    0    0    0    0 -0.00000000000E+00 -0.00000000000E+00 -0.45593999997E+02  0.45594000000E+02  0.51100000000E-03 0. -1.
    9900012    2    1    2    0    0 -0.26367666847E+02  0.86948106831E+01 -0.29703746886E+02  0.50528853835E+02  0.29999981717E+02 0.  0.
        -12    1    1    2    0    0  0.26367666847E+02 -0.86948106831E+01  0.29703746886E+02  0.40659146165E+02  0.00000000000E+00 0.  1.
         11    1    3    3    0    0 -0.12974913071E+02 -0.83481492299E+01 -0.16951166536E+02  0.22921213144E+02  0.51100000000E-03 0. -1.
        -11    1    3    3    0    0 -0.20766941901E+01 -0.15973136264E+01 -0.79423135833E+00  0.27376766230E+01  0.51100000000E-03 0.  1.
         12    1    3    3    0    0 -0.11316059586E+02  0.18640273539E+02 -0.11958348992E+02  0.24869964069E+02  0.00000000000E+00 0. -1.
</event>
<event>
 7    1  0.5935282E-013  0.5052885E+02  0.7816164E-02  0.1300439E+00
        -11   -1    0    0    0    0  0.00000000000E+00  0.00000000000E+00  0.45593999997E+02  0.45594000000E+02  0.51100000000E-03 0.  1.
         11   -1    0    0    0    0 -0.00000000000E+00 -0.00000000000E+00 -0.45593999997E+02  0.45594000000E+02  0.51100000000E-03 0. -1.
    9900012    2    1    2    0    0 -0.98566620543E+01  0.37832813533E+02 -0.11166507248E+02  0.50528850344E+02  0.29999971104E+02 0.  0.
        -12    1    1    2    0    0  0.98566620543E+01 -0.37832813533E+02  0.11166507248E+02  0.40659149656E+02  0.00000000000E+00 0.  1.
         11    1    3    3    0    0 -0.39016198848E+01  0.17358522383E+02 -0.49612339307E+01  0.18470375725E+02  0.51100000000E-03 0. -1.
        -11    1    3    3    0    0  0.61918613475E+01  0.17413968519E+02 -0.10475134769E+01  0.18511691745E+02  0.51100000000E-03 0.  1.
        -12    1    3    3    0    0 -0.12146903517E+02  0.30603226316E+01 -0.51577598406E+01  0.13546782874E+02  0.00000000000E+00 0.  1.
</event>
<event>
 7    1  0.5935282E-013  0.5052885E+02  0.7816164E-02  0.1300439E+00
        -11   -1    0    0    0    0  0.00000000000E+00  0.00000000000E+00  0.45593999997E+02  0.45594000000E+02  0.51100000000E-03 0.  1.
         11   -1    0    0    0    0 -0.00000000000E+00 -0.00000000000E+00 -0.45593999997E+02  0.45594000000E+02  0.51100000000E-03 0. -1.
    9900012    2    1    2    0    0 -0.28823130189E+02 -0.22479067265E+01 -0.28589162687E+02  0.50528854144E+02  0.29999982657E+02 0.  0.
        -12    1    1    2    0    0  0.28823130189E+02  0.22479067265E+01  0.28589162687E+02  0.40659145856E+02  0.00000000000E+00 0.  1.
         11    1    3    3    0    0 -0.17489949609E+01 -0.36921836059E+00 -0.77221277944E+01  0.79263209313E+01  0.51100000000E-03 0. -1.
        -11    1    3    3    0    0 -0.17636387854E+02 -0.12923211929E+01 -0.26303487195E+02  0.31695200102E+02  0.51100000000E-03 0.  1.
        -12    1    3    3    0    0 -0.94377473743E+01 -0.58636717294E+00  0.54364523025E+01  0.10907333111E+02  0.00000000000E+00 0.  1.
</event>
<event>
 7    1  0.5935282E-013  0.5052886E+02  0.7816164E-02  0.1300439E+00
        -11   -1    0    0    0    0  0.00000000000E+00  0.00000000000E+00  0.45593999997E+02  0.45594000000E+02  0.51100000000E-03 0. -1.
         11   -1    0    0    0    0 -0.00000000000E+00 -0.00000000000E+00 -0.45593999997E+02  0.45594000000E+02  0.51100000000E-03 0.  1.
    9900012    2    1    2    0    0  0.99484712715E+01  0.36629603579E+02  0.14576201747E+02  0.50528860850E+02  0.30000003041E+02 0.  0.
        -12    1    1    2    0    0 -0.99484712715E+01 -0.36629603579E+02 -0.14576201747E+02  0.40659139150E+02  0.00000000000E+00 0.  1.
         11    1    3    3    0    0  0.11021458729E+01  0.10258680768E+02 -0.44203068804E+01  0.11224721369E+02  0.51100000000E-03 0. -1.
        -11    1    3    3    0    0  0.11290986775E+01 -0.79178494922E+00  0.93695448513E+01  0.94704888053E+01  0.51100000000E-03 0.  1.
         12    1    3    3    0    0  0.77172267212E+01  0.27162707760E+02  0.96269637763E+01  0.29833650676E+02  0.00000000000E+00 0. -1.
</event>
<event>
 7    1  0.5935282E-013  0.5052886E+02  0.7816164E-02  0.1300439E+00
        -11   -1    0    0    0    0  0.00000000000E+00  0.00000000000E+00  0.45593999997E+02  0.45594000000E+02  0.51100000000E-03 0.  1.
         11   -1    0    0    0    0 -0.00000000000E+00 -0.00000000000E+00 -0.45593999997E+02  0.45594000000E+02  0.51100000000E-03 0. -1.
    9900012    2    1    2    0    0  0.37497315777E+02  0.22667484320E+01 -0.15555668000E+02  0.50528860242E+02  0.30000001192E+02 0.  0.
        -12    1    1    2    0    0 -0.37497315777E+02 -0.22667484320E+01  0.15555668000E+02  0.40659139758E+02  0.00000000000E+00 0.  1.
         11    1    3    3    0    0  0.98094854663E+01 -0.26265282548E+01  0.35933402215E+01  0.10772035555E+02  0.51100000000E-03 0. -1.
        -11    1    3    3    0    0  0.13228025364E+02 -0.25385073807E+01  0.14137468458E+01  0.13543387876E+02  0.51100000000E-03 0.  1.
         12    1    3    3    0    0  0.14459804946E+02  0.74317840675E+01 -0.20562755067E+02  0.26213436811E+02  0.00000000000E+00 0. -1.
</event>
<event>
 7    1  0.5935282E-013  0.5052886E+02  0.7816164E-02  0.1300439E+00
        -11   -1    0    0    0    0  0.00000000000E+00  0.00000000000E+00  0.45593999997E+02  0.45594000000E+02  0.51100000000E-03 0. -1.
         11   -1    0    0    0    0 -0.00000000000E+00 -0.00000000000E+00 -0.45593999997E+02  0.45594000000E+02  0.51100000000E-03 0.  1.
    9900012    2    1    2    0    0 -0.27587834313E+01 -0.67741846494E+01  0.39995817015E+02  0.50528857825E+02  0.29999993845E+02 0.  0.
        -12    1    1    2    0    0  0.27587834313E+01  0.67741846494E+01 -0.39995817015E+02  0.40659142175E+02  0.00000000000E+00 0.  1.
         11    1    3    3    0    0 -0.63859825725E+01 -0.69172758617E+01  0.25693554637E+02  0.27363995120E+02  0.51100000000E-03 0. -1.
        -11    1    3    3    0    0 -0.54912222004E+01 -0.50827667600E+01  0.77875607892E+01  0.10799728816E+02  0.51100000000E-03 0.  1.
        -12    1    3    3    0    0  0.91184213416E+01  0.52258579723E+01  0.65147015892E+01  0.12365133890E+02  0.00000000000E+00 0.  1.
</event>
<event>
 7    1  0.5935282E-013  0.5052886E+02  0.7816164E-02  0.1300439E+00
        -11   -1    0    0    0    0  0.00000000000E+00  0.00000000000E+00  0.45593999997E+02  0.45594000000E+02  0.51100000000E-03 0.  1.
         11   -1    0    0    0    0 -0.00000000000E+00 -0.00000000000E+00 -0.45593999997E+02  0.45594000000E+02  0.51100000000E-03 0. -1.
    9900012    2    1    2    0    0 -0.33184353057E+02 -0.72613956879E+01  0.22343607294E+02  0.50528856599E+02  0.29999990119E+02 0.  0.
        -12    1    1    2    0    0  0.33184353057E+02  0.72613956879E+01 -0.22343607294E+02  0.40659143401E+02  0.00000000000E+00 0.  1.
         11    1    3    3    0    0 -0.75433964105E+01  0.60934661336E+01  0.29314405189E+01  0.10130473962E+02  0.51100000000E-03 0. -1.
        -11    1    3    3    0    0  0.31262886692E+01  0.97029612126E+00  0.21834513557E+01  0.39347954826E+01  0.51100000000E-03 0.  1.
         12    1    3    3    0    0 -0.28767245316E+02 -0.14325157943E+02  0.17228715420E+02  0.36463587154E+02  0.00000000000E+00 0. -1.
</event>
<event>
 7    1  0.5935282E-013  0.5052886E+02  0.7816164E-02  0.1300439E+00
        -11   -1    0    0    0    0  0.00000000000E+00  0.00000000000E+00  0.45593999997E+02  0.45594000000E+02  0.51100000000E-03 0.  1.
         11   -1    0    0    0    0 -0.00000000000E+00 -0.00000000000E+00 -0.45593999997E+02  0.45594000000E+02  0.51100000000E-03 0. -1.
    9900012    2    1    2    0    0  0.40426218922E+01 -0.33371185661E+02 -0.22873284815E+02  0.50528856103E+02  0.29999988611E+02 0.  0.
        -12    1    1    2    0    0 -0.40426218922E+01  0.33371185661E+02  0.22873284815E+02  0.40659143897E+02  0.00000000000E+00 0.  1.
         11    1    3    3    0    0  0.36252317410E+01 -0.23510865983E+01 -0.80364438153E+01  0.91243817777E+01  0.51100000000E-03 0. -1.
        -11    1    3    3    0    0  0.11433431936E+02 -0.12687329139E+02 -0.86218110855E+01  0.19131840297E+02  0.51100000000E-03 0.  1.
         12    1    3    3    0    0 -0.11016041785E+02 -0.18332769925E+02 -0.62150299143E+01  0.22272634028E+02  0.00000000000E+00 0. -1.
</event>
<event>
 7    1  0.5935282E-013  0.5052886E+02  0.7816164E-02  0.1300439E+00
        -11   -1    0    0    0    0  0.00000000000E+00  0.00000000000E+00  0.45593999997E+02  0.45594000000E+02  0.51100000000E-03 0.  1.
         11   -1    0    0    0    0 -0.00000000000E+00 -0.00000000000E+00 -0.45593999997E+02  0.45594000000E+02  0.51100000000E-03 0. -1.
    9900012    2    1    2    0    0  0.33570816031E+02  0.18630302367E+02 -0.13381993664E+02  0.50528860687E+02  0.30000002543E+02 0.  0.
        -12    1    1    2    0    0 -0.33570816031E+02 -0.18630302367E+02  0.13381993664E+02  0.40659139313E+02  0.00000000000E+00 0.  1.
         11    1    3    3    0    0  0.16221140028E+02  0.13661991924E+02 -0.18349279416E+02  0.28044098532E+02  0.51100000000E-03 0. -1.
        -11    1    3    3    0    0  0.18652569034E+01  0.50006617703E+01 -0.17348627799E+01  0.56120896806E+01  0.51100000000E-03 0.  1.
         12    1    3    3    0    0  0.15484419100E+02 -0.32351327662E-01  0.67021485319E+01  0.16872672474E+02  0.00000000000E+00 0. -1.
</event>
<event>
 7    1  0.5935282E-013  0.5052886E+02  0.7816164E-02  0.1300439E+00
        -11   -1    0    0    0    0  0.00000000000E+00  0.00000000000E+00  0.45593999997E+02  0.45594000000E+02  0.51100000000E-03 0.  1.
         11   -1    0    0    0    0 -0.00000000000E+00 -0.00000000000E+00 -0.45593999997E+02  0.45594000000E+02  0.51100000000E-03 0. -1.
    9900012    2    1    2    0    0 -0.18463045623E+02 -0.33160895741E+02 -0.14582076353E+02  0.50528855754E+02  0.29999987551E+02 0.  0.
        -12    1    1    2    0    0  0.18463045623E+02  0.33160895741E+02  0.14582076353E+02  0.40659144246E+02  0.00000000000E+00 0.  1.
         11    1    3    3    0    0 -0.19259745597E+02 -0.25448866075E+02 -0.15977985496E+02  0.35691436028E+02  0.51100000000E-03 0.  1.
        -11    1    3    3    0    0 -0.17272013740E+01 -0.89868519836E+01 -0.29827366409E+01  0.96251468193E+01  0.51100000000E-03 0. -1.
        -12    1    3    3    0    0  0.25239013475E+01  0.12748223179E+01  0.43786457840E+01  0.52122729069E+01  0.00000000000E+00 0.  1.
</event>
<event>
 7    1  0.5935282E-013  0.5052886E+02  0.7816164E-02  0.1300439E+00
        -11   -1    0    0    0    0  0.00000000000E+00  0.00000000000E+00  0.45593999997E+02  0.45594000000E+02  0.51100000000E-03 0.  1.
         11   -1    0    0    0    0 -0.00000000000E+00 -0.00000000000E+00 -0.45593999997E+02  0.45594000000E+02  0.51100000000E-03 0. -1.
    9900012    2    1    2    0    0 -0.28473020645E+02 -0.28951123014E+02  0.20701601898E+01  0.50528855990E+02  0.29999988266E+02 0.  0.
        -12    1    1    2    0    0  0.28473020645E+02  0.28951123014E+02 -0.20701601898E+01  0.40659144010E+02  0.00000000000E+00 0.  1.
         11    1    3    3    0    0 -0.51081658052E+01 -0.96721606552E+01  0.18280785512E+01  0.11089901762E+02  0.51100000000E-03 0. -1.
        -11    1    3    3    0    0 -0.11165685473E+02 -0.22190635995E+02 -0.58121570820E+01  0.25512311305E+02  0.51100000000E-03 0.  1.
        -12    1    3    3    0    0 -0.12199169367E+02  0.29116736355E+01  0.60542387206E+01  0.13926642923E+02  0.00000000000E+00 0.  1.
</event>
<event>
 7    1  0.5935282E-013  0.5052886E+02  0.7816164E-02  0.1300439E+00
        -11   -1    0    0    0    0  0.00000000000E+00  0.00000000000E+00  0.45593999997E+02  0.45594000000E+02  0.51100000000E-03 0.  1.
         11   -1    0    0    0    0 -0.00000000000E+00 -0.00000000000E+00 -0.45593999997E+02  0.45594000000E+02  0.51100000000E-03 0. -1.
    9900012    2    1    2    0    0  0.18422251350E+02  0.19131484863E+02 -0.30785915111E+02  0.50528860472E+02  0.30000001891E+02 0.  0.
        -12    1    1    2    0    0 -0.18422251350E+02 -0.19131484863E+02  0.30785915111E+02  0.40659139528E+02  0.00000000000E+00 0.  1.
         11    1    3    3    0    0 -0.38273912942E+01 -0.52524410974E+00 -0.48706334920E+00  0.38938459729E+01  0.51100000000E-03 0. -1.
        -11    1    3    3    0    0 -0.49179766113E+00 -0.24690127882E+01 -0.65063186873E+01  0.69763939259E+01  0.51100000000E-03 0.  1.
         12    1    3    3    0    0  0.22741440306E+02  0.22125741761E+02 -0.23792533075E+02  0.39658620573E+02  0.00000000000E+00 0. -1.
</event>
<event>
 7    1  0.5935282E-013  0.5052886E+02  0.7816164E-02  0.1300439E+00
        -11   -1    0    0    0    0  0.00000000000E+00  0.00000000000E+00  0.45593999997E+02  0.45594000000E+02  0.51100000000E-03 0. -1.
         11   -1    0    0    0    0 -0.00000000000E+00 -0.00000000000E+00 -0.45593999997E+02  0.45594000000E+02  0.51100000000E-03 0.  1.
    9900012    2    1    2    0    0 -0.25442373789E+01 -0.25394291450E+01  0.40499926841E+02  0.50528856891E+02  0.29999991006E+02 0.  0.
        -12    1    1    2    0    0  0.25442373789E+01  0.25394291450E+01 -0.40499926841E+02  0.40659143109E+02  0.00000000000E+00 0.  1.
         11    1    3    3    0    0 -0.28928450372E+01 -0.53230054529E+01  0.21792447699E+02  0.22618879645E+02  0.51100000000E-03 0.  1.
        -11    1    3    3    0    0  0.26328833465E+01 -0.23467477881E+01  0.21395277849E+02  0.21684031323E+02  0.51100000000E-03 0. -1.
        -12    1    3    3    0    0 -0.22842756882E+01  0.51303240960E+01 -0.26877987067E+01  0.62259459231E+01  0.00000000000E+00 0.  1.
</event>
<event>
 7    1  0.5935282E-013  0.5052886E+02  0.7816164E-02  0.1300439E+00
        -11   -1    0    0    0    0  0.00000000000E+00  0.00000000000E+00  0.45593999997E+02  0.45594000000E+02  0.51100000000E-03 0.  1.
         11   -1    0    0    0    0 -0.00000000000E+00 -0.00000000000E+00 -0.45593999997E+02  0.45594000000E+02  0.51100000000E-03 0. -1.
    9900012    2    1    2    0    0 -0.65565163021E+01 -0.20113655798E+02 -0.34722020228E+02  0.50528859032E+02  0.29999997513E+02 0.  0.
        -12    1    1    2    0    0  0.65565163021E+01  0.20113655798E+02  0.34722020228E+02  0.40659140968E+02  0.00000000000E+00 0.  1.
         11    1    3    3    0    0 -0.56021989240E+01 -0.20350968176E+01 -0.72460398682E+00  0.60042737313E+01  0.51100000000E-03 0. -1.
        -11    1    3    3    0    0 -0.57026921245E+01 -0.16603251435E+02 -0.10390676835E+02  0.20399873064E+02  0.51100000000E-03 0.  1.
         12    1    3    3    0    0  0.47483747465E+01 -0.14753075452E+01 -0.23606739406E+02  0.24124712236E+02  0.00000000000E+00 0. -1.
</event>
<event>
 7    1  0.5935282E-013  0.5052886E+02  0.7816164E-02  0.1300439E+00
        -11   -1    0    0    0    0  0.00000000000E+00  0.00000000000E+00  0.45593999997E+02  0.45594000000E+02  0.51100000000E-03 0.  1.
         11   -1    0    0    0    0 -0.00000000000E+00 -0.00000000000E+00 -0.45593999997E+02  0.45594000000E+02  0.51100000000E-03 0. -1.
    9900012    2    1    2    0    0 -0.12597140702E+02 -0.21261577406E+02 -0.32286580916E+02  0.50528856687E+02  0.29999990387E+02 0.  0.
        -12    1    1    2    0    0  0.12597140702E+02  0.21261577406E+02  0.32286580916E+02  0.40659143313E+02  0.00000000000E+00 0.  1.
         11    1    3    3    0    0 -0.76245858621E+01 -0.16726344980E+02 -0.26172347459E+02  0.31982756256E+02  0.51100000000E-03 0. -1.
        -11    1    3    3    0    0 -0.44652514465E+01 -0.81047710892E+01 -0.97386647932E+01  0.13433814689E+02  0.51100000000E-03 0.  1.
        -12    1    3    3    0    0 -0.50730339387E+00  0.35695386636E+01  0.36244313358E+01  0.51122857424E+01  0.00000000000E+00 0.  1.
</event>
<event>
 7    1  0.5935282E-013  0.5052887E+02  0.7816164E-02  0.1300439E+00
        -11   -1    0    0    0    0  0.00000000000E+00  0.00000000000E+00  0.45593999997E+02  0.45594000000E+02  0.51100000000E-03 0.  1.
         11   -1    0    0    0    0 -0.00000000000E+00 -0.00000000000E+00 -0.45593999997E+02  0.45594000000E+02  0.51100000000E-03 0. -1.
    9900012    2    1    2    0    0  0.18823125494E+01  0.94304305477E+01 -0.39505558007E+02  0.50528865303E+02  0.30000016575E+02 0.  0.
        -12    1    1    2    0    0 -0.18823125494E+01 -0.94304305477E+01  0.39505558007E+02  0.40659134697E+02  0.00000000000E+00 0.  1.
         11    1    3    3    0    0  0.21545493013E+01  0.11891549432E+02 -0.50723344778E+01  0.13106471985E+02  0.51100000000E-03 0. -1.
        -11    1    3    3    0    0 -0.53469378458E+01 -0.27449599843E+01 -0.58379003543E+01  0.83788800236E+01  0.51100000000E-03 0.  1.
        -12    1    3    3    0    0  0.50747010939E+01  0.28384110006E+00 -0.28595323175E+02  0.29043513294E+02  0.00000000000E+00 0.  1.
</event>
<event>
 7    1  0.5935282E-013  0.5052886E+02  0.7816164E-02  0.1300439E+00
        -11   -1    0    0    0    0  0.00000000000E+00  0.00000000000E+00  0.45593999997E+02  0.45594000000E+02  0.51100000000E-03 0. -1.
         11   -1    0    0    0    0 -0.00000000000E+00 -0.00000000000E+00 -0.45593999997E+02  0.45594000000E+02  0.51100000000E-03 0.  1.
    9900012    2    1    2    0    0 -0.33885217221E+02 -0.12282913658E+02 -0.18817229074E+02  0.50528855592E+02  0.29999987056E+02 0.  0.
        -12    1    1    2    0    0  0.33885217221E+02  0.12282913658E+02  0.18817229074E+02  0.40659144408E+02  0.00000000000E+00 0.  1.
         11    1    3    3    0    0 -0.17233431530E+02 -0.11530590253E+02 -0.27814373498E+01  0.20920852465E+02  0.51100000000E-03 0. -1.
        -11    1    3    3    0    0  0.46790773230E+00 -0.66914103991E+01 -0.34288578577E+01  0.75333244484E+01  0.51100000000E-03 0.  1.
        -12    1    3    3    0    0 -0.17119693423E+02  0.59390869947E+01 -0.12606933866E+02  0.22074678678E+02  0.00000000000E+00 0.  1.
</event>
<event>
 7    1  0.5935282E-013  0.5052886E+02  0.7816164E-02  0.1300439E+00
        -11   -1    0    0    0    0  0.00000000000E+00  0.00000000000E+00  0.45593999997E+02  0.45594000000E+02  0.51100000000E-03 0.  1.
         11   -1    0    0    0    0 -0.00000000000E+00 -0.00000000000E+00 -0.45593999997E+02  0.45594000000E+02  0.51100000000E-03 0. -1.
    9900012    2    1    2    0    0 -0.25629646008E+02 -0.22294661929E+02 -0.22343566656E+02  0.50528859872E+02  0.30000000067E+02 0.  0.
        -12    1    1    2    0    0  0.25629646008E+02  0.22294661929E+02  0.22343566656E+02  0.40659140128E+02  0.00000000000E+00 0.  1.
         11    1    3    3    0    0  0.57438039709E+00 -0.87759734361E+00 -0.80577519082E+01  0.81257280297E+01  0.51100000000E-03 0. -1.
        -11    1    3    3    0    0 -0.63081850080E+00 -0.12604043107E+02 -0.68093673329E+01  0.14339711237E+02  0.51100000000E-03 0.  1.
         12    1    3    3    0    0 -0.25573207905E+02 -0.88130214776E+01 -0.74764474153E+01  0.28063420605E+02  0.00000000000E+00 0. -1.
</event>
<event>
 7    1  0.5935282E-013  0.5052886E+02  0.7816164E-02  0.1300439E+00
        -11   -1    0    0    0    0  0.00000000000E+00  0.00000000000E+00  0.45593999997E+02  0.45594000000E+02  0.51100000000E-03 0.  1.
         11   -1    0    0    0    0 -0.00000000000E+00 -0.00000000000E+00 -0.45593999997E+02  0.45594000000E+02  0.51100000000E-03 0. -1.
    9900012    2    1    2    0    0 -0.18275200754E+02  0.32318062391E+01 -0.36176482327E+02  0.50528863170E+02  0.30000010093E+02 0.  0.
        -12    1    1    2    0    0  0.18275200754E+02 -0.32318062391E+01  0.36176482327E+02  0.40659136830E+02  0.00000000000E+00 0.  1.
         11    1    3    3    0    0 -0.14414329331E+02 -0.32956744558E+01 -0.45566338431E+01  0.15472468207E+02  0.51100000000E-03 0. -1.
        -11    1    3    3    0    0  0.45332416981E+01  0.32396891119E+00 -0.12021076999E+02  0.12851518534E+02  0.51100000000E-03 0.  1.
         12    1    3    3    0    0 -0.83941131213E+01  0.62035117837E+01 -0.19598771485E+02  0.22204876430E+02  0.00000000000E+00 0. -1.
</event>
<event>
 7    1  0.5935282E-013  0.5052888E+02  0.7816164E-02  0.1300439E+00
        -11   -1    0    0    0    0  0.00000000000E+00  0.00000000000E+00  0.45593999997E+02  0.45594000000E+02  0.51100000000E-03 0.  1.
         11   -1    0    0    0    0 -0.00000000000E+00 -0.00000000000E+00 -0.45593999997E+02  0.45594000000E+02  0.51100000000E-03 0. -1.
    9900012    2    1    2    0    0 -0.28706149007E+02  0.66437159819E+01 -0.28017532049E+02  0.50528879806E+02  0.30000060658E+02 0.  0.
        -12    1    1    2    0    0  0.28706149007E+02 -0.66437159819E+01  0.28017532049E+02  0.40659120194E+02  0.00000000000E+00 0.  1.
         11    1    3    3    0    0 -0.10100039826E+02  0.22413016822E+00 -0.11990014640E+02  0.15678695422E+02  0.51100000000E-03 0. -1.
        -11    1    3    3    0    0 -0.18206472690E+02 -0.33646759943E+01 -0.33244327430E+01  0.18810862438E+02  0.51100000000E-03 0.  1.
        -12    1    3    3    0    0 -0.39963649145E+00  0.97842618080E+01 -0.12703084665E+02  0.16039321945E+02  0.00000000000E+00 0.  1.
</event>
<event>
 7    1  0.5935282E-013  0.5052885E+02  0.7816164E-02  0.1300439E+00
        -11   -1    0    0    0    0  0.00000000000E+00  0.00000000000E+00  0.45593999997E+02  0.45594000000E+02  0.51100000000E-03 0.  1.
         11   -1    0    0    0    0 -0.00000000000E+00 -0.00000000000E+00 -0.45593999997E+02  0.45594000000E+02  0.51100000000E-03 0. -1.
    9900012    2    1    2    0    0  0.39283968737E+02  0.89988570880E+01 -0.53811372302E+01  0.50528852610E+02  0.29999977993E+02 0.  0.
        -12    1    1    2    0    0 -0.39283968737E+02 -0.89988570880E+01  0.53811372302E+01  0.40659147390E+02  0.00000000000E+00 0.  1.
         11    1    3    3    0    0  0.29132592443E+01 -0.96612316168E+00  0.71739907978E+00  0.31520049316E+01  0.51100000000E-03 0. -1.
        -11    1    3    3    0    0  0.31944541672E+02  0.68792866312E+01  0.68162881291E+01  0.33380235339E+02  0.51100000000E-03 0.  1.
         12    1    3    3    0    0  0.44261678204E+01  0.30856936184E+01 -0.12914824439E+02  0.13996612339E+02  0.00000000000E+00 0. -1.
</event>
<event>
 7    1  0.5935282E-013  0.5052886E+02  0.7816164E-02  0.1300439E+00
        -11   -1    0    0    0    0  0.00000000000E+00  0.00000000000E+00  0.45593999997E+02  0.45594000000E+02  0.51100000000E-03 0.  1.
         11   -1    0    0    0    0 -0.00000000000E+00 -0.00000000000E+00 -0.45593999997E+02  0.45594000000E+02  0.51100000000E-03 0. -1.
    9900012    2    1    2    0    0 -0.17600688417E+02 -0.28528516773E+02 -0.23010980659E+02  0.50528859171E+02  0.29999997936E+02 0.  0.
        -12    1    1    2    0    0  0.17600688417E+02  0.28528516773E+02  0.23010980659E+02  0.40659140829E+02  0.00000000000E+00 0.  1.
         11    1    3    3    0    0 -0.42686319257E+01 -0.20785039842E+02 -0.10174658691E+02  0.23532164786E+02  0.51100000000E-03 0. -1.
        -11    1    3    3    0    0 -0.39451055447E+01 -0.10223610685E+02 -0.13352954287E+02  0.17273895382E+02  0.51100000000E-03 0.  1.
        -12    1    3    3    0    0 -0.93869509468E+01  0.24801337539E+01  0.51663231920E+00  0.97227990037E+01  0.00000000000E+00 0.  1.
</event>
<event>
 7    1  0.5935282E-013  0.5052886E+02  0.7816164E-02  0.1300439E+00
        -11   -1    0    0    0    0  0.00000000000E+00  0.00000000000E+00  0.45593999997E+02  0.45594000000E+02  0.51100000000E-03 0.  1.
         11   -1    0    0    0    0 -0.00000000000E+00 -0.00000000000E+00 -0.45593999997E+02  0.45594000000E+02  0.51100000000E-03 0. -1.
    9900012    2    1    2    0    0 -0.42906340464E-01  0.36479249356E+02 -0.17956289620E+02  0.50528858205E+02  0.29999995001E+02 0.  0.
        -12    1    1    2    0    0  0.42906340464E-01 -0.36479249356E+02  0.17956289620E+02  0.40659141795E+02  0.00000000000E+00 0.  1.
         11    1    3    3    0    0  0.87924310703E+00  0.10789274600E+02 -0.11364053514E+01  0.10884527194E+02  0.51100000000E-03 0. -1.
        -11    1    3    3    0    0 -0.44173311347E+01  0.18448129603E+02  0.21010127477E+01  0.19085611204E+02  0.51100000000E-03 0.  1.
         12    1    3    3    0    0  0.34951816873E+01  0.72418451534E+01 -0.18920897016E+02  0.20558719808E+02  0.00000000000E+00 0. -1.
</event>
<event>
 7    1  0.5935282E-013  0.5052892E+02  0.7816164E-02  0.1300439E+00
        -11   -1    0    0    0    0  0.00000000000E+00  0.00000000000E+00  0.45593999997E+02  0.45594000000E+02  0.51100000000E-03 0.  1.
         11   -1    0    0    0    0 -0.00000000000E+00 -0.00000000000E+00 -0.45593999997E+02  0.45594000000E+02  0.51100000000E-03 0. -1.
    9900012    2    1    2    0    0  0.36401158649E+02 -0.12384354287E+02 -0.13219082348E+02  0.50528920815E+02  0.30000185308E+02 0.  0.
        -12    1    1    2    0    0 -0.36401158649E+02  0.12384354287E+02  0.13219082348E+02  0.40659079185E+02  0.00000000000E+00 0.  1.
         11    1    3    3    0    0  0.24940116383E+02 -0.17128077808E+02 -0.89620083917E+01  0.31554683476E+02  0.51100000000E-03 0. -1.
        -11    1    3    3    0    0  0.90182301413E+01 -0.22786128570E+01 -0.63352778554E+01  0.11254167992E+02  0.51100000000E-03 0.  1.
        -12    1    3    3    0    0  0.24428121241E+01  0.70223363771E+01  0.20782038991E+01  0.77200693464E+01  0.00000000000E+00 0.  1.
</event>
<event>
 7    1  0.5935282E-013  0.5052885E+02  0.7816164E-02  0.1300439E+00
        -11   -1    0    0    0    0  0.00000000000E+00  0.00000000000E+00  0.45593999997E+02  0.45594000000E+02  0.51100000000E-03 0.  1.
         11   -1    0    0    0    0 -0.00000000000E+00 -0.00000000000E+00 -0.45593999997E+02  0.45594000000E+02  0.51100000000E-03 0. -1.
    9900012    2    1    2    0    0 -0.15836474053E+02  0.36679503092E+02 -0.75489589470E+01  0.50528848033E+02  0.29999964081E+02 0.  0.
        -12    1    1    2    0    0  0.15836474053E+02 -0.36679503092E+02  0.75489589470E+01  0.40659151967E+02  0.00000000000E+00 0.  1.
         11    1    3    3    0    0 -0.81924096012E+01  0.51076717339E+00 -0.35786609068E+00  0.82161138368E+01  0.51100000000E-03 0. -1.
        -11    1    3    3    0    0  0.53955693815E-01  0.20581793228E+02  0.48750633269E+01  0.21151344317E+02  0.51100000000E-03 0.  1.
         12    1    3    3    0    0 -0.76980201459E+01  0.15586942690E+02 -0.12066156183E+02  0.21161389879E+02  0.00000000000E+00 0. -1.
</event>
<event>
 7    1  0.5935282E-013  0.5052885E+02  0.7816164E-02  0.1300439E+00
        -11   -1    0    0    0    0  0.00000000000E+00  0.00000000000E+00  0.45593999997E+02  0.45594000000E+02  0.51100000000E-03 0.  1.
         11   -1    0    0    0    0 -0.00000000000E+00 -0.00000000000E+00 -0.45593999997E+02  0.45594000000E+02  0.51100000000E-03 0. -1.
    9900012    2    1    2    0    0 -0.13547341654E+02 -0.12472210379E+02 -0.36250245562E+02  0.50528846037E+02  0.29999958015E+02 0.  0.
        -12    1    1    2    0    0  0.13547341654E+02  0.12472210379E+02  0.36250245562E+02  0.40659153963E+02  0.00000000000E+00 0.  1.
         11    1    3    3    0    0 -0.54243840069E+00  0.15634031638E+01 -0.12625180043E+01  0.20814468149E+01  0.51100000000E-03 0. -1.
        -11    1    3    3    0    0 -0.11168083563E+02 -0.14911171431E+02 -0.62684237155E+01  0.19656099818E+02  0.51100000000E-03 0.  1.
        -12    1    3    3    0    0 -0.18368196903E+01  0.87555788809E+00 -0.28719303842E+02  0.28791299404E+02  0.00000000000E+00 0.  1.
</event>
<event>
 7    1  0.5935282E-013  0.5052882E+02  0.7816164E-02  0.1300439E+00
        -11   -1    0    0    0    0  0.00000000000E+00  0.00000000000E+00  0.45593999997E+02  0.45594000000E+02  0.51100000000E-03 0.  1.
         11   -1    0    0    0    0 -0.00000000000E+00 -0.00000000000E+00 -0.45593999997E+02  0.45594000000E+02  0.51100000000E-03 0. -1.
    9900012    2    1    2    0    0  0.89026518108E+00 -0.10773032907E+02 -0.39195899202E+02  0.50528815006E+02  0.29999863692E+02 0.  0.
        -12    1    1    2    0    0 -0.89026518108E+00  0.10773032907E+02  0.39195899202E+02  0.40659184994E+02  0.00000000000E+00 0.  1.
         11    1    3    3    0    0  0.46814744557E-01 -0.87408335268E+01 -0.21030647383E+02  0.22774821447E+02  0.51100000000E-03 0. -1.
        -11    1    3    3    0    0 -0.78071707852E+01 -0.63409158550E+01 -0.13980790163E+02  0.17222706622E+02  0.51100000000E-03 0.  1.
        -12    1    3    3    0    0  0.86506212218E+01  0.43087164752E+01 -0.41844616567E+01  0.10531286937E+02  0.00000000000E+00 0.  1.
</event>
<event>
 7    1  0.5935282E-013  0.5052886E+02  0.7816164E-02  0.1300439E+00
        -11   -1    0    0    0    0  0.00000000000E+00  0.00000000000E+00  0.45593999997E+02  0.45594000000E+02  0.51100000000E-03 0. -1.
         11   -1    0    0    0    0 -0.00000000000E+00 -0.00000000000E+00 -0.45593999997E+02  0.45594000000E+02  0.51100000000E-03 0.  1.
    9900012    2    1    2    0    0  0.33851773202E+02  0.22503920663E+02 -0.89241513251E+00  0.50528863279E+02  0.30000010423E+02 0.  0.
        -12    1    1    2    0    0 -0.33851773202E+02 -0.22503920663E+02  0.89241513251E+00  0.40659136721E+02  0.00000000000E+00 0.  1.
         11    1    3    3    0    0  0.34301336781E+01  0.34656854774E+01  0.58910335671E+01  0.76472916531E+01  0.51100000000E-03 0. -1.
        -11    1    3    3    0    0  0.92792892644E+01 -0.47957040621E+01 -0.24447141050E+01  0.10727563284E+02  0.51100000000E-03 0.  1.
        -12    1    3    3    0    0  0.21142350260E+02  0.23833939248E+02 -0.43387345947E+01  0.32154008342E+02  0.00000000000E+00 0.  1.
</event>
<event>
 7    1  0.5935282E-013  0.5052885E+02  0.7816164E-02  0.1300439E+00
        -11   -1    0    0    0    0  0.00000000000E+00  0.00000000000E+00  0.45593999997E+02  0.45594000000E+02  0.51100000000E-03 0. -1.
         11   -1    0    0    0    0 -0.00000000000E+00 -0.00000000000E+00 -0.45593999997E+02  0.45594000000E+02  0.51100000000E-03 0.  1.
    9900012    2    1    2    0    0  0.11697535153E+02  0.84458428325E+01  0.38013182751E+02  0.50528847861E+02  0.29999963558E+02 0.  0.
        -12    1    1    2    0    0 -0.11697535153E+02 -0.84458428325E+01 -0.38013182751E+02  0.40659152139E+02  0.00000000000E+00 0.  1.
         11    1    3    3    0    0  0.10904761896E+02 -0.27106068197E+01  0.32218063636E+02  0.34121325386E+02  0.51100000000E-03 0. -1.
        -11    1    3    3    0    0  0.51101104147E+01  0.71818044005E+01  0.57777728995E+01  0.10539174675E+02  0.51100000000E-03 0.  1.
        -12    1    3    3    0    0 -0.43173371578E+01  0.39746452517E+01  0.17346215120E-01  0.58683478000E+01  0.00000000000E+00 0.  1.
</event>
<event>
 7    1  0.5935282E-013  0.5052886E+02  0.7816164E-02  0.1300439E+00
        -11   -1    0    0    0    0  0.00000000000E+00  0.00000000000E+00  0.45593999997E+02  0.45594000000E+02  0.51100000000E-03 0. -1.
         11   -1    0    0    0    0 -0.00000000000E+00 -0.00000000000E+00 -0.45593999997E+02  0.45594000000E+02  0.51100000000E-03 0.  1.
    9900012    2    1    2    0    0  0.26695595606E+02  0.13748235863E+02  0.27413445421E+02  0.50528858298E+02  0.29999995282E+02 0.  0.
        -12    1    1    2    0    0 -0.26695595606E+02 -0.13748235863E+02 -0.27413445421E+02  0.40659141702E+02  0.00000000000E+00 0.  1.
         11    1    3    3    0    0  0.55541376813E+01  0.50631802077E+01  0.18102871551E+02  0.19600974411E+02  0.51100000000E-03 0. -1.
        -11    1    3    3    0    0  0.43878358464E+01 -0.13380165064E+01  0.10408021036E+02  0.11374106283E+02  0.51100000000E-03 0.  1.
         12    1    3    3    0    0  0.16753622078E+02  0.10023072162E+02 -0.10974471663E+01  0.19553777604E+02  0.00000000000E+00 0. -1.
</event>
<event>
 7    1  0.5935282E-013  0.5052886E+02  0.7816164E-02  0.1300439E+00
        -11   -1    0    0    0    0  0.00000000000E+00  0.00000000000E+00  0.45593999997E+02  0.45594000000E+02  0.51100000000E-03 0. -1.
         11   -1    0    0    0    0 -0.00000000000E+00 -0.00000000000E+00 -0.45593999997E+02  0.45594000000E+02  0.51100000000E-03 0.  1.
    9900012    2    1    2    0    0 -0.35278983261E+02 -0.17362757055E+02  0.10348591031E+02  0.50528864141E+02  0.30000013042E+02 0.  0.
        -12    1    1    2    0    0  0.35278983261E+02  0.17362757055E+02 -0.10348591031E+02  0.40659135859E+02  0.00000000000E+00 0.  1.
         11    1    3    3    0    0 -0.89282472423E+01 -0.37472536048E+01  0.13092313300E+02  0.16283862448E+02  0.51100000000E-03 0. -1.
        -11    1    3    3    0    0 -0.26449304978E+02 -0.88699419466E+01  0.14170404717E+01  0.27932948429E+02  0.51100000000E-03 0.  1.
        -12    1    3    3    0    0  0.98568959054E-01 -0.47455615037E+01 -0.41607627412E+01  0.63120532645E+01  0.00000000000E+00 0.  1.
</event>
<event>
 7    1  0.5935282E-013  0.5052887E+02  0.7816164E-02  0.1300439E+00
        -11   -1    0    0    0    0  0.00000000000E+00  0.00000000000E+00  0.45593999997E+02  0.45594000000E+02  0.51100000000E-03 0. -1.
         11   -1    0    0    0    0 -0.00000000000E+00 -0.00000000000E+00 -0.45593999997E+02  0.45594000000E+02  0.51100000000E-03 0.  1.
    9900012    2    1    2    0    0 -0.24652849718E+02 -0.19879455970E+01  0.32271502803E+02  0.50528870396E+02  0.30000032057E+02 0.  0.
        -12    1    1    2    0    0  0.24652849718E+02  0.19879455970E+01 -0.32271502803E+02  0.40659129604E+02  0.00000000000E+00 0.  1.
         11    1    3    3    0    0 -0.32411927024E+01  0.36939794758E+01 -0.39851838594E-01  0.49145094295E+01  0.51100000000E-03 0. -1.
        -11    1    3    3    0    0 -0.75754541672E+01 -0.60138259055E+01 -0.82139149930E+00  0.97071258422E+01  0.51100000000E-03 0.  1.
         12    1    3    3    0    0 -0.13836202849E+02  0.33190083266E+00  0.33132746141E+02  0.35907235125E+02  0.00000000000E+00 0. -1.
</event>
<event>
 7    1  0.5935282E-013  0.5052886E+02  0.7816164E-02  0.1300439E+00
        -11   -1    0    0    0    0  0.00000000000E+00  0.00000000000E+00  0.45593999997E+02  0.45594000000E+02  0.51100000000E-03 0.  1.
         11   -1    0    0    0    0 -0.00000000000E+00 -0.00000000000E+00 -0.45593999997E+02  0.45594000000E+02  0.51100000000E-03 0. -1.
    9900012    2    1    2    0    0 -0.19528984537E+02  0.34206456436E+02 -0.10084776371E+02  0.50528860642E+02  0.30000002406E+02 0.  0.
        -12    1    1    2    0    0  0.19528984537E+02 -0.34206456436E+02  0.10084776371E+02  0.40659139358E+02  0.00000000000E+00 0.  1.
         11    1    3    3    0    0 -0.55295636473E+01  0.31036533065E+01 -0.10179110354E+02  0.11992623810E+02  0.51100000000E-03 0. -1.
        -11    1    3    3    0    0 -0.63713598476E+01  0.11887861401E+00 -0.16397264772E+01  0.65800502744E+01  0.51100000000E-03 0.  1.
        -12    1    3    3    0    0 -0.76280610417E+01  0.30983924515E+02  0.17340604603E+01  0.31956186557E+02  0.00000000000E+00 0.  1.
</event>
<event>
 7    1  0.5935282E-013  0.5052886E+02  0.7816164E-02  0.1300439E+00
        -11   -1    0    0    0    0  0.00000000000E+00  0.00000000000E+00  0.45593999997E+02  0.45594000000E+02  0.51100000000E-03 0.  1.
         11   -1    0    0    0    0 -0.00000000000E+00 -0.00000000000E+00 -0.45593999997E+02  0.45594000000E+02  0.51100000000E-03 0. -1.
    9900012    2    1    2    0    0 -0.14980376405E+02 -0.37047373999E+02 -0.74997321346E+01  0.50528861058E+02  0.30000003671E+02 0.  0.
        -12    1    1    2    0    0  0.14980376405E+02  0.37047373999E+02  0.74997321346E+01  0.40659138942E+02  0.00000000000E+00 0.  1.
         11    1    3    3    0    0  0.35504312738E+00 -0.11169652620E+02 -0.33585006200E+00  0.11180339476E+02  0.51100000000E-03 0. -1.
        -11    1    3    3    0    0 -0.44729731185E+01 -0.16849680356E+02  0.75093600881E+01  0.18981825671E+02  0.51100000000E-03 0.  1.
         12    1    3    3    0    0 -0.10862446413E+02 -0.90280410231E+01 -0.14673242161E+02  0.20366695910E+02  0.00000000000E+00 0. -1.
</event>
<event>
 7    1  0.5935282E-013  0.5052886E+02  0.7816164E-02  0.1300439E+00
        -11   -1    0    0    0    0  0.00000000000E+00  0.00000000000E+00  0.45593999997E+02  0.45594000000E+02  0.51100000000E-03 0. -1.
         11   -1    0    0    0    0 -0.00000000000E+00 -0.00000000000E+00 -0.45593999997E+02  0.45594000000E+02  0.51100000000E-03 0.  1.
    9900012    2    1    2    0    0 -0.10425104830E+02 -0.38368883873E+02  0.85036088812E+01  0.50528862965E+02  0.30000009470E+02 0.  0.
        -12    1    1    2    0    0  0.10425104830E+02  0.38368883873E+02 -0.85036088812E+01  0.40659137035E+02  0.00000000000E+00 0.  1.
         11    1    3    3    0    0 -0.53114881402E+01 -0.64556143403E+01  0.42811305845E+01  0.93922809859E+01  0.51100000000E-03 0. -1.
        -11    1    3    3    0    0 -0.15158151658E+02 -0.21227757390E+02  0.44949159253E+01  0.26468689331E+02  0.51100000000E-03 0.  1.
         12    1    3    3    0    0  0.10044534968E+02 -0.10685512143E+02 -0.27243762858E+00  0.14667892648E+02  0.00000000000E+00 0. -1.
</event>
<event>
 7    1  0.5935282E-013  0.5052887E+02  0.7816164E-02  0.1300439E+00
        -11   -1    0    0    0    0  0.00000000000E+00  0.00000000000E+00  0.45593999997E+02  0.45594000000E+02  0.51100000000E-03 0.  1.
         11   -1    0    0    0    0 -0.00000000000E+00 -0.00000000000E+00 -0.45593999997E+02  0.45594000000E+02  0.51100000000E-03 0. -1.
    9900012    2    1    2    0    0  0.19794133162E+02 -0.21301518075E+02 -0.28418345866E+02  0.50528871115E+02  0.30000034241E+02 0.  0.
        -12    1    1    2    0    0 -0.19794133162E+02  0.21301518075E+02  0.28418345866E+02  0.40659128885E+02  0.00000000000E+00 0.  1.
         11    1    3    3    0    0  0.17912677912E+02 -0.46030969977E+01 -0.22102146378E+02  0.28819392892E+02  0.51100000000E-03 0. -1.
        -11    1    3    3    0    0 -0.84982223220E+00 -0.74150820437E+01 -0.89761423026E+01  0.11673764193E+02  0.51100000000E-03 0.  1.
        -12    1    3    3    0    0  0.27312774825E+01 -0.92833390339E+01  0.26599428143E+01  0.10035714029E+02  0.00000000000E+00 0.  1.
</event>
<event>
 7    1  0.5935282E-013  0.5052886E+02  0.7816164E-02  0.1300439E+00
        -11   -1    0    0    0    0  0.00000000000E+00  0.00000000000E+00  0.45593999997E+02  0.45594000000E+02  0.51100000000E-03 0.  1.
         11   -1    0    0    0    0 -0.00000000000E+00 -0.00000000000E+00 -0.45593999997E+02  0.45594000000E+02  0.51100000000E-03 0. -1.
    9900012    2    1    2    0    0 -0.88210220879E+01  0.84097841073E+01 -0.38789573727E+02  0.50528856756E+02  0.29999990595E+02 0.  0.
        -12    1    1    2    0    0  0.88210220879E+01 -0.84097841073E+01  0.38789573727E+02  0.40659143244E+02  0.00000000000E+00 0.  1.
         11    1    3    3    0    0  0.19961820881E+01  0.85147782313E+01 -0.94810618469E+01  0.12898710217E+02  0.51100000000E-03 0. -1.
        -11    1    3    3    0    0  0.19141092273E+01  0.40457768848E+01 -0.21847062230E+02  0.22300812834E+02  0.51100000000E-03 0.  1.
        -12    1    3    3    0    0 -0.12731313403E+02 -0.41507710089E+01 -0.74614496507E+01  0.15329333705E+02  0.00000000000E+00 0.  1.
</event>
<event>
 7    1  0.5935282E-013  0.5052886E+02  0.7816164E-02  0.1300439E+00
        -11   -1    0    0    0    0  0.00000000000E+00  0.00000000000E+00  0.45593999997E+02  0.45594000000E+02  0.51100000000E-03 0. -1.
         11   -1    0    0    0    0 -0.00000000000E+00 -0.00000000000E+00 -0.45593999997E+02  0.45594000000E+02  0.51100000000E-03 0.  1.
    9900012    2    1    2    0    0 -0.25544283773E+02  0.21570040561E+02  0.23138467612E+02  0.50528858756E+02  0.29999996676E+02 0.  0.
        -12    1    1    2    0    0  0.25544283773E+02 -0.21570040561E+02 -0.23138467612E+02  0.40659141244E+02  0.00000000000E+00 0.  1.
         11    1    3    3    0    0 -0.45702743265E+00  0.75257565885E+01 -0.15777647534E+01  0.77029363351E+01  0.51100000000E-03 0.  1.
        -11    1    3    3    0    0  0.30008956212E+01  0.38015680866E+01  0.52861565889E+01  0.71694313715E+01  0.51100000000E-03 0. -1.
        -12    1    3    3    0    0 -0.28088151961E+02  0.10242715886E+02  0.19430075776E+02  0.35656491050E+02  0.00000000000E+00 0.  1.
</event>
<event>
 7    1  0.5935282E-013  0.5052884E+02  0.7816164E-02  0.1300439E+00
        -11   -1    0    0    0    0  0.00000000000E+00  0.00000000000E+00  0.45593999997E+02  0.45594000000E+02  0.51100000000E-03 0. -1.
         11   -1    0    0    0    0 -0.00000000000E+00 -0.00000000000E+00 -0.45593999997E+02  0.45594000000E+02  0.51100000000E-03 0.  1.
    9900012    2    1    2    0    0  0.21129802322E+02 -0.97866510263E+01  0.33330464889E+02  0.50528843907E+02  0.29999951539E+02 0.  0.
        -12    1    1    2    0    0 -0.21129802322E+02  0.97866510263E+01 -0.33330464889E+02  0.40659156093E+02  0.00000000000E+00 0.  1.
         11    1    3    3    0    0  0.86532419411E+01 -0.62871525208E+00  0.84766894538E+01  0.12129639043E+02  0.51100000000E-03 0. -1.
        -11    1    3    3    0    0  0.16380729285E+02 -0.44136356978E+01  0.51044589192E+01  0.17716206510E+02  0.51100000000E-03 0.  1.
        -12    1    3    3    0    0 -0.39041689041E+01 -0.47443000764E+01  0.19749316516E+02  0.20682998354E+02  0.00000000000E+00 0.  1.
</event>
<event>
 7    1  0.5935282E-013  0.5052886E+02  0.7816164E-02  0.1300439E+00
        -11   -1    0    0    0    0  0.00000000000E+00  0.00000000000E+00  0.45593999997E+02  0.45594000000E+02  0.51100000000E-03 0.  1.
         11   -1    0    0    0    0 -0.00000000000E+00 -0.00000000000E+00 -0.45593999997E+02  0.45594000000E+02  0.51100000000E-03 0. -1.
    9900012    2    1    2    0    0  0.18524845104E+02 -0.48214825271E+01 -0.35871288915E+02  0.50528856522E+02  0.29999989886E+02 0.  0.
        -12    1    1    2    0    0 -0.18524845104E+02  0.48214825271E+01  0.35871288915E+02  0.40659143478E+02  0.00000000000E+00 0.  1.
         11    1    3    3    0    0  0.39954112333E+01  0.17781066159E+01 -0.28753376730E+01  0.52337884037E+01  0.51100000000E-03 0. -1.
        -11    1    3    3    0    0  0.17889207930E+02  0.52485285864E+01 -0.18342161943E+02  0.26153502972E+02  0.51100000000E-03 0.  1.
         12    1    3    3    0    0 -0.33597740590E+01 -0.11848117729E+02 -0.14653789299E+02  0.19141565147E+02  0.00000000000E+00 0. -1.
</event>
<event>
 7    1  0.5935282E-013  0.5052883E+02  0.7816164E-02  0.1300439E+00
        -11   -1    0    0    0    0  0.00000000000E+00  0.00000000000E+00  0.45593999997E+02  0.45594000000E+02  0.51100000000E-03 0. -1.
         11   -1    0    0    0    0 -0.00000000000E+00 -0.00000000000E+00 -0.45593999997E+02  0.45594000000E+02  0.51100000000E-03 0.  1.
    9900012    2    1    2    0    0 -0.32210261648E+02 -0.24797896623E+02  0.85543829019E+00  0.50528826286E+02  0.29999897980E+02 0.  0.
        -12    1    1    2    0    0  0.32210261648E+02  0.24797896623E+02 -0.85543829019E+00  0.40659173714E+02  0.00000000000E+00 0.  1.
         11    1    3    3    0    0 -0.16693542513E+02 -0.26924355641E+02 -0.95539368660E+00  0.31693975226E+02  0.51100000000E-03 0. -1.
        -11    1    3    3    0    0 -0.37408462703E+01 -0.39752176677E+01  0.76412066773E-01  0.54591322927E+01  0.51100000000E-03 0.  1.
        -12    1    3    3    0    0 -0.11775872865E+02  0.61016766852E+01  0.17344199100E+01  0.13375718767E+02  0.00000000000E+00 0.  1.
</event>
<event>
 7    1  0.5935282E-013  0.5052886E+02  0.7816164E-02  0.1300439E+00
        -11   -1    0    0    0    0  0.00000000000E+00  0.00000000000E+00  0.45593999997E+02  0.45594000000E+02  0.51100000000E-03 0.  1.
         11   -1    0    0    0    0 -0.00000000000E+00 -0.00000000000E+00 -0.45593999997E+02  0.45594000000E+02  0.51100000000E-03 0. -1.
    9900012    2    1    2    0    0 -0.40149851552E+02 -0.63273590061E+01  0.10580899403E+01  0.50528860732E+02  0.30000002682E+02 0.  0.
        -12    1    1    2    0    0  0.40149851552E+02  0.63273590061E+01 -0.10580899403E+01  0.40659139268E+02  0.00000000000E+00 0.  1.
         11    1    3    3    0    0 -0.81341148133E+01  0.46352567159E+01 -0.19666297596E+00  0.93641927151E+01  0.51100000000E-03 0. -1.
        -11    1    3    3    0    0  0.18032743510E+01  0.21757977489E+01  0.38667423224E+01  0.47893204819E+01  0.51100000000E-03 0.  1.
        -12    1    3    3    0    0 -0.33819011090E+02 -0.13138413471E+02 -0.26119894061E+01  0.36375347535E+02  0.00000000000E+00 0.  1.
</event>
<event>
 7    1  0.5935282E-013  0.5052886E+02  0.7816164E-02  0.1300439E+00
        -11   -1    0    0    0    0  0.00000000000E+00  0.00000000000E+00  0.45593999997E+02  0.45594000000E+02  0.51100000000E-03 0. -1.
         11   -1    0    0    0    0 -0.00000000000E+00 -0.00000000000E+00 -0.45593999997E+02  0.45594000000E+02  0.51100000000E-03 0.  1.
    9900012    2    1    2    0    0  0.29735388397E+02  0.26777665492E+02  0.72061883434E+01  0.50528857820E+02  0.29999993831E+02 0.  0.
        -12    1    1    2    0    0 -0.29735388397E+02 -0.26777665492E+02 -0.72061883434E+01  0.40659142180E+02  0.00000000000E+00 0.  1.
         11    1    3    3    0    0  0.25847711514E+01  0.25179189687E+01  0.41781141221E+01  0.55206517474E+01  0.51100000000E-03 0. -1.
        -11    1    3    3    0    0  0.69041086038E+01 -0.38915773928E+01  0.63750474343E+01  0.10171151374E+02  0.51100000000E-03 0.  1.
         12    1    3    3    0    0  0.20246508642E+02  0.28151323916E+02 -0.33469732130E+01  0.34837054699E+02  0.00000000000E+00 0. -1.
</event>
<event>
 7    1  0.5935282E-013  0.5052888E+02  0.7816164E-02  0.1300439E+00
        -11   -1    0    0    0    0  0.00000000000E+00  0.00000000000E+00  0.45593999997E+02  0.45594000000E+02  0.51100000000E-03 0.  1.
         11   -1    0    0    0    0 -0.00000000000E+00 -0.00000000000E+00 -0.45593999997E+02  0.45594000000E+02  0.51100000000E-03 0. -1.
    9900012    2    1    2    0    0  0.12295448861E+01 -0.11361735619E+02 -0.39020037977E+02  0.50528878260E+02  0.30000055960E+02 0.  0.
        -12    1    1    2    0    0 -0.12295448861E+01  0.11361735619E+02  0.39020037977E+02  0.40659121740E+02  0.00000000000E+00 0.  1.
         11    1    3    3    0    0  0.76088563543E+01 -0.99836442947E+01 -0.53829274081E+01  0.13658102217E+02  0.51100000000E-03 0.  1.
        -11    1    3    3    0    0  0.14146413184E+01  0.28996602527E+01 -0.21952423406E+02  0.22188243133E+02  0.51100000000E-03 0. -1.
         12    1    3    3    0    0 -0.77939527866E+01 -0.42777515767E+01 -0.11684687163E+02  0.14682532911E+02  0.00000000000E+00 0. -1.
</event>
<event>
 7    1  0.5935282E-013  0.5052886E+02  0.7816164E-02  0.1300439E+00
        -11   -1    0    0    0    0  0.00000000000E+00  0.00000000000E+00  0.45593999997E+02  0.45594000000E+02  0.51100000000E-03 0. -1.
         11   -1    0    0    0    0 -0.00000000000E+00 -0.00000000000E+00 -0.45593999997E+02  0.45594000000E+02  0.51100000000E-03 0.  1.
    9900012    2    1    2    0    0 -0.23147470847E+02  0.25087469682E+02  0.22090244549E+02  0.50528862701E+02  0.30000008667E+02 0.  0.
        -12    1    1    2    0    0  0.23147470847E+02 -0.25087469682E+02 -0.22090244549E+02  0.40659137299E+02  0.00000000000E+00 0.  1.
         11    1    3    3    0    0 -0.77181177262E+00  0.12105351779E-01  0.58948085379E-01  0.77415443536E+00  0.51100000000E-03 0. -1.
        -11    1    3    3    0    0 -0.78527178654E+01  0.51814063698E+01  0.23262523987E+02  0.25092970576E+02  0.51100000000E-03 0.  1.
         12    1    3    3    0    0 -0.14522941209E+02  0.19893957960E+02 -0.12312275233E+01  0.24661737690E+02  0.00000000000E+00 0. -1.
</event>
<event>
 7    1  0.5935282E-013  0.5052886E+02  0.7816164E-02  0.1300439E+00
        -11   -1    0    0    0    0  0.00000000000E+00  0.00000000000E+00  0.45593999997E+02  0.45594000000E+02  0.51100000000E-03 0.  1.
         11   -1    0    0    0    0 -0.00000000000E+00 -0.00000000000E+00 -0.45593999997E+02  0.45594000000E+02  0.51100000000E-03 0. -1.
    9900012    2    1    2    0    0 -0.30017764937E+02  0.17870922730E+02 -0.20802148827E+02  0.50528862198E+02  0.30000007136E+02 0.  0.
        -12    1    1    2    0    0  0.30017764937E+02 -0.17870922730E+02  0.20802148827E+02  0.40659137802E+02  0.00000000000E+00 0.  1.
         11    1    3    3    0    0 -0.16188861582E+02  0.14803771392E+02 -0.19265882184E+02  0.29195977519E+02  0.51100000000E-03 0. -1.
        -11    1    3    3    0    0  0.16285960569E+01  0.27778112401E+01 -0.45574730378E+01  0.55802438256E+01  0.51100000000E-03 0.  1.
         12    1    3    3    0    0 -0.15457499412E+02  0.28934009778E+00  0.30212063945E+01  0.15752640853E+02  0.00000000000E+00 0. -1.
</event>
<event>
 7    1  0.5935282E-013  0.5052887E+02  0.7816164E-02  0.1300439E+00
        -11   -1    0    0    0    0  0.00000000000E+00  0.00000000000E+00  0.45593999997E+02  0.45594000000E+02  0.51100000000E-03 0.  1.
         11   -1    0    0    0    0 -0.00000000000E+00 -0.00000000000E+00 -0.45593999997E+02  0.45594000000E+02  0.51100000000E-03 0. -1.
    9900012    2    1    2    0    0  0.11629897001E+01  0.24959467194E+01 -0.40565784630E+02  0.50528865998E+02  0.30000018689E+02 0.  0.
        -12    1    1    2    0    0 -0.11629897001E+01 -0.24959467194E+01  0.40565784630E+02  0.40659134002E+02  0.00000000000E+00 0.  1.
         11    1    3    3    0    0 -0.46384981010E+00 -0.93274007303E+01 -0.24431546054E+02  0.26155611327E+02  0.51100000000E-03 0. -1.
        -11    1    3    3    0    0  0.13237085447E+01  0.13858453090E+00 -0.11849443570E+02  0.11923955852E+02  0.51100000000E-03 0.  1.
        -12    1    3    3    0    0  0.30313096548E+00  0.11684762919E+02 -0.42847950066E+01  0.12449298820E+02  0.00000000000E+00 0.  1.
</event>
<event>
 7    1  0.5935282E-013  0.5052886E+02  0.7816164E-02  0.1300439E+00
        -11   -1    0    0    0    0  0.00000000000E+00  0.00000000000E+00  0.45593999997E+02  0.45594000000E+02  0.51100000000E-03 0.  1.
         11   -1    0    0    0    0 -0.00000000000E+00 -0.00000000000E+00 -0.45593999997E+02  0.45594000000E+02  0.51100000000E-03 0. -1.
    9900012    2    1    2    0    0  0.13535796632E+02 -0.18173441735E+02 -0.33759061220E+02  0.50528856017E+02  0.29999988350E+02 0.  0.
        -12    1    1    2    0    0 -0.13535796632E+02  0.18173441735E+02  0.33759061220E+02  0.40659143983E+02  0.00000000000E+00 0.  1.
         11    1    3    3    0    0  0.28822456263E+01 -0.16254419336E+02 -0.18942522041E+02  0.25126333384E+02  0.51100000000E-03 0. -1.
        -11    1    3    3    0    0  0.96722396409E+01 -0.81720431053E+01 -0.47753486038E+01  0.13532866021E+02  0.51100000000E-03 0.  1.
         12    1    3    3    0    0  0.98131136432E+00  0.62530207056E+01 -0.10041190575E+02  0.11869656613E+02  0.00000000000E+00 0. -1.
</event>
<event>
 7    1  0.5935282E-013  0.5052886E+02  0.7816164E-02  0.1300439E+00
        -11   -1    0    0    0    0  0.00000000000E+00  0.00000000000E+00  0.45593999997E+02  0.45594000000E+02  0.51100000000E-03 0. -1.
         11   -1    0    0    0    0 -0.00000000000E+00 -0.00000000000E+00 -0.45593999997E+02  0.45594000000E+02  0.51100000000E-03 0.  1.
    9900012    2    1    2    0    0 -0.26506145991E+01 -0.35536254291E+02  0.19578419406E+02  0.50528860397E+02  0.30000001663E+02 0.  0.
        -12    1    1    2    0    0  0.26506145991E+01  0.35536254291E+02 -0.19578419406E+02  0.40659139603E+02  0.00000000000E+00 0.  1.
         11    1    3    3    0    0  0.46974178901E+01  0.19043748780E+01  0.74405872279E+01  0.90030393239E+01  0.51100000000E-03 0.  1.
        -11    1    3    3    0    0 -0.35825440952E+01 -0.17240056038E+02  0.11375393435E+02  0.20963151730E+02  0.51100000000E-03 0. -1.
        -12    1    3    3    0    0 -0.37654883939E+01 -0.20200573131E+02  0.76243874303E+00  0.20562669343E+02  0.00000000000E+00 0.  1.
</event>
<event>
 7    1  0.5935282E-013  0.5052887E+02  0.7816164E-02  0.1300439E+00
        -11   -1    0    0    0    0  0.00000000000E+00  0.00000000000E+00  0.45593999997E+02  0.45594000000E+02  0.51100000000E-03 0.  1.
         11   -1    0    0    0    0 -0.00000000000E+00 -0.00000000000E+00 -0.45593999997E+02  0.45594000000E+02  0.51100000000E-03 0. -1.
    9900012    2    1    2    0    0  0.32106943017E+02 -0.20047091447E+02 -0.14846648502E+02  0.50528872647E+02  0.30000038897E+02 0.  0.
        -12    1    1    2    0    0 -0.32106943017E+02  0.20047091447E+02  0.14846648502E+02  0.40659127353E+02  0.00000000000E+00 0.  1.
         11    1    3    3    0    0  0.12515396060E+02  0.43344648640E+01  0.27448896104E+00  0.13247568406E+02  0.51100000000E-03 0. -1.
        -11    1    3    3    0    0 -0.79162246448E+00  0.41555406755E+00  0.10164528771E+01  0.13537089871E+01  0.51100000000E-03 0.  1.
         12    1    3    3    0    0  0.20383169421E+02 -0.24797110378E+02 -0.16137590340E+02  0.35927595254E+02  0.00000000000E+00 0. -1.
</event>
<event>
 7    1  0.5935282E-013  0.5052885E+02  0.7816164E-02  0.1300439E+00
        -11   -1    0    0    0    0  0.00000000000E+00  0.00000000000E+00  0.45593999997E+02  0.45594000000E+02  0.51100000000E-03 0. -1.
         11   -1    0    0    0    0 -0.00000000000E+00 -0.00000000000E+00 -0.45593999997E+02  0.45594000000E+02  0.51100000000E-03 0.  1.
    9900012    2    1    2    0    0 -0.19483059595E+01  0.39909904929E+02  0.75212826370E+01  0.50528854657E+02  0.29999984215E+02 0.  0.
        -12    1    1    2    0    0  0.19483059595E+01 -0.39909904929E+02 -0.75212826370E+01  0.40659145343E+02  0.00000000000E+00 0.  1.
         11    1    3    3    0    0 -0.29328386104E+00  0.36458749006E+02  0.69606508093E+01  0.37118419342E+02  0.51100000000E-03 0. -1.
        -11    1    3    3    0    0  0.41777456417E+01  0.57560456200E+01  0.61123228839E+00  0.71385730365E+01  0.51100000000E-03 0.  1.
        -12    1    3    3    0    0 -0.58327677401E+01 -0.23048896977E+01 -0.50600460662E-01  0.62718622781E+01  0.00000000000E+00 0.  1.
</event>
<event>
 7    1  0.5935282E-013  0.5052886E+02  0.7816164E-02  0.1300439E+00
        -11   -1    0    0    0    0  0.00000000000E+00  0.00000000000E+00  0.45593999997E+02  0.45594000000E+02  0.51100000000E-03 0.  1.
         11   -1    0    0    0    0 -0.00000000000E+00 -0.00000000000E+00 -0.45593999997E+02  0.45594000000E+02  0.51100000000E-03 0. -1.
    9900012    2    1    2    0    0  0.20013398524E+02  0.30559373435E+02 -0.17853693525E+02  0.50528858374E+02  0.29999995515E+02 0.  0.
        -12    1    1    2    0    0 -0.20013398524E+02 -0.30559373435E+02  0.17853693525E+02  0.40659141626E+02  0.00000000000E+00 0.  1.
         11    1    3    3    0    0  0.42709332082E+01  0.15438957007E+02 -0.10860226197E+02  0.19353211032E+02  0.51100000000E-03 0. -1.
        -11    1    3    3    0    0  0.23769513718E+01  0.81229677360E+01 -0.12516971876E+02  0.15109834145E+02  0.51100000000E-03 0.  1.
        -12    1    3    3    0    0  0.13365513944E+02  0.69974486926E+01  0.55235045490E+01  0.16065813198E+02  0.00000000000E+00 0.  1.
</event>
<event>
 7    1  0.5935282E-013  0.5052884E+02  0.7816164E-02  0.1300439E+00
        -11   -1    0    0    0    0  0.00000000000E+00  0.00000000000E+00  0.45593999997E+02  0.45594000000E+02  0.51100000000E-03 0.  1.
         11   -1    0    0    0    0 -0.00000000000E+00 -0.00000000000E+00 -0.45593999997E+02  0.45594000000E+02  0.51100000000E-03 0. -1.
    9900012    2    1    2    0    0 -0.26014169509E+02  0.13554296760E+02 -0.28155133808E+02  0.50528837002E+02  0.29999930551E+02 0.  0.
        -12    1    1    2    0    0  0.26014169509E+02 -0.13554296760E+02  0.28155133808E+02  0.40659162998E+02  0.00000000000E+00 0.  1.
         11    1    3    3    0    0 -0.16961427195E+02  0.35708495200E+01 -0.60212125555E+01  0.18349277361E+02  0.51100000000E-03 0. -1.
        -11    1    3    3    0    0 -0.10437694448E+02  0.13613750041E+02 -0.10978464268E+02  0.20366794876E+02  0.51100000000E-03 0.  1.
        -12    1    3    3    0    0  0.13849521340E+01 -0.36303028009E+01 -0.11155456985E+02  0.11812764765E+02  0.00000000000E+00 0.  1.
</event>
<event>
 7    1  0.5935282E-013  0.5052886E+02  0.7816164E-02  0.1300439E+00
        -11   -1    0    0    0    0  0.00000000000E+00  0.00000000000E+00  0.45593999997E+02  0.45594000000E+02  0.51100000000E-03 0.  1.
         11   -1    0    0    0    0 -0.00000000000E+00 -0.00000000000E+00 -0.45593999997E+02  0.45594000000E+02  0.51100000000E-03 0. -1.
    9900012    2    1    2    0    0 -0.22356831869E+01  0.53249604635E+01 -0.40246886041E+02  0.50528864259E+02  0.30000013401E+02 0.  0.
        -12    1    1    2    0    0  0.22356831869E+01 -0.53249604635E+01  0.40246886041E+02  0.40659135741E+02  0.00000000000E+00 0.  1.
         11    1    3    3    0    0  0.37502036718E+01 -0.60399980376E+01 -0.90931796592E+01  0.11542595915E+02  0.51100000000E-03 0. -1.
        -11    1    3    3    0    0 -0.31719753046E+01 -0.54919128354E+01 -0.80273829481E+01  0.10230415983E+02  0.51100000000E-03 0.  1.
         12    1    3    3    0    0 -0.28139115541E+01  0.16856871337E+02 -0.23126323433E+02  0.28755852361E+02  0.00000000000E+00 0. -1.
</event>
<event>
 7    1  0.5935282E-013  0.5052884E+02  0.7816164E-02  0.1300439E+00
        -11   -1    0    0    0    0  0.00000000000E+00  0.00000000000E+00  0.45593999997E+02  0.45594000000E+02  0.51100000000E-03 0.  1.
         11   -1    0    0    0    0 -0.00000000000E+00 -0.00000000000E+00 -0.45593999997E+02  0.45594000000E+02  0.51100000000E-03 0. -1.
    9900012    2    1    2    0    0 -0.68462459860E+01  0.10820251344E+02 -0.38590388213E+02  0.50528843766E+02  0.29999951110E+02 0.  0.
        -12    1    1    2    0    0  0.68462459860E+01 -0.10820251344E+02  0.38590388213E+02  0.40659156234E+02  0.00000000000E+00 0.  1.
         11    1    3    3    0    0 -0.55736527661E+00  0.11940885420E+02 -0.44984998149E+01  0.12772309952E+02  0.51100000000E-03 0. -1.
        -11    1    3    3    0    0  0.63695554902E+00  0.42258306663E+01 -0.24097327482E+02  0.24473343647E+02  0.51100000000E-03 0.  1.
         12    1    3    3    0    0 -0.69258362584E+01 -0.53464647422E+01 -0.99945609158E+01  0.13283190167E+02  0.00000000000E+00 0. -1.
</event>
<event>
 7    1  0.5935282E-013  0.5052886E+02  0.7816164E-02  0.1300439E+00
        -11   -1    0    0    0    0  0.00000000000E+00  0.00000000000E+00  0.45593999997E+02  0.45594000000E+02  0.51100000000E-03 0.  1.
         11   -1    0    0    0    0 -0.00000000000E+00 -0.00000000000E+00 -0.45593999997E+02  0.45594000000E+02  0.51100000000E-03 0. -1.
    9900012    2    1    2    0    0 -0.11430853319E+02 -0.16418296383E+01 -0.38984688657E+02  0.50528856356E+02  0.29999989380E+02 0.  0.
        -12    1    1    2    0    0  0.11430853319E+02  0.16418296383E+01  0.38984688657E+02  0.40659143644E+02  0.00000000000E+00 0.  1.
         11    1    3    3    0    0 -0.13275676688E+02  0.25922879140E+01 -0.65973666820E+01  0.15049544696E+02  0.51100000000E-03 0.  1.
        -11    1    3    3    0    0 -0.45895176760E+01  0.73852127014E+00 -0.46521874834E+01  0.65766203180E+01  0.51100000000E-03 0. -1.
         12    1    3    3    0    0  0.64343410452E+01 -0.49726388224E+01 -0.27735134492E+02  0.28902691342E+02  0.00000000000E+00 0. -1.
</event>
<event>
 7    1  0.5935282E-013  0.5052884E+02  0.7816164E-02  0.1300439E+00
        -11   -1    0    0    0    0  0.00000000000E+00  0.00000000000E+00  0.45593999997E+02  0.45594000000E+02  0.51100000000E-03 0.  1.
         11   -1    0    0    0    0 -0.00000000000E+00 -0.00000000000E+00 -0.45593999997E+02  0.45594000000E+02  0.51100000000E-03 0. -1.
    9900012    2    1    2    0    0 -0.36891629294E+02 -0.13016010595E+02 -0.11079653200E+02  0.50528836718E+02  0.29999929688E+02 0.  0.
        -12    1    1    2    0    0  0.36891629294E+02  0.13016010595E+02  0.11079653200E+02  0.40659163282E+02  0.00000000000E+00 0.  1.
         11    1    3    3    0    0 -0.21668021182E+02 -0.26073941758E+01 -0.15300585972E+02  0.26653509669E+02  0.51100000000E-03 0. -1.
        -11    1    3    3    0    0 -0.16096244882E+02 -0.34453575882E+01  0.24993117392E+01  0.16649508931E+02  0.51100000000E-03 0.  1.
         12    1    3    3    0    0  0.87263677067E+00 -0.69632588314E+01  0.17216210326E+01  0.72258181174E+01  0.00000000000E+00 0. -1.
</event>
<event>
 7    1  0.5935282E-013  0.5052885E+02  0.7816164E-02  0.1300439E+00
        -11   -1    0    0    0    0  0.00000000000E+00  0.00000000000E+00  0.45593999997E+02  0.45594000000E+02  0.51100000000E-03 0.  1.
         11   -1    0    0    0    0 -0.00000000000E+00 -0.00000000000E+00 -0.45593999997E+02  0.45594000000E+02  0.51100000000E-03 0. -1.
    9900012    2    1    2    0    0 -0.37101106741E+02 -0.14722090551E+02 -0.77417081827E+01  0.50528854446E+02  0.29999983574E+02 0.  0.
        -12    1    1    2    0    0  0.37101106741E+02  0.14722090551E+02  0.77417081827E+01  0.40659145554E+02  0.00000000000E+00 0.  1.
         11    1    3    3    0    0 -0.12917618202E+02 -0.80488309223E+01 -0.13172570423E+02  0.20128714590E+02  0.51100000000E-03 0. -1.
        -11    1    3    3    0    0 -0.74345295889E+00 -0.16400673261E+01 -0.41953196652E+01  0.45654408868E+01  0.51100000000E-03 0.  1.
         12    1    3    3    0    0 -0.23440035580E+02 -0.50331923028E+01  0.96261819059E+01  0.25834698970E+02  0.00000000000E+00 0. -1.
</event>
<event>
 7    1  0.5935282E-013  0.5052885E+02  0.7816164E-02  0.1300439E+00
        -11   -1    0    0    0    0  0.00000000000E+00  0.00000000000E+00  0.45593999997E+02  0.45594000000E+02  0.51100000000E-03 0.  1.
         11   -1    0    0    0    0 -0.00000000000E+00 -0.00000000000E+00 -0.45593999997E+02  0.45594000000E+02  0.51100000000E-03 0. -1.
    9900012    2    1    2    0    0 -0.22735521827E+02  0.38175772190E+01 -0.33491620373E+02  0.50528849937E+02  0.29999969869E+02 0.  0.
        -12    1    1    2    0    0  0.22735521827E+02 -0.38175772190E+01  0.33491620373E+02  0.40659150063E+02  0.00000000000E+00 0.  1.
         11    1    3    3    0    0 -0.12531941929E+02  0.10851712312E+00 -0.47503864019E+01  0.13402519006E+02  0.51100000000E-03 0. -1.
        -11    1    3    3    0    0 -0.12313979492E+02  0.49259830200E+01 -0.65321888239E+01  0.14784075579E+02  0.51100000000E-03 0.  1.
        -12    1    3    3    0    0  0.21103995936E+01 -0.12169229241E+01 -0.22209045148E+02  0.22342255352E+02  0.00000000000E+00 0.  1.
</event>
<event>
 7    1  0.5935282E-013  0.5052885E+02  0.7816164E-02  0.1300439E+00
        -11   -1    0    0    0    0  0.00000000000E+00  0.00000000000E+00  0.45593999997E+02  0.45594000000E+02  0.51100000000E-03 0.  1.
         11   -1    0    0    0    0 -0.00000000000E+00 -0.00000000000E+00 -0.45593999997E+02  0.45594000000E+02  0.51100000000E-03 0. -1.
    9900012    2    1    2    0    0  0.14999671145E+02  0.31608728751E+02 -0.20713865564E+02  0.50528854727E+02  0.29999984429E+02 0.  0.
        -12    1    1    2    0    0 -0.14999671145E+02 -0.31608728751E+02  0.20713865564E+02  0.40659145273E+02  0.00000000000E+00 0.  1.
         11    1    3    3    0    0  0.17464885453E+02  0.18837717924E+02 -0.87347870027E+01  0.27132606670E+02  0.51100000000E-03 0. -1.
        -11    1    3    3    0    0  0.61847530803E+01  0.25855489463E+01 -0.46169414487E+01  0.81395566599E+01  0.51100000000E-03 0.  1.
        -12    1    3    3    0    0 -0.86499673882E+01  0.10185461880E+02 -0.73621371125E+01  0.15256691397E+02  0.00000000000E+00 0.  1.
</event>
<event>
 7    1  0.5935282E-013  0.5052886E+02  0.7816164E-02  0.1300439E+00
        -11   -1    0    0    0    0  0.00000000000E+00  0.00000000000E+00  0.45593999997E+02  0.45594000000E+02  0.51100000000E-03 0.  1.
         11   -1    0    0    0    0 -0.00000000000E+00 -0.00000000000E+00 -0.45593999997E+02  0.45594000000E+02  0.51100000000E-03 0. -1.
    9900012    2    1    2    0    0 -0.32066808382E+02 -0.18195648652E+02 -0.17140706420E+02  0.50528860237E+02  0.30000001177E+02 0.  0.
        -12    1    1    2    0    0  0.32066808382E+02  0.18195648652E+02  0.17140706420E+02  0.40659139763E+02  0.00000000000E+00 0.  1.
         11    1    3    3    0    0 -0.17872771049E+02 -0.97016301742E+00 -0.17274217508E+02  0.24875203558E+02  0.51100000000E-03 0. -1.
        -11    1    3    3    0    0 -0.90773713843E+01 -0.23250277333E+01 -0.24580550039E+01  0.96874382512E+01  0.51100000000E-03 0.  1.
         12    1    3    3    0    0 -0.51166659488E+01 -0.14900457901E+02  0.25915660923E+01  0.15966218428E+02  0.00000000000E+00 0. -1.
</event>
<event>
 7    1  0.5935282E-013  0.5052885E+02  0.7816164E-02  0.1300439E+00
        -11   -1    0    0    0    0  0.00000000000E+00  0.00000000000E+00  0.45593999997E+02  0.45594000000E+02  0.51100000000E-03 0.  1.
         11   -1    0    0    0    0 -0.00000000000E+00 -0.00000000000E+00 -0.45593999997E+02  0.45594000000E+02  0.51100000000E-03 0. -1.
    9900012    2    1    2    0    0  0.35772366127E+02  0.18564121182E+02 -0.53737613677E+01  0.50528854844E+02  0.29999984784E+02 0.  0.
        -12    1    1    2    0    0 -0.35772366127E+02 -0.18564121182E+02  0.53737613677E+01  0.40659145156E+02  0.00000000000E+00 0.  1.
         11    1    3    3    0    0  0.49129515154E+01 -0.30859230443E+01  0.12897229682E+01  0.59433491589E+01  0.51100000000E-03 0. -1.
        -11    1    3    3    0    0  0.61920497561E+01  0.13338370372E+01  0.73401387708E+01  0.96952688905E+01  0.51100000000E-03 0.  1.
         12    1    3    3    0    0  0.24667364855E+02  0.20316207190E+02 -0.14003623107E+02  0.34890236795E+02  0.00000000000E+00 0. -1.
</event>
<event>
 7    1  0.5935282E-013  0.5052886E+02  0.7816164E-02  0.1300439E+00
        -11   -1    0    0    0    0  0.00000000000E+00  0.00000000000E+00  0.45593999997E+02  0.45594000000E+02  0.51100000000E-03 0.  1.
         11   -1    0    0    0    0 -0.00000000000E+00 -0.00000000000E+00 -0.45593999997E+02  0.45594000000E+02  0.51100000000E-03 0. -1.
    9900012    2    1    2    0    0 -0.16952884190E+02 -0.27246112417E+02 -0.24968281438E+02  0.50528855860E+02  0.29999987872E+02 0.  0.
        -12    1    1    2    0    0  0.16952884190E+02  0.27246112417E+02  0.24968281438E+02  0.40659144140E+02  0.00000000000E+00 0.  1.
         11    1    3    3    0    0 -0.14353929753E+02 -0.15341738923E+02 -0.12624815288E+02  0.24511022293E+02  0.51100000000E-03 0. -1.
        -11    1    3    3    0    0 -0.94765073227E+01 -0.78007828240E+01 -0.13126211297E+02  0.17970916142E+02  0.51100000000E-03 0.  1.
        -12    1    3    3    0    0  0.68775528852E+01 -0.41035906706E+01  0.78274514762E+00  0.80469174251E+01  0.00000000000E+00 0.  1.
</event>
<event>
 7    1  0.5935282E-013  0.5052885E+02  0.7816164E-02  0.1300439E+00
        -11   -1    0    0    0    0  0.00000000000E+00  0.00000000000E+00  0.45593999997E+02  0.45594000000E+02  0.51100000000E-03 0.  1.
         11   -1    0    0    0    0 -0.00000000000E+00 -0.00000000000E+00 -0.45593999997E+02  0.45594000000E+02  0.51100000000E-03 0. -1.
    9900012    2    1    2    0    0 -0.34213774385E+01  0.29935443560E+02 -0.27300728077E+02  0.50528851481E+02  0.29999974563E+02 0.  0.
        -12    1    1    2    0    0  0.34213774385E+01 -0.29935443560E+02  0.27300728077E+02  0.40659148519E+02  0.00000000000E+00 0.  1.
         11    1    3    3    0    0  0.61990424782E+01  0.14835298953E+02 -0.29151218179E+00  0.16081019939E+02  0.51100000000E-03 0. -1.
        -11    1    3    3    0    0  0.53628874089E+00  0.21479193750E+00  0.99271410002E+00  0.11485742186E+01  0.51100000000E-03 0.  1.
         12    1    3    3    0    0 -0.10156708658E+02  0.14885352670E+02 -0.28001929995E+02  0.33299257324E+02  0.00000000000E+00 0. -1.
</event>
<event>
 7    1  0.5935282E-013  0.5052886E+02  0.7816164E-02  0.1300439E+00
        -11   -1    0    0    0    0  0.00000000000E+00  0.00000000000E+00  0.45593999997E+02  0.45594000000E+02  0.51100000000E-03 0.  1.
         11   -1    0    0    0    0 -0.00000000000E+00 -0.00000000000E+00 -0.45593999997E+02  0.45594000000E+02  0.51100000000E-03 0. -1.
    9900012    2    1    2    0    0 -0.90618675686E+01  0.26578997128E+02 -0.29404167525E+02  0.50528860806E+02  0.30000002907E+02 0.  0.
        -12    1    1    2    0    0  0.90618675686E+01 -0.26578997128E+02  0.29404167525E+02  0.40659139194E+02  0.00000000000E+00 0.  1.
         11    1    3    3    0    0  0.58630028703E+00  0.53391611357E+01 -0.17982073453E+02  0.18767134986E+02  0.51100000000E-03 0. -1.
        -11    1    3    3    0    0  0.29377771377E+01 -0.19304251582E+00  0.19563488196E+01  0.35348409990E+01  0.51100000000E-03 0.  1.
        -12    1    3    3    0    0 -0.12585944993E+02  0.21432878508E+02 -0.13378442891E+02  0.28226884821E+02  0.00000000000E+00 0.  1.
</event>
<event>
 7    1  0.5935282E-013  0.5052886E+02  0.7816164E-02  0.1300439E+00
        -11   -1    0    0    0    0  0.00000000000E+00  0.00000000000E+00  0.45593999997E+02  0.45594000000E+02  0.51100000000E-03 0. -1.
         11   -1    0    0    0    0 -0.00000000000E+00 -0.00000000000E+00 -0.45593999997E+02  0.45594000000E+02  0.51100000000E-03 0.  1.
    9900012    2    1    2    0    0 -0.19715320297E+02  0.10835042173E+02  0.33868470241E+02  0.50528864867E+02  0.30000015250E+02 0.  0.
        -12    1    1    2    0    0  0.19715320297E+02 -0.10835042173E+02 -0.33868470241E+02  0.40659135133E+02  0.00000000000E+00 0.  1.
         11    1    3    3    0    0 -0.56684116580E+01 -0.44604300083E+01  0.16523198729E+02  0.18028932944E+02  0.51100000000E-03 0. -1.
        -11    1    3    3    0    0 -0.49513495875E+01  0.74316936371E+01 -0.25204439370E+01  0.92789315632E+01  0.51100000000E-03 0.  1.
         12    1    3    3    0    0 -0.90955590513E+01  0.78637785444E+01  0.19865715449E+02  0.23221000360E+02  0.00000000000E+00 0. -1.
</event>
<event>
 7    1  0.5935282E-013  0.5052885E+02  0.7816164E-02  0.1300439E+00
        -11   -1    0    0    0    0  0.00000000000E+00  0.00000000000E+00  0.45593999997E+02  0.45594000000E+02  0.51100000000E-03 0. -1.
         11   -1    0    0    0    0 -0.00000000000E+00 -0.00000000000E+00 -0.45593999997E+02  0.45594000000E+02  0.51100000000E-03 0.  1.
    9900012    2    1    2    0    0 -0.28296763481E+02 -0.28982294508E+02 -0.35336115057E+01  0.50528848155E+02  0.29999964452E+02 0.  0.
        -12    1    1    2    0    0  0.28296763481E+02  0.28982294508E+02  0.35336115057E+01  0.40659151845E+02  0.00000000000E+00 0.  1.
         11    1    3    3    0    0 -0.68939459329E+01  0.16490947254E+01  0.46816804015E+01  0.84949476504E+01  0.51100000000E-03 0.  1.
        -11    1    3    3    0    0 -0.55218257326E+01  0.11825768924E+01 -0.15647585584E+01  0.58598222784E+01  0.51100000000E-03 0. -1.
         12    1    3    3    0    0 -0.15880991816E+02 -0.31813966126E+02 -0.66505333489E+01  0.36174078226E+02  0.00000000000E+00 0. -1.
</event>
<event>
 7    1  0.5935282E-013  0.5052887E+02  0.7816164E-02  0.1300439E+00
        -11   -1    0    0    0    0  0.00000000000E+00  0.00000000000E+00  0.45593999997E+02  0.45594000000E+02  0.51100000000E-03 0.  1.
         11   -1    0    0    0    0 -0.00000000000E+00 -0.00000000000E+00 -0.45593999997E+02  0.45594000000E+02  0.51100000000E-03 0. -1.
    9900012    2    1    2    0    0  0.16785577813E+02 -0.18485086448E+01 -0.36986375850E+02  0.50528873038E+02  0.30000040088E+02 0.  0.
        -12    1    1    2    0    0 -0.16785577813E+02  0.18485086448E+01  0.36986375850E+02  0.40659126962E+02  0.00000000000E+00 0.  1.
         11    1    3    3    0    0  0.11162648599E+02 -0.17544539336E+01 -0.78683732340E+01  0.13769318427E+02  0.51100000000E-03 0. -1.
        -11    1    3    3    0    0  0.13423507924E+02 -0.32256921569E+01 -0.15505619289E+02  0.20761018392E+02  0.51100000000E-03 0.  1.
         12    1    3    3    0    0 -0.78005787098E+01  0.31316374458E+01 -0.13612383327E+02  0.15998536219E+02  0.00000000000E+00 0. -1.
</event>
<event>
 7    1  0.5935282E-013  0.5052885E+02  0.7816164E-02  0.1300439E+00
        -11   -1    0    0    0    0  0.00000000000E+00  0.00000000000E+00  0.45593999997E+02  0.45594000000E+02  0.51100000000E-03 0.  1.
         11   -1    0    0    0    0 -0.00000000000E+00 -0.00000000000E+00 -0.45593999997E+02  0.45594000000E+02  0.51100000000E-03 0. -1.
    9900012    2    1    2    0    0 -0.26808871550E+02  0.29925920006E+02  0.62362175878E+01  0.50528847380E+02  0.29999962095E+02 0.  0.
        -12    1    1    2    0    0  0.26808871550E+02 -0.29925920006E+02 -0.62362175878E+01  0.40659152620E+02  0.00000000000E+00 0.  1.
         11    1    3    3    0    0 -0.24039024116E+02  0.26669500229E+02  0.89673161453E+01  0.37007427390E+02  0.51100000000E-03 0. -1.
        -11    1    3    3    0    0 -0.27789579289E+01 -0.39602384591E+01  0.16110307124E+01  0.50991681715E+01  0.51100000000E-03 0.  1.
        -12    1    3    3    0    0  0.91104943243E-02  0.72166582362E+01 -0.43421292698E+01  0.84222518186E+01  0.00000000000E+00 0.  1.
</event>
<event>
 7    1  0.5935282E-013  0.5052887E+02  0.7816164E-02  0.1300439E+00
        -11   -1    0    0    0    0  0.00000000000E+00  0.00000000000E+00  0.45593999997E+02  0.45594000000E+02  0.51100000000E-03 0. -1.
         11   -1    0    0    0    0 -0.00000000000E+00 -0.00000000000E+00 -0.45593999997E+02  0.45594000000E+02  0.51100000000E-03 0.  1.
    9900012    2    1    2    0    0 -0.20661554248E+02  0.34520119998E+02 -0.58844460028E+01  0.50528865560E+02  0.30000017357E+02 0.  0.
        -12    1    1    2    0    0  0.20661554248E+02 -0.34520119998E+02  0.58844460028E+01  0.40659134440E+02  0.00000000000E+00 0.  1.
         11    1    3    3    0    0  0.21806705150E+01 -0.71192176159E+00 -0.16583563284E+01  0.28306010780E+01  0.51100000000E-03 0. -1.
        -11    1    3    3    0    0  0.22855098197E+01  0.99526328749E+01  0.42502056226E+01  0.11060863636E+02  0.51100000000E-03 0.  1.
         12    1    3    3    0    0 -0.25127734583E+02  0.25279408885E+02 -0.84762952970E+01  0.36637400846E+02  0.00000000000E+00 0. -1.
</event>
<event>
 7    1  0.5935282E-013  0.5052883E+02  0.7816164E-02  0.1300439E+00
        -11   -1    0    0    0    0  0.00000000000E+00  0.00000000000E+00  0.45593999997E+02  0.45594000000E+02  0.51100000000E-03 0. -1.
         11   -1    0    0    0    0 -0.00000000000E+00 -0.00000000000E+00 -0.45593999997E+02  0.45594000000E+02  0.51100000000E-03 0.  1.
    9900012    2    1    2    0    0 -0.29736525454E+02  0.25909861578E+02 -0.98785564583E+01  0.50528834357E+02  0.29999922512E+02 0.  0.
        -12    1    1    2    0    0  0.29736525454E+02 -0.25909861578E+02  0.98785564583E+01  0.40659165643E+02  0.00000000000E+00 0.  1.
         11    1    3    3    0    0 -0.64215152642E+01  0.72566021285E+00  0.29013066061E+00  0.64688961264E+01  0.51100000000E-03 0. -1.
        -11    1    3    3    0    0 -0.26839710388E+02  0.14932146597E+02 -0.25702277095E+01  0.30821179836E+02  0.51100000000E-03 0.  1.
        -12    1    3    3    0    0  0.35247001980E+01  0.10252054768E+02 -0.75984594094E+01  0.13238758395E+02  0.00000000000E+00 0.  1.
</event>
<event>
 7    1  0.5935282E-013  0.5052885E+02  0.7816164E-02  0.1300439E+00
        -11   -1    0    0    0    0  0.00000000000E+00  0.00000000000E+00  0.45593999997E+02  0.45594000000E+02  0.51100000000E-03 0.  1.
         11   -1    0    0    0    0 -0.00000000000E+00 -0.00000000000E+00 -0.45593999997E+02  0.45594000000E+02  0.51100000000E-03 0. -1.
    9900012    2    1    2    0    0 -0.64429342219E+01  0.21114696274E+02 -0.34144169703E+02  0.50528854352E+02  0.29999983290E+02 0.  0.
        -12    1    1    2    0    0  0.64429342219E+01 -0.21114696274E+02  0.34144169703E+02  0.40659145648E+02  0.00000000000E+00 0.  1.
         11    1    3    3    0    0  0.73379097166E+00 -0.31296909037E+01 -0.11785505953E+02  0.12216037213E+02  0.51100000000E-03 0. -1.
        -11    1    3    3    0    0 -0.31655220503E+01 -0.23245212251E+01 -0.11830206013E+01  0.41016419616E+01  0.51100000000E-03 0.  1.
        -12    1    3    3    0    0 -0.40112031433E+01  0.26568908402E+02 -0.21175643148E+02  0.34211175178E+02  0.00000000000E+00 0.  1.
</event>
<event>
 7    1  0.5935282E-013  0.5052886E+02  0.7816164E-02  0.1300439E+00
        -11   -1    0    0    0    0  0.00000000000E+00  0.00000000000E+00  0.45593999997E+02  0.45594000000E+02  0.51100000000E-03 0. -1.
         11   -1    0    0    0    0 -0.00000000000E+00 -0.00000000000E+00 -0.45593999997E+02  0.45594000000E+02  0.51100000000E-03 0.  1.
    9900012    2    1    2    0    0  0.18278544315E+01  0.38618192668E+02  0.12588091353E+02  0.50528857109E+02  0.29999991669E+02 0.  0.
        -12    1    1    2    0    0 -0.18278544315E+01 -0.38618192668E+02 -0.12588091353E+02  0.40659142891E+02  0.00000000000E+00 0.  1.
         11    1    3    3    0    0  0.61342771581E+01  0.96798422509E+01  0.46466023220E+01  0.12366067105E+02  0.51100000000E-03 0. -1.
        -11    1    3    3    0    0  0.90588517064E+01  0.95099458066E+01  0.61804175040E+01  0.14515489116E+02  0.51100000000E-03 0.  1.
         12    1    3    3    0    0 -0.13365274433E+02  0.19428404610E+02  0.17610715265E+01  0.23647300888E+02  0.00000000000E+00 0. -1.
</event>
<event>
 7    1  0.5935282E-013  0.5052886E+02  0.7816164E-02  0.1300439E+00
        -11   -1    0    0    0    0  0.00000000000E+00  0.00000000000E+00  0.45593999997E+02  0.45594000000E+02  0.51100000000E-03 0. -1.
         11   -1    0    0    0    0 -0.00000000000E+00 -0.00000000000E+00 -0.45593999997E+02  0.45594000000E+02  0.51100000000E-03 0.  1.
    9900012    2    1    2    0    0  0.33545857137E+02 -0.97236729283E+01  0.20815643293E+02  0.50528863856E+02  0.30000012177E+02 0.  0.
        -12    1    1    2    0    0 -0.33545857137E+02  0.97236729283E+01 -0.20815643293E+02  0.40659136144E+02  0.00000000000E+00 0.  1.
         11    1    3    3    0    0  0.16668997261E+02 -0.10476521434E+02  0.35269293768E+01  0.20001305011E+02  0.51100000000E-03 0. -1.
        -11    1    3    3    0    0  0.59355176521E+00 -0.29728879110E+01 -0.29878933031E+01  0.42565094715E+01  0.51100000000E-03 0.  1.
        -12    1    3    3    0    0  0.16283308111E+02  0.37257364172E+01  0.20276607219E+02  0.26271049374E+02  0.00000000000E+00 0.  1.
</event>
<event>
 7    1  0.5935282E-013  0.5052884E+02  0.7816164E-02  0.1300439E+00
        -11   -1    0    0    0    0  0.00000000000E+00  0.00000000000E+00  0.45593999997E+02  0.45594000000E+02  0.51100000000E-03 0.  1.
         11   -1    0    0    0    0 -0.00000000000E+00 -0.00000000000E+00 -0.45593999997E+02  0.45594000000E+02  0.51100000000E-03 0. -1.
    9900012    2    1    2    0    0  0.45324192688E+01 -0.19071315300E+02 -0.35621750193E+02  0.50528843854E+02  0.29999951379E+02 0.  0.
        -12    1    1    2    0    0 -0.45324192688E+01  0.19071315300E+02  0.35621750193E+02  0.40659156146E+02  0.00000000000E+00 0.  1.
         11    1    3    3    0    0 -0.58318278379E+01  0.23572957625E+01 -0.81827301648E+01  0.10321052875E+02  0.51100000000E-03 0. -1.
        -11    1    3    3    0    0 -0.47708988943E+01 -0.36209623859E+01 -0.48828296491E+01  0.77275397445E+01  0.51100000000E-03 0.  1.
         12    1    3    3    0    0  0.15135146001E+02 -0.17807648676E+02 -0.22556190379E+02  0.32480251234E+02  0.00000000000E+00 0. -1.
</event>
<event>
 7    1  0.5935282E-013  0.5052886E+02  0.7816164E-02  0.1300439E+00
        -11   -1    0    0    0    0  0.00000000000E+00  0.00000000000E+00  0.45593999997E+02  0.45594000000E+02  0.51100000000E-03 0. -1.
         11   -1    0    0    0    0 -0.00000000000E+00 -0.00000000000E+00 -0.45593999997E+02  0.45594000000E+02  0.51100000000E-03 0.  1.
    9900012    2    1    2    0    0  0.18560681071E+02  0.22501790302E+02  0.28325536691E+02  0.50528862313E+02  0.30000007485E+02 0.  0.
        -12    1    1    2    0    0 -0.18560681071E+02 -0.22501790302E+02 -0.28325536691E+02  0.40659137687E+02  0.00000000000E+00 0.  1.
         11    1    3    3    0    0  0.12199205199E+02  0.24709624361E+02  0.11187363998E+02  0.29741271946E+02  0.51100000000E-03 0. -1.
        -11    1    3    3    0    0 -0.93431904651E+00  0.24488141164E+01  0.18121683304E+01  0.31864709282E+01  0.51100000000E-03 0.  1.
        -12    1    3    3    0    0  0.72957949190E+01 -0.46566481745E+01  0.15326004363E+02  0.17601119438E+02  0.00000000000E+00 0.  1.
</event>
<event>
 7    1  0.5935282E-013  0.5052886E+02  0.7816164E-02  0.1300439E+00
        -11   -1    0    0    0    0  0.00000000000E+00  0.00000000000E+00  0.45593999997E+02  0.45594000000E+02  0.51100000000E-03 0.  1.
         11   -1    0    0    0    0 -0.00000000000E+00 -0.00000000000E+00 -0.45593999997E+02  0.45594000000E+02  0.51100000000E-03 0. -1.
    9900012    2    1    2    0    0 -0.31455786736E+02  0.11648928829E+02 -0.22978292159E+02  0.50528856224E+02  0.29999988979E+02 0.  0.
        -12    1    1    2    0    0  0.31455786736E+02 -0.11648928829E+02  0.22978292159E+02  0.40659143776E+02  0.00000000000E+00 0.  1.
         11    1    3    3    0    0 -0.14152087698E+02  0.54813463200E+01 -0.84778980290E+01  0.17383943711E+02  0.51100000000E-03 0. -1.
        -11    1    3    3    0    0 -0.27753032615E+01  0.13312628003E+02 -0.71545651690E+01  0.15366072223E+02  0.51100000000E-03 0.  1.
         12    1    3    3    0    0 -0.14528395777E+02 -0.71450454937E+01 -0.73458289606E+01  0.17778840290E+02  0.00000000000E+00 0. -1.
</event>
<event>
 7    1  0.5935282E-013  0.5052889E+02  0.7816164E-02  0.1300439E+00
        -11   -1    0    0    0    0  0.00000000000E+00  0.00000000000E+00  0.45593999997E+02  0.45594000000E+02  0.51100000000E-03 0. -1.
         11   -1    0    0    0    0 -0.00000000000E+00 -0.00000000000E+00 -0.45593999997E+02  0.45594000000E+02  0.51100000000E-03 0.  1.
    9900012    2    1    2    0    0  0.23247443305E+02  0.32899841575E+02  0.55063781292E+01  0.50528887910E+02  0.30000085290E+02 0.  0.
        -12    1    1    2    0    0 -0.23247443305E+02 -0.32899841575E+02 -0.55063781292E+01  0.40659112090E+02  0.00000000000E+00 0.  1.
         11    1    3    3    0    0  0.15192372643E+02  0.34678664846E+02 -0.83370299451E+00  0.37869685013E+02  0.51100000000E-03 0. -1.
        -11    1    3    3    0    0 -0.11197359356E+01  0.25649815163E+00 -0.25682268479E+00  0.11770972857E+01  0.51100000000E-03 0.  1.
        -12    1    3    3    0    0  0.91748065979E+01 -0.20353214232E+01  0.65969038085E+01  0.11482105611E+02  0.00000000000E+00 0.  1.
</event>
<event>
 7    1  0.5935282E-013  0.5052887E+02  0.7816164E-02  0.1300439E+00
        -11   -1    0    0    0    0  0.00000000000E+00  0.00000000000E+00  0.45593999997E+02  0.45594000000E+02  0.51100000000E-03 0. -1.
         11   -1    0    0    0    0 -0.00000000000E+00 -0.00000000000E+00 -0.45593999997E+02  0.45594000000E+02  0.51100000000E-03 0.  1.
    9900012    2    1    2    0    0 -0.10975074321E+02  0.11228447139E+02  0.37505130650E+02  0.50528866873E+02  0.30000021348E+02 0.  0.
        -12    1    1    2    0    0  0.10975074321E+02 -0.11228447139E+02 -0.37505130650E+02  0.40659133127E+02  0.00000000000E+00 0.  1.
         11    1    3    3    0    0 -0.94194063856E+01 -0.57545119735E+00  0.72981194640E+01  0.11929748896E+02  0.51100000000E-03 0. -1.
        -11    1    3    3    0    0 -0.97486452745E+01  0.21829354420E+01  0.19995411919E+02  0.22352131663E+02  0.51100000000E-03 0.  1.
        -12    1    3    3    0    0  0.81929773387E+01  0.96209628948E+01  0.10211599267E+02  0.16246986314E+02  0.00000000000E+00 0.  1.
</event>
<event>
 7    1  0.5935282E-013  0.5052885E+02  0.7816164E-02  0.1300439E+00
        -11   -1    0    0    0    0  0.00000000000E+00  0.00000000000E+00  0.45593999997E+02  0.45594000000E+02  0.51100000000E-03 0.  1.
         11   -1    0    0    0    0 -0.00000000000E+00 -0.00000000000E+00 -0.45593999997E+02  0.45594000000E+02  0.51100000000E-03 0. -1.
    9900012    2    1    2    0    0  0.28871691421E+02 -0.20387489430E+02 -0.20098309061E+02  0.50528851978E+02  0.29999976073E+02 0.  0.
        -12    1    1    2    0    0 -0.28871691421E+02  0.20387489430E+02  0.20098309061E+02  0.40659148022E+02  0.00000000000E+00 0.  1.
         11    1    3    3    0    0  0.19854108959E+02 -0.14451218305E+02 -0.35929944037E+01  0.24817996738E+02  0.51100000000E-03 0. -1.
        -11    1    3    3    0    0  0.28253081854E+01 -0.19241433381E+01  0.31920131863E+01  0.46769265946E+01  0.51100000000E-03 0.  1.
        -12    1    3    3    0    0  0.61922742762E+01 -0.40121277870E+01 -0.19697327843E+02  0.21033928645E+02  0.00000000000E+00 0.  1.
</event>
<event>
 7    1  0.5935282E-013  0.5052886E+02  0.7816164E-02  0.1300439E+00
        -11   -1    0    0    0    0  0.00000000000E+00  0.00000000000E+00  0.45593999997E+02  0.45594000000E+02  0.51100000000E-03 0.  1.
         11   -1    0    0    0    0 -0.00000000000E+00 -0.00000000000E+00 -0.45593999997E+02  0.45594000000E+02  0.51100000000E-03 0. -1.
    9900012    2    1    2    0    0 -0.35520773080E+00  0.14834066000E+02 -0.37854855980E+02  0.50528858250E+02  0.29999995135E+02 0.  0.
        -12    1    1    2    0    0  0.35520773080E+00 -0.14834066000E+02  0.37854855980E+02  0.40659141750E+02  0.00000000000E+00 0.  1.
         11    1    3    3    0    0 -0.21299495809E+00  0.11919167506E+01 -0.65052886583E+01  0.66170093836E+01  0.51100000000E-03 0. -1.
        -11    1    3    3    0    0 -0.12855777403E+02  0.51524527797E+01 -0.21985805669E+02  0.25984503718E+02  0.51100000000E-03 0.  1.
        -12    1    3    3    0    0  0.12713564631E+02  0.84896964701E+01 -0.93637616522E+01  0.17927345148E+02  0.00000000000E+00 0.  1.
</event>
<event>
 7    1  0.5935282E-013  0.5052886E+02  0.7816164E-02  0.1300439E+00
        -11   -1    0    0    0    0  0.00000000000E+00  0.00000000000E+00  0.45593999997E+02  0.45594000000E+02  0.51100000000E-03 0.  1.
         11   -1    0    0    0    0 -0.00000000000E+00 -0.00000000000E+00 -0.45593999997E+02  0.45594000000E+02  0.51100000000E-03 0. -1.
    9900012    2    1    2    0    0 -0.32721510172E+02 -0.23523774373E+02 -0.53944590386E+01  0.50528863548E+02  0.30000011240E+02 0.  0.
        -12    1    1    2    0    0  0.32721510172E+02  0.23523774373E+02  0.53944590386E+01  0.40659136452E+02  0.00000000000E+00 0.  1.
         11    1    3    3    0    0 -0.15298900028E+02 -0.18221897855E+02 -0.44016874827E+01  0.24196461652E+02  0.51100000000E-03 0. -1.
        -11    1    3    3    0    0 -0.15044674439E+02 -0.34012772707E+01 -0.89359466227E+01  0.17825881699E+02  0.51100000000E-03 0.  1.
        -12    1    3    3    0    0 -0.23779357050E+01 -0.19005992477E+01  0.79431750667E+01  0.85065201968E+01  0.00000000000E+00 0.  1.
</event>
<event>
 7    1  0.5935282E-013  0.5052885E+02  0.7816164E-02  0.1300439E+00
        -11   -1    0    0    0    0  0.00000000000E+00  0.00000000000E+00  0.45593999997E+02  0.45594000000E+02  0.51100000000E-03 0.  1.
         11   -1    0    0    0    0 -0.00000000000E+00 -0.00000000000E+00 -0.45593999997E+02  0.45594000000E+02  0.51100000000E-03 0. -1.
    9900012    2    1    2    0    0  0.33378962883E+02 -0.23210996517E+02 -0.51076485612E+00  0.50528850929E+02  0.29999972883E+02 0.  0.
        -12    1    1    2    0    0 -0.33378962883E+02  0.23210996517E+02  0.51076485612E+00  0.40659149071E+02  0.00000000000E+00 0.  1.
         11    1    3    3    0    0  0.20961008337E+02  0.39510553392E-01  0.47260916170E+01  0.21487237464E+02  0.51100000000E-03 0. -1.
        -11    1    3    3    0    0  0.12776434241E+01 -0.10723156013E+01  0.25347828289E+01  0.30343628192E+01  0.51100000000E-03 0.  1.
         12    1    3    3    0    0  0.11140311122E+02 -0.22178191469E+02 -0.77716393020E+01  0.26007250646E+02  0.00000000000E+00 0. -1.
</event>
<event>
 7    1  0.5935282E-013  0.5052888E+02  0.7816164E-02  0.1300439E+00
        -11   -1    0    0    0    0  0.00000000000E+00  0.00000000000E+00  0.45593999997E+02  0.45594000000E+02  0.51100000000E-03 0.  1.
         11   -1    0    0    0    0 -0.00000000000E+00 -0.00000000000E+00 -0.45593999997E+02  0.45594000000E+02  0.51100000000E-03 0. -1.
    9900012    2    1    2    0    0  0.35535512177E+02 -0.16493711299E+02 -0.10878829656E+02  0.50528879587E+02  0.30000059993E+02 0.  0.
        -12    1    1    2    0    0 -0.35535512177E+02  0.16493711299E+02  0.10878829656E+02  0.40659120413E+02  0.00000000000E+00 0.  1.
         11    1    3    3    0    0  0.10141161697E+02  0.14376528182E+01  0.52918846633E+01  0.11528835576E+02  0.51100000000E-03 0. -1.
        -11    1    3    3    0    0 -0.64150789420E+00 -0.65314120258E+01 -0.57570909422E+01  0.87301186594E+01  0.51100000000E-03 0.  1.
        -12    1    3    3    0    0  0.26035858374E+02 -0.11399952092E+02 -0.10413623377E+02  0.30269925352E+02  0.00000000000E+00 0.  1.
</event>
<event>
 7    1  0.5935282E-013  0.5052887E+02  0.7816164E-02  0.1300439E+00
        -11   -1    0    0    0    0  0.00000000000E+00  0.00000000000E+00  0.45593999997E+02  0.45594000000E+02  0.51100000000E-03 0. -1.
         11   -1    0    0    0    0 -0.00000000000E+00 -0.00000000000E+00 -0.45593999997E+02  0.45594000000E+02  0.51100000000E-03 0.  1.
    9900012    2    1    2    0    0 -0.51637576571E+01 -0.50232050595E+01  0.40015848142E+02  0.50528867143E+02  0.30000022167E+02 0.  0.
        -12    1    1    2    0    0  0.51637576571E+01  0.50232050595E+01 -0.40015848142E+02  0.40659132857E+02  0.00000000000E+00 0.  1.
         11    1    3    3    0    0 -0.39554577036E+01 -0.81805367724E+01  0.14879516071E+02  0.17434644427E+02  0.51100000000E-03 0. -1.
        -11    1    3    3    0    0  0.93983604564E+01 -0.21368140537E+01  0.12198695994E+02  0.15546811178E+02  0.51100000000E-03 0.  1.
        -12    1    3    3    0    0 -0.10606660410E+02  0.52941457666E+01  0.12937636076E+02  0.17547411538E+02  0.00000000000E+00 0.  1.
</event>
<event>
 7    1  0.5935282E-013  0.5052885E+02  0.7816164E-02  0.1300439E+00
        -11   -1    0    0    0    0  0.00000000000E+00  0.00000000000E+00  0.45593999997E+02  0.45594000000E+02  0.51100000000E-03 0.  1.
         11   -1    0    0    0    0 -0.00000000000E+00 -0.00000000000E+00 -0.45593999997E+02  0.45594000000E+02  0.51100000000E-03 0. -1.
    9900012    2    1    2    0    0 -0.21323136453E+02 -0.21310946898E+02 -0.27282479993E+02  0.50528851946E+02  0.29999975976E+02 0.  0.
        -12    1    1    2    0    0  0.21323136453E+02  0.21310946898E+02  0.27282479993E+02  0.40659148054E+02  0.00000000000E+00 0.  1.
         11    1    3    3    0    0 -0.12113640856E+02 -0.12807712590E+02 -0.17026506055E+02  0.24508767927E+02  0.51100000000E-03 0. -1.
        -11    1    3    3    0    0 -0.84403891588E+00 -0.66084550051E+01 -0.14860084656E+02  0.16285152608E+02  0.51100000000E-03 0.  1.
        -12    1    3    3    0    0 -0.83654566810E+01 -0.18947793031E+01  0.46041107177E+01  0.97349314116E+01  0.00000000000E+00 0.  1.
</event>
<event>
 7    1  0.5935282E-013  0.5052887E+02  0.7816164E-02  0.1300439E+00
        -11   -1    0    0    0    0  0.00000000000E+00  0.00000000000E+00  0.45593999997E+02  0.45594000000E+02  0.51100000000E-03 0.  1.
         11   -1    0    0    0    0 -0.00000000000E+00 -0.00000000000E+00 -0.45593999997E+02  0.45594000000E+02  0.51100000000E-03 0. -1.
    9900012    2    1    2    0    0 -0.30960616669E+02  0.64517248788E+00 -0.26347470787E+02  0.50528865124E+02  0.30000016030E+02 0.  0.
        -12    1    1    2    0    0  0.30960616669E+02 -0.64517248788E+00  0.26347470787E+02  0.40659134876E+02  0.00000000000E+00 0.  1.
         11    1    3    3    0    0 -0.15285053818E+02  0.11202571807E+02 -0.32500749362E+01  0.19227414612E+02  0.51100000000E-03 0. -1.
        -11    1    3    3    0    0 -0.59331680925E+01 -0.46852381141E+00 -0.26705716597E+01  0.65233389784E+01  0.51100000000E-03 0.  1.
        -12    1    3    3    0    0 -0.97423947580E+01 -0.10088875508E+02 -0.20426824191E+02  0.24778111533E+02  0.00000000000E+00 0.  1.
</event>
<event>
 7    1  0.5935282E-013  0.5052887E+02  0.7816164E-02  0.1300439E+00
        -11   -1    0    0    0    0  0.00000000000E+00  0.00000000000E+00  0.45593999997E+02  0.45594000000E+02  0.51100000000E-03 0. -1.
         11   -1    0    0    0    0 -0.00000000000E+00 -0.00000000000E+00 -0.45593999997E+02  0.45594000000E+02  0.51100000000E-03 0.  1.
    9900012    2    1    2    0    0 -0.15655947030E+02  0.30536912074E+02  0.21807179261E+02  0.50528871336E+02  0.30000034913E+02 0.  0.
        -12    1    1    2    0    0  0.15655947030E+02 -0.30536912074E+02 -0.21807179261E+02  0.40659128664E+02  0.00000000000E+00 0.  1.
         11    1    3    3    0    0  0.32806903031E+00  0.21144542162E+02  0.22333073696E+02  0.30756551717E+02  0.51100000000E-03 0. -1.
        -11    1    3    3    0    0 -0.33591283534E+01  0.34955553998E+01  0.25865437105E+01  0.54948029515E+01  0.51100000000E-03 0.  1.
        -12    1    3    3    0    0 -0.12624887706E+02  0.58968145121E+01 -0.31124381458E+01  0.14277516668E+02  0.00000000000E+00 0.  1.
</event>
<event>
 7    1  0.5935282E-013  0.5052886E+02  0.7816164E-02  0.1300439E+00
        -11   -1    0    0    0    0  0.00000000000E+00  0.00000000000E+00  0.45593999997E+02  0.45594000000E+02  0.51100000000E-03 0.  1.
         11   -1    0    0    0    0 -0.00000000000E+00 -0.00000000000E+00 -0.45593999997E+02  0.45594000000E+02  0.51100000000E-03 0. -1.
    9900012    2    1    2    0    0  0.19083565824E+02  0.16334576996E+02 -0.31971309710E+02  0.50528861608E+02  0.30000005345E+02 0.  0.
        -12    1    1    2    0    0 -0.19083565824E+02 -0.16334576996E+02  0.31971309710E+02  0.40659138392E+02  0.00000000000E+00 0.  1.
         11    1    3    3    0    0  0.63404837670E+01  0.92236560841E+00 -0.22460467320E+01  0.67894932726E+01  0.51100000000E-03 0. -1.
        -11    1    3    3    0    0  0.14736523989E+02 -0.13719944430E+01 -0.17266916145E+02  0.22741897491E+02  0.51100000000E-03 0.  1.
         12    1    3    3    0    0 -0.19934419323E+01  0.16784205830E+02 -0.12458346832E+02  0.20997470845E+02  0.00000000000E+00 0. -1.
</event>
<event>
 7    1  0.5935282E-013  0.5052885E+02  0.7816164E-02  0.1300439E+00
        -11   -1    0    0    0    0  0.00000000000E+00  0.00000000000E+00  0.45593999997E+02  0.45594000000E+02  0.51100000000E-03 0.  1.
         11   -1    0    0    0    0 -0.00000000000E+00 -0.00000000000E+00 -0.45593999997E+02  0.45594000000E+02  0.51100000000E-03 0. -1.
    9900012    2    1    2    0    0  0.21466799984E+02 -0.20229413005E+02 -0.27984173996E+02  0.50528847939E+02  0.29999963796E+02 0.  0.
        -12    1    1    2    0    0 -0.21466799984E+02  0.20229413005E+02  0.27984173996E+02  0.40659152061E+02  0.00000000000E+00 0.  1.
         11    1    3    3    0    0  0.52794905788E+01  0.22581944057E+01  0.28128919408E+01  0.63941241837E+01  0.51100000000E-03 0. -1.
        -11    1    3    3    0    0  0.97648934532E+01 -0.21455890417E+01 -0.71728949754E+01  0.12304760017E+02  0.51100000000E-03 0.  1.
         12    1    3    3    0    0  0.64224159520E+01 -0.20342018369E+02 -0.23624170961E+02  0.31829963738E+02  0.00000000000E+00 0. -1.
</event>
<event>
 7    1  0.5935282E-013  0.5052882E+02  0.7816164E-02  0.1300439E+00
        -11   -1    0    0    0    0  0.00000000000E+00  0.00000000000E+00  0.45593999997E+02  0.45594000000E+02  0.51100000000E-03 0. -1.
         11   -1    0    0    0    0 -0.00000000000E+00 -0.00000000000E+00 -0.45593999997E+02  0.45594000000E+02  0.51100000000E-03 0.  1.
    9900012    2    1    2    0    0  0.21685542774E+02 -0.33194163294E+02  0.90029704803E+01  0.50528822443E+02  0.29999886297E+02 0.  0.
        -12    1    1    2    0    0 -0.21685542774E+02  0.33194163294E+02 -0.90029704803E+01  0.40659177557E+02  0.00000000000E+00 0.  1.
         11    1    3    3    0    0  0.31736442014E+01  0.57920839128E-01  0.23835667086E+01  0.39694789149E+01  0.51100000000E-03 0. -1.
        -11    1    3    3    0    0  0.16345793965E+02 -0.11651081516E+02 -0.66138025915E+01  0.21134688686E+02  0.51100000000E-03 0.  1.
        -12    1    3    3    0    0  0.21661046070E+01 -0.21601002616E+02  0.13233206363E+02  0.25424654842E+02  0.00000000000E+00 0.  1.
</event>
<event>
 7    1  0.5935282E-013  0.5052886E+02  0.7816164E-02  0.1300439E+00
        -11   -1    0    0    0    0  0.00000000000E+00  0.00000000000E+00  0.45593999997E+02  0.45594000000E+02  0.51100000000E-03 0. -1.
         11   -1    0    0    0    0 -0.00000000000E+00 -0.00000000000E+00 -0.45593999997E+02  0.45594000000E+02  0.51100000000E-03 0.  1.
    9900012    2    1    2    0    0  0.11972269943E+02 -0.36083532392E+02  0.14415581309E+02  0.50528861520E+02  0.30000005076E+02 0.  0.
        -12    1    1    2    0    0 -0.11972269943E+02  0.36083532392E+02 -0.14415581309E+02  0.40659138480E+02  0.00000000000E+00 0.  1.
         11    1    3    3    0    0  0.75854113682E+00 -0.86014148165E+01 -0.23384567260E+01  0.89458427005E+01  0.51100000000E-03 0.  1.
        -11    1    3    3    0    0 -0.19055897094E+01 -0.24063356436E+02  0.13433291188E+02  0.27624802398E+02  0.51100000000E-03 0. -1.
        -12    1    3    3    0    0  0.13119318516E+02 -0.34187611390E+01  0.33207468470E+01  0.13958216421E+02  0.00000000000E+00 0.  1.
</event>
<event>
 7    1  0.5935282E-013  0.5052886E+02  0.7816164E-02  0.1300439E+00
        -11   -1    0    0    0    0  0.00000000000E+00  0.00000000000E+00  0.45593999997E+02  0.45594000000E+02  0.51100000000E-03 0.  1.
         11   -1    0    0    0    0 -0.00000000000E+00 -0.00000000000E+00 -0.45593999997E+02  0.45594000000E+02  0.51100000000E-03 0. -1.
    9900012    2    1    2    0    0 -0.20985872917E+02  0.13311393917E+02 -0.32180205945E+02  0.50528859272E+02  0.29999998243E+02 0.  0.
        -12    1    1    2    0    0  0.20985872917E+02 -0.13311393917E+02  0.32180205945E+02  0.40659140728E+02  0.00000000000E+00 0.  1.
         11    1    3    3    0    0 -0.16851041936E+01  0.89991475224E+01  0.14888255497E+01  0.92758198588E+01  0.51100000000E-03 0.  1.
        -11    1    3    3    0    0 -0.68871471762E+01  0.47365785226E+01 -0.43748234471E+01  0.94343549213E+01  0.51100000000E-03 0. -1.
         12    1    3    3    0    0 -0.12413621547E+02 -0.42433212820E+00 -0.29294208048E+02  0.31818684492E+02  0.00000000000E+00 0. -1.
</event>
<event>
 7    1  0.5935282E-013  0.5052886E+02  0.7816164E-02  0.1300439E+00
        -11   -1    0    0    0    0  0.00000000000E+00  0.00000000000E+00  0.45593999997E+02  0.45594000000E+02  0.51100000000E-03 0.  1.
         11   -1    0    0    0    0 -0.00000000000E+00 -0.00000000000E+00 -0.45593999997E+02  0.45594000000E+02  0.51100000000E-03 0. -1.
    9900012    2    1    2    0    0 -0.18714456570E+02  0.10806407310E+02 -0.34440619519E+02  0.50528860849E+02  0.30000003036E+02 0.  0.
        -12    1    1    2    0    0  0.18714456570E+02 -0.10806407310E+02  0.34440619519E+02  0.40659139151E+02  0.00000000000E+00 0.  1.
         11    1    3    3    0    0 -0.11690686464E+02 -0.50740744371E+00 -0.17868314237E+02  0.21358985609E+02  0.51100000000E-03 0. -1.
        -11    1    3    3    0    0 -0.14021832283E+02  0.70195626423E+01 -0.12199881975E+02  0.19867641046E+02  0.51100000000E-03 0.  1.
         12    1    3    3    0    0  0.69980621766E+01  0.42942521119E+01 -0.43724233065E+01  0.93022341940E+01  0.00000000000E+00 0. -1.
</event>
<event>
 7    1  0.5935282E-013  0.5052886E+02  0.7816164E-02  0.1300439E+00
        -11   -1    0    0    0    0  0.00000000000E+00  0.00000000000E+00  0.45593999997E+02  0.45594000000E+02  0.51100000000E-03 0.  1.
         11   -1    0    0    0    0 -0.00000000000E+00 -0.00000000000E+00 -0.45593999997E+02  0.45594000000E+02  0.51100000000E-03 0. -1.
    9900012    2    1    2    0    0 -0.21144369696E+02  0.34081674862E+02 -0.66723943517E+01  0.50528858622E+02  0.29999996267E+02 0.  0.
        -12    1    1    2    0    0  0.21144369696E+02 -0.34081674862E+02  0.66723943517E+01  0.40659141378E+02  0.00000000000E+00 0.  1.
         11    1    3    3    0    0 -0.24569654949E+01  0.78576404557E+01 -0.19286646083E+01  0.84557046074E+01  0.51100000000E-03 0. -1.
        -11    1    3    3    0    0 -0.19378744203E+02  0.31022640952E+02 -0.23159716630E+01  0.36651107807E+02  0.51100000000E-03 0.  1.
         12    1    3    3    0    0  0.69134000229E+00 -0.47986065455E+01 -0.24277580804E+01  0.54220462073E+01  0.00000000000E+00 0. -1.
</event>
<event>
 7    1  0.5935282E-013  0.5052887E+02  0.7816164E-02  0.1300439E+00
        -11   -1    0    0    0    0  0.00000000000E+00  0.00000000000E+00  0.45593999997E+02  0.45594000000E+02  0.51100000000E-03 0.  1.
         11   -1    0    0    0    0 -0.00000000000E+00 -0.00000000000E+00 -0.45593999997E+02  0.45594000000E+02  0.51100000000E-03 0. -1.
    9900012    2    1    2    0    0  0.25751127302E+02 -0.10017406176E+02 -0.29827765719E+02  0.50528873207E+02  0.30000040600E+02 0.  0.
        -12    1    1    2    0    0 -0.25751127302E+02  0.10017406176E+02  0.29827765719E+02  0.40659126793E+02  0.00000000000E+00 0.  1.
         11    1    3    3    0    0 -0.27643321334E+01 -0.22451676846E+01 -0.14089911268E+00  0.35640093851E+01  0.51100000000E-03 0. -1.
        -11    1    3    3    0    0  0.12216983814E+01  0.51213976427E+01 -0.88080570789E+01  0.10261731361E+02  0.51100000000E-03 0.  1.
         12    1    3    3    0    0  0.27293761053E+02 -0.12893636134E+02 -0.20878809527E+02  0.36703132461E+02  0.00000000000E+00 0. -1.
</event>
<event>
 7    1  0.5935282E-013  0.5052886E+02  0.7816164E-02  0.1300439E+00
        -11   -1    0    0    0    0  0.00000000000E+00  0.00000000000E+00  0.45593999997E+02  0.45594000000E+02  0.51100000000E-03 0.  1.
         11   -1    0    0    0    0 -0.00000000000E+00 -0.00000000000E+00 -0.45593999997E+02  0.45594000000E+02  0.51100000000E-03 0. -1.
    9900012    2    1    2    0    0  0.14259851309E+02 -0.35598727672E+02  0.13511212227E+02  0.50528860473E+02  0.30000001895E+02 0.  0.
        -12    1    1    2    0    0 -0.14259851309E+02  0.35598727672E+02 -0.13511212227E+02  0.40659139527E+02  0.00000000000E+00 0.  1.
         11    1    3    3    0    0 -0.49021601505E+01 -0.13161830005E+02  0.15413682824E+01  0.14129428851E+02  0.51100000000E-03 0. -1.
        -11    1    3    3    0    0 -0.33142624600E+01 -0.17961438008E+01  0.51642927746E+00  0.38048873395E+01  0.51100000000E-03 0.  1.
        -12    1    3    3    0    0  0.22476273919E+02 -0.20640753866E+02  0.11453414667E+02  0.32594544283E+02  0.00000000000E+00 0.  1.
</event>
<event>
 7    1  0.5935282E-013  0.5052886E+02  0.7816164E-02  0.1300439E+00
        -11   -1    0    0    0    0  0.00000000000E+00  0.00000000000E+00  0.45593999997E+02  0.45594000000E+02  0.51100000000E-03 0.  1.
         11   -1    0    0    0    0 -0.00000000000E+00 -0.00000000000E+00 -0.45593999997E+02  0.45594000000E+02  0.51100000000E-03 0. -1.
    9900012    2    1    2    0    0 -0.28655461060E+02 -0.28668064912E+02  0.31894347880E+01  0.50528857256E+02  0.29999992116E+02 0.  0.
        -12    1    1    2    0    0  0.28655461060E+02  0.28668064912E+02 -0.31894347880E+01  0.40659142744E+02  0.00000000000E+00 0.  1.
         11    1    3    3    0    0 -0.24789600409E+02 -0.83021627786E+01  0.21527108542E+01  0.26231362136E+02  0.51100000000E-03 0. -1.
        -11    1    3    3    0    0 -0.74137490707E+01 -0.64544794593E+01  0.14426217258E+01  0.99350459526E+01  0.51100000000E-03 0.  1.
        -12    1    3    3    0    0  0.35478884194E+01 -0.13911422674E+02 -0.40589779202E+00  0.14362449167E+02  0.00000000000E+00 0.  1.
</event>
<event>
 7    1  0.5935282E-013  0.5052885E+02  0.7816164E-02  0.1300439E+00
        -11   -1    0    0    0    0  0.00000000000E+00  0.00000000000E+00  0.45593999997E+02  0.45594000000E+02  0.51100000000E-03 0.  1.
         11   -1    0    0    0    0 -0.00000000000E+00 -0.00000000000E+00 -0.45593999997E+02  0.45594000000E+02  0.51100000000E-03 0. -1.
    9900012    2    1    2    0    0 -0.33070716623E+02  0.18950667159E+02 -0.14155071455E+02  0.50528854268E+02  0.29999983034E+02 0.  0.
        -12    1    1    2    0    0  0.33070716623E+02 -0.18950667159E+02  0.14155071455E+02  0.40659145732E+02  0.00000000000E+00 0.  1.
         11    1    3    3    0    0 -0.19406341978E+02 -0.10912332949E+01 -0.20178963791E+01  0.19541463741E+02  0.51100000000E-03 0. -1.
        -11    1    3    3    0    0 -0.14502677461E+01 -0.22213783138E+01 -0.29881710872E+01  0.39958684733E+01  0.51100000000E-03 0.  1.
         12    1    3    3    0    0 -0.12214106898E+02  0.22263278768E+02 -0.91490039891E+01  0.26991522054E+02  0.00000000000E+00 0. -1.
</event>
<event>
 7    1  0.5935282E-013  0.5052886E+02  0.7816164E-02  0.1300439E+00
        -11   -1    0    0    0    0  0.00000000000E+00  0.00000000000E+00  0.45593999997E+02  0.45594000000E+02  0.51100000000E-03 0. -1.
         11   -1    0    0    0    0 -0.00000000000E+00 -0.00000000000E+00 -0.45593999997E+02  0.45594000000E+02  0.51100000000E-03 0.  1.
    9900012    2    1    2    0    0 -0.14585305091E+02 -0.19838701234E+02  0.32355224223E+02  0.50528859259E+02  0.29999998204E+02 0.  0.
        -12    1    1    2    0    0  0.14585305091E+02  0.19838701234E+02 -0.32355224223E+02  0.40659140741E+02  0.00000000000E+00 0.  1.
         11    1    3    3    0    0 -0.39703280886E+01 -0.86415952538E+01  0.40852946879E+01  0.10350377124E+02  0.51100000000E-03 0. -1.
        -11    1    3    3    0    0 -0.11637768328E+02  0.31965127402E+01  0.55977341829E+01  0.13303757875E+02  0.51100000000E-03 0.  1.
         12    1    3    3    0    0  0.10227913249E+01 -0.14393618720E+02  0.22672195353E+02  0.26874724260E+02  0.00000000000E+00 0. -1.
</event>
<event>
 7    1  0.5935282E-013  0.5052886E+02  0.7816164E-02  0.1300439E+00
        -11   -1    0    0    0    0  0.00000000000E+00  0.00000000000E+00  0.45593999997E+02  0.45594000000E+02  0.51100000000E-03 0.  1.
         11   -1    0    0    0    0 -0.00000000000E+00 -0.00000000000E+00 -0.45593999997E+02  0.45594000000E+02  0.51100000000E-03 0. -1.
    9900012    2    1    2    0    0 -0.52166726842E+01  0.75839145242E+01 -0.39603486686E+02  0.50528860916E+02  0.30000003239E+02 0.  0.
        -12    1    1    2    0    0  0.52166726842E+01 -0.75839145242E+01  0.39603486686E+02  0.40659139084E+02  0.00000000000E+00 0.  1.
         11    1    3    3    0    0 -0.52541334036E+00  0.13052683972E+01 -0.14951149817E+01  0.20530839819E+01  0.51100000000E-03 0. -1.
        -11    1    3    3    0    0 -0.68330596120E+01 -0.42860415884E+01  0.79637772616E+00  0.81052497742E+01  0.51100000000E-03 0.  1.
         12    1    3    3    0    0  0.21418002681E+01  0.10564687715E+02 -0.38904749430E+02  0.40370527160E+02  0.00000000000E+00 0. -1.
</event>
<event>
 7    1  0.5935282E-013  0.5052887E+02  0.7816164E-02  0.1300439E+00
        -11   -1    0    0    0    0  0.00000000000E+00  0.00000000000E+00  0.45593999997E+02  0.45594000000E+02  0.51100000000E-03 0.  1.
         11   -1    0    0    0    0 -0.00000000000E+00 -0.00000000000E+00 -0.45593999997E+02  0.45594000000E+02  0.51100000000E-03 0. -1.
    9900012    2    1    2    0    0  0.30627686512E+02  0.12904434961E+02 -0.23421903633E+02  0.50528865817E+02  0.30000018136E+02 0.  0.
        -12    1    1    2    0    0 -0.30627686512E+02 -0.12904434961E+02  0.23421903633E+02  0.40659134183E+02  0.00000000000E+00 0.  1.
         11    1    3    3    0    0  0.21111067652E+02 -0.15897598738E+01 -0.17997141329E+02  0.27786716433E+02  0.51100000000E-03 0. -1.
        -11    1    3    3    0    0  0.65572763416E+01  0.89722308243E+01 -0.10027396981E+02  0.14968215975E+02  0.51100000000E-03 0.  1.
        -12    1    3    3    0    0  0.29593425190E+01  0.55219640104E+01  0.46026346774E+01  0.77739334092E+01  0.00000000000E+00 0.  1.
</event>
<event>
 7    1  0.5935282E-013  0.5052886E+02  0.7816164E-02  0.1300439E+00
        -11   -1    0    0    0    0  0.00000000000E+00  0.00000000000E+00  0.45593999997E+02  0.45594000000E+02  0.51100000000E-03 0.  1.
         11   -1    0    0    0    0 -0.00000000000E+00 -0.00000000000E+00 -0.45593999997E+02  0.45594000000E+02  0.51100000000E-03 0. -1.
    9900012    2    1    2    0    0 -0.38677189316E+02 -0.10139388581E+02 -0.73778924009E+01  0.50528862399E+02  0.30000007747E+02 0.  0.
        -12    1    1    2    0    0  0.38677189316E+02  0.10139388581E+02  0.73778924009E+01  0.40659137601E+02  0.00000000000E+00 0.  1.
         11    1    3    3    0    0 -0.54133209510E+00 -0.31578296469E+01 -0.20984880221E+01  0.38299583231E+01  0.51100000000E-03 0.  1.
        -11    1    3    3    0    0 -0.37561929475E+02  0.15606571909E+01 -0.24183960927E+01  0.37672043171E+02  0.51100000000E-03 0. -1.
         12    1    3    3    0    0 -0.57392774608E+00 -0.85422161246E+01 -0.28610082860E+01  0.90268609045E+01  0.00000000000E+00 0. -1.
</event>
<event>
 7    1  0.5935282E-013  0.5052886E+02  0.7816164E-02  0.1300439E+00
        -11   -1    0    0    0    0  0.00000000000E+00  0.00000000000E+00  0.45593999997E+02  0.45594000000E+02  0.51100000000E-03 0. -1.
         11   -1    0    0    0    0 -0.00000000000E+00 -0.00000000000E+00 -0.45593999997E+02  0.45594000000E+02  0.51100000000E-03 0.  1.
    9900012    2    1    2    0    0 -0.14568184405E+02  0.40035597709E+01  0.37747919290E+02  0.50528857136E+02  0.29999991750E+02 0.  0.
        -12    1    1    2    0    0  0.14568184405E+02 -0.40035597709E+01 -0.37747919290E+02  0.40659142864E+02  0.00000000000E+00 0.  1.
         11    1    3    3    0    0 -0.48714332045E+01  0.68187637077E+01  0.11875761520E+01  0.84638488494E+01  0.51100000000E-03 0.  1.
        -11    1    3    3    0    0 -0.20987923915E+01  0.49068983033E+01  0.17633739925E+01  0.56206822148E+01  0.51100000000E-03 0. -1.
         12    1    3    3    0    0 -0.75979588095E+01 -0.77221022400E+01  0.34796969146E+02  0.36444326072E+02  0.00000000000E+00 0. -1.
</event>
<event>
 7    1  0.5935282E-013  0.5052883E+02  0.7816164E-02  0.1300439E+00
        -11   -1    0    0    0    0  0.00000000000E+00  0.00000000000E+00  0.45593999997E+02  0.45594000000E+02  0.51100000000E-03 0.  1.
         11   -1    0    0    0    0 -0.00000000000E+00 -0.00000000000E+00 -0.45593999997E+02  0.45594000000E+02  0.51100000000E-03 0. -1.
    9900012    2    1    2    0    0 -0.28352727850E+02  0.27559652785E+02  0.94739845445E+01  0.50528831030E+02  0.29999912399E+02 0.  0.
        -12    1    1    2    0    0  0.28352727850E+02 -0.27559652785E+02 -0.94739845445E+01  0.40659168970E+02  0.00000000000E+00 0.  1.
         11    1    3    3    0    0 -0.12303170091E+02  0.23952641174E+02  0.84398613623E+01  0.28219289034E+02  0.51100000000E-03 0. -1.
        -11    1    3    3    0    0 -0.16776433313E+02  0.27054714229E-01 -0.28059429343E+01  0.17009490371E+02  0.51100000000E-03 0.  1.
         12    1    3    3    0    0  0.72687555428E+00  0.35799568967E+01  0.38400661165E+01  0.53000516255E+01  0.00000000000E+00 0. -1.
</event>
<event>
 7    1  0.5935282E-013  0.5052885E+02  0.7816164E-02  0.1300439E+00
        -11   -1    0    0    0    0  0.00000000000E+00  0.00000000000E+00  0.45593999997E+02  0.45594000000E+02  0.51100000000E-03 0.  1.
         11   -1    0    0    0    0 -0.00000000000E+00 -0.00000000000E+00 -0.45593999997E+02  0.45594000000E+02  0.51100000000E-03 0. -1.
    9900012    2    1    2    0    0 -0.25558011531E+02  0.85948028753E+01 -0.30431631988E+02  0.50528845860E+02  0.29999957477E+02 0.  0.
        -12    1    1    2    0    0  0.25558011531E+02 -0.85948028753E+01  0.30431631988E+02  0.40659154140E+02  0.00000000000E+00 0.  1.
         11    1    3    3    0    0 -0.24033734445E+00  0.94968181914E+01 -0.31260250858E+01  0.10000967498E+02  0.51100000000E-03 0. -1.
        -11    1    3    3    0    0  0.34658326161E+00 -0.25522521152E+01  0.53109917374E+00  0.26298626219E+01  0.51100000000E-03 0.  1.
         12    1    3    3    0    0 -0.25664257449E+02  0.16502367991E+01 -0.27836706076E+02  0.37898015740E+02  0.00000000000E+00 0. -1.
</event>
<event>
 7    1  0.5935282E-013  0.5052886E+02  0.7816164E-02  0.1300439E+00
        -11   -1    0    0    0    0  0.00000000000E+00  0.00000000000E+00  0.45593999997E+02  0.45594000000E+02  0.51100000000E-03 0.  1.
         11   -1    0    0    0    0 -0.00000000000E+00 -0.00000000000E+00 -0.45593999997E+02  0.45594000000E+02  0.51100000000E-03 0. -1.
    9900012    2    1    2    0    0  0.10959223379E+02  0.24167007576E+02 -0.30806111901E+02  0.50528863724E+02  0.30000011775E+02 0.  0.
        -12    1    1    2    0    0 -0.10959223379E+02 -0.24167007576E+02  0.30806111901E+02  0.40659136276E+02  0.00000000000E+00 0.  1.
         11    1    3    3    0    0  0.48924069371E+01  0.11387502152E+02 -0.10353397822E+02  0.16149417873E+02  0.51100000000E-03 0. -1.
        -11    1    3    3    0    0  0.81951813941E+01  0.15135012972E+02 -0.40620493689E+01  0.17684169788E+02  0.51100000000E-03 0.  1.
        -12    1    3    3    0    0 -0.21283649522E+01 -0.23555075484E+01 -0.16390664711E+02  0.16695276063E+02  0.00000000000E+00 0.  1.
</event>
<event>
 7    1  0.5935282E-013  0.5052885E+02  0.7816164E-02  0.1300439E+00
        -11   -1    0    0    0    0  0.00000000000E+00  0.00000000000E+00  0.45593999997E+02  0.45594000000E+02  0.51100000000E-03 0. -1.
         11   -1    0    0    0    0 -0.00000000000E+00 -0.00000000000E+00 -0.45593999997E+02  0.45594000000E+02  0.51100000000E-03 0.  1.
    9900012    2    1    2    0    0  0.26730993363E+02  0.13698015346E+02  0.27404099954E+02  0.50528851892E+02  0.29999975810E+02 0.  0.
        -12    1    1    2    0    0 -0.26730993363E+02 -0.13698015346E+02 -0.27404099954E+02  0.40659148108E+02  0.00000000000E+00 0.  1.
         11    1    3    3    0    0  0.13127782957E+02  0.14563800421E+00  0.40293069690E+01  0.13732997149E+02  0.51100000000E-03 0. -1.
        -11    1    3    3    0    0  0.96236552958E+01  0.75739198912E+01 -0.10003296844E+00  0.12247000066E+02  0.51100000000E-03 0.  1.
         12    1    3    3    0    0  0.39795551110E+01  0.59784574501E+01  0.23474825953E+02  0.24548854676E+02  0.00000000000E+00 0. -1.
</event>
<event>
 7    1  0.5935282E-013  0.5052887E+02  0.7816164E-02  0.1300439E+00
        -11   -1    0    0    0    0  0.00000000000E+00  0.00000000000E+00  0.45593999997E+02  0.45594000000E+02  0.51100000000E-03 0.  1.
         11   -1    0    0    0    0 -0.00000000000E+00 -0.00000000000E+00 -0.45593999997E+02  0.45594000000E+02  0.51100000000E-03 0. -1.
    9900012    2    1    2    0    0  0.41224969536E+01  0.40449592338E+02 -0.24021234668E-01  0.50528867220E+02  0.30000022401E+02 0.  0.
        -12    1    1    2    0    0 -0.41224969536E+01 -0.40449592338E+02  0.24021234668E-01  0.40659132780E+02  0.00000000000E+00 0.  1.
         11    1    3    3    0    0  0.26287282659E+01  0.83412929127E+01 -0.18908691725E+00  0.87477502179E+01  0.51100000000E-03 0. -1.
        -11    1    3    3    0    0  0.11676871683E+01  0.26185346374E+02 -0.11555051087E+02  0.28645332324E+02  0.51100000000E-03 0.  1.
        -12    1    3    3    0    0  0.32608151937E+00  0.59229530507E+01  0.11720116770E+02  0.13135784678E+02  0.00000000000E+00 0.  1.
</event>
<event>
 7    1  0.5935282E-013  0.5052886E+02  0.7816164E-02  0.1300439E+00
        -11   -1    0    0    0    0  0.00000000000E+00  0.00000000000E+00  0.45593999997E+02  0.45594000000E+02  0.51100000000E-03 0. -1.
         11   -1    0    0    0    0 -0.00000000000E+00 -0.00000000000E+00 -0.45593999997E+02  0.45594000000E+02  0.51100000000E-03 0.  1.
    9900012    2    1    2    0    0  0.10174565440E+02 -0.30865301753E+02  0.24433117602E+02  0.50528857487E+02  0.29999992816E+02 0.  0.
        -12    1    1    2    0    0 -0.10174565440E+02  0.30865301753E+02 -0.24433117602E+02  0.40659142513E+02  0.00000000000E+00 0.  1.
         11    1    3    3    0    0  0.10282635404E+02 -0.12129537390E+02  0.15073190623E+01  0.15972798101E+02  0.51100000000E-03 0. -1.
        -11    1    3    3    0    0  0.19659128773E+01  0.31852380280E+01  0.44310331351E+01  0.58003973693E+01  0.51100000000E-03 0.  1.
         12    1    3    3    0    0 -0.20739828417E+01 -0.21921002391E+02  0.18494765404E+02  0.28755662017E+02  0.00000000000E+00 0. -1.
</event>
<event>
 7    1  0.5935282E-013  0.5052885E+02  0.7816164E-02  0.1300439E+00
        -11   -1    0    0    0    0  0.00000000000E+00  0.00000000000E+00  0.45593999997E+02  0.45594000000E+02  0.51100000000E-03 0.  1.
         11   -1    0    0    0    0 -0.00000000000E+00 -0.00000000000E+00 -0.45593999997E+02  0.45594000000E+02  0.51100000000E-03 0. -1.
    9900012    2    1    2    0    0  0.30227497718E+02  0.25421203601E+02 -0.96554139770E+01  0.50528853060E+02  0.29999979362E+02 0.  0.
        -12    1    1    2    0    0 -0.30227497718E+02 -0.25421203601E+02  0.96554139770E+01  0.40659146940E+02  0.00000000000E+00 0.  1.
         11    1    3    3    0    0 -0.12604555676E+01 -0.23418607284E+01 -0.24137115717E+01  0.35915266561E+01  0.51100000000E-03 0. -1.
        -11    1    3    3    0    0  0.10091667361E+02 -0.56946127912E+00  0.18781824736E+01  0.10280739562E+02  0.51100000000E-03 0.  1.
         12    1    3    3    0    0  0.21396285925E+02  0.28332525608E+02 -0.91198848789E+01  0.36656586842E+02  0.00000000000E+00 0. -1.
</event>
<event>
 7    1  0.5935282E-013  0.5052890E+02  0.7816164E-02  0.1300439E+00
        -11   -1    0    0    0    0  0.00000000000E+00  0.00000000000E+00  0.45593999997E+02  0.45594000000E+02  0.51100000000E-03 0.  1.
         11   -1    0    0    0    0 -0.00000000000E+00 -0.00000000000E+00 -0.45593999997E+02  0.45594000000E+02  0.51100000000E-03 0. -1.
    9900012    2    1    2    0    0  0.32859272750E+01 -0.35048456456E+02 -0.20346271778E+02  0.50528900241E+02  0.30000122772E+02 0.  0.
        -12    1    1    2    0    0 -0.32859272750E+01  0.35048456456E+02  0.20346271778E+02  0.40659099759E+02  0.00000000000E+00 0.  1.
         11    1    3    3    0    0 -0.70423035045E+01 -0.21826176599E+02 -0.17004487998E+02  0.28550457718E+02  0.51100000000E-03 0. -1.
        -11    1    3    3    0    0  0.34804331173E+01 -0.13635773480E+02  0.56399638366E+00  0.14084240316E+02  0.51100000000E-03 0.  1.
        -12    1    3    3    0    0  0.68477976623E+01  0.41349362341E+00 -0.39057801632E+01  0.78942022069E+01  0.00000000000E+00 0.  1.
</event>
<event>
 7    1  0.5935282E-013  0.5052886E+02  0.7816164E-02  0.1300439E+00
        -11   -1    0    0    0    0  0.00000000000E+00  0.00000000000E+00  0.45593999997E+02  0.45594000000E+02  0.51100000000E-03 0.  1.
         11   -1    0    0    0    0 -0.00000000000E+00 -0.00000000000E+00 -0.45593999997E+02  0.45594000000E+02  0.51100000000E-03 0. -1.
    9900012    2    1    2    0    0  0.30459011257E+02  0.15045265156E+02 -0.22339520179E+02  0.50528861640E+02  0.30000005441E+02 0.  0.
        -12    1    1    2    0    0 -0.30459011257E+02 -0.15045265156E+02  0.22339520179E+02  0.40659138360E+02  0.00000000000E+00 0.  1.
         11    1    3    3    0    0 -0.30882055598E+01 -0.42125522232E+00 -0.44046770078E+01  0.53958918954E+01  0.51100000000E-03 0. -1.
        -11    1    3    3    0    0  0.50041062905E+01  0.12857617135E+01 -0.11515238976E+02  0.12621211981E+02  0.51100000000E-03 0.  1.
         12    1    3    3    0    0  0.28543110527E+02  0.14180758664E+02 -0.64196041951E+01  0.32511757763E+02  0.00000000000E+00 0. -1.
</event>
<event>
 7    1  0.5935282E-013  0.5052886E+02  0.7816164E-02  0.1300439E+00
        -11   -1    0    0    0    0  0.00000000000E+00  0.00000000000E+00  0.45593999997E+02  0.45594000000E+02  0.51100000000E-03 0. -1.
         11   -1    0    0    0    0 -0.00000000000E+00 -0.00000000000E+00 -0.45593999997E+02  0.45594000000E+02  0.51100000000E-03 0.  1.
    9900012    2    1    2    0    0  0.18699826305E+02  0.34617320734E+02 -0.10252961939E+02  0.50528860472E+02  0.30000001890E+02 0.  0.
        -12    1    1    2    0    0 -0.18699826305E+02 -0.34617320734E+02  0.10252961939E+02  0.40659139528E+02  0.00000000000E+00 0.  1.
         11    1    3    3    0    0 -0.48758905799E+01  0.20078766492E+01 -0.34691856898E+01  0.63119828261E+01  0.51100000000E-03 0.  1.
        -11    1    3    3    0    0 -0.49463063431E+00 -0.10331985169E+01  0.16406807947E+01  0.20009978438E+01  0.51100000000E-03 0. -1.
         12    1    3    3    0    0  0.24070347519E+02  0.33642642602E+02 -0.84244570440E+01  0.42215879802E+02  0.00000000000E+00 0. -1.
</event>
<event>
 7    1  0.5935282E-013  0.5052885E+02  0.7816164E-02  0.1300439E+00
        -11   -1    0    0    0    0  0.00000000000E+00  0.00000000000E+00  0.45593999997E+02  0.45594000000E+02  0.51100000000E-03 0.  1.
         11   -1    0    0    0    0 -0.00000000000E+00 -0.00000000000E+00 -0.45593999997E+02  0.45594000000E+02  0.51100000000E-03 0. -1.
    9900012    2    1    2    0    0  0.34791265317E+02 -0.57147058603E+01 -0.20250335982E+02  0.50528854500E+02  0.29999983737E+02 0.  0.
        -12    1    1    2    0    0 -0.34791265317E+02  0.57147058603E+01  0.20250335982E+02  0.40659145500E+02  0.00000000000E+00 0.  1.
         11    1    3    3    0    0  0.12785952956E+02  0.55855674662E+01  0.33061072527E+01  0.14339090011E+02  0.51100000000E-03 0. -1.
        -11    1    3    3    0    0  0.59013902836E+01 -0.30949286328E+01 -0.21284865727E+00  0.66671054689E+01  0.51100000000E-03 0.  1.
        -12    1    3    3    0    0  0.16103922078E+02 -0.82053446937E+01 -0.23343594577E+02  0.29522659020E+02  0.00000000000E+00 0.  1.
</event>
<event>
 7    1  0.5935282E-013  0.5052886E+02  0.7816164E-02  0.1300439E+00
        -11   -1    0    0    0    0  0.00000000000E+00  0.00000000000E+00  0.45593999997E+02  0.45594000000E+02  0.51100000000E-03 0. -1.
         11   -1    0    0    0    0 -0.00000000000E+00 -0.00000000000E+00 -0.45593999997E+02  0.45594000000E+02  0.51100000000E-03 0.  1.
    9900012    2    1    2    0    0 -0.99792727385E+01  0.52858597166E+01  0.39059433777E+02  0.50528861245E+02  0.30000004241E+02 0.  0.
        -12    1    1    2    0    0  0.99792727385E+01 -0.52858597166E+01 -0.39059433777E+02  0.40659138755E+02  0.00000000000E+00 0.  1.
         11    1    3    3    0    0 -0.32655559604E+01  0.63767181026E+01  0.45328851028E+01  0.84778203039E+01  0.51100000000E-03 0.  1.
        -11    1    3    3    0    0  0.34801112741E+01  0.80639645757E+01  0.67429246141E+01  0.11072747255E+02  0.51100000000E-03 0. -1.
         12    1    3    3    0    0 -0.10193828052E+02 -0.91548229617E+01  0.27783624060E+02  0.30978293686E+02  0.00000000000E+00 0. -1.
</event>
<event>
 7    1  0.5935282E-013  0.5052886E+02  0.7816164E-02  0.1300439E+00
        -11   -1    0    0    0    0  0.00000000000E+00  0.00000000000E+00  0.45593999997E+02  0.45594000000E+02  0.51100000000E-03 0. -1.
         11   -1    0    0    0    0 -0.00000000000E+00 -0.00000000000E+00 -0.45593999997E+02  0.45594000000E+02  0.51100000000E-03 0.  1.
    9900012    2    1    2    0    0 -0.42177230798E+01 -0.37161293850E+02  0.15950382186E+02  0.50528860308E+02  0.30000001393E+02 0.  0.
        -12    1    1    2    0    0  0.42177230798E+01  0.37161293850E+02 -0.15950382186E+02  0.40659139692E+02  0.00000000000E+00 0.  1.
         11    1    3    3    0    0 -0.11198334600E+02 -0.16941249995E+02  0.14226989373E+02  0.24795480961E+02  0.51100000000E-03 0. -1.
        -11    1    3    3    0    0  0.46097132495E+00 -0.11742789104E+01  0.51595019746E+01  0.53114862712E+01  0.51100000000E-03 0.  1.
        -12    1    3    3    0    0  0.65196401957E+01 -0.19045764945E+02 -0.34361091619E+01  0.20421893076E+02  0.00000000000E+00 0.  1.
</event>
<event>
 7    1  0.5935282E-013  0.5052887E+02  0.7816164E-02  0.1300439E+00
        -11   -1    0    0    0    0  0.00000000000E+00  0.00000000000E+00  0.45593999997E+02  0.45594000000E+02  0.51100000000E-03 0. -1.
         11   -1    0    0    0    0 -0.00000000000E+00 -0.00000000000E+00 -0.45593999997E+02  0.45594000000E+02  0.51100000000E-03 0.  1.
    9900012    2    1    2    0    0  0.32292588526E+01  0.21206537288E+02  0.34540115460E+02  0.50528869260E+02  0.30000028604E+02 0.  0.
        -12    1    1    2    0    0 -0.32292588526E+01 -0.21206537288E+02 -0.34540115460E+02  0.40659130740E+02  0.00000000000E+00 0.  1.
         11    1    3    3    0    0 -0.29059447375E+01  0.11847354070E+02  0.18429872971E+02  0.22101233705E+02  0.51100000000E-03 0. -1.
        -11    1    3    3    0    0 -0.14631099997E+01  0.14185593986E+02  0.82374669521E+01  0.16468989940E+02  0.51100000000E-03 0.  1.
        -12    1    3    3    0    0  0.75983135898E+01 -0.48264107673E+01  0.78727755369E+01  0.11958645616E+02  0.00000000000E+00 0.  1.
</event>
<event>
 7    1  0.5935282E-013  0.5052886E+02  0.7816164E-02  0.1300439E+00
        -11   -1    0    0    0    0  0.00000000000E+00  0.00000000000E+00  0.45593999997E+02  0.45594000000E+02  0.51100000000E-03 0.  1.
         11   -1    0    0    0    0 -0.00000000000E+00 -0.00000000000E+00 -0.45593999997E+02  0.45594000000E+02  0.51100000000E-03 0. -1.
    9900012    2    1    2    0    0 -0.19540932438E+02  0.59334375922E+00 -0.35650600299E+02  0.50528863277E+02  0.30000010418E+02 0.  0.
        -12    1    1    2    0    0  0.19540932438E+02 -0.59334375922E+00  0.35650600299E+02  0.40659136723E+02  0.00000000000E+00 0.  1.
         11    1    3    3    0    0  0.58541024973E+00  0.26341969574E+01 -0.29311892471E+01  0.39841648352E+01  0.51100000000E-03 0. -1.
        -11    1    3    3    0    0  0.84845305367E+00 -0.35420107226E+01  0.32487059259E+01  0.48805535544E+01  0.51100000000E-03 0.  1.
         12    1    3    3    0    0 -0.20974795741E+02  0.15011575244E+01 -0.35968116978E+02  0.41664144888E+02  0.00000000000E+00 0. -1.
</event>
<event>
 7    1  0.5935282E-013  0.5052886E+02  0.7816164E-02  0.1300439E+00
        -11   -1    0    0    0    0  0.00000000000E+00  0.00000000000E+00  0.45593999997E+02  0.45594000000E+02  0.51100000000E-03 0.  1.
         11   -1    0    0    0    0 -0.00000000000E+00 -0.00000000000E+00 -0.45593999997E+02  0.45594000000E+02  0.51100000000E-03 0. -1.
    9900012    2    1    2    0    0  0.15473917994E+02 -0.20043255920E+02 -0.31811810415E+02  0.50528861693E+02  0.30000005602E+02 0.  0.
        -12    1    1    2    0    0 -0.15473917994E+02  0.20043255920E+02  0.31811810415E+02  0.40659138307E+02  0.00000000000E+00 0.  1.
         11    1    3    3    0    0 -0.40715146000E+01 -0.50869726833E+01 -0.80988829541E+01  0.10394538354E+02  0.51100000000E-03 0. -1.
        -11    1    3    3    0    0 -0.29019150949E+01  0.23050191304E+01 -0.48761038876E+01  0.61245909083E+01  0.51100000000E-03 0.  1.
         12    1    3    3    0    0  0.22447347689E+02 -0.17261302368E+02 -0.18836823573E+02  0.34009732431E+02  0.00000000000E+00 0. -1.
</event>
<event>
 7    1  0.5935282E-013  0.5052888E+02  0.7816164E-02  0.1300439E+00
        -11   -1    0    0    0    0  0.00000000000E+00  0.00000000000E+00  0.45593999997E+02  0.45594000000E+02  0.51100000000E-03 0.  1.
         11   -1    0    0    0    0 -0.00000000000E+00 -0.00000000000E+00 -0.45593999997E+02  0.45594000000E+02  0.51100000000E-03 0. -1.
    9900012    2    1    2    0    0  0.71627321534E+01  0.38985207124E+02 -0.90560908768E+01  0.50528881854E+02  0.30000066884E+02 0.  0.
        -12    1    1    2    0    0 -0.71627321534E+01 -0.38985207124E+02  0.90560908768E+01  0.40659118146E+02  0.00000000000E+00 0.  1.
         11    1    3    3    0    0  0.76959137207E+01  0.25215541718E+02  0.30858180068E+01  0.26543792215E+02  0.51100000000E-03 0.  1.
        -11    1    3    3    0    0  0.54636691584E+01  0.61415508258E+01  0.27729400235E+00  0.82247929727E+01  0.51100000000E-03 0. -1.
        -12    1    3    3    0    0 -0.59968507257E+01  0.76281145802E+01 -0.12419202886E+02  0.15760296666E+02  0.00000000000E+00 0.  1.
</event>
<event>
 7    1  0.5935282E-013  0.5052886E+02  0.7816164E-02  0.1300439E+00
        -11   -1    0    0    0    0  0.00000000000E+00  0.00000000000E+00  0.45593999997E+02  0.45594000000E+02  0.51100000000E-03 0. -1.
         11   -1    0    0    0    0 -0.00000000000E+00 -0.00000000000E+00 -0.45593999997E+02  0.45594000000E+02  0.51100000000E-03 0.  1.
    9900012    2    1    2    0    0  0.13618306257E+02  0.24010478463E+01  0.38235352578E+02  0.50528862247E+02  0.30000007287E+02 0.  0.
        -12    1    1    2    0    0 -0.13618306257E+02 -0.24010478463E+01 -0.38235352578E+02  0.40659137753E+02  0.00000000000E+00 0.  1.
         11    1    3    3    0    0 -0.80027365942E+01  0.16789569944E+01  0.20277422106E+02  0.21864046677E+02  0.51100000000E-03 0. -1.
        -11    1    3    3    0    0  0.50168232423E+01 -0.77926082923E-01  0.14163528503E+01  0.52135058815E+01  0.51100000000E-03 0.  1.
        -12    1    3    3    0    0  0.16604219609E+02  0.80001693487E+00  0.16541577621E+02  0.23451309689E+02  0.00000000000E+00 0.  1.
</event>
<event>
 7    1  0.5935282E-013  0.5052884E+02  0.7816164E-02  0.1300439E+00
        -11   -1    0    0    0    0  0.00000000000E+00  0.00000000000E+00  0.45593999997E+02  0.45594000000E+02  0.51100000000E-03 0.  1.
         11   -1    0    0    0    0 -0.00000000000E+00 -0.00000000000E+00 -0.45593999997E+02  0.45594000000E+02  0.51100000000E-03 0. -1.
    9900012    2    1    2    0    0 -0.20207728253E+01 -0.18224372785E+02 -0.36289883811E+02  0.50528844165E+02  0.29999952323E+02 0.  0.
        -12    1    1    2    0    0  0.20207728253E+01  0.18224372785E+02  0.36289883811E+02  0.40659155835E+02  0.00000000000E+00 0.  1.
         11    1    3    3    0    0  0.12642281183E+01 -0.63808312596E+01 -0.13277726194E+02  0.14785509577E+02  0.51100000000E-03 0. -1.
        -11    1    3    3    0    0 -0.10381997976E+02 -0.13137143545E+02 -0.23098209269E+02  0.28528892270E+02  0.51100000000E-03 0.  1.
         12    1    3    3    0    0  0.70969970324E+01  0.12936020190E+01  0.86051652019E-01  0.72144423172E+01  0.00000000000E+00 0. -1.
</event>
<event>
 7    1  0.5935282E-013  0.5052886E+02  0.7816164E-02  0.1300439E+00
        -11   -1    0    0    0    0  0.00000000000E+00  0.00000000000E+00  0.45593999997E+02  0.45594000000E+02  0.51100000000E-03 0. -1.
         11   -1    0    0    0    0 -0.00000000000E+00 -0.00000000000E+00 -0.45593999997E+02  0.45594000000E+02  0.51100000000E-03 0.  1.
    9900012    2    1    2    0    0  0.20188404250E+02 -0.15569143971E+01  0.35258616409E+02  0.50528859826E+02  0.29999999928E+02 0.  0.
        -12    1    1    2    0    0 -0.20188404250E+02  0.15569143971E+01 -0.35258616409E+02  0.40659140174E+02  0.00000000000E+00 0.  1.
         11    1    3    3    0    0  0.93321994433E+00  0.52925838604E+01  0.60393307021E+01  0.80842970612E+01  0.51100000000E-03 0. -1.
        -11    1    3    3    0    0 -0.17101760339E+01  0.37033153124E+01  0.13729503678E+02  0.14322657500E+02  0.51100000000E-03 0.  1.
         12    1    3    3    0    0  0.20965360340E+02 -0.10552813570E+02  0.15489782029E+02  0.28121905265E+02  0.00000000000E+00 0. -1.
</event>
<event>
 7    1  0.5935282E-013  0.5052880E+02  0.7816164E-02  0.1300439E+00
        -11   -1    0    0    0    0  0.00000000000E+00  0.00000000000E+00  0.45593999997E+02  0.45594000000E+02  0.51100000000E-03 0.  1.
         11   -1    0    0    0    0 -0.00000000000E+00 -0.00000000000E+00 -0.45593999997E+02  0.45594000000E+02  0.51100000000E-03 0. -1.
    9900012    2    1    2    0    0  0.15792512328E+01  0.22010426162E+02 -0.34149927768E+02  0.50528801031E+02  0.29999821213E+02 0.  0.
        -12    1    1    2    0    0 -0.15792512328E+01 -0.22010426162E+02  0.34149927768E+02  0.40659198969E+02  0.00000000000E+00 0.  1.
         11    1    3    3    0    0  0.43262600979E+01 -0.35981250039E-01 -0.49782893319E+01  0.65955428903E+01  0.51100000000E-03 0. -1.
        -11    1    3    3    0    0  0.28816421545E+01 -0.32778648635E+01 -0.12137656696E+02  0.12898487117E+02  0.51100000000E-03 0.  1.
         12    1    3    3    0    0 -0.56286510196E+01  0.25324272275E+02 -0.17033981739E+02  0.31034771023E+02  0.00000000000E+00 0. -1.
</event>
<event>
 7    1  0.5935282E-013  0.5052887E+02  0.7816164E-02  0.1300439E+00
        -11   -1    0    0    0    0  0.00000000000E+00  0.00000000000E+00  0.45593999997E+02  0.45594000000E+02  0.51100000000E-03 0.  1.
         11   -1    0    0    0    0 -0.00000000000E+00 -0.00000000000E+00 -0.45593999997E+02  0.45594000000E+02  0.51100000000E-03 0. -1.
    9900012    2    1    2    0    0 -0.72301394807E+00  0.36183549018E+02 -0.18530856103E+02  0.50528873145E+02  0.30000040410E+02 0.  0.
        -12    1    1    2    0    0  0.72301394807E+00 -0.36183549018E+02  0.18530856103E+02  0.40659126855E+02  0.00000000000E+00 0.  1.
         11    1    3    3    0    0 -0.12411070317E+02  0.14324742007E+02 -0.39611590794E+01  0.19362946095E+02  0.51100000000E-03 0. -1.
        -11    1    3    3    0    0  0.34676451137E+01  0.10099050913E+02 -0.12861910256E+02  0.16716582416E+02  0.51100000000E-03 0.  1.
        -12    1    3    3    0    0  0.82204112549E+01  0.11759756098E+02 -0.17077867679E+01  0.14449344634E+02  0.00000000000E+00 0.  1.
</event>
<event>
 7    1  0.5935282E-013  0.5052885E+02  0.7816164E-02  0.1300439E+00
        -11   -1    0    0    0    0  0.00000000000E+00  0.00000000000E+00  0.45593999997E+02  0.45594000000E+02  0.51100000000E-03 0. -1.
         11   -1    0    0    0    0 -0.00000000000E+00 -0.00000000000E+00 -0.45593999997E+02  0.45594000000E+02  0.51100000000E-03 0.  1.
    9900012    2    1    2    0    0 -0.20846573834E+02  0.20640941909E+02  0.28152051589E+02  0.50528854262E+02  0.29999983014E+02 0.  0.
        -12    1    1    2    0    0  0.20846573834E+02 -0.20640941909E+02 -0.28152051589E+02  0.40659145738E+02  0.00000000000E+00 0.  1.
         11    1    3    3    0    0 -0.14728935579E+02  0.13233066398E+02  0.60379171576E+01  0.20700532202E+02  0.51100000000E-03 0. -1.
        -11    1    3    3    0    0  0.53459176233E+01 -0.91438452962E+00  0.90903954001E+01  0.10585377796E+02  0.51100000000E-03 0.  1.
         12    1    3    3    0    0 -0.11463555878E+02  0.83222600402E+01  0.13023739031E+02  0.19242944263E+02  0.00000000000E+00 0. -1.
</event>
<event>
 7    1  0.5935282E-013  0.5052883E+02  0.7816164E-02  0.1300439E+00
        -11   -1    0    0    0    0  0.00000000000E+00  0.00000000000E+00  0.45593999997E+02  0.45594000000E+02  0.51100000000E-03 0. -1.
         11   -1    0    0    0    0 -0.00000000000E+00 -0.00000000000E+00 -0.45593999997E+02  0.45594000000E+02  0.51100000000E-03 0.  1.
    9900012    2    1    2    0    0 -0.10783321014E+01  0.89698272635E+01  0.39642744040E+02  0.50528834290E+02  0.29999922307E+02 0.  0.
        -12    1    1    2    0    0  0.10783321014E+01 -0.89698272635E+01 -0.39642744040E+02  0.40659165710E+02  0.00000000000E+00 0.  1.
         11    1    3    3    0    0 -0.71717824590E+00 -0.22559132255E+01  0.42667119936E+01  0.48793770724E+01  0.51100000000E-03 0. -1.
        -11    1    3    3    0    0  0.50743073600E+00 -0.14788873191E+01 -0.39844677246E+01  0.42802543107E+01  0.51100000000E-03 0.  1.
         12    1    3    3    0    0 -0.86858459149E+00  0.12704627808E+02  0.39360499771E+02  0.41369202907E+02  0.00000000000E+00 0. -1.
</event>
<event>
 7    1  0.5935282E-013  0.5052886E+02  0.7816164E-02  0.1300439E+00
        -11   -1    0    0    0    0  0.00000000000E+00  0.00000000000E+00  0.45593999997E+02  0.45594000000E+02  0.51100000000E-03 0.  1.
         11   -1    0    0    0    0 -0.00000000000E+00 -0.00000000000E+00 -0.45593999997E+02  0.45594000000E+02  0.51100000000E-03 0. -1.
    9900012    2    1    2    0    0 -0.31592547236E+02 -0.25502851368E+02 -0.21636296741E+01  0.50528858812E+02  0.29999996846E+02 0.  0.
        -12    1    1    2    0    0  0.31592547236E+02  0.25502851368E+02  0.21636296741E+01  0.40659141188E+02  0.00000000000E+00 0.  1.
         11    1    3    3    0    0 -0.12290141628E+02 -0.14550741964E+02 -0.46824574591E+01  0.19613696261E+02  0.51100000000E-03 0. -1.
        -11    1    3    3    0    0 -0.43643595454E+00 -0.78599968377E+01  0.77994499388E+01  0.11081581396E+02  0.51100000000E-03 0.  1.
         12    1    3    3    0    0 -0.18865969654E+02 -0.30921125667E+01 -0.52806221538E+01  0.19833581155E+02  0.00000000000E+00 0. -1.
</event>
<event>
 7    1  0.5935282E-013  0.5052887E+02  0.7816164E-02  0.1300439E+00
        -11   -1    0    0    0    0  0.00000000000E+00  0.00000000000E+00  0.45593999997E+02  0.45594000000E+02  0.51100000000E-03 0.  1.
         11   -1    0    0    0    0 -0.00000000000E+00 -0.00000000000E+00 -0.45593999997E+02  0.45594000000E+02  0.51100000000E-03 0. -1.
    9900012    2    1    2    0    0  0.61908198509E+01  0.29507062931E+02 -0.27279508865E+02  0.50528872892E+02  0.30000039644E+02 0.  0.
        -12    1    1    2    0    0 -0.61908198509E+01 -0.29507062931E+02  0.27279508865E+02  0.40659127108E+02  0.00000000000E+00 0.  1.
         11    1    3    3    0    0  0.28741197477E+00  0.11947064312E+02 -0.12141679620E+02  0.17036294655E+02  0.51100000000E-03 0. -1.
        -11    1    3    3    0    0  0.79641509510E+01  0.22849542436E+02 -0.12112832616E+02  0.27060118332E+02  0.51100000000E-03 0.  1.
        -12    1    3    3    0    0 -0.20607430749E+01 -0.52895438178E+01 -0.30249966292E+01  0.64324599049E+01  0.00000000000E+00 0.  1.
</event>
<event>
 7    1  0.5935282E-013  0.5052887E+02  0.7816164E-02  0.1300439E+00
        -11   -1    0    0    0    0  0.00000000000E+00  0.00000000000E+00  0.45593999997E+02  0.45594000000E+02  0.51100000000E-03 0.  1.
         11   -1    0    0    0    0 -0.00000000000E+00 -0.00000000000E+00 -0.45593999997E+02  0.45594000000E+02  0.51100000000E-03 0. -1.
    9900012    2    1    2    0    0  0.30767082845E+02  0.24623958094E+02 -0.10010615319E+02  0.50528866733E+02  0.30000020920E+02 0.  0.
        -12    1    1    2    0    0 -0.30767082845E+02 -0.24623958094E+02  0.10010615319E+02  0.40659133267E+02  0.00000000000E+00 0.  1.
         11    1    3    3    0    0  0.28283430758E+01  0.71417676926E+01  0.62618828556E+01  0.99103757490E+01  0.51100000000E-03 0. -1.
        -11    1    3    3    0    0  0.95077631151E+01  0.11889994611E+02  0.27387873453E+00  0.15226442169E+02  0.51100000000E-03 0.  1.
        -12    1    3    3    0    0  0.18430976654E+02  0.55921957899E+01 -0.16546376909E+02  0.25392048814E+02  0.00000000000E+00 0.  1.
</event>
<event>
 7    1  0.5935282E-013  0.5052885E+02  0.7816164E-02  0.1300439E+00
        -11   -1    0    0    0    0  0.00000000000E+00  0.00000000000E+00  0.45593999997E+02  0.45594000000E+02  0.51100000000E-03 0. -1.
         11   -1    0    0    0    0 -0.00000000000E+00 -0.00000000000E+00 -0.45593999997E+02  0.45594000000E+02  0.51100000000E-03 0.  1.
    9900012    2    1    2    0    0  0.27358287797E+02  0.24187116562E+02  0.17879420304E+02  0.50528853561E+02  0.29999980883E+02 0.  0.
        -12    1    1    2    0    0 -0.27358287797E+02 -0.24187116562E+02 -0.17879420304E+02  0.40659146439E+02  0.00000000000E+00 0.  1.
         11    1    3    3    0    0  0.10798593038E+02  0.78545451376E+01 -0.45442922072E-01  0.13353110358E+02  0.51100000000E-03 0. -1.
        -11    1    3    3    0    0  0.10476946650E+01  0.16769014542E+02  0.11605620944E+02  0.20420282823E+02  0.51100000000E-03 0.  1.
         12    1    3    3    0    0  0.15512000093E+02 -0.43644311732E+00  0.63192422818E+01  0.16755460379E+02  0.00000000000E+00 0. -1.
</event>
<event>
 7    1  0.5935282E-013  0.5052888E+02  0.7816164E-02  0.1300439E+00
        -11   -1    0    0    0    0  0.00000000000E+00  0.00000000000E+00  0.45593999997E+02  0.45594000000E+02  0.51100000000E-03 0.  1.
         11   -1    0    0    0    0 -0.00000000000E+00 -0.00000000000E+00 -0.45593999997E+02  0.45594000000E+02  0.51100000000E-03 0. -1.
    9900012    2    1    2    0    0  0.12890220153E+02  0.46159690225E+01 -0.38284446430E+02  0.50528883137E+02  0.30000070783E+02 0.  0.
        -12    1    1    2    0    0 -0.12890220153E+02 -0.46159690225E+01  0.38284446430E+02  0.40659116863E+02  0.00000000000E+00 0.  1.
         11    1    3    3    0    0  0.10342867139E+02  0.18409681395E+01 -0.60311585572E+01  0.12113584859E+02  0.51100000000E-03 0. -1.
        -11    1    3    3    0    0  0.10910952588E+02  0.13898921335E+01 -0.11100526539E+02  0.15626975915E+02  0.51100000000E-03 0.  1.
         12    1    3    3    0    0 -0.83635995738E+01  0.13851087495E+01 -0.21152761334E+02  0.22788322363E+02  0.00000000000E+00 0. -1.
</event>
<event>
 7    1  0.5935282E-013  0.5052886E+02  0.7816164E-02  0.1300439E+00
        -11   -1    0    0    0    0  0.00000000000E+00  0.00000000000E+00  0.45593999997E+02  0.45594000000E+02  0.51100000000E-03 0. -1.
         11   -1    0    0    0    0 -0.00000000000E+00 -0.00000000000E+00 -0.45593999997E+02  0.45594000000E+02  0.51100000000E-03 0.  1.
    9900012    2    1    2    0    0  0.15894213773E+02 -0.14063608103E+02  0.34680749018E+02  0.50528862567E+02  0.30000008260E+02 0.  0.
        -12    1    1    2    0    0 -0.15894213773E+02  0.14063608103E+02 -0.34680749018E+02  0.40659137433E+02  0.00000000000E+00 0.  1.
         11    1    3    3    0    0  0.12869399040E+01 -0.20075027296E+01 -0.13319138973E+01  0.27313506580E+01  0.51100000000E-03 0. -1.
        -11    1    3    3    0    0  0.61791138953E+01  0.18395189486E+01 -0.17548991993E+01  0.66816876577E+01  0.51100000000E-03 0.  1.
         12    1    3    3    0    0  0.84281599736E+01 -0.13895624322E+02  0.37767562114E+02  0.41115824252E+02  0.00000000000E+00 0. -1.
</event>
<event>
 7    1  0.5935282E-013  0.5052886E+02  0.7816164E-02  0.1300439E+00
        -11   -1    0    0    0    0  0.00000000000E+00  0.00000000000E+00  0.45593999997E+02  0.45594000000E+02  0.51100000000E-03 0.  1.
         11   -1    0    0    0    0 -0.00000000000E+00 -0.00000000000E+00 -0.45593999997E+02  0.45594000000E+02  0.51100000000E-03 0. -1.
    9900012    2    1    2    0    0  0.30540114429E+02  0.10255081614E+02 -0.24805250263E+02  0.50528859221E+02  0.29999998088E+02 0.  0.
        -12    1    1    2    0    0 -0.30540114429E+02 -0.10255081614E+02  0.24805250263E+02  0.40659140779E+02  0.00000000000E+00 0.  1.
         11    1    3    3    0    0  0.25529804101E+01  0.56024006701E+01 -0.74886059202E+01  0.96945253175E+01  0.51100000000E-03 0. -1.
        -11    1    3    3    0    0  0.19075664194E+02  0.71058046098E+01 -0.22414767027E+02  0.30278626203E+02  0.51100000000E-03 0.  1.
        -12    1    3    3    0    0  0.89114698250E+01 -0.24531236658E+01  0.50981226837E+01  0.10555707701E+02  0.00000000000E+00 0.  1.
</event>
<event>
 7    1  0.5935282E-013  0.5052886E+02  0.7816164E-02  0.1300439E+00
        -11   -1    0    0    0    0  0.00000000000E+00  0.00000000000E+00  0.45593999997E+02  0.45594000000E+02  0.51100000000E-03 0.  1.
         11   -1    0    0    0    0 -0.00000000000E+00 -0.00000000000E+00 -0.45593999997E+02  0.45594000000E+02  0.51100000000E-03 0. -1.
    9900012    2    1    2    0    0 -0.25797593560E+02  0.26847884155E+02 -0.16335271963E+02  0.50528858012E+02  0.29999994413E+02 0.  0.
        -12    1    1    2    0    0  0.25797593560E+02 -0.26847884155E+02  0.16335271963E+02  0.40659141988E+02  0.00000000000E+00 0.  1.
         11    1    3    3    0    0 -0.23502640032E+02  0.13167472163E+02 -0.91835654614E+01  0.28462155339E+02  0.51100000000E-03 0. -1.
        -11    1    3    3    0    0 -0.60082469998E+01  0.22567319370E+01 -0.77221988707E+01  0.10041126765E+02  0.51100000000E-03 0.  1.
         12    1    3    3    0    0  0.37132934718E+01  0.11423680054E+02  0.57049236904E+00  0.12025575909E+02  0.00000000000E+00 0. -1.
</event>
<event>
 7    1  0.5935282E-013  0.5052886E+02  0.7816164E-02  0.1300439E+00
        -11   -1    0    0    0    0  0.00000000000E+00  0.00000000000E+00  0.45593999997E+02  0.45594000000E+02  0.51100000000E-03 0.  1.
         11   -1    0    0    0    0 -0.00000000000E+00 -0.00000000000E+00 -0.45593999997E+02  0.45594000000E+02  0.51100000000E-03 0. -1.
    9900012    2    1    2    0    0 -0.23826323680E+02 -0.17155342348E+02 -0.28127677535E+02  0.50528859395E+02  0.29999998617E+02 0.  0.
        -12    1    1    2    0    0  0.23826323680E+02  0.17155342348E+02  0.28127677535E+02  0.40659140605E+02  0.00000000000E+00 0.  1.
         11    1    3    3    0    0  0.18907496037E+01 -0.12993221543E+01 -0.65274401555E+01  0.69188617106E+01  0.51100000000E-03 0. -1.
        -11    1    3    3    0    0 -0.42428686815E+01 -0.60112929646E+01 -0.18342389059E+02  0.19763117528E+02  0.51100000000E-03 0.  1.
         12    1    3    3    0    0 -0.21474204603E+02 -0.98447272294E+01 -0.32578483202E+01  0.23846880157E+02  0.00000000000E+00 0. -1.
</event>
<event>
 7    1  0.5935282E-013  0.5052887E+02  0.7816164E-02  0.1300439E+00
        -11   -1    0    0    0    0  0.00000000000E+00  0.00000000000E+00  0.45593999997E+02  0.45594000000E+02  0.51100000000E-03 0.  1.
         11   -1    0    0    0    0 -0.00000000000E+00 -0.00000000000E+00 -0.45593999997E+02  0.45594000000E+02  0.51100000000E-03 0. -1.
    9900012    2    1    2    0    0  0.31683001404E+02 -0.36973909821E+01 -0.25212722835E+02  0.50528872233E+02  0.30000037639E+02 0.  0.
        -12    1    1    2    0    0 -0.31683001404E+02  0.36973909821E+01  0.25212722835E+02  0.40659127767E+02  0.00000000000E+00 0.  1.
         11    1    3    3    0    0  0.25107126784E+02 -0.71839674925E+01 -0.98915046989E+01  0.27925240729E+02  0.51100000000E-03 0. -1.
        -11    1    3    3    0    0  0.28228836087E+01 -0.53071459626E+01 -0.22712038745E+01  0.64259503139E+01  0.51100000000E-03 0.  1.
         12    1    3    3    0    0  0.37529910103E+01  0.87937224730E+01 -0.13050014262E+02  0.16177681190E+02  0.00000000000E+00 0. -1.
</event>
<event>
 7    1  0.5935282E-013  0.5052886E+02  0.7816164E-02  0.1300439E+00
        -11   -1    0    0    0    0  0.00000000000E+00  0.00000000000E+00  0.45593999997E+02  0.45594000000E+02  0.51100000000E-03 0.  1.
         11   -1    0    0    0    0 -0.00000000000E+00 -0.00000000000E+00 -0.45593999997E+02  0.45594000000E+02  0.51100000000E-03 0. -1.
    9900012    2    1    2    0    0  0.11476544616E+01  0.55032737903E+00 -0.40639214307E+02  0.50528859447E+02  0.29999998775E+02 0.  0.
        -12    1    1    2    0    0 -0.11476544616E+01 -0.55032737903E+00  0.40639214307E+02  0.40659140553E+02  0.00000000000E+00 0.  1.
         11    1    3    3    0    0 -0.55135297403E+01 -0.67295629097E+01 -0.23470924374E+02  0.25031386665E+02  0.51100000000E-03 0. -1.
        -11    1    3    3    0    0  0.87493798423E+01 -0.22349265411E+01 -0.94320369527E+01  0.13057942625E+02  0.51100000000E-03 0.  1.
        -12    1    3    3    0    0 -0.20881956404E+01  0.95148168297E+01 -0.77362529811E+01  0.12439530157E+02  0.00000000000E+00 0.  1.
</event>
<event>
 7    1  0.5935282E-013  0.5052886E+02  0.7816164E-02  0.1300439E+00
        -11   -1    0    0    0    0  0.00000000000E+00  0.00000000000E+00  0.45593999997E+02  0.45594000000E+02  0.51100000000E-03 0. -1.
         11   -1    0    0    0    0 -0.00000000000E+00 -0.00000000000E+00 -0.45593999997E+02  0.45594000000E+02  0.51100000000E-03 0.  1.
    9900012    2    1    2    0    0  0.30422756974E+02 -0.25985295285E+02 -0.72378114797E+01  0.50528860462E+02  0.30000001862E+02 0.  0.
        -12    1    1    2    0    0 -0.30422756974E+02  0.25985295285E+02  0.72378114797E+01  0.40659139538E+02  0.00000000000E+00 0.  1.
         11    1    3    3    0    0  0.11540724122E+02 -0.14806679904E+02 -0.84254025412E+00  0.18791912020E+02  0.51100000000E-03 0. -1.
        -11    1    3    3    0    0  0.84574874767E+01 -0.16119128378E+02  0.65886549990E+00  0.18215089846E+02  0.51100000000E-03 0.  1.
        -12    1    3    3    0    0  0.10424545374E+02  0.49405129973E+01 -0.70541367255E+01  0.13521858596E+02  0.00000000000E+00 0.  1.
</event>
<event>
 7    1  0.5935282E-013  0.5052884E+02  0.7816164E-02  0.1300439E+00
        -11   -1    0    0    0    0  0.00000000000E+00  0.00000000000E+00  0.45593999997E+02  0.45594000000E+02  0.51100000000E-03 0. -1.
         11   -1    0    0    0    0 -0.00000000000E+00 -0.00000000000E+00 -0.45593999997E+02  0.45594000000E+02  0.51100000000E-03 0.  1.
    9900012    2    1    2    0    0  0.39011143821E+02  0.71372429374E+00  0.11436264466E+02  0.50528844948E+02  0.29999954705E+02 0.  0.
        -12    1    1    2    0    0 -0.39011143821E+02 -0.71372429374E+00 -0.11436264466E+02  0.40659155052E+02  0.00000000000E+00 0.  1.
         11    1    3    3    0    0  0.23704600258E+01  0.61091743756E+01  0.59394319105E+01  0.88440909067E+01  0.51100000000E-03 0. -1.
        -11    1    3    3    0    0 -0.21257469507E+00  0.78502365424E+00  0.42172322362E+01  0.42949386647E+01  0.51100000000E-03 0.  1.
         12    1    3    3    0    0  0.36853258490E+02 -0.61804737361E+01  0.12796003195E+01  0.37389815377E+02  0.00000000000E+00 0. -1.
</event>
<event>
 7    1  0.5935282E-013  0.5052886E+02  0.7816164E-02  0.1300439E+00
        -11   -1    0    0    0    0  0.00000000000E+00  0.00000000000E+00  0.45593999997E+02  0.45594000000E+02  0.51100000000E-03 0. -1.
         11   -1    0    0    0    0 -0.00000000000E+00 -0.00000000000E+00 -0.45593999997E+02  0.45594000000E+02  0.51100000000E-03 0.  1.
    9900012    2    1    2    0    0  0.34193477372E+02 -0.14428914081E+02 -0.16606577401E+02  0.50528857494E+02  0.29999992839E+02 0.  0.
        -12    1    1    2    0    0 -0.34193477372E+02  0.14428914081E+02  0.16606577401E+02  0.40659142506E+02  0.00000000000E+00 0.  1.
         11    1    3    3    0    0  0.10416285771E+02 -0.73005941432E+01 -0.77669826858E+00  0.12743662918E+02  0.51100000000E-03 0. -1.
        -11    1    3    3    0    0  0.17063597222E+02 -0.14171842065E+02 -0.41209711716E+01  0.22560803650E+02  0.51100000000E-03 0.  1.
        -12    1    3    3    0    0  0.67135943788E+01  0.70435221270E+01 -0.11708907960E+02  0.15224390926E+02  0.00000000000E+00 0.  1.
</event>
<event>
 7    1  0.5935282E-013  0.5052886E+02  0.7816164E-02  0.1300439E+00
        -11   -1    0    0    0    0  0.00000000000E+00  0.00000000000E+00  0.45593999997E+02  0.45594000000E+02  0.51100000000E-03 0.  1.
         11   -1    0    0    0    0 -0.00000000000E+00 -0.00000000000E+00 -0.45593999997E+02  0.45594000000E+02  0.51100000000E-03 0. -1.
    9900012    2    1    2    0    0 -0.30047063328E+02 -0.65565525885E+00 -0.27384475661E+02  0.50528863196E+02  0.30000010169E+02 0.  0.
        -12    1    1    2    0    0  0.30047063328E+02  0.65565525885E+00  0.27384475661E+02  0.40659136804E+02  0.00000000000E+00 0.  1.
         11    1    3    3    0    0 -0.33717793724E+00  0.93286828000E+01 -0.53071919177E+01  0.10737983892E+02  0.51100000000E-03 0. -1.
        -11    1    3    3    0    0  0.24057846684E+00 -0.15186200498E+01  0.15014193092E+00  0.15448714234E+01  0.51100000000E-03 0.  1.
         12    1    3    3    0    0 -0.29950463857E+02 -0.84657180091E+01 -0.22227425674E+02  0.38246007880E+02  0.00000000000E+00 0. -1.
</event>
<event>
 7    1  0.5935282E-013  0.5052885E+02  0.7816164E-02  0.1300439E+00
        -11   -1    0    0    0    0  0.00000000000E+00  0.00000000000E+00  0.45593999997E+02  0.45594000000E+02  0.51100000000E-03 0.  1.
         11   -1    0    0    0    0 -0.00000000000E+00 -0.00000000000E+00 -0.45593999997E+02  0.45594000000E+02  0.51100000000E-03 0. -1.
    9900012    2    1    2    0    0  0.24497566731E+02  0.32124755481E+02  0.45864970091E+01  0.50528847952E+02  0.29999963835E+02 0.  0.
        -12    1    1    2    0    0 -0.24497566731E+02 -0.32124755481E+02 -0.45864970091E+01  0.40659152048E+02  0.00000000000E+00 0.  1.
         11    1    3    3    0    0  0.77080782284E+01 -0.16418409369E+01  0.50570103547E+01  0.93639449820E+01  0.51100000000E-03 0. -1.
        -11    1    3    3    0    0  0.88987177262E-02  0.18864170450E+01  0.44218032767E+01  0.48073894094E+01  0.51100000000E-03 0.  1.
         12    1    3    3    0    0  0.16780589785E+02  0.31880179373E+02 -0.48923166223E+01  0.36357513561E+02  0.00000000000E+00 0. -1.
</event>
<event>
 7    1  0.5935282E-013  0.5052885E+02  0.7816164E-02  0.1300439E+00
        -11   -1    0    0    0    0  0.00000000000E+00  0.00000000000E+00  0.45593999997E+02  0.45594000000E+02  0.51100000000E-03 0.  1.
         11   -1    0    0    0    0 -0.00000000000E+00 -0.00000000000E+00 -0.45593999997E+02  0.45594000000E+02  0.51100000000E-03 0. -1.
    9900012    2    1    2    0    0 -0.24642249480E+02  0.23365482847E+02 -0.22360233438E+02  0.50528852352E+02  0.29999977208E+02 0.  0.
        -12    1    1    2    0    0  0.24642249480E+02 -0.23365482847E+02  0.22360233438E+02  0.40659147648E+02  0.00000000000E+00 0.  1.
         11    1    3    3    0    0 -0.75813990060E+01 -0.12617785761E+01 -0.85160454043E+01  0.11471387259E+02  0.51100000000E-03 0. -1.
        -11    1    3    3    0    0 -0.32008469209E+01 -0.33535598791E+01  0.56045726297E+00  0.46696785198E+01  0.51100000000E-03 0.  1.
         12    1    3    3    0    0 -0.13860003553E+02  0.27980821302E+02 -0.14404645297E+02  0.34387786572E+02  0.00000000000E+00 0. -1.
</event>
<event>
 7    1  0.5935282E-013  0.5052886E+02  0.7816164E-02  0.1300439E+00
        -11   -1    0    0    0    0  0.00000000000E+00  0.00000000000E+00  0.45593999997E+02  0.45594000000E+02  0.51100000000E-03 0.  1.
         11   -1    0    0    0    0 -0.00000000000E+00 -0.00000000000E+00 -0.45593999997E+02  0.45594000000E+02  0.51100000000E-03 0. -1.
    9900012    2    1    2    0    0 -0.36073218317E+01 -0.38586037021E+02  0.12299220271E+02  0.50528857817E+02  0.29999993821E+02 0.  0.
        -12    1    1    2    0    0  0.36073218317E+01  0.38586037021E+02 -0.12299220271E+02  0.40659142183E+02  0.00000000000E+00 0.  1.
         11    1    3    3    0    0 -0.89522719606E+01 -0.11136561571E+02 -0.10920186417E+01  0.14330341303E+02  0.51100000000E-03 0. -1.
        -11    1    3    3    0    0 -0.57257906006E+01 -0.23373463439E+01  0.23166736756E+01  0.66041534744E+01  0.51100000000E-03 0.  1.
        -12    1    3    3    0    0  0.11070740729E+02 -0.25112129106E+02  0.11074565237E+02  0.29594363040E+02  0.00000000000E+00 0.  1.
</event>
<event>
 7    1  0.5935282E-013  0.5052886E+02  0.7816164E-02  0.1300439E+00
        -11   -1    0    0    0    0  0.00000000000E+00  0.00000000000E+00  0.45593999997E+02  0.45594000000E+02  0.51100000000E-03 0. -1.
         11   -1    0    0    0    0 -0.00000000000E+00 -0.00000000000E+00 -0.45593999997E+02  0.45594000000E+02  0.51100000000E-03 0.  1.
    9900012    2    1    2    0    0  0.25328639135E+02  0.28794319454E+02 -0.13509733661E+02  0.50528859615E+02  0.29999999286E+02 0.  0.
        -12    1    1    2    0    0 -0.25328639135E+02 -0.28794319454E+02  0.13509733661E+02  0.40659140385E+02  0.00000000000E+00 0.  1.
         11    1    3    3    0    0  0.14939476933E+02  0.21255349088E+02 -0.14351464782E+02  0.29680673468E+02  0.51100000000E-03 0. -1.
        -11    1    3    3    0    0  0.10862639423E+02  0.11326061407E+02 -0.23559857646E+01  0.15869066495E+02  0.51100000000E-03 0.  1.
        -12    1    3    3    0    0 -0.47347722104E+00 -0.37870910414E+01  0.31977168849E+01  0.49791196522E+01  0.00000000000E+00 0.  1.
</event>
<event>
 7    1  0.5935282E-013  0.5052886E+02  0.7816164E-02  0.1300439E+00
        -11   -1    0    0    0    0  0.00000000000E+00  0.00000000000E+00  0.45593999997E+02  0.45594000000E+02  0.51100000000E-03 0. -1.
         11   -1    0    0    0    0 -0.00000000000E+00 -0.00000000000E+00 -0.45593999997E+02  0.45594000000E+02  0.51100000000E-03 0.  1.
    9900012    2    1    2    0    0 -0.30173463000E+01  0.31368902334E+02  0.25691499871E+02  0.50528861077E+02  0.30000003729E+02 0.  0.
        -12    1    1    2    0    0  0.30173463000E+01 -0.31368902334E+02 -0.25691499871E+02  0.40659138923E+02  0.00000000000E+00 0.  1.
         11    1    3    3    0    0 -0.80896389470E+00  0.31685505473E+01  0.97259846372E+01  0.10261038572E+02  0.51100000000E-03 0. -1.
        -11    1    3    3    0    0 -0.71049398996E+01  0.17102585449E+02  0.20214280962E+02  0.27415246763E+02  0.51100000000E-03 0.  1.
        -12    1    3    3    0    0  0.48965574943E+01  0.11097766338E+02 -0.42487657279E+01  0.12852575741E+02  0.00000000000E+00 0.  1.
</event>
<event>
 7    1  0.5935282E-013  0.5052890E+02  0.7816164E-02  0.1300439E+00
        -11   -1    0    0    0    0  0.00000000000E+00  0.00000000000E+00  0.45593999997E+02  0.45594000000E+02  0.51100000000E-03 0.  1.
         11   -1    0    0    0    0 -0.00000000000E+00 -0.00000000000E+00 -0.45593999997E+02  0.45594000000E+02  0.51100000000E-03 0. -1.
    9900012    2    1    2    0    0  0.69030447511E+01  0.11891462986E+02 -0.38263601266E+02  0.50528903840E+02  0.30000133710E+02 0.  0.
        -12    1    1    2    0    0 -0.69030447511E+01 -0.11891462986E+02  0.38263601266E+02  0.40659096160E+02  0.00000000000E+00 0.  1.
         11    1    3    3    0    0 -0.38557220597E-01  0.83918293485E+01 -0.79887680727E+01  0.11586401601E+02  0.51100000000E-03 0. -1.
        -11    1    3    3    0    0  0.29975126977E+01  0.10857269679E+02 -0.28162420013E+02  0.30331292233E+02  0.51100000000E-03 0.  1.
        -12    1    3    3    0    0  0.39440892740E+01 -0.73576360416E+01 -0.21124131793E+01  0.86112100057E+01  0.00000000000E+00 0.  1.
</event>
<event>
 7    1  0.5935282E-013  0.5052887E+02  0.7816164E-02  0.1300439E+00
        -11   -1    0    0    0    0  0.00000000000E+00  0.00000000000E+00  0.45593999997E+02  0.45594000000E+02  0.51100000000E-03 0.  1.
         11   -1    0    0    0    0 -0.00000000000E+00 -0.00000000000E+00 -0.45593999997E+02  0.45594000000E+02  0.51100000000E-03 0. -1.
    9900012    2    1    2    0    0 -0.39225710823E+02 -0.10470656600E+02 -0.22077381265E+01  0.50528866379E+02  0.30000019845E+02 0.  0.
        -12    1    1    2    0    0  0.39225710823E+02  0.10470656600E+02  0.22077381265E+01  0.40659133621E+02  0.00000000000E+00 0.  1.
         11    1    3    3    0    0 -0.30964495736E+01 -0.54450462403E+01 -0.72272695823E+01  0.95639925971E+01  0.51100000000E-03 0. -1.
        -11    1    3    3    0    0 -0.42621265841E+01 -0.63764895633E+01 -0.27300742371E+01  0.81411699265E+01  0.51100000000E-03 0.  1.
        -12    1    3    3    0    0 -0.31867134665E+02  0.13508792032E+01  0.77496056930E+01  0.32823703855E+02  0.00000000000E+00 0.  1.
</event>
<event>
 7    1  0.5935282E-013  0.5052884E+02  0.7816164E-02  0.1300439E+00
        -11   -1    0    0    0    0  0.00000000000E+00  0.00000000000E+00  0.45593999997E+02  0.45594000000E+02  0.51100000000E-03 0.  1.
         11   -1    0    0    0    0 -0.00000000000E+00 -0.00000000000E+00 -0.45593999997E+02  0.45594000000E+02  0.51100000000E-03 0. -1.
    9900012    2    1    2    0    0 -0.54914004380E+01 -0.37473424772E+02 -0.14790333642E+02  0.50528843440E+02  0.29999950121E+02 0.  0.
        -12    1    1    2    0    0  0.54914004380E+01  0.37473424772E+02  0.14790333642E+02  0.40659156560E+02  0.00000000000E+00 0.  1.
         11    1    3    3    0    0 -0.26734966749E+00 -0.51242863908E+01 -0.47631196749E+01  0.70012210477E+01  0.51100000000E-03 0. -1.
        -11    1    3    3    0    0  0.65031727819E+01  0.13231993603E+01 -0.24581020522E+01  0.70770317746E+01  0.51100000000E-03 0.  1.
        -12    1    3    3    0    0 -0.11727223552E+02 -0.33672337741E+02 -0.75691119154E+01  0.36450590618E+02  0.00000000000E+00 0.  1.
</event>
<event>
 7    1  0.5935282E-013  0.5052885E+02  0.7816164E-02  0.1300439E+00
        -11   -1    0    0    0    0  0.00000000000E+00  0.00000000000E+00  0.45593999997E+02  0.45594000000E+02  0.51100000000E-03 0.  1.
         11   -1    0    0    0    0 -0.00000000000E+00 -0.00000000000E+00 -0.45593999997E+02  0.45594000000E+02  0.51100000000E-03 0. -1.
    9900012    2    1    2    0    0  0.73887563958E+01 -0.31008103344E+02 -0.25240244409E+02  0.50528854265E+02  0.29999983023E+02 0.  0.
        -12    1    1    2    0    0 -0.73887563958E+01  0.31008103344E+02  0.25240244409E+02  0.40659145735E+02  0.00000000000E+00 0.  1.
         11    1    3    3    0    0  0.59229700691E+01 -0.15731215897E+02 -0.44734143157E+01  0.17394371617E+02  0.51100000000E-03 0. -1.
        -11    1    3    3    0    0  0.50087945896E+01 -0.44835542082E+01  0.25562192308E+01  0.71919773773E+01  0.51100000000E-03 0.  1.
         12    1    3    3    0    0 -0.35430082629E+01 -0.10793333239E+02 -0.23323049324E+02  0.25942505271E+02  0.00000000000E+00 0. -1.
</event>
<event>
 7    1  0.5935282E-013  0.5052889E+02  0.7816164E-02  0.1300439E+00
        -11   -1    0    0    0    0  0.00000000000E+00  0.00000000000E+00  0.45593999997E+02  0.45594000000E+02  0.51100000000E-03 0.  1.
         11   -1    0    0    0    0 -0.00000000000E+00 -0.00000000000E+00 -0.45593999997E+02  0.45594000000E+02  0.51100000000E-03 0. -1.
    9900012    2    1    2    0    0 -0.32344351510E+02  0.24586049875E+02  0.15911970472E+01  0.50528894856E+02  0.30000106405E+02 0.  0.
        -12    1    1    2    0    0  0.32344351510E+02 -0.24586049875E+02 -0.15911970472E+01  0.40659105144E+02  0.00000000000E+00 0.  1.
         11    1    3    3    0    0 -0.17245111112E+02 -0.13197104216E+01 -0.34370997311E+00  0.17298948802E+02  0.51100000000E-03 0. -1.
        -11    1    3    3    0    0  0.78752464072E+00 -0.44488927434E+00  0.22862831152E+01  0.24587013381E+01  0.51100000000E-03 0.  1.
        -12    1    3    3    0    0 -0.15886765039E+02  0.26350649571E+02 -0.35137609494E+00  0.30771244716E+02  0.00000000000E+00 0.  1.
</event>
<event>
 7    1  0.5935282E-013  0.5052885E+02  0.7816164E-02  0.1300439E+00
        -11   -1    0    0    0    0  0.00000000000E+00  0.00000000000E+00  0.45593999997E+02  0.45594000000E+02  0.51100000000E-03 0.  1.
         11   -1    0    0    0    0 -0.00000000000E+00 -0.00000000000E+00 -0.45593999997E+02  0.45594000000E+02  0.51100000000E-03 0. -1.
    9900012    2    1    2    0    0  0.25502850816E+02  0.14134786422E+02 -0.28336875506E+02  0.50528854652E+02  0.29999984201E+02 0.  0.
        -12    1    1    2    0    0 -0.25502850816E+02 -0.14134786422E+02  0.28336875506E+02  0.40659145348E+02  0.00000000000E+00 0.  1.
         11    1    3    3    0    0  0.19605675737E+02  0.11090743249E+02 -0.17457895668E+02  0.28498512739E+02  0.51100000000E-03 0. -1.
        -11    1    3    3    0    0  0.11971597884E+02  0.13500572297E+01 -0.39904114981E+01  0.12691146308E+02  0.51100000000E-03 0.  1.
        -12    1    3    3    0    0 -0.60744228045E+01  0.16939859437E+01 -0.68885683395E+01  0.93391956052E+01  0.00000000000E+00 0.  1.
</event>
<event>
 7    1  0.5935282E-013  0.5052884E+02  0.7816164E-02  0.1300439E+00
        -11   -1    0    0    0    0  0.00000000000E+00  0.00000000000E+00  0.45593999997E+02  0.45594000000E+02  0.51100000000E-03 0.  1.
         11   -1    0    0    0    0 -0.00000000000E+00 -0.00000000000E+00 -0.45593999997E+02  0.45594000000E+02  0.51100000000E-03 0. -1.
    9900012    2    1    2    0    0 -0.17496778714E+02  0.10685723751E+02 -0.35111898414E+02  0.50528839068E+02  0.29999936830E+02 0.  0.
        -12    1    1    2    0    0  0.17496778714E+02 -0.10685723751E+02  0.35111898414E+02  0.40659160932E+02  0.00000000000E+00 0.  1.
         11    1    3    3    0    0 -0.56106945943E+01 -0.30993982430E+01 -0.15662898444E+02  0.16923727462E+02  0.51100000000E-03 0. -1.
        -11    1    3    3    0    0 -0.16362266046E+02  0.91998371869E+01 -0.19675141453E+02  0.27193233458E+02  0.51100000000E-03 0.  1.
        -12    1    3    3    0    0  0.44761819263E+01  0.45852848075E+01  0.22614148295E+00  0.64118781471E+01  0.00000000000E+00 0.  1.
</event>
<event>
 7    1  0.5935282E-013  0.5052886E+02  0.7816164E-02  0.1300439E+00
        -11   -1    0    0    0    0  0.00000000000E+00  0.00000000000E+00  0.45593999997E+02  0.45594000000E+02  0.51100000000E-03 0. -1.
         11   -1    0    0    0    0 -0.00000000000E+00 -0.00000000000E+00 -0.45593999997E+02  0.45594000000E+02  0.51100000000E-03 0.  1.
    9900012    2    1    2    0    0  0.39368989543E+02 -0.89892422100E+01 -0.47372601544E+01  0.50528862689E+02  0.30000008628E+02 0.  0.
        -12    1    1    2    0    0 -0.39368989543E+02  0.89892422100E+01  0.47372601544E+01  0.40659137311E+02  0.00000000000E+00 0.  1.
         11    1    3    3    0    0  0.72427467301E+01 -0.35514605914E+01 -0.95550813315E+01  0.12504792363E+02  0.51100000000E-03 0. -1.
        -11    1    3    3    0    0  0.18770718005E+02  0.39510933246E+01 -0.38133126347E+01  0.19557411546E+02  0.51100000000E-03 0.  1.
        -12    1    3    3    0    0  0.13355524808E+02 -0.93888749432E+01  0.86311338118E+01  0.18466658779E+02  0.00000000000E+00 0.  1.
</event>
<event>
 7    1  0.5935282E-013  0.5052886E+02  0.7816164E-02  0.1300439E+00
        -11   -1    0    0    0    0  0.00000000000E+00  0.00000000000E+00  0.45593999997E+02  0.45594000000E+02  0.51100000000E-03 0. -1.
         11   -1    0    0    0    0 -0.00000000000E+00 -0.00000000000E+00 -0.45593999997E+02  0.45594000000E+02  0.51100000000E-03 0.  1.
    9900012    2    1    2    0    0  0.19727597720E+02  0.14000113134E+02  0.32680032404E+02  0.50528858378E+02  0.29999995524E+02 0.  0.
        -12    1    1    2    0    0 -0.19727597720E+02 -0.14000113134E+02 -0.32680032404E+02  0.40659141622E+02  0.00000000000E+00 0.  1.
         11    1    3    3    0    0 -0.33907823679E+01  0.10646030661E+02  0.13337865377E+02  0.17399253633E+02  0.51100000000E-03 0. -1.
        -11    1    3    3    0    0  0.22832552416E+01  0.52069158906E+00  0.97335267675E+01  0.10011289519E+02  0.51100000000E-03 0.  1.
        -12    1    3    3    0    0  0.20835124847E+02  0.28333908841E+01  0.96086402590E+01  0.23118315226E+02  0.00000000000E+00 0.  1.
</event>
<event>
 7    1  0.5935282E-013  0.5052889E+02  0.7816164E-02  0.1300439E+00
        -11   -1    0    0    0    0  0.00000000000E+00  0.00000000000E+00  0.45593999997E+02  0.45594000000E+02  0.51100000000E-03 0.  1.
         11   -1    0    0    0    0 -0.00000000000E+00 -0.00000000000E+00 -0.45593999997E+02  0.45594000000E+02  0.51100000000E-03 0. -1.
    9900012    2    1    2    0    0 -0.38782603812E+02 -0.11168308574E+01 -0.12158344882E+02  0.50528892534E+02  0.30000099348E+02 0.  0.
        -12    1    1    2    0    0  0.38782603812E+02  0.11168308574E+01  0.12158344882E+02  0.40659107466E+02  0.00000000000E+00 0.  1.
         11    1    3    3    0    0 -0.31057111858E+02  0.42402936599E+01 -0.17602549531E+02  0.35949604136E+02  0.51100000000E-03 0. -1.
        -11    1    3    3    0    0 -0.26275003386E-01  0.15629621564E+01 -0.14576687432E+01  0.21373674237E+01  0.51100000000E-03 0.  1.
         12    1    3    3    0    0 -0.76992169509E+01 -0.69200866736E+01  0.69018733918E+01  0.12441920975E+02  0.00000000000E+00 0. -1.
</event>
<event>
 7    1  0.5935282E-013  0.5052884E+02  0.7816164E-02  0.1300439E+00
        -11   -1    0    0    0    0  0.00000000000E+00  0.00000000000E+00  0.45593999997E+02  0.45594000000E+02  0.51100000000E-03 0.  1.
         11   -1    0    0    0    0 -0.00000000000E+00 -0.00000000000E+00 -0.45593999997E+02  0.45594000000E+02  0.51100000000E-03 0. -1.
    9900012    2    1    2    0    0 -0.25519544126E+02 -0.31650059130E+02  0.44014411039E+00  0.50528842333E+02  0.29999946755E+02 0.  0.
        -12    1    1    2    0    0  0.25519544126E+02  0.31650059130E+02 -0.44014411039E+00  0.40659157667E+02  0.00000000000E+00 0.  1.
         11    1    3    3    0    0 -0.78981550978E+01 -0.90954167599E+01 -0.28816992961E+01  0.12385945708E+02  0.51100000000E-03 0. -1.
        -11    1    3    3    0    0 -0.12231077545E+02 -0.23409415140E+02  0.11092727139E+02  0.28646964424E+02  0.51100000000E-03 0.  1.
        -12    1    3    3    0    0 -0.53903114837E+01  0.85477276967E+00 -0.77708837323E+01  0.94959322007E+01  0.00000000000E+00 0.  1.
</event>
<event>
 7    1  0.5935282E-013  0.5052885E+02  0.7816164E-02  0.1300439E+00
        -11   -1    0    0    0    0  0.00000000000E+00  0.00000000000E+00  0.45593999997E+02  0.45594000000E+02  0.51100000000E-03 0.  1.
         11   -1    0    0    0    0 -0.00000000000E+00 -0.00000000000E+00 -0.45593999997E+02  0.45594000000E+02  0.51100000000E-03 0. -1.
    9900012    2    1    2    0    0  0.14073261443E+02  0.16346914852E+02 -0.34465758302E+02  0.50528845949E+02  0.29999957746E+02 0.  0.
        -12    1    1    2    0    0 -0.14073261443E+02 -0.16346914852E+02  0.34465758302E+02  0.40659154051E+02  0.00000000000E+00 0.  1.
         11    1    3    3    0    0 -0.32911877298E+01  0.73086857650E+01 -0.20063369256E+02  0.21605267655E+02  0.51100000000E-03 0. -1.
        -11    1    3    3    0    0  0.20437424944E+01 -0.36573062614E+01  0.27491452760E+00  0.41986129533E+01  0.51100000000E-03 0.  1.
         12    1    3    3    0    0  0.15320706678E+02  0.12695535348E+02 -0.14677303574E+02  0.24724965340E+02  0.00000000000E+00 0. -1.
</event>
<event>
 7    1  0.5935282E-013  0.5052886E+02  0.7816164E-02  0.1300439E+00
        -11   -1    0    0    0    0  0.00000000000E+00  0.00000000000E+00  0.45593999997E+02  0.45594000000E+02  0.51100000000E-03 0. -1.
         11   -1    0    0    0    0 -0.00000000000E+00 -0.00000000000E+00 -0.45593999997E+02  0.45594000000E+02  0.51100000000E-03 0.  1.
    9900012    2    1    2    0    0 -0.22565037779E+01 -0.36098731503E+02  0.18572968351E+02  0.50528863526E+02  0.30000011173E+02 0.  0.
        -12    1    1    2    0    0  0.22565037779E+01  0.36098731503E+02 -0.18572968351E+02  0.40659136474E+02  0.00000000000E+00 0.  1.
         11    1    3    3    0    0  0.30043453739E+01 -0.87141038725E+01  0.17347227707E+02  0.19644032346E+02  0.51100000000E-03 0. -1.
        -11    1    3    3    0    0 -0.26464013236E+01 -0.22977594803E+01 -0.37965900461E+01  0.51669366973E+01  0.51100000000E-03 0.  1.
        -12    1    3    3    0    0 -0.26144478283E+01 -0.25086868151E+02  0.50223306903E+01  0.25717894483E+02  0.00000000000E+00 0.  1.
</event>
<event>
 7    1  0.5935282E-013  0.5052887E+02  0.7816164E-02  0.1300439E+00
        -11   -1    0    0    0    0  0.00000000000E+00  0.00000000000E+00  0.45593999997E+02  0.45594000000E+02  0.51100000000E-03 0.  1.
         11   -1    0    0    0    0 -0.00000000000E+00 -0.00000000000E+00 -0.45593999997E+02  0.45594000000E+02  0.51100000000E-03 0. -1.
    9900012    2    1    2    0    0  0.19071293499E+02  0.35839729082E+02 -0.22280619658E+01  0.50528872162E+02  0.30000037424E+02 0.  0.
        -12    1    1    2    0    0 -0.19071293499E+02 -0.35839729082E+02  0.22280619658E+01  0.40659127838E+02  0.00000000000E+00 0.  1.
         11    1    3    3    0    0  0.34500140423E+01  0.18641754090E+01 -0.54622656908E+01  0.67241425911E+01  0.51100000000E-03 0. -1.
        -11    1    3    3    0    0  0.59999058593E+01 -0.14063348119E+01  0.35984182492E+01  0.71361938091E+01  0.51100000000E-03 0.  1.
        -12    1    3    3    0    0  0.96213735974E+01  0.35381888485E+02 -0.36421452421E+00  0.36668535762E+02  0.00000000000E+00 0.  1.
</event>
<event>
 7    1  0.5935282E-013  0.5052886E+02  0.7816164E-02  0.1300439E+00
        -11   -1    0    0    0    0  0.00000000000E+00  0.00000000000E+00  0.45593999997E+02  0.45594000000E+02  0.51100000000E-03 0.  1.
         11   -1    0    0    0    0 -0.00000000000E+00 -0.00000000000E+00 -0.45593999997E+02  0.45594000000E+02  0.51100000000E-03 0. -1.
    9900012    2    1    2    0    0 -0.34253478400E+02 -0.19023304970E+02 -0.10861811685E+02  0.50528857516E+02  0.29999992905E+02 0.  0.
        -12    1    1    2    0    0  0.34253478400E+02  0.19023304970E+02  0.10861811685E+02  0.40659142484E+02  0.00000000000E+00 0.  1.
         11    1    3    3    0    0 -0.11901046208E+02  0.44703857412E+01 -0.68054263772E+01  0.14419884811E+02  0.51100000000E-03 0. -1.
        -11    1    3    3    0    0  0.97360026986E+00  0.14373598972E+01 -0.28930081213E+00  0.17599989149E+01  0.51100000000E-03 0.  1.
        -12    1    3    3    0    0 -0.23326032461E+02 -0.24931050608E+02 -0.37670844957E+01  0.34348973790E+02  0.00000000000E+00 0.  1.
</event>
<event>
 7    1  0.5935282E-013  0.5052886E+02  0.7816164E-02  0.1300439E+00
        -11   -1    0    0    0    0  0.00000000000E+00  0.00000000000E+00  0.45593999997E+02  0.45594000000E+02  0.51100000000E-03 0.  1.
         11   -1    0    0    0    0 -0.00000000000E+00 -0.00000000000E+00 -0.45593999997E+02  0.45594000000E+02  0.51100000000E-03 0. -1.
    9900012    2    1    2    0    0 -0.46645278553E+01  0.35200727702E+02 -0.19806987327E+02  0.50528858374E+02  0.29999995513E+02 0.  0.
        -12    1    1    2    0    0  0.46645278553E+01 -0.35200727702E+02  0.19806987327E+02  0.40659141626E+02  0.00000000000E+00 0.  1.
         11    1    3    3    0    0 -0.66264123705E+01  0.33615904403E+01 -0.83578706274E+00  0.74771767043E+01  0.51100000000E-03 0. -1.
        -11    1    3    3    0    0 -0.51067378513E+01  0.27595750208E+02 -0.77266244493E+01  0.29108502653E+02  0.51100000000E-03 0.  1.
        -12    1    3    3    0    0  0.70686223665E+01  0.42433870528E+01 -0.11244575814E+02  0.13943179017E+02  0.00000000000E+00 0.  1.
</event>
<event>
 7    1  0.5935282E-013  0.5052886E+02  0.7816164E-02  0.1300439E+00
        -11   -1    0    0    0    0  0.00000000000E+00  0.00000000000E+00  0.45593999997E+02  0.45594000000E+02  0.51100000000E-03 0. -1.
         11   -1    0    0    0    0 -0.00000000000E+00 -0.00000000000E+00 -0.45593999997E+02  0.45594000000E+02  0.51100000000E-03 0.  1.
    9900012    2    1    2    0    0  0.38441245250E+02 -0.79644680681E+01  0.10583190694E+02  0.50528855724E+02  0.29999987459E+02 0.  0.
        -12    1    1    2    0    0 -0.38441245250E+02  0.79644680681E+01 -0.10583190694E+02  0.40659144276E+02  0.00000000000E+00 0.  1.
         11    1    3    3    0    0 -0.14610920697E+01  0.49538829037E+01 -0.83002793113E+00  0.52311272674E+01  0.51100000000E-03 0. -1.
        -11    1    3    3    0    0  0.35753329572E+01 -0.57487139955E+01  0.24597511526E+01  0.72028532091E+01  0.51100000000E-03 0.  1.
         12    1    3    3    0    0  0.36327004363E+02 -0.71696369763E+01  0.89534674727E+01  0.38094875248E+02  0.00000000000E+00 0. -1.
</event>
<event>
 7    1  0.5935282E-013  0.5052887E+02  0.7816164E-02  0.1300439E+00
        -11   -1    0    0    0    0  0.00000000000E+00  0.00000000000E+00  0.45593999997E+02  0.45594000000E+02  0.51100000000E-03 0. -1.
         11   -1    0    0    0    0 -0.00000000000E+00 -0.00000000000E+00 -0.45593999997E+02  0.45594000000E+02  0.51100000000E-03 0.  1.
    9900012    2    1    2    0    0 -0.24643085526E+01  0.39326924479E+02  0.10024211683E+02  0.50528872790E+02  0.30000039332E+02 0.  0.
        -12    1    1    2    0    0  0.24643085526E+01 -0.39326924479E+02 -0.10024211683E+02  0.40659127210E+02  0.00000000000E+00 0.  1.
         11    1    3    3    0    0 -0.11953550513E+02  0.16584879855E+02  0.76836603420E+01  0.21839969006E+02  0.51100000000E-03 0. -1.
        -11    1    3    3    0    0 -0.37913365703E+01  0.35067929178E+01 -0.25461245478E+00  0.51707501700E+01  0.51100000000E-03 0.  1.
         12    1    3    3    0    0  0.13280578530E+02  0.19235251706E+02  0.25951637960E+01  0.23518153614E+02  0.00000000000E+00 0. -1.
</event>
<event>
 7    1  0.5935282E-013  0.5052886E+02  0.7816164E-02  0.1300439E+00
        -11   -1    0    0    0    0  0.00000000000E+00  0.00000000000E+00  0.45593999997E+02  0.45594000000E+02  0.51100000000E-03 0. -1.
         11   -1    0    0    0    0 -0.00000000000E+00 -0.00000000000E+00 -0.45593999997E+02  0.45594000000E+02  0.51100000000E-03 0.  1.
    9900012    2    1    2    0    0 -0.40517429484E+02  0.29117370235E+01 -0.17392987639E+01  0.50528862470E+02  0.30000007964E+02 0.  0.
        -12    1    1    2    0    0  0.40517429484E+02 -0.29117370235E+01  0.17392987639E+01  0.40659137530E+02  0.00000000000E+00 0.  1.
         11    1    3    3    0    0 -0.97023436845E+01  0.11951051341E+02  0.96627244599E-01  0.15393909127E+02  0.51100000000E-03 0. -1.
        -11    1    3    3    0    0 -0.21024358932E+02 -0.22999308489E+01  0.45622831401E+01  0.21636260724E+02  0.51100000000E-03 0.  1.
        -12    1    3    3    0    0 -0.97907268677E+01 -0.67393834681E+01 -0.63982091486E+01  0.13498692620E+02  0.00000000000E+00 0.  1.
</event>
<event>
 7    1  0.5935282E-013  0.5052886E+02  0.7816164E-02  0.1300439E+00
        -11   -1    0    0    0    0  0.00000000000E+00  0.00000000000E+00  0.45593999997E+02  0.45594000000E+02  0.51100000000E-03 0.  1.
         11   -1    0    0    0    0 -0.00000000000E+00 -0.00000000000E+00 -0.45593999997E+02  0.45594000000E+02  0.51100000000E-03 0. -1.
    9900012    2    1    2    0    0 -0.32045504253E+02 -0.17052367057E+02 -0.18315787246E+02  0.50528860467E+02  0.30000001877E+02 0.  0.
        -12    1    1    2    0    0  0.32045504253E+02  0.17052367057E+02  0.18315787246E+02  0.40659139533E+02  0.00000000000E+00 0.  1.
         11    1    3    3    0    0 -0.16518396416E+02 -0.80560043626E+01 -0.74079954029E+00  0.18393080510E+02  0.51100000000E-03 0.  1.
        -11    1    3    3    0    0  0.23205482479E-01 -0.94118835332E+01 -0.10979539594E+01  0.94757370845E+01  0.51100000000E-03 0. -1.
         12    1    3    3    0    0 -0.15550313320E+02  0.41552083895E+00 -0.16477033746E+02  0.22660042873E+02  0.00000000000E+00 0. -1.
</event>
<event>
 7    1  0.5935282E-013  0.5052886E+02  0.7816164E-02  0.1300439E+00
        -11   -1    0    0    0    0  0.00000000000E+00  0.00000000000E+00  0.45593999997E+02  0.45594000000E+02  0.51100000000E-03 0.  1.
         11   -1    0    0    0    0 -0.00000000000E+00 -0.00000000000E+00 -0.45593999997E+02  0.45594000000E+02  0.51100000000E-03 0. -1.
    9900012    2    1    2    0    0  0.11543019035E+02  0.87943442911E+01 -0.37981358418E+02  0.50528863668E+02  0.30000011606E+02 0.  0.
        -12    1    1    2    0    0 -0.11543019035E+02 -0.87943442911E+01  0.37981358418E+02  0.40659136332E+02  0.00000000000E+00 0.  1.
         11    1    3    3    0    0 -0.58160837459E+00  0.88763617324E+01 -0.77177254597E+01  0.11776729276E+02  0.51100000000E-03 0. -1.
        -11    1    3    3    0    0 -0.25473941478E+01  0.67282044071E+01 -0.14393925963E+02  0.16091707690E+02  0.51100000000E-03 0.  1.
        -12    1    3    3    0    0  0.14672021557E+02 -0.68102218484E+01 -0.15869706996E+02  0.22660426703E+02  0.00000000000E+00 0.  1.
</event>
<event>
 7    1  0.5935282E-013  0.5052886E+02  0.7816164E-02  0.1300439E+00
        -11   -1    0    0    0    0  0.00000000000E+00  0.00000000000E+00  0.45593999997E+02  0.45594000000E+02  0.51100000000E-03 0.  1.
         11   -1    0    0    0    0 -0.00000000000E+00 -0.00000000000E+00 -0.45593999997E+02  0.45594000000E+02  0.51100000000E-03 0. -1.
    9900012    2    1    2    0    0 -0.19826160462E+02  0.30049485025E+02 -0.18897548155E+02  0.50528861848E+02  0.30000006074E+02 0.  0.
        -12    1    1    2    0    0  0.19826160462E+02 -0.30049485025E+02  0.18897548155E+02  0.40659138152E+02  0.00000000000E+00 0.  1.
         11    1    3    3    0    0 -0.10412543129E+02  0.71198571834E+01 -0.14193507413E+02  0.18988656447E+02  0.51100000000E-03 0.  1.
        -11    1    3    3    0    0  0.15947420011E+01  0.15427057038E+02 -0.85030066608E+01  0.17687238717E+02  0.51100000000E-03 0. -1.
        -12    1    3    3    0    0 -0.11008359334E+02  0.75025708039E+01  0.37989659187E+01  0.13852966684E+02  0.00000000000E+00 0.  1.
</event>
<event>
 7    1  0.5935282E-013  0.5052885E+02  0.7816164E-02  0.1300439E+00
        -11   -1    0    0    0    0  0.00000000000E+00  0.00000000000E+00  0.45593999997E+02  0.45594000000E+02  0.51100000000E-03 0. -1.
         11   -1    0    0    0    0 -0.00000000000E+00 -0.00000000000E+00 -0.45593999997E+02  0.45594000000E+02  0.51100000000E-03 0.  1.
    9900012    2    1    2    0    0 -0.57323922868E+01 -0.45935298833E+01  0.39990066081E+02  0.50528853141E+02  0.29999979607E+02 0.  0.
        -12    1    1    2    0    0  0.57323922868E+01  0.45935298833E+01 -0.39990066081E+02  0.40659146859E+02  0.00000000000E+00 0.  1.
         11    1    3    3    0    0 -0.85347080946E+01 -0.67352389876E+01  0.67352030575E+01  0.12789356785E+02  0.51100000000E-03 0. -1.
        -11    1    3    3    0    0  0.20484743871E+01 -0.40192292524E+01  0.66029910145E+00  0.45592155315E+01  0.51100000000E-03 0.  1.
         12    1    3    3    0    0  0.75384142067E+00  0.61609383567E+01  0.32594563922E+02  0.33180280825E+02  0.00000000000E+00 0. -1.
</event>
<event>
 7    1  0.5935282E-013  0.5052888E+02  0.7816164E-02  0.1300439E+00
        -11   -1    0    0    0    0  0.00000000000E+00  0.00000000000E+00  0.45593999997E+02  0.45594000000E+02  0.51100000000E-03 0.  1.
         11   -1    0    0    0    0 -0.00000000000E+00 -0.00000000000E+00 -0.45593999997E+02  0.45594000000E+02  0.51100000000E-03 0. -1.
    9900012    2    1    2    0    0 -0.11988147867E+01  0.34577513420E+02 -0.21357022825E+02  0.50528880295E+02  0.30000062145E+02 0.  0.
        -12    1    1    2    0    0  0.11988147867E+01 -0.34577513420E+02  0.21357022825E+02  0.40659119705E+02  0.00000000000E+00 0.  1.
         11    1    3    3    0    0 -0.77559506059E+01  0.83264451236E+01 -0.18522916207E+01  0.11528895988E+02  0.51100000000E-03 0. -1.
        -11    1    3    3    0    0 -0.53846066423E+01  0.94632868867E+01 -0.38764504288E+00  0.10894863759E+02  0.51100000000E-03 0.  1.
        -12    1    3    3    0    0  0.11941742461E+02  0.16787781410E+02 -0.19117086162E+02  0.28105120548E+02  0.00000000000E+00 0.  1.
</event>
<event>
 7    1  0.5935282E-013  0.5052886E+02  0.7816164E-02  0.1300439E+00
        -11   -1    0    0    0    0  0.00000000000E+00  0.00000000000E+00  0.45593999997E+02  0.45594000000E+02  0.51100000000E-03 0. -1.
         11   -1    0    0    0    0 -0.00000000000E+00 -0.00000000000E+00 -0.45593999997E+02  0.45594000000E+02  0.51100000000E-03 0.  1.
    9900012    2    1    2    0    0 -0.39747032495E+02  0.18185526200E+00  0.85619149714E+01  0.50528855254E+02  0.29999986031E+02 0.  0.
        -12    1    1    2    0    0  0.39747032495E+02 -0.18185526200E+00 -0.85619149714E+01  0.40659144746E+02  0.00000000000E+00 0.  1.
         11    1    3    3    0    0 -0.49675278496E+01 -0.44812020943E+01  0.10625817398E+01  0.67739637851E+01  0.51100000000E-03 0. -1.
        -11    1    3    3    0    0  0.40252604047E+01  0.15777974750E+00  0.10237269992E+01  0.41563966371E+01  0.51100000000E-03 0.  1.
        -12    1    3    3    0    0 -0.38804765050E+02  0.45052776088E+01  0.64756062324E+01  0.39598494832E+02  0.00000000000E+00 0.  1.
</event>
<event>
 7    1  0.5935282E-013  0.5052886E+02  0.7816164E-02  0.1300439E+00
        -11   -1    0    0    0    0  0.00000000000E+00  0.00000000000E+00  0.45593999997E+02  0.45594000000E+02  0.51100000000E-03 0. -1.
         11   -1    0    0    0    0 -0.00000000000E+00 -0.00000000000E+00 -0.45593999997E+02  0.45594000000E+02  0.51100000000E-03 0.  1.
    9900012    2    1    2    0    0 -0.25896806552E+02 -0.13369286394E+02  0.28351066411E+02  0.50528863574E+02  0.30000011320E+02 0.  0.
        -12    1    1    2    0    0  0.25896806552E+02  0.13369286394E+02 -0.28351066411E+02  0.40659136426E+02  0.00000000000E+00 0.  1.
         11    1    3    3    0    0 -0.34452692691E+01 -0.99703732501E+00  0.33258514432E+01  0.48913445848E+01  0.51100000000E-03 0. -1.
        -11    1    3    3    0    0 -0.91337030581E+01  0.87209391509E+00 -0.48274574195E+01  0.10367710680E+02  0.51100000000E-03 0.  1.
         12    1    3    3    0    0 -0.13317834225E+02 -0.13244342984E+02  0.29852672387E+02  0.35269808309E+02  0.00000000000E+00 0. -1.
</event>
<event>
 7    1  0.5935282E-013  0.5052886E+02  0.7816164E-02  0.1300439E+00
        -11   -1    0    0    0    0  0.00000000000E+00  0.00000000000E+00  0.45593999997E+02  0.45594000000E+02  0.51100000000E-03 0.  1.
         11   -1    0    0    0    0 -0.00000000000E+00 -0.00000000000E+00 -0.45593999997E+02  0.45594000000E+02  0.51100000000E-03 0. -1.
    9900012    2    1    2    0    0  0.37108208920E+02  0.84222657109E-01 -0.16617453916E+02  0.50528855428E+02  0.29999986559E+02 0.  0.
        -12    1    1    2    0    0 -0.37108208920E+02 -0.84222657109E-01  0.16617453916E+02  0.40659144572E+02  0.00000000000E+00 0.  1.
         11    1    3    3    0    0  0.11373460445E+02  0.35817244522E+00  0.27367265576E+01  0.11703570502E+02  0.51100000000E-03 0. -1.
        -11    1    3    3    0    0 -0.86007552845E+00  0.25655059290E+01  0.29475764067E+01  0.40012195042E+01  0.51100000000E-03 0.  1.
        -12    1    3    3    0    0  0.26594824003E+02 -0.28394557171E+01 -0.22301756880E+02  0.34824065422E+02  0.00000000000E+00 0.  1.
</event>
<event>
 7    1  0.5935282E-013  0.5052886E+02  0.7816164E-02  0.1300439E+00
        -11   -1    0    0    0    0  0.00000000000E+00  0.00000000000E+00  0.45593999997E+02  0.45594000000E+02  0.51100000000E-03 0.  1.
         11   -1    0    0    0    0 -0.00000000000E+00 -0.00000000000E+00 -0.45593999997E+02  0.45594000000E+02  0.51100000000E-03 0. -1.
    9900012    2    1    2    0    0  0.12968930582E+02 -0.35346560932E+02 -0.15349042046E+02  0.50528860537E+02  0.30000002088E+02 0.  0.
        -12    1    1    2    0    0 -0.12968930582E+02  0.35346560932E+02  0.15349042046E+02  0.40659139463E+02  0.00000000000E+00 0.  1.
         11    1    3    3    0    0  0.65111740630E+01 -0.28450511766E+01  0.17044446874E+01  0.73071770082E+01  0.51100000000E-03 0. -1.
        -11    1    3    3    0    0  0.56133919035E+01 -0.14498303105E+02  0.34476173343E+01  0.15924730049E+02  0.51100000000E-03 0.  1.
        -12    1    3    3    0    0  0.84436461541E+00 -0.18003206651E+02 -0.20501104067E+02  0.27296953480E+02  0.00000000000E+00 0.  1.
</event>
<event>
 7    1  0.5935282E-013  0.5052886E+02  0.7816164E-02  0.1300439E+00
        -11   -1    0    0    0    0  0.00000000000E+00  0.00000000000E+00  0.45593999997E+02  0.45594000000E+02  0.51100000000E-03 0. -1.
         11   -1    0    0    0    0 -0.00000000000E+00 -0.00000000000E+00 -0.45593999997E+02  0.45594000000E+02  0.51100000000E-03 0.  1.
    9900012    2    1    2    0    0  0.47059978309E+01  0.26712092140E+02  0.30289991906E+02  0.50528857219E+02  0.29999992001E+02 0.  0.
        -12    1    1    2    0    0 -0.47059978309E+01 -0.26712092140E+02 -0.30289991906E+02  0.40659142781E+02  0.00000000000E+00 0.  1.
         11    1    3    3    0    0  0.11851660839E+01  0.43193547011E+01  0.59973412796E+01  0.74852886628E+01  0.51100000000E-03 0. -1.
        -11    1    3    3    0    0  0.13677563310E+02  0.18988180186E+02  0.10684939817E+02  0.25725370047E+02  0.51100000000E-03 0.  1.
         12    1    3    3    0    0 -0.10156731563E+02  0.34045572519E+01  0.13607710809E+02  0.17318198509E+02  0.00000000000E+00 0. -1.
</event>
<event>
 7    1  0.5935282E-013  0.5052886E+02  0.7816164E-02  0.1300439E+00
        -11   -1    0    0    0    0  0.00000000000E+00  0.00000000000E+00  0.45593999997E+02  0.45594000000E+02  0.51100000000E-03 0.  1.
         11   -1    0    0    0    0 -0.00000000000E+00 -0.00000000000E+00 -0.45593999997E+02  0.45594000000E+02  0.51100000000E-03 0. -1.
    9900012    2    1    2    0    0 -0.35151276732E+02 -0.20428936200E+02 -0.46042618544E+00  0.50528859793E+02  0.29999999826E+02 0.  0.
        -12    1    1    2    0    0  0.35151276732E+02  0.20428936200E+02  0.46042618544E+00  0.40659140207E+02  0.00000000000E+00 0.  1.
         11    1    3    3    0    0 -0.11635624190E+02 -0.16576562153E+02  0.35331427667E+01  0.20558532564E+02  0.51100000000E-03 0. -1.
        -11    1    3    3    0    0 -0.45217261054E+01 -0.38099879782E+01  0.60709836333E+01  0.84746007519E+01  0.51100000000E-03 0.  1.
         12    1    3    3    0    0 -0.18993926436E+02 -0.42386068895E-01 -0.10064552586E+02  0.21495726477E+02  0.00000000000E+00 0. -1.
</event>
<event>
 7    1  0.5935282E-013  0.5052886E+02  0.7816164E-02  0.1300439E+00
        -11   -1    0    0    0    0  0.00000000000E+00  0.00000000000E+00  0.45593999997E+02  0.45594000000E+02  0.51100000000E-03 0.  1.
         11   -1    0    0    0    0 -0.00000000000E+00 -0.00000000000E+00 -0.45593999997E+02  0.45594000000E+02  0.51100000000E-03 0. -1.
    9900012    2    1    2    0    0 -0.22292492085E+02 -0.33982434100E+02 -0.11853238956E+01  0.50528855599E+02  0.29999987078E+02 0.  0.
        -12    1    1    2    0    0  0.22292492085E+02  0.33982434100E+02  0.11853238956E+01  0.40659144401E+02  0.00000000000E+00 0.  1.
         11    1    3    3    0    0 -0.48560866601E+01 -0.80940215623E+01  0.11746262158E+01  0.95118089609E+01  0.51100000000E-03 0. -1.
        -11    1    3    3    0    0 -0.13977349236E+02 -0.15697222486E+02  0.11111371367E+02  0.23774601140E+02  0.51100000000E-03 0.  1.
        -12    1    3    3    0    0 -0.34590561892E+01 -0.10191190051E+02 -0.13471321478E+02  0.17242445498E+02  0.00000000000E+00 0.  1.
</event>
<event>
 7    1  0.5935282E-013  0.5052886E+02  0.7816164E-02  0.1300439E+00
        -11   -1    0    0    0    0  0.00000000000E+00  0.00000000000E+00  0.45593999997E+02  0.45594000000E+02  0.51100000000E-03 0.  1.
         11   -1    0    0    0    0 -0.00000000000E+00 -0.00000000000E+00 -0.45593999997E+02  0.45594000000E+02  0.51100000000E-03 0. -1.
    9900012    2    1    2    0    0 -0.12599803406E+02  0.10305703001E+01 -0.38643867045E+02  0.50528861037E+02  0.30000003609E+02 0.  0.
        -12    1    1    2    0    0  0.12599803406E+02 -0.10305703001E+01  0.38643867045E+02  0.40659138963E+02  0.00000000000E+00 0.  1.
         11    1    3    3    0    0 -0.96139772982E+01  0.52494725802E+01 -0.19840912827E+02  0.22663789267E+02  0.51100000000E-03 0. -1.
        -11    1    3    3    0    0  0.45836202945E+01  0.68740077240E-01 -0.18607049675E+02  0.19163418225E+02  0.51100000000E-03 0.  1.
        -12    1    3    3    0    0 -0.75694464027E+01 -0.42876423573E+01 -0.19590454201E+00  0.87016535450E+01  0.00000000000E+00 0.  1.
</event>
<event>
 7    1  0.5935282E-013  0.5052886E+02  0.7816164E-02  0.1300439E+00
        -11   -1    0    0    0    0  0.00000000000E+00  0.00000000000E+00  0.45593999997E+02  0.45594000000E+02  0.51100000000E-03 0. -1.
         11   -1    0    0    0    0 -0.00000000000E+00 -0.00000000000E+00 -0.45593999997E+02  0.45594000000E+02  0.51100000000E-03 0.  1.
    9900012    2    1    2    0    0  0.60079958178E+01  0.38710977131E+02  0.10887131847E+02  0.50528863216E+02  0.30000010232E+02 0.  0.
        -12    1    1    2    0    0 -0.60079958178E+01 -0.38710977131E+02 -0.10887131847E+02  0.40659136784E+02  0.00000000000E+00 0.  1.
         11    1    3    3    0    0 -0.38270237750E+01  0.20597351898E+02  0.85050261005E+01  0.22610450801E+02  0.51100000000E-03 0. -1.
        -11    1    3    3    0    0  0.56281745070E+01  0.18673813462E+02 -0.43288164950E+01  0.19978145810E+02  0.51100000000E-03 0.  1.
        -12    1    3    3    0    0  0.42068450858E+01 -0.56018822990E+00  0.67109222415E+01  0.79402666051E+01  0.00000000000E+00 0.  1.
</event>
<event>
 7    1  0.5935282E-013  0.5052886E+02  0.7816164E-02  0.1300439E+00
        -11   -1    0    0    0    0  0.00000000000E+00  0.00000000000E+00  0.45593999997E+02  0.45594000000E+02  0.51100000000E-03 0.  1.
         11   -1    0    0    0    0 -0.00000000000E+00 -0.00000000000E+00 -0.45593999997E+02  0.45594000000E+02  0.51100000000E-03 0. -1.
    9900012    2    1    2    0    0 -0.27004387637E+02 -0.23853741426E+02 -0.18839519834E+02  0.50528862783E+02  0.30000008915E+02 0.  0.
        -12    1    1    2    0    0  0.27004387637E+02  0.23853741426E+02  0.18839519834E+02  0.40659137217E+02  0.00000000000E+00 0.  1.
         11    1    3    3    0    0 -0.63549410564E+01 -0.63851672216E+01 -0.59316625489E+00  0.90281494640E+01  0.51100000000E-03 0. -1.
        -11    1    3    3    0    0 -0.76532974260E+01 -0.15188988866E+02  0.22172391165E+01  0.17152098817E+02  0.51100000000E-03 0.  1.
        -12    1    3    3    0    0 -0.12996149154E+02 -0.22795853380E+01 -0.20463592696E+02  0.24348614502E+02  0.00000000000E+00 0.  1.
</event>
<event>
 7    1  0.5935282E-013  0.5052887E+02  0.7816164E-02  0.1300439E+00
        -11   -1    0    0    0    0  0.00000000000E+00  0.00000000000E+00  0.45593999997E+02  0.45594000000E+02  0.51100000000E-03 0.  1.
         11   -1    0    0    0    0 -0.00000000000E+00 -0.00000000000E+00 -0.45593999997E+02  0.45594000000E+02  0.51100000000E-03 0. -1.
    9900012    2    1    2    0    0 -0.16511859832E+02  0.27811485656E+02 -0.24638277962E+02  0.50528868302E+02  0.30000025692E+02 0.  0.
        -12    1    1    2    0    0  0.16511859832E+02 -0.27811485656E+02  0.24638277962E+02  0.40659131698E+02  0.00000000000E+00 0.  1.
         11    1    3    3    0    0  0.10673393754E+01  0.83089554870E+01 -0.10658580834E+01  0.84447621839E+01  0.51100000000E-03 0. -1.
        -11    1    3    3    0    0 -0.14315423293E+01 -0.56720796099E+00 -0.14788323399E+02  0.14868273186E+02  0.51100000000E-03 0.  1.
         12    1    3    3    0    0 -0.16147656878E+02  0.20069738129E+02 -0.87840964790E+01  0.27215832932E+02  0.00000000000E+00 0. -1.
</event>
<event>
 7    1  0.5935282E-013  0.5052886E+02  0.7816164E-02  0.1300439E+00
        -11   -1    0    0    0    0  0.00000000000E+00  0.00000000000E+00  0.45593999997E+02  0.45594000000E+02  0.51100000000E-03 0. -1.
         11   -1    0    0    0    0 -0.00000000000E+00 -0.00000000000E+00 -0.45593999997E+02  0.45594000000E+02  0.51100000000E-03 0.  1.
    9900012    2    1    2    0    0  0.33419171420E+02 -0.12076182467E+02  0.19760828306E+02  0.50528861584E+02  0.30000005271E+02 0.  0.
        -12    1    1    2    0    0 -0.33419171420E+02  0.12076182467E+02 -0.19760828306E+02  0.40659138416E+02  0.00000000000E+00 0.  1.
         11    1    3    3    0    0  0.12242958564E+02 -0.13964745990E+01  0.16562984693E+02  0.20643949184E+02  0.51100000000E-03 0. -1.
        -11    1    3    3    0    0 -0.32587451711E+01 -0.83062525729E+00  0.53873385813E+00  0.34058174994E+01  0.51100000000E-03 0.  1.
        -12    1    3    3    0    0  0.24434958027E+02 -0.98490826112E+01  0.26591097548E+01  0.26479094901E+02  0.00000000000E+00 0.  1.
</event>
<event>
 7    1  0.5935282E-013  0.5052886E+02  0.7816164E-02  0.1300439E+00
        -11   -1    0    0    0    0  0.00000000000E+00  0.00000000000E+00  0.45593999997E+02  0.45594000000E+02  0.51100000000E-03 0.  1.
         11   -1    0    0    0    0 -0.00000000000E+00 -0.00000000000E+00 -0.45593999997E+02  0.45594000000E+02  0.51100000000E-03 0. -1.
    9900012    2    1    2    0    0  0.10190480723E+02 -0.31073235318E+02 -0.24161409418E+02  0.50528861352E+02  0.30000004567E+02 0.  0.
        -12    1    1    2    0    0 -0.10190480723E+02  0.31073235318E+02  0.24161409418E+02  0.40659138648E+02  0.00000000000E+00 0.  1.
         11    1    3    3    0    0  0.74504719143E+01 -0.10159659438E+02 -0.20732771043E+02  0.24260585464E+02  0.51100000000E-03 0. -1.
        -11    1    3    3    0    0  0.48446249535E+01 -0.12447232192E+02 -0.88261701211E+01  0.16009536516E+02  0.51100000000E-03 0.  1.
        -12    1    3    3    0    0 -0.21046161449E+01 -0.84663436885E+01  0.53975317467E+01  0.10258739373E+02  0.00000000000E+00 0.  1.
</event>
<event>
 7    1  0.5935282E-013  0.5052885E+02  0.7816164E-02  0.1300439E+00
        -11   -1    0    0    0    0  0.00000000000E+00  0.00000000000E+00  0.45593999997E+02  0.45594000000E+02  0.51100000000E-03 0.  1.
         11   -1    0    0    0    0 -0.00000000000E+00 -0.00000000000E+00 -0.45593999997E+02  0.45594000000E+02  0.51100000000E-03 0. -1.
    9900012    2    1    2    0    0 -0.14256192953E+02 -0.27263029929E+02 -0.26582976965E+02  0.50528849705E+02  0.29999969162E+02 0.  0.
        -12    1    1    2    0    0  0.14256192953E+02  0.27263029929E+02  0.26582976965E+02  0.40659150295E+02  0.00000000000E+00 0.  1.
         11    1    3    3    0    0  0.24113209902E+01 -0.77280378789E+01 -0.75978997133E+01  0.11102482546E+02  0.51100000000E-03 0. -1.
        -11    1    3    3    0    0  0.37471592597E+01 -0.87584919222E+01  0.17946625954E-01  0.95264214484E+01  0.51100000000E-03 0.  1.
         12    1    3    3    0    0 -0.20414673203E+02 -0.10776500128E+02 -0.19003023878E+02  0.29899945710E+02  0.00000000000E+00 0. -1.
</event>
<event>
 7    1  0.5935282E-013  0.5052886E+02  0.7816164E-02  0.1300439E+00
        -11   -1    0    0    0    0  0.00000000000E+00  0.00000000000E+00  0.45593999997E+02  0.45594000000E+02  0.51100000000E-03 0.  1.
         11   -1    0    0    0    0 -0.00000000000E+00 -0.00000000000E+00 -0.45593999997E+02  0.45594000000E+02  0.51100000000E-03 0. -1.
    9900012    2    1    2    0    0  0.26262288447E+02 -0.44022119621E+01 -0.30725853386E+02  0.50528864115E+02  0.30000012964E+02 0.  0.
        -12    1    1    2    0    0 -0.26262288447E+02  0.44022119621E+01  0.30725853386E+02  0.40659135885E+02  0.00000000000E+00 0.  1.
         11    1    3    3    0    0  0.47849687031E+01  0.16447003440E+00 -0.96552846445E+01  0.10777174848E+02  0.51100000000E-03 0.  1.
        -11    1    3    3    0    0  0.23226997791E+02 -0.29849380944E+00 -0.24681661639E+02  0.33893464657E+02  0.51100000000E-03 0. -1.
        -12    1    3    3    0    0 -0.17496780468E+01 -0.42681881871E+01  0.36110928977E+01  0.58582246102E+01  0.00000000000E+00 0.  1.
</event>
<event>
 7    1  0.5935282E-013  0.5052886E+02  0.7816164E-02  0.1300439E+00
        -11   -1    0    0    0    0  0.00000000000E+00  0.00000000000E+00  0.45593999997E+02  0.45594000000E+02  0.51100000000E-03 0.  1.
         11   -1    0    0    0    0 -0.00000000000E+00 -0.00000000000E+00 -0.45593999997E+02  0.45594000000E+02  0.51100000000E-03 0. -1.
    9900012    2    1    2    0    0  0.24926213925E+02  0.22079234581E+01 -0.32046449560E+02  0.50528855936E+02  0.29999988102E+02 0.  0.
        -12    1    1    2    0    0 -0.24926213925E+02 -0.22079234581E+01  0.32046449560E+02  0.40659144064E+02  0.00000000000E+00 0.  1.
         11    1    3    3    0    0  0.21535211096E+02  0.10361816954E+02 -0.25218645106E+02  0.34743526430E+02  0.51100000000E-03 0. -1.
        -11    1    3    3    0    0  0.19400801973E+00 -0.32072551502E+01 -0.89621373650E+01  0.95207158932E+01  0.51100000000E-03 0.  1.
        -12    1    3    3    0    0  0.31969948092E+01 -0.49466383461E+01  0.21343329108E+01  0.62646136123E+01  0.00000000000E+00 0.  1.
</event>
<event>
 7    1  0.5935282E-013  0.5052892E+02  0.7816164E-02  0.1300439E+00
        -11   -1    0    0    0    0  0.00000000000E+00  0.00000000000E+00  0.45593999997E+02  0.45594000000E+02  0.51100000000E-03 0.  1.
         11   -1    0    0    0    0 -0.00000000000E+00 -0.00000000000E+00 -0.45593999997E+02  0.45594000000E+02  0.51100000000E-03 0. -1.
    9900012    2    1    2    0    0  0.18140617976E+02 -0.55446764065E+01 -0.35962966313E+02  0.50528924715E+02  0.30000197164E+02 0.  0.
        -12    1    1    2    0    0 -0.18140617976E+02  0.55446764065E+01  0.35962966313E+02  0.40659075285E+02  0.00000000000E+00 0.  1.
         11    1    3    3    0    0 -0.51887027995E+01 -0.10497076663E+01 -0.75508154212E+01  0.92216775433E+01  0.51100000000E-03 0. -1.
        -11    1    3    3    0    0  0.68763472315E+01  0.32082950153E+01 -0.19796234929E+02  0.21200665692E+02  0.51100000000E-03 0.  1.
        -12    1    3    3    0    0  0.16452973544E+02 -0.77032637554E+01 -0.86159159622E+01  0.20106581480E+02  0.00000000000E+00 0.  1.
</event>
<event>
 7    1  0.5935282E-013  0.5052888E+02  0.7816164E-02  0.1300439E+00
        -11   -1    0    0    0    0  0.00000000000E+00  0.00000000000E+00  0.45593999997E+02  0.45594000000E+02  0.51100000000E-03 0.  1.
         11   -1    0    0    0    0 -0.00000000000E+00 -0.00000000000E+00 -0.45593999997E+02  0.45594000000E+02  0.51100000000E-03 0. -1.
    9900012    2    1    2    0    0 -0.19799263345E+02 -0.32836464527E+02 -0.13524777453E+02  0.50528882489E+02  0.30000068812E+02 0.  0.
        -12    1    1    2    0    0  0.19799263345E+02  0.32836464527E+02  0.13524777453E+02  0.40659117511E+02  0.00000000000E+00 0.  1.
         11    1    3    3    0    0 -0.12748230337E+02 -0.13925931895E+02 -0.17288642776E+02  0.25599729006E+02  0.51100000000E-03 0. -1.
        -11    1    3    3    0    0 -0.29597516944E+01  0.15479458855E+01  0.22157967659E+01  0.40082442697E+01  0.51100000000E-03 0.  1.
        -12    1    3    3    0    0 -0.40912813136E+01 -0.20458478517E+02  0.15480685570E+01  0.20920909213E+02  0.00000000000E+00 0.  1.
</event>
<event>
 7    1  0.5935282E-013  0.5052883E+02  0.7816164E-02  0.1300439E+00
        -11   -1    0    0    0    0  0.00000000000E+00  0.00000000000E+00  0.45593999997E+02  0.45594000000E+02  0.51100000000E-03 0.  1.
         11   -1    0    0    0    0 -0.00000000000E+00 -0.00000000000E+00 -0.45593999997E+02  0.45594000000E+02  0.51100000000E-03 0. -1.
    9900012    2    1    2    0    0  0.20826154451E+02 -0.30893393758E+02 -0.16279981669E+02  0.50528827723E+02  0.29999902348E+02 0.  0.
        -12    1    1    2    0    0 -0.20826154451E+02  0.30893393758E+02  0.16279981669E+02  0.40659172277E+02  0.00000000000E+00 0.  1.
         11    1    3    3    0    0  0.76410130580E+01 -0.80737342929E+01  0.37539278456E+01  0.11732955319E+02  0.51100000000E-03 0. -1.
        -11    1    3    3    0    0  0.30294189498E+01 -0.16640880577E+02 -0.17737544412E+01  0.17007130582E+02  0.51100000000E-03 0.  1.
         12    1    3    3    0    0  0.10155722443E+02 -0.61787788874E+01 -0.18260155073E+02  0.21788741822E+02  0.00000000000E+00 0. -1.
</event>
<event>
 7    1  0.5935282E-013  0.5052886E+02  0.7816164E-02  0.1300439E+00
        -11   -1    0    0    0    0  0.00000000000E+00  0.00000000000E+00  0.45593999997E+02  0.45594000000E+02  0.51100000000E-03 0. -1.
         11   -1    0    0    0    0 -0.00000000000E+00 -0.00000000000E+00 -0.45593999997E+02  0.45594000000E+02  0.51100000000E-03 0.  1.
    9900012    2    1    2    0    0  0.15294632279E+02 -0.37310298118E+02  0.52135703200E+01  0.50528862802E+02  0.30000008972E+02 0.  0.
        -12    1    1    2    0    0 -0.15294632279E+02  0.37310298118E+02 -0.52135703200E+01  0.40659137198E+02  0.00000000000E+00 0.  1.
         11    1    3    3    0    0 -0.14325536790E+01 -0.10405863526E+01  0.32088537640E+01  0.36649382997E+01  0.51100000000E-03 0. -1.
        -11    1    3    3    0    0  0.90511905506E+01 -0.19643367872E+02 -0.11133534095E+02  0.24325738086E+02  0.51100000000E-03 0.  1.
         12    1    3    3    0    0  0.76759954075E+01 -0.16626343894E+02  0.13138250650E+02  0.22538186416E+02  0.00000000000E+00 0. -1.
</event>
<event>
 7    1  0.5935282E-013  0.5052888E+02  0.7816164E-02  0.1300439E+00
        -11   -1    0    0    0    0  0.00000000000E+00  0.00000000000E+00  0.45593999997E+02  0.45594000000E+02  0.51100000000E-03 0. -1.
         11   -1    0    0    0    0 -0.00000000000E+00 -0.00000000000E+00 -0.45593999997E+02  0.45594000000E+02  0.51100000000E-03 0.  1.
    9900012    2    1    2    0    0 -0.47810471877E+01  0.24834089327E+02  0.31836673534E+02  0.50528878187E+02  0.30000055737E+02 0.  0.
        -12    1    1    2    0    0  0.47810471877E+01 -0.24834089327E+02 -0.31836673534E+02  0.40659121813E+02  0.00000000000E+00 0.  1.
         11    1    3    3    0    0  0.73581010600E+00  0.15259479645E+02  0.29233952141E+02  0.32985104117E+02  0.51100000000E-03 0. -1.
        -11    1    3    3    0    0  0.12682277831E+01  0.74509544852E+01  0.60132768388E+01  0.96583965052E+01  0.51100000000E-03 0.  1.
        -12    1    3    3    0    0 -0.67850850768E+01  0.21236551969E+01 -0.34105554459E+01  0.78853775651E+01  0.00000000000E+00 0.  1.
</event>
<event>
 7    1  0.5935282E-013  0.5052887E+02  0.7816164E-02  0.1300439E+00
        -11   -1    0    0    0    0  0.00000000000E+00  0.00000000000E+00  0.45593999997E+02  0.45594000000E+02  0.51100000000E-03 0.  1.
         11   -1    0    0    0    0 -0.00000000000E+00 -0.00000000000E+00 -0.45593999997E+02  0.45594000000E+02  0.51100000000E-03 0. -1.
    9900012    2    1    2    0    0  0.20993807191E+02  0.31942732548E+01 -0.34673071159E+02  0.50528865902E+02  0.30000018394E+02 0.  0.
        -12    1    1    2    0    0 -0.20993807191E+02 -0.31942732548E+01  0.34673071159E+02  0.40659134098E+02  0.00000000000E+00 0.  1.
         11    1    3    3    0    0  0.17136319938E+01 -0.60842376108E+01 -0.12755826130E+02  0.14236066256E+02  0.51100000000E-03 0.  1.
        -11    1    3    3    0    0  0.14158797217E+02  0.28427965578E+01 -0.17924417397E+01  0.14552177794E+02  0.51100000000E-03 0. -1.
         12    1    3    3    0    0  0.51213779810E+01  0.64357143077E+01 -0.20124803290E+02  0.21740621852E+02  0.00000000000E+00 0. -1.
</event>
<event>
 7    1  0.5935282E-013  0.5052886E+02  0.7816164E-02  0.1300439E+00
        -11   -1    0    0    0    0  0.00000000000E+00  0.00000000000E+00  0.45593999997E+02  0.45594000000E+02  0.51100000000E-03 0.  1.
         11   -1    0    0    0    0 -0.00000000000E+00 -0.00000000000E+00 -0.45593999997E+02  0.45594000000E+02  0.51100000000E-03 0. -1.
    9900012    2    1    2    0    0 -0.87502302346E+01  0.39689451730E+02 -0.11605511700E+01  0.50528856049E+02  0.29999988446E+02 0.  0.
        -12    1    1    2    0    0  0.87502302346E+01 -0.39689451730E+02  0.11605511700E+01  0.40659143951E+02  0.00000000000E+00 0.  1.
         11    1    3    3    0    0 -0.18696818524E+00  0.17388061959E+01  0.28764835897E+01  0.33663871127E+01  0.51100000000E-03 0. -1.
        -11    1    3    3    0    0 -0.43786655352E+01 -0.26330372261E+01 -0.37921893261E+01  0.63628843342E+01  0.51100000000E-03 0.  1.
         12    1    3    3    0    0 -0.41845965141E+01  0.40583682761E+02 -0.24484543358E+00  0.40799584602E+02  0.00000000000E+00 0. -1.
</event>
<event>
 7    1  0.5935282E-013  0.5052887E+02  0.7816164E-02  0.1300439E+00
        -11   -1    0    0    0    0  0.00000000000E+00  0.00000000000E+00  0.45593999997E+02  0.45594000000E+02  0.51100000000E-03 0.  1.
         11   -1    0    0    0    0 -0.00000000000E+00 -0.00000000000E+00 -0.45593999997E+02  0.45594000000E+02  0.51100000000E-03 0. -1.
    9900012    2    1    2    0    0  0.40039095610E+02 -0.70577779768E+01  0.47271267122E+00  0.50528869850E+02  0.30000030397E+02 0.  0.
        -12    1    1    2    0    0 -0.40039095610E+02  0.70577779768E+01 -0.47271267122E+00  0.40659130150E+02  0.00000000000E+00 0.  1.
         11    1    3    3    0    0  0.13457377124E+02 -0.97986059748E+01 -0.16550213371E+01  0.16728800734E+02  0.51100000000E-03 0.  1.
        -11    1    3    3    0    0 -0.50345292087E+00  0.24227538487E+01  0.59505969318E+01  0.64445950346E+01  0.51100000000E-03 0. -1.
         12    1    3    3    0    0  0.27085171407E+02  0.31807414932E+00 -0.38228629234E+01  0.27355474082E+02  0.00000000000E+00 0. -1.
</event>
<event>
 7    1  0.5935282E-013  0.5052886E+02  0.7816164E-02  0.1300439E+00
        -11   -1    0    0    0    0  0.00000000000E+00  0.00000000000E+00  0.45593999997E+02  0.45594000000E+02  0.51100000000E-03 0. -1.
         11   -1    0    0    0    0 -0.00000000000E+00 -0.00000000000E+00 -0.45593999997E+02  0.45594000000E+02  0.51100000000E-03 0.  1.
    9900012    2    1    2    0    0 -0.88630988099E+01  0.80160799773E+01  0.38863267285E+02  0.50528860772E+02  0.30000002803E+02 0.  0.
        -12    1    1    2    0    0  0.88630988099E+01 -0.80160799773E+01 -0.38863267285E+02  0.40659139228E+02  0.00000000000E+00 0.  1.
         11    1    3    3    0    0 -0.58731068598E+01  0.23197228640E+01  0.82671359193E+01  0.10402885894E+02  0.51100000000E-03 0. -1.
        -11    1    3    3    0    0 -0.10250593965E+02 -0.40234778228E+01  0.56290798116E+01  0.12367279014E+02  0.51100000000E-03 0.  1.
        -12    1    3    3    0    0  0.72606020147E+01  0.97198349361E+01  0.24967051554E+02  0.27758695864E+02  0.00000000000E+00 0.  1.
</event>
<event>
 7    1  0.5935282E-013  0.5052882E+02  0.7816164E-02  0.1300439E+00
        -11   -1    0    0    0    0  0.00000000000E+00  0.00000000000E+00  0.45593999997E+02  0.45594000000E+02  0.51100000000E-03 0. -1.
         11   -1    0    0    0    0 -0.00000000000E+00 -0.00000000000E+00 -0.45593999997E+02  0.45594000000E+02  0.51100000000E-03 0.  1.
    9900012    2    1    2    0    0 -0.33726130088E+02 -0.22434369846E+02  0.35236898060E+01  0.50528816647E+02  0.29999868680E+02 0.  0.
        -12    1    1    2    0    0  0.33726130088E+02  0.22434369846E+02 -0.35236898060E+01  0.40659183353E+02  0.00000000000E+00 0.  1.
         11    1    3    3    0    0 -0.71577695475E+01 -0.52246428188E+01  0.32160304099E+01  0.94272694529E+01  0.51100000000E-03 0. -1.
        -11    1    3    3    0    0 -0.17954668609E+02 -0.22833356488E+02 -0.50818990406E+01  0.29488268710E+02  0.51100000000E-03 0.  1.
         12    1    3    3    0    0 -0.86136919315E+01  0.56236294614E+01  0.53895584366E+01  0.11613278484E+02  0.00000000000E+00 0. -1.
</event>
<event>
 7    1  0.5935282E-013  0.5052886E+02  0.7816164E-02  0.1300439E+00
        -11   -1    0    0    0    0  0.00000000000E+00  0.00000000000E+00  0.45593999997E+02  0.45594000000E+02  0.51100000000E-03 0.  1.
         11   -1    0    0    0    0 -0.00000000000E+00 -0.00000000000E+00 -0.45593999997E+02  0.45594000000E+02  0.51100000000E-03 0. -1.
    9900012    2    1    2    0    0  0.33982968712E+01 -0.40512633661E+02 -0.58623820272E+00  0.50528861015E+02  0.30000003542E+02 0.  0.
        -12    1    1    2    0    0 -0.33982968712E+01  0.40512633661E+02  0.58623820272E+00  0.40659138985E+02  0.00000000000E+00 0.  1.
         11    1    3    3    0    0  0.67021484675E+00 -0.18219113176E+02 -0.40228000266E+01  0.18669981071E+02  0.51100000000E-03 0. -1.
        -11    1    3    3    0    0  0.94370106363E+01 -0.19276674701E+02 -0.35022915279E+01  0.21746572224E+02  0.51100000000E-03 0.  1.
         12    1    3    3    0    0 -0.67089286118E+01 -0.30168457834E+01  0.69388533518E+01  0.10112307721E+02  0.00000000000E+00 0. -1.
</event>
<event>
 7    1  0.5935282E-013  0.5052891E+02  0.7816164E-02  0.1300439E+00
        -11   -1    0    0    0    0  0.00000000000E+00  0.00000000000E+00  0.45593999997E+02  0.45594000000E+02  0.51100000000E-03 0.  1.
         11   -1    0    0    0    0 -0.00000000000E+00 -0.00000000000E+00 -0.45593999997E+02  0.45594000000E+02  0.51100000000E-03 0. -1.
    9900012    2    1    2    0    0 -0.16538429721E+02  0.36889883602E+02  0.43334233762E+01  0.50528908422E+02  0.30000147638E+02 0.  0.
        -12    1    1    2    0    0  0.16538429721E+02 -0.36889883602E+02 -0.43334233762E+01  0.40659091578E+02  0.00000000000E+00 0.  1.
         11    1    3    3    0    0 -0.87375368249E+01  0.32011615838E+02 -0.74918787710E+01  0.34017882740E+02  0.51100000000E-03 0. -1.
        -11    1    3    3    0    0  0.11121698005E+01  0.29176026542E-01  0.29327866081E+00  0.11505587946E+01  0.51100000000E-03 0.  1.
         12    1    3    3    0    0 -0.89130626967E+01  0.48490917379E+01  0.11532023486E+02  0.15360466888E+02  0.00000000000E+00 0. -1.
</event>
<event>
 7    1  0.5935282E-013  0.5052886E+02  0.7816164E-02  0.1300439E+00
        -11   -1    0    0    0    0  0.00000000000E+00  0.00000000000E+00  0.45593999997E+02  0.45594000000E+02  0.51100000000E-03 0.  1.
         11   -1    0    0    0    0 -0.00000000000E+00 -0.00000000000E+00 -0.45593999997E+02  0.45594000000E+02  0.51100000000E-03 0. -1.
    9900012    2    1    2    0    0  0.37209542067E+01 -0.38341279676E+02  0.13010259205E+02  0.50528855002E+02  0.29999985264E+02 0.  0.
        -12    1    1    2    0    0 -0.37209542067E+01  0.38341279676E+02 -0.13010259205E+02  0.40659144998E+02  0.00000000000E+00 0.  1.
         11    1    3    3    0    0 -0.33927994444E+01 -0.13687936817E+01  0.27796835027E+01  0.45947061766E+01  0.51100000000E-03 0. -1.
        -11    1    3    3    0    0  0.15490357348E+00  0.80189586320E+00  0.73728729587E+01  0.74179706133E+01  0.51100000000E-03 0.  1.
         12    1    3    3    0    0  0.69588500776E+01 -0.37774381857E+02  0.28577027438E+01  0.38516178212E+02  0.00000000000E+00 0. -1.
</event>
<event>
 7    1  0.5935282E-013  0.5052887E+02  0.7816164E-02  0.1300439E+00
        -11   -1    0    0    0    0  0.00000000000E+00  0.00000000000E+00  0.45593999997E+02  0.45594000000E+02  0.51100000000E-03 0.  1.
         11   -1    0    0    0    0 -0.00000000000E+00 -0.00000000000E+00 -0.45593999997E+02  0.45594000000E+02  0.51100000000E-03 0. -1.
    9900012    2    1    2    0    0 -0.38804468917E+02 -0.39277534283E+01 -0.11487001358E+02  0.50528865047E+02  0.30000015798E+02 0.  0.
        -12    1    1    2    0    0  0.38804468917E+02  0.39277534283E+01  0.11487001358E+02  0.40659134953E+02  0.00000000000E+00 0.  1.
         11    1    3    3    0    0 -0.14578364727E+02  0.20521211544E+01 -0.10761772928E+02  0.18236109128E+02  0.51100000000E-03 0. -1.
        -11    1    3    3    0    0 -0.24224079422E+02  0.36682075674E-01 -0.52230709143E+01  0.24780795780E+02  0.51100000000E-03 0.  1.
        -12    1    3    3    0    0 -0.20247680129E-02 -0.60165566584E+01  0.44978424845E+01  0.75119601396E+01  0.00000000000E+00 0.  1.
</event>
<event>
 7    1  0.5935282E-013  0.5052886E+02  0.7816164E-02  0.1300439E+00
        -11   -1    0    0    0    0  0.00000000000E+00  0.00000000000E+00  0.45593999997E+02  0.45594000000E+02  0.51100000000E-03 0. -1.
         11   -1    0    0    0    0 -0.00000000000E+00 -0.00000000000E+00 -0.45593999997E+02  0.45594000000E+02  0.51100000000E-03 0.  1.
    9900012    2    1    2    0    0 -0.39060520119E+02 -0.14051890441E+01  0.11201206329E+02  0.50528858206E+02  0.29999995003E+02 0.  0.
        -12    1    1    2    0    0  0.39060520119E+02  0.14051890441E+01 -0.11201206329E+02  0.40659141794E+02  0.00000000000E+00 0.  1.
         11    1    3    3    0    0 -0.26934624456E+02  0.69852098769E+01  0.68684976527E+01  0.28660834110E+02  0.51100000000E-03 0. -1.
        -11    1    3    3    0    0 -0.14559978304E+02 -0.22074882356E+01  0.22026812551E+01  0.14890190646E+02  0.51100000000E-03 0.  1.
        -12    1    3    3    0    0  0.24340826405E+01 -0.61829106854E+01  0.21300274209E+01  0.69778334502E+01  0.00000000000E+00 0.  1.
</event>
<event>
 7    1  0.5935282E-013  0.5052886E+02  0.7816164E-02  0.1300439E+00
        -11   -1    0    0    0    0  0.00000000000E+00  0.00000000000E+00  0.45593999997E+02  0.45594000000E+02  0.51100000000E-03 0.  1.
         11   -1    0    0    0    0 -0.00000000000E+00 -0.00000000000E+00 -0.45593999997E+02  0.45594000000E+02  0.51100000000E-03 0. -1.
    9900012    2    1    2    0    0 -0.16408763653E+02 -0.38414594664E+01 -0.37002181782E+02  0.50528858443E+02  0.29999995725E+02 0.  0.
        -12    1    1    2    0    0  0.16408763653E+02  0.38414594664E+01  0.37002181782E+02  0.40659141557E+02  0.00000000000E+00 0.  1.
         11    1    3    3    0    0 -0.81304856324E+01 -0.42238523065E+01 -0.13527974431E+02  0.16338660208E+02  0.51100000000E-03 0. -1.
        -11    1    3    3    0    0 -0.42981974313E+01 -0.11138996373E+02 -0.15732667250E+02  0.19750153428E+02  0.51100000000E-03 0.  1.
        -12    1    3    3    0    0 -0.39800805897E+01  0.11521389213E+02 -0.77415401007E+01  0.14440044807E+02  0.00000000000E+00 0.  1.
</event>
<event>
 7    1  0.5935282E-013  0.5052886E+02  0.7816164E-02  0.1300439E+00
        -11   -1    0    0    0    0  0.00000000000E+00  0.00000000000E+00  0.45593999997E+02  0.45594000000E+02  0.51100000000E-03 0.  1.
         11   -1    0    0    0    0 -0.00000000000E+00 -0.00000000000E+00 -0.45593999997E+02  0.45594000000E+02  0.51100000000E-03 0. -1.
    9900012    2    1    2    0    0  0.27580504364E+02  0.30888315165E+01 -0.29714316201E+02  0.50528859719E+02  0.29999999601E+02 0.  0.
        -12    1    1    2    0    0 -0.27580504364E+02 -0.30888315165E+01  0.29714316201E+02  0.40659140281E+02  0.00000000000E+00 0.  1.
         11    1    3    3    0    0  0.19816539135E+02 -0.12924043079E+01 -0.24155988211E+01  0.20005015624E+02  0.51100000000E-03 0. -1.
        -11    1    3    3    0    0 -0.12925536945E+00  0.16828783674E+01  0.28024609551E+00  0.17109426306E+01  0.51100000000E-03 0.  1.
         12    1    3    3    0    0  0.78932205977E+01  0.26983574569E+01 -0.27578963476E+02  0.28812901464E+02  0.00000000000E+00 0. -1.
</event>
<event>
 7    1  0.5935282E-013  0.5052886E+02  0.7816164E-02  0.1300439E+00
        -11   -1    0    0    0    0  0.00000000000E+00  0.00000000000E+00  0.45593999997E+02  0.45594000000E+02  0.51100000000E-03 0. -1.
         11   -1    0    0    0    0 -0.00000000000E+00 -0.00000000000E+00 -0.45593999997E+02  0.45594000000E+02  0.51100000000E-03 0.  1.
    9900012    2    1    2    0    0 -0.10026220223E+02 -0.28647534008E+02  0.27054745336E+02  0.50528861521E+02  0.30000005078E+02 0.  0.
        -12    1    1    2    0    0  0.10026220223E+02  0.28647534008E+02 -0.27054745336E+02  0.40659138479E+02  0.00000000000E+00 0.  1.
         11    1    3    3    0    0  0.12574420760E+01 -0.15228221707E+01  0.76223460471E+01  0.78740273978E+01  0.51100000000E-03 0. -1.
        -11    1    3    3    0    0 -0.79988649880E+01 -0.95853425007E+00  0.13347679093E+02  0.15590419059E+02  0.51100000000E-03 0.  1.
        -12    1    3    3    0    0 -0.32847973110E+01 -0.26166177587E+02  0.60847201958E+01  0.27064415064E+02  0.00000000000E+00 0.  1.
</event>
<event>
 7    1  0.5935282E-013  0.5052886E+02  0.7816164E-02  0.1300439E+00
        -11   -1    0    0    0    0  0.00000000000E+00  0.00000000000E+00  0.45593999997E+02  0.45594000000E+02  0.51100000000E-03 0.  1.
         11   -1    0    0    0    0 -0.00000000000E+00 -0.00000000000E+00 -0.45593999997E+02  0.45594000000E+02  0.51100000000E-03 0. -1.
    9900012    2    1    2    0    0  0.27006623453E+02 -0.21517042848E+02 -0.21466827313E+02  0.50528861813E+02  0.30000005966E+02 0.  0.
        -12    1    1    2    0    0 -0.27006623453E+02  0.21517042848E+02  0.21466827313E+02  0.40659138187E+02  0.00000000000E+00 0.  1.
         11    1    3    3    0    0  0.14043486283E+02 -0.20066192622E+02 -0.47745036470E+01  0.24953305967E+02  0.51100000000E-03 0. -1.
        -11    1    3    3    0    0  0.31057114872E+01 -0.66029661956E+01 -0.28875060719E+01  0.78474389452E+01  0.51100000000E-03 0.  1.
         12    1    3    3    0    0  0.98574256829E+01  0.51521159696E+01 -0.13804817594E+02  0.17728116901E+02  0.00000000000E+00 0. -1.
</event>
<event>
 7    1  0.5935282E-013  0.5052888E+02  0.7816164E-02  0.1300439E+00
        -11   -1    0    0    0    0  0.00000000000E+00  0.00000000000E+00  0.45593999997E+02  0.45594000000E+02  0.51100000000E-03 0. -1.
         11   -1    0    0    0    0 -0.00000000000E+00 -0.00000000000E+00 -0.45593999997E+02  0.45594000000E+02  0.51100000000E-03 0.  1.
    9900012    2    1    2    0    0 -0.16014032045E+02  0.30100743552E+02  0.22150847381E+02  0.50528880182E+02  0.30000061800E+02 0.  0.
        -12    1    1    2    0    0  0.16014032045E+02 -0.30100743552E+02 -0.22150847381E+02  0.40659119818E+02  0.00000000000E+00 0.  1.
         11    1    3    3    0    0 -0.86004528426E+01  0.21810555682E+02  0.89463931679E+01  0.25093945071E+02  0.51100000000E-03 0. -1.
        -11    1    3    3    0    0 -0.68177821518E+01  0.13839216601E+02  0.65776647777E+01  0.16771158093E+02  0.51100000000E-03 0.  1.
        -12    1    3    3    0    0 -0.59579705046E+00 -0.55490287312E+01  0.66267894354E+01  0.86637770173E+01  0.00000000000E+00 0.  1.
</event>
<event>
 7    1  0.5935282E-013  0.5052880E+02  0.7816164E-02  0.1300439E+00
        -11   -1    0    0    0    0  0.00000000000E+00  0.00000000000E+00  0.45593999997E+02  0.45594000000E+02  0.51100000000E-03 0.  1.
         11   -1    0    0    0    0 -0.00000000000E+00 -0.00000000000E+00 -0.45593999997E+02  0.45594000000E+02  0.51100000000E-03 0. -1.
    9900012    2    1    2    0    0 -0.29607418909E+02 -0.14213350371E+01 -0.27830753888E+02  0.50528802889E+02  0.29999826861E+02 0.  0.
        -12    1    1    2    0    0  0.29607418909E+02  0.14213350371E+01  0.27830753888E+02  0.40659197111E+02  0.00000000000E+00 0.  1.
         11    1    3    3    0    0 -0.21154390186E+02 -0.55248032589E+01 -0.15754299734E+02  0.26948648121E+02  0.51100000000E-03 0. -1.
        -11    1    3    3    0    0 -0.10343872940E+02 -0.44967277367E+01 -0.52638594759E+01  0.12446866457E+02  0.51100000000E-03 0.  1.
        -12    1    3    3    0    0  0.18908442174E+01  0.86001959584E+01 -0.68125946785E+01  0.11133288312E+02  0.00000000000E+00 0.  1.
</event>
<event>
 7    1  0.5935282E-013  0.5052884E+02  0.7816164E-02  0.1300439E+00
        -11   -1    0    0    0    0  0.00000000000E+00  0.00000000000E+00  0.45593999997E+02  0.45594000000E+02  0.51100000000E-03 0.  1.
         11   -1    0    0    0    0 -0.00000000000E+00 -0.00000000000E+00 -0.45593999997E+02  0.45594000000E+02  0.51100000000E-03 0. -1.
    9900012    2    1    2    0    0  0.33051750965E+02  0.36983809034E+01 -0.23389558058E+02  0.50528835113E+02  0.29999924809E+02 0.  0.
        -12    1    1    2    0    0 -0.33051750965E+02 -0.36983809034E+01  0.23389558058E+02  0.40659164887E+02  0.00000000000E+00 0.  1.
         11    1    3    3    0    0  0.29361215960E+02 -0.71059187670E+01 -0.12654817310E+02  0.32752396639E+02  0.51100000000E-03 0. -1.
        -11    1    3    3    0    0  0.40221380075E+01  0.90470361821E+00 -0.20550862062E+01  0.46064587661E+01  0.51100000000E-03 0.  1.
        -12    1    3    3    0    0 -0.33160300226E+00  0.98995960522E+01 -0.86796545412E+01  0.13169979708E+02  0.00000000000E+00 0.  1.
</event>
<event>
 7    1  0.5935282E-013  0.5052887E+02  0.7816164E-02  0.1300439E+00
        -11   -1    0    0    0    0  0.00000000000E+00  0.00000000000E+00  0.45593999997E+02  0.45594000000E+02  0.51100000000E-03 0.  1.
         11   -1    0    0    0    0 -0.00000000000E+00 -0.00000000000E+00 -0.45593999997E+02  0.45594000000E+02  0.51100000000E-03 0. -1.
    9900012    2    1    2    0    0  0.34531596075E+02  0.65854954530E+01 -0.20429517088E+02  0.50528867615E+02  0.30000023603E+02 0.  0.
        -12    1    1    2    0    0 -0.34531596075E+02 -0.65854954530E+01  0.20429517088E+02  0.40659132385E+02  0.00000000000E+00 0.  1.
         11    1    3    3    0    0  0.47200917633E+01 -0.44643581189E+01  0.35745546880E+01  0.74153355383E+01  0.51100000000E-03 0. -1.
        -11    1    3    3    0    0  0.77126865190E+01 -0.27466692207E+01 -0.80005244332E+00  0.82261661375E+01  0.51100000000E-03 0.  1.
         12    1    3    3    0    0  0.22098817793E+02  0.13796522793E+02 -0.23204019333E+02  0.34887365939E+02  0.00000000000E+00 0. -1.
</event>
<event>
 7    1  0.5935282E-013  0.5052886E+02  0.7816164E-02  0.1300439E+00
        -11   -1    0    0    0    0  0.00000000000E+00  0.00000000000E+00  0.45593999997E+02  0.45594000000E+02  0.51100000000E-03 0.  1.
         11   -1    0    0    0    0 -0.00000000000E+00 -0.00000000000E+00 -0.45593999997E+02  0.45594000000E+02  0.51100000000E-03 0. -1.
    9900012    2    1    2    0    0 -0.17269498804E+02  0.36804777857E+02  0.58147520784E+00  0.50528863567E+02  0.30000011298E+02 0.  0.
        -12    1    1    2    0    0  0.17269498804E+02 -0.36804777857E+02 -0.58147520784E+00  0.40659136433E+02  0.00000000000E+00 0.  1.
         11    1    3    3    0    0 -0.15225312464E+01  0.62340567055E+01  0.89492012560E+00  0.64793862901E+01  0.51100000000E-03 0. -1.
        -11    1    3    3    0    0 -0.11419214982E+02  0.13090383574E+02  0.12964342021E+02  0.21675580205E+02  0.51100000000E-03 0.  1.
         12    1    3    3    0    0 -0.43277525755E+01  0.17480337578E+02 -0.13277786939E+02  0.22373897072E+02  0.00000000000E+00 0. -1.
</event>
<event>
 7    1  0.5935282E-013  0.5052886E+02  0.7816164E-02  0.1300439E+00
        -11   -1    0    0    0    0  0.00000000000E+00  0.00000000000E+00  0.45593999997E+02  0.45594000000E+02  0.51100000000E-03 0.  1.
         11   -1    0    0    0    0 -0.00000000000E+00 -0.00000000000E+00 -0.45593999997E+02  0.45594000000E+02  0.51100000000E-03 0. -1.
    9900012    2    1    2    0    0  0.12190970682E+02 -0.38773440346E+02 -0.10800089589E+01  0.50528857587E+02  0.29999993121E+02 0.  0.
        -12    1    1    2    0    0 -0.12190970682E+02  0.38773440346E+02  0.10800089589E+01  0.40659142413E+02  0.00000000000E+00 0.  1.
         11    1    3    3    0    0  0.63785160096E+00  0.41822859368E+00 -0.41171767362E+00  0.86676497697E+00  0.51100000000E-03 0. -1.
        -11    1    3    3    0    0  0.48874276847E+01  0.22640076120E+01 -0.51289581661E+01  0.74376671055E+01  0.51100000000E-03 0.  1.
         12    1    3    3    0    0  0.66656913962E+01 -0.41455676552E+02  0.44606668809E+01  0.42224425504E+02  0.00000000000E+00 0. -1.
</event>
<event>
 7    1  0.5935282E-013  0.5052887E+02  0.7816164E-02  0.1300439E+00
        -11   -1    0    0    0    0  0.00000000000E+00  0.00000000000E+00  0.45593999997E+02  0.45594000000E+02  0.51100000000E-03 0. -1.
         11   -1    0    0    0    0 -0.00000000000E+00 -0.00000000000E+00 -0.45593999997E+02  0.45594000000E+02  0.51100000000E-03 0.  1.
    9900012    2    1    2    0    0  0.31491783512E+02  0.12913877799E+02  0.22241052147E+02  0.50528867333E+02  0.30000022746E+02 0.  0.
        -12    1    1    2    0    0 -0.31491783512E+02 -0.12913877799E+02 -0.22241052147E+02  0.40659132667E+02  0.00000000000E+00 0.  1.
         11    1    3    3    0    0  0.85103516857E+01  0.17429019960E+02  0.10027220764E+02  0.21834421886E+02  0.51100000000E-03 0. -1.
        -11    1    3    3    0    0  0.32763577817E+01 -0.51630211456E+01  0.16815080765E+01  0.63418276022E+01  0.51100000000E-03 0.  1.
        -12    1    3    3    0    0  0.19705074045E+02  0.64787898466E+00  0.10532323306E+02  0.22352617845E+02  0.00000000000E+00 0.  1.
</event>
<event>
 7    1  0.5935282E-013  0.5052886E+02  0.7816164E-02  0.1300439E+00
        -11   -1    0    0    0    0  0.00000000000E+00  0.00000000000E+00  0.45593999997E+02  0.45594000000E+02  0.51100000000E-03 0.  1.
         11   -1    0    0    0    0 -0.00000000000E+00 -0.00000000000E+00 -0.45593999997E+02  0.45594000000E+02  0.51100000000E-03 0. -1.
    9900012    2    1    2    0    0  0.33696959751E+01 -0.36693125344E+02 -0.17187937379E+02  0.50528862161E+02  0.30000007024E+02 0.  0.
        -12    1    1    2    0    0 -0.33696959751E+01  0.36693125344E+02  0.17187937379E+02  0.40659137839E+02  0.00000000000E+00 0.  1.
         11    1    3    3    0    0 -0.10071751900E+02 -0.12208626764E+02 -0.87406644568E+01  0.18080098706E+02  0.51100000000E-03 0. -1.
        -11    1    3    3    0    0 -0.12451505615E+01  0.10836465620E+01  0.33152927004E+00  0.16836275449E+01  0.51100000000E-03 0.  1.
        -12    1    3    3    0    0  0.14686598437E+02 -0.25568145142E+02 -0.87788021921E+01  0.30765135910E+02  0.00000000000E+00 0.  1.
</event>
<event>
 7    1  0.5935282E-013  0.5052887E+02  0.7816164E-02  0.1300439E+00
        -11   -1    0    0    0    0  0.00000000000E+00  0.00000000000E+00  0.45593999997E+02  0.45594000000E+02  0.51100000000E-03 0.  1.
         11   -1    0    0    0    0 -0.00000000000E+00 -0.00000000000E+00 -0.45593999997E+02  0.45594000000E+02  0.51100000000E-03 0. -1.
    9900012    2    1    2    0    0 -0.22026431392E+02 -0.82268242344E+01 -0.33171084428E+02  0.50528866230E+02  0.30000019391E+02 0.  0.
        -12    1    1    2    0    0  0.22026431392E+02  0.82268242344E+01  0.33171084428E+02  0.40659133770E+02  0.00000000000E+00 0.  1.
         11    1    3    3    0    0 -0.53724146920E+01 -0.12294287775E+01 -0.12054462481E+02  0.13254599228E+02  0.51100000000E-03 0. -1.
        -11    1    3    3    0    0 -0.11803289759E+02 -0.10152638561E+02 -0.25594202113E+02  0.29957585032E+02  0.51100000000E-03 0.  1.
        -12    1    3    3    0    0 -0.48507269409E+01  0.31552431038E+01  0.44775801659E+01  0.73166819694E+01  0.00000000000E+00 0.  1.
</event>
<event>
 7    1  0.5935282E-013  0.5052887E+02  0.7816164E-02  0.1300439E+00
        -11   -1    0    0    0    0  0.00000000000E+00  0.00000000000E+00  0.45593999997E+02  0.45594000000E+02  0.51100000000E-03 0.  1.
         11   -1    0    0    0    0 -0.00000000000E+00 -0.00000000000E+00 -0.45593999997E+02  0.45594000000E+02  0.51100000000E-03 0. -1.
    9900012    2    1    2    0    0  0.27009629242E+02  0.91403562737E+00 -0.30377773881E+02  0.50528872134E+02  0.30000037337E+02 0.  0.
        -12    1    1    2    0    0 -0.27009629242E+02 -0.91403562737E+00  0.30377773881E+02  0.40659127866E+02  0.00000000000E+00 0.  1.
         11    1    3    3    0    0  0.84302638358E+01  0.10167829652E+02 -0.22206257376E+02  0.25837414249E+02  0.51100000000E-03 0. -1.
        -11    1    3    3    0    0  0.43740803737E+01 -0.39971999326E+00 -0.65336494498E+01  0.78727968716E+01  0.51100000000E-03 0.  1.
        -12    1    3    3    0    0  0.14205285032E+02 -0.88540740310E+01 -0.16378670556E+01  0.16818661013E+02  0.00000000000E+00 0.  1.
</event>
<event>
 7    1  0.5935282E-013  0.5052890E+02  0.7816164E-02  0.1300439E+00
        -11   -1    0    0    0    0  0.00000000000E+00  0.00000000000E+00  0.45593999997E+02  0.45594000000E+02  0.51100000000E-03 0.  1.
         11   -1    0    0    0    0 -0.00000000000E+00 -0.00000000000E+00 -0.45593999997E+02  0.45594000000E+02  0.51100000000E-03 0. -1.
    9900012    2    1    2    0    0 -0.57448062837E+01 -0.13018066897E+02 -0.38087913773E+02  0.50528904578E+02  0.30000135954E+02 0.  0.
        -12    1    1    2    0    0  0.57448062837E+01  0.13018066897E+02  0.38087913773E+02  0.40659095422E+02  0.00000000000E+00 0.  1.
         11    1    3    3    0    0 -0.79035855518E+01  0.10374575347E+01 -0.23009056036E+02  0.24350762670E+02  0.51100000000E-03 0. -1.
        -11    1    3    3    0    0 -0.38858184383E+01 -0.26712749725E+01 -0.12046884724E+02  0.12936874690E+02  0.51100000000E-03 0.  1.
        -12    1    3    3    0    0  0.60445977064E+01 -0.11384249459E+02 -0.30319730133E+01  0.13241267218E+02  0.00000000000E+00 0.  1.
</event>
<event>
 7    1  0.5935282E-013  0.5052887E+02  0.7816164E-02  0.1300439E+00
        -11   -1    0    0    0    0  0.00000000000E+00  0.00000000000E+00  0.45593999997E+02  0.45594000000E+02  0.51100000000E-03 0.  1.
         11   -1    0    0    0    0 -0.00000000000E+00 -0.00000000000E+00 -0.45593999997E+02  0.45594000000E+02  0.51100000000E-03 0. -1.
    9900012    2    1    2    0    0  0.28127781936E+02  0.21272514058E+02 -0.20235438465E+02  0.50528868912E+02  0.30000027544E+02 0.  0.
        -12    1    1    2    0    0 -0.28127781936E+02 -0.21272514058E+02  0.20235438465E+02  0.40659131088E+02  0.00000000000E+00 0.  1.
         11    1    3    3    0    0  0.13809532605E+02  0.88823287958E+01 -0.43467174243E+01  0.16985078988E+02  0.51100000000E-03 0. -1.
        -11    1    3    3    0    0  0.82342522518E+01  0.17998842235E+02 -0.60690454119E+01  0.20702525073E+02  0.51100000000E-03 0.  1.
        -12    1    3    3    0    0  0.60839970798E+01 -0.56086569728E+01 -0.98196756285E+01  0.12841264850E+02  0.00000000000E+00 0.  1.
</event>
<event>
 7    1  0.5935282E-013  0.5052885E+02  0.7816164E-02  0.1300439E+00
        -11   -1    0    0    0    0  0.00000000000E+00  0.00000000000E+00  0.45593999997E+02  0.45594000000E+02  0.51100000000E-03 0. -1.
         11   -1    0    0    0    0 -0.00000000000E+00 -0.00000000000E+00 -0.45593999997E+02  0.45594000000E+02  0.51100000000E-03 0.  1.
    9900012    2    1    2    0    0  0.32188860174E+02 -0.15821731306E+02 -0.19149838855E+02  0.50528853071E+02  0.29999979394E+02 0.  0.
        -12    1    1    2    0    0 -0.32188860174E+02  0.15821731306E+02  0.19149838855E+02  0.40659146929E+02  0.00000000000E+00 0.  1.
         11    1    3    3    0    0  0.11336674773E+02 -0.10655928371E+02 -0.10530019201E+02  0.18786971789E+02  0.51100000000E-03 0. -1.
        -11    1    3    3    0    0  0.51760380306E+01 -0.84659989768E+01  0.46325808905E+01  0.10951041701E+02  0.51100000000E-03 0.  1.
         12    1    3    3    0    0  0.15676147371E+02  0.33001960418E+01 -0.13252400545E+02  0.20790839581E+02  0.00000000000E+00 0. -1.
</event>
<event>
 7    1  0.5935282E-013  0.5052886E+02  0.7816164E-02  0.1300439E+00
        -11   -1    0    0    0    0  0.00000000000E+00  0.00000000000E+00  0.45593999997E+02  0.45594000000E+02  0.51100000000E-03 0.  1.
         11   -1    0    0    0    0 -0.00000000000E+00 -0.00000000000E+00 -0.45593999997E+02  0.45594000000E+02  0.51100000000E-03 0. -1.
    9900012    2    1    2    0    0 -0.40648561665E+02 -0.21903413770E+00 -0.90129263395E+00  0.50528857488E+02  0.29999992820E+02 0.  0.
        -12    1    1    2    0    0  0.40648561665E+02  0.21903413770E+00  0.90129263395E+00  0.40659142512E+02  0.00000000000E+00 0.  1.
         11    1    3    3    0    0 -0.79219540752E+01 -0.43144741148E+01 -0.11078770072E+02  0.14286748749E+02  0.51100000000E-03 0.  1.
        -11    1    3    3    0    0 -0.11933658158E+02  0.56465853007E+01  0.38846551691E+00  0.13207839653E+02  0.51100000000E-03 0. -1.
        -12    1    3    3    0    0 -0.20792949432E+02 -0.15511453236E+01  0.97890119212E+01  0.23034269086E+02  0.00000000000E+00 0.  1.
</event>
<event>
 7    1  0.5935282E-013  0.5052886E+02  0.7816164E-02  0.1300439E+00
        -11   -1    0    0    0    0  0.00000000000E+00  0.00000000000E+00  0.45593999997E+02  0.45594000000E+02  0.51100000000E-03 0.  1.
         11   -1    0    0    0    0 -0.00000000000E+00 -0.00000000000E+00 -0.45593999997E+02  0.45594000000E+02  0.51100000000E-03 0. -1.
    9900012    2    1    2    0    0  0.43511564028E+01  0.33857566519E+02 -0.22088415534E+02  0.50528862363E+02  0.30000007638E+02 0.  0.
        -12    1    1    2    0    0 -0.43511564028E+01 -0.33857566519E+02  0.22088415534E+02  0.40659137637E+02  0.00000000000E+00 0.  1.
         11    1    3    3    0    0 -0.38348186347E+01  0.42415032273E+01 -0.43366312143E+01  0.71765280002E+01  0.51100000000E-03 0. -1.
        -11    1    3    3    0    0 -0.24866532533E+01  0.11791719305E+02  0.45423719754E+01  0.12878712358E+02  0.51100000000E-03 0.  1.
         12    1    3    3    0    0  0.10672628291E+02  0.17824343986E+02 -0.22294156295E+02  0.30473622005E+02  0.00000000000E+00 0. -1.
</event>
<event>
 7    1  0.5935282E-013  0.5052886E+02  0.7816164E-02  0.1300439E+00
        -11   -1    0    0    0    0  0.00000000000E+00  0.00000000000E+00  0.45593999997E+02  0.45594000000E+02  0.51100000000E-03 0.  1.
         11   -1    0    0    0    0 -0.00000000000E+00 -0.00000000000E+00 -0.45593999997E+02  0.45594000000E+02  0.51100000000E-03 0. -1.
    9900012    2    1    2    0    0  0.40403845941E+02 -0.12215897062E+01 -0.43820926788E+01  0.50528858537E+02  0.29999996010E+02 0.  0.
        -12    1    1    2    0    0 -0.40403845941E+02  0.12215897062E+01  0.43820926788E+01  0.40659141463E+02  0.00000000000E+00 0.  1.
         11    1    3    3    0    0  0.20885007377E+01  0.29964576193E+01  0.87378249016E+00  0.37555411989E+01  0.51100000000E-03 0. -1.
        -11    1    3    3    0    0  0.39754306865E+01  0.74613843113E+01 -0.62084141464E+01  0.10489075815E+02  0.51100000000E-03 0.  1.
         12    1    3    3    0    0  0.34339914517E+02 -0.11679431637E+02  0.95253897744E+00  0.36284241523E+02  0.00000000000E+00 0. -1.
</event>
<event>
 7    1  0.5935282E-013  0.5052886E+02  0.7816164E-02  0.1300439E+00
        -11   -1    0    0    0    0  0.00000000000E+00  0.00000000000E+00  0.45593999997E+02  0.45594000000E+02  0.51100000000E-03 0.  1.
         11   -1    0    0    0    0 -0.00000000000E+00 -0.00000000000E+00 -0.45593999997E+02  0.45594000000E+02  0.51100000000E-03 0. -1.
    9900012    2    1    2    0    0 -0.39203273697E+02  0.76045894838E+01 -0.76445303615E+01  0.50528864566E+02  0.30000014336E+02 0.  0.
        -12    1    1    2    0    0  0.39203273697E+02 -0.76045894838E+01  0.76445303615E+01  0.40659135434E+02  0.00000000000E+00 0.  1.
         11    1    3    3    0    0 -0.20130549976E+01  0.10304642135E+00  0.52661980355E+01  0.56387809852E+01  0.51100000000E-03 0. -1.
        -11    1    3    3    0    0 -0.78445602185E+00  0.21128189682E+00  0.40072631218E+01  0.40887857952E+01  0.51100000000E-03 0.  1.
         12    1    3    3    0    0 -0.36405762677E+02  0.72902611657E+01 -0.16917991519E+02  0.40801297786E+02  0.00000000000E+00 0. -1.
</event>
<event>
 7    1  0.5935282E-013  0.5052888E+02  0.7816164E-02  0.1300439E+00
        -11   -1    0    0    0    0  0.00000000000E+00  0.00000000000E+00  0.45593999997E+02  0.45594000000E+02  0.51100000000E-03 0.  1.
         11   -1    0    0    0    0 -0.00000000000E+00 -0.00000000000E+00 -0.45593999997E+02  0.45594000000E+02  0.51100000000E-03 0. -1.
    9900012    2    1    2    0    0 -0.27154503212E+02 -0.25373784083E+02  0.16491463068E+02  0.50528876577E+02  0.30000050844E+02 0.  0.
        -12    1    1    2    0    0  0.27154503212E+02  0.25373784083E+02 -0.16491463068E+02  0.40659123423E+02  0.00000000000E+00 0.  1.
         11    1    3    3    0    0 -0.24645772317E+00  0.23246979466E+01  0.77337331595E+01  0.80793310859E+01  0.51100000000E-03 0. -1.
        -11    1    3    3    0    0 -0.63052676262E+01  0.54472500234E+00 -0.30012024817E+00  0.63358659701E+01  0.51100000000E-03 0.  1.
         12    1    3    3    0    0 -0.20602777863E+02 -0.28243207032E+02  0.90578501565E+01  0.36113679521E+02  0.00000000000E+00 0. -1.
</event>
<event>
 7    1  0.5935282E-013  0.5052886E+02  0.7816164E-02  0.1300439E+00
        -11   -1    0    0    0    0  0.00000000000E+00  0.00000000000E+00  0.45593999997E+02  0.45594000000E+02  0.51100000000E-03 0.  1.
         11   -1    0    0    0    0 -0.00000000000E+00 -0.00000000000E+00 -0.45593999997E+02  0.45594000000E+02  0.51100000000E-03 0. -1.
    9900012    2    1    2    0    0 -0.33815077407E+02  0.22572372654E+02  0.44028404704E+00  0.50528864282E+02  0.30000013473E+02 0.  0.
        -12    1    1    2    0    0  0.33815077407E+02 -0.22572372654E+02 -0.44028404704E+00  0.40659135718E+02  0.00000000000E+00 0.  1.
         11    1    3    3    0    0 -0.42798949692E+01  0.15182165230E+02  0.55024173159E+01  0.16706053951E+02  0.51100000000E-03 0. -1.
        -11    1    3    3    0    0  0.24021382583E+00  0.33777416737E+01 -0.25171909842E+00  0.33956154467E+01  0.51100000000E-03 0.  1.
         12    1    3    3    0    0 -0.29775396264E+02  0.40124657495E+01 -0.48104141704E+01  0.30427194885E+02  0.00000000000E+00 0. -1.
</event>
<event>
 7    1  0.5935282E-013  0.5052885E+02  0.7816164E-02  0.1300439E+00
        -11   -1    0    0    0    0  0.00000000000E+00  0.00000000000E+00  0.45593999997E+02  0.45594000000E+02  0.51100000000E-03 0.  1.
         11   -1    0    0    0    0 -0.00000000000E+00 -0.00000000000E+00 -0.45593999997E+02  0.45594000000E+02  0.51100000000E-03 0. -1.
    9900012    2    1    2    0    0  0.49327434917E+01  0.81375105525E+01 -0.39529929532E+02  0.50528851396E+02  0.29999974304E+02 0.  0.
        -12    1    1    2    0    0 -0.49327434917E+01 -0.81375105525E+01  0.39529929532E+02  0.40659148604E+02  0.00000000000E+00 0.  1.
         11    1    3    3    0    0  0.87053116143E+01 -0.48006178251E+00 -0.18963941375E+02  0.20872086201E+02  0.51100000000E-03 0. -1.
        -11    1    3    3    0    0  0.16963819982E+01 -0.25880806307E+01  0.21330700349E+01  0.37584386744E+01  0.51100000000E-03 0.  1.
        -12    1    3    3    0    0 -0.54689501208E+01  0.11205652966E+02 -0.22699058192E+02  0.25898326521E+02  0.00000000000E+00 0.  1.
</event>
<event>
 7    1  0.5935282E-013  0.5052887E+02  0.7816164E-02  0.1300439E+00
        -11   -1    0    0    0    0  0.00000000000E+00  0.00000000000E+00  0.45593999997E+02  0.45594000000E+02  0.51100000000E-03 0.  1.
         11   -1    0    0    0    0 -0.00000000000E+00 -0.00000000000E+00 -0.45593999997E+02  0.45594000000E+02  0.51100000000E-03 0. -1.
    9900012    2    1    2    0    0  0.38557802087E+02  0.11549960244E+02 -0.57496983739E+01  0.50528871692E+02  0.30000035994E+02 0.  0.
        -12    1    1    2    0    0 -0.38557802087E+02 -0.11549960244E+02  0.57496983739E+01  0.40659128308E+02  0.00000000000E+00 0.  1.
         11    1    3    3    0    0  0.17198475141E+02  0.14817534114E+02  0.25249670234E+01  0.22841241716E+02  0.51100000000E-03 0. -1.
        -11    1    3    3    0    0  0.81550788770E+01  0.57244734880E+01 -0.57798082667E+01  0.11518727884E+02  0.51100000000E-03 0.  1.
         12    1    3    3    0    0  0.13204248069E+02 -0.89920473579E+01 -0.24948571306E+01  0.16168902092E+02  0.00000000000E+00 0. -1.
</event>
<event>
 7    1  0.5935282E-013  0.5052886E+02  0.7816164E-02  0.1300439E+00
        -11   -1    0    0    0    0  0.00000000000E+00  0.00000000000E+00  0.45593999997E+02  0.45594000000E+02  0.51100000000E-03 0.  1.
         11   -1    0    0    0    0 -0.00000000000E+00 -0.00000000000E+00 -0.45593999997E+02  0.45594000000E+02  0.51100000000E-03 0. -1.
    9900012    2    1    2    0    0 -0.36032856249E+02  0.10906239468E+01 -0.18804507972E+02  0.50528859452E+02  0.29999998790E+02 0.  0.
        -12    1    1    2    0    0  0.36032856249E+02 -0.10906239468E+01  0.18804507972E+02  0.40659140548E+02  0.00000000000E+00 0.  1.
         11    1    3    3    0    0 -0.12845493115E+02 -0.46280196589E+01 -0.21574034743E+01  0.13823156273E+02  0.51100000000E-03 0. -1.
        -11    1    3    3    0    0  0.31543673381E+01 -0.25154434525E+01  0.71871915959E+00  0.40980539964E+01  0.51100000000E-03 0.  1.
         12    1    3    3    0    0 -0.26341730472E+02  0.82340870582E+01 -0.17365823657E+02  0.32607649183E+02  0.00000000000E+00 0. -1.
</event>
<event>
 7    1  0.5935282E-013  0.5052886E+02  0.7816164E-02  0.1300439E+00
        -11   -1    0    0    0    0  0.00000000000E+00  0.00000000000E+00  0.45593999997E+02  0.45594000000E+02  0.51100000000E-03 0.  1.
         11   -1    0    0    0    0 -0.00000000000E+00 -0.00000000000E+00 -0.45593999997E+02  0.45594000000E+02  0.51100000000E-03 0. -1.
    9900012    2    1    2    0    0  0.10852447571E+02  0.21594455094E+02 -0.32696633114E+02  0.50528856796E+02  0.29999990718E+02 0.  0.
        -12    1    1    2    0    0 -0.10852447571E+02 -0.21594455094E+02  0.32696633114E+02  0.40659143204E+02  0.00000000000E+00 0.  1.
         11    1    3    3    0    0 -0.39416855710E+01 -0.23155689605E+01 -0.54675218583E+01  0.71268885415E+01  0.51100000000E-03 0. -1.
        -11    1    3    3    0    0  0.17098376778E+02  0.10262808495E+02 -0.15419957940E+02  0.25208229406E+02  0.51100000000E-03 0.  1.
         12    1    3    3    0    0 -0.23042436361E+01  0.13647215560E+02 -0.11809153315E+02  0.18193738849E+02  0.00000000000E+00 0. -1.
</event>
<event>
 7    1  0.5935282E-013  0.5052886E+02  0.7816164E-02  0.1300439E+00
        -11   -1    0    0    0    0  0.00000000000E+00  0.00000000000E+00  0.45593999997E+02  0.45594000000E+02  0.51100000000E-03 0.  1.
         11   -1    0    0    0    0 -0.00000000000E+00 -0.00000000000E+00 -0.45593999997E+02  0.45594000000E+02  0.51100000000E-03 0. -1.
    9900012    2    1    2    0    0 -0.11676911949E+02  0.38803221929E+02 -0.33354168864E+01  0.50528864366E+02  0.30000013726E+02 0.  0.
        -12    1    1    2    0    0  0.11676911949E+02 -0.38803221929E+02  0.33354168864E+01  0.40659135634E+02  0.00000000000E+00 0.  1.
         11    1    3    3    0    0 -0.13341912852E+02  0.73457343417E+01  0.30921327079E+00  0.15233583448E+02  0.51100000000E-03 0. -1.
        -11    1    3    3    0    0 -0.62617657718E+01  0.14849766816E+02  0.15043879493E+01  0.16186057841E+02  0.51100000000E-03 0.  1.
        -12    1    3    3    0    0  0.79267666749E+01  0.16607720771E+02 -0.51490181065E+01  0.19109223076E+02  0.00000000000E+00 0.  1.
</event>
<event>
 7    1  0.5935282E-013  0.5052886E+02  0.7816164E-02  0.1300439E+00
        -11   -1    0    0    0    0  0.00000000000E+00  0.00000000000E+00  0.45593999997E+02  0.45594000000E+02  0.51100000000E-03 0.  1.
         11   -1    0    0    0    0 -0.00000000000E+00 -0.00000000000E+00 -0.45593999997E+02  0.45594000000E+02  0.51100000000E-03 0. -1.
    9900012    2    1    2    0    0  0.13661913598E+02  0.38001952263E+01 -0.38106119634E+02  0.50528859325E+02  0.29999998403E+02 0.  0.
        -12    1    1    2    0    0 -0.13661913598E+02 -0.38001952263E+01  0.38106119634E+02  0.40659140675E+02  0.00000000000E+00 0.  1.
         11    1    3    3    0    0  0.12799618542E+02  0.48986851795E+01 -0.21046893026E+02  0.25115713361E+02  0.51100000000E-03 0. -1.
        -11    1    3    3    0    0 -0.91708689011E+00  0.18053385517E+01 -0.20483677048E+02  0.20583520625E+02  0.51100000000E-03 0.  1.
        -12    1    3    3    0    0  0.17793819460E+01 -0.29038285049E+01  0.34244504405E+01  0.48296253390E+01  0.00000000000E+00 0.  1.
</event>
<event>
 7    1  0.5935282E-013  0.5052887E+02  0.7816164E-02  0.1300439E+00
        -11   -1    0    0    0    0  0.00000000000E+00  0.00000000000E+00  0.45593999997E+02  0.45594000000E+02  0.51100000000E-03 0.  1.
         11   -1    0    0    0    0 -0.00000000000E+00 -0.00000000000E+00 -0.45593999997E+02  0.45594000000E+02  0.51100000000E-03 0. -1.
    9900012    2    1    2    0    0  0.95410484863E+01  0.88397734348E+01 -0.38522617350E+02  0.50528865133E+02  0.30000016059E+02 0.  0.
        -12    1    1    2    0    0 -0.95410484863E+01 -0.88397734348E+01  0.38522617350E+02  0.40659134867E+02  0.00000000000E+00 0.  1.
         11    1    3    3    0    0  0.56235811972E+01 -0.43300036663E+01 -0.31860751163E+01  0.77797604166E+01  0.51100000000E-03 0. -1.
        -11    1    3    3    0    0  0.33802328251E+01  0.51581081181E+01  0.34362263405E+00  0.61765791573E+01  0.51100000000E-03 0.  1.
         12    1    3    3    0    0  0.53723446390E+00  0.80116689830E+01 -0.35680164868E+02  0.36572525559E+02  0.00000000000E+00 0. -1.
</event>
<event>
 7    1  0.5935282E-013  0.5052886E+02  0.7816164E-02  0.1300439E+00
        -11   -1    0    0    0    0  0.00000000000E+00  0.00000000000E+00  0.45593999997E+02  0.45594000000E+02  0.51100000000E-03 0.  1.
         11   -1    0    0    0    0 -0.00000000000E+00 -0.00000000000E+00 -0.45593999997E+02  0.45594000000E+02  0.51100000000E-03 0. -1.
    9900012    2    1    2    0    0 -0.34080070701E+02  0.21680320124E+02 -0.46560020044E+01  0.50528857678E+02  0.29999993398E+02 0.  0.
        -12    1    1    2    0    0  0.34080070701E+02 -0.21680320124E+02  0.46560020044E+01  0.40659142322E+02  0.00000000000E+00 0.  1.
         11    1    3    3    0    0 -0.10347626966E+01 -0.18214723533E+01  0.24083654488E+01  0.31919774072E+01  0.51100000000E-03 0. -1.
        -11    1    3    3    0    0  0.36438600852E+01  0.13753372203E+01  0.10611967877E+00  0.38962200191E+01  0.51100000000E-03 0.  1.
         12    1    3    3    0    0 -0.36689168090E+02  0.22126455257E+02 -0.71704871320E+01  0.43440660252E+02  0.00000000000E+00 0. -1.
</event>
<event>
 7    1  0.5935282E-013  0.5052885E+02  0.7816164E-02  0.1300439E+00
        -11   -1    0    0    0    0  0.00000000000E+00  0.00000000000E+00  0.45593999997E+02  0.45594000000E+02  0.51100000000E-03 0.  1.
         11   -1    0    0    0    0 -0.00000000000E+00 -0.00000000000E+00 -0.45593999997E+02  0.45594000000E+02  0.51100000000E-03 0. -1.
    9900012    2    1    2    0    0  0.33437167627E+02  0.78543767537E+01 -0.21758467169E+02  0.50528852116E+02  0.29999976493E+02 0.  0.
        -12    1    1    2    0    0 -0.33437167627E+02 -0.78543767537E+01  0.21758467169E+02  0.40659147884E+02  0.00000000000E+00 0.  1.
         11    1    3    3    0    0  0.31372060642E+02  0.23308504227E+00 -0.17505239156E+02  0.35926228799E+02  0.51100000000E-03 0. -1.
        -11    1    3    3    0    0 -0.64381600707E+00 -0.22183599735E+01 -0.37252065572E+01  0.43832390054E+01  0.51100000000E-03 0.  1.
        -12    1    3    3    0    0  0.27089229922E+01  0.98396516849E+01 -0.52802145502E+00  0.10219384312E+02  0.00000000000E+00 0.  1.
</event>
<event>
 7    1  0.5935282E-013  0.5052886E+02  0.7816164E-02  0.1300439E+00
        -11   -1    0    0    0    0  0.00000000000E+00  0.00000000000E+00  0.45593999997E+02  0.45594000000E+02  0.51100000000E-03 0.  1.
         11   -1    0    0    0    0 -0.00000000000E+00 -0.00000000000E+00 -0.45593999997E+02  0.45594000000E+02  0.51100000000E-03 0. -1.
    9900012    2    1    2    0    0 -0.73075750370E+01 -0.29613680110E+02 -0.26884843033E+02  0.50528862190E+02  0.30000007112E+02 0.  0.
        -12    1    1    2    0    0  0.73075750370E+01  0.29613680110E+02  0.26884843033E+02  0.40659137810E+02  0.00000000000E+00 0.  1.
         11    1    3    3    0    0  0.77018358933E+01 -0.68347428772E+01 -0.11189706911E+01  0.10357802952E+02  0.51100000000E-03 0. -1.
        -11    1    3    3    0    0 -0.38901000380E+01 -0.10273870554E+02 -0.20965579610E+01  0.11183955026E+02  0.51100000000E-03 0.  1.
         12    1    3    3    0    0 -0.11119310892E+02 -0.12505066679E+02 -0.23669314381E+02  0.28987104212E+02  0.00000000000E+00 0. -1.
</event>
<event>
 7    1  0.5935282E-013  0.5052887E+02  0.7816164E-02  0.1300439E+00
        -11   -1    0    0    0    0  0.00000000000E+00  0.00000000000E+00  0.45593999997E+02  0.45594000000E+02  0.51100000000E-03 0. -1.
         11   -1    0    0    0    0 -0.00000000000E+00 -0.00000000000E+00 -0.45593999997E+02  0.45594000000E+02  0.51100000000E-03 0.  1.
    9900012    2    1    2    0    0  0.43270748210E+01 -0.15288668718E+02  0.37425896363E+02  0.50528872043E+02  0.30000037061E+02 0.  0.
        -12    1    1    2    0    0 -0.43270748210E+01  0.15288668718E+02 -0.37425896363E+02  0.40659127957E+02  0.00000000000E+00 0.  1.
         11    1    3    3    0    0  0.32329407310E+01 -0.60410868677E+01  0.36167281452E+02  0.36810581145E+02  0.51100000000E-03 0. -1.
        -11    1    3    3    0    0 -0.41670027533E+01 -0.17980677999E+01  0.52942836506E+00  0.45691634260E+01  0.51100000000E-03 0.  1.
        -12    1    3    3    0    0  0.52611368432E+01 -0.74495140509E+01  0.72918654555E+00  0.91491274718E+01  0.00000000000E+00 0.  1.
</event>
<event>
 7    1  0.5935282E-013  0.5052887E+02  0.7816164E-02  0.1300439E+00
        -11   -1    0    0    0    0  0.00000000000E+00  0.00000000000E+00  0.45593999997E+02  0.45594000000E+02  0.51100000000E-03 0.  1.
         11   -1    0    0    0    0 -0.00000000000E+00 -0.00000000000E+00 -0.45593999997E+02  0.45594000000E+02  0.51100000000E-03 0. -1.
    9900012    2    1    2    0    0  0.76020405217E+01  0.28981909745E+01 -0.39836850087E+02  0.50528866268E+02  0.30000019507E+02 0.  0.
        -12    1    1    2    0    0 -0.76020405217E+01 -0.28981909745E+01  0.39836850087E+02  0.40659133732E+02  0.00000000000E+00 0.  1.
         11    1    3    3    0    0  0.10567374246E+02  0.66484094126E+01 -0.27325571870E+02  0.30042596832E+02  0.51100000000E-03 0. -1.
        -11    1    3    3    0    0  0.15783793537E+01 -0.49488886962E+01 -0.14485897919E+02  0.15389087676E+02  0.51100000000E-03 0.  1.
        -12    1    3    3    0    0 -0.45437130777E+01  0.11986702581E+01  0.19746197018E+01  0.50971817592E+01  0.00000000000E+00 0.  1.
</event>
<event>
 7    1  0.5935282E-013  0.5052887E+02  0.7816164E-02  0.1300439E+00
        -11   -1    0    0    0    0  0.00000000000E+00  0.00000000000E+00  0.45593999997E+02  0.45594000000E+02  0.51100000000E-03 0.  1.
         11   -1    0    0    0    0 -0.00000000000E+00 -0.00000000000E+00 -0.45593999997E+02  0.45594000000E+02  0.51100000000E-03 0. -1.
    9900012    2    1    2    0    0 -0.27543716560E+01  0.23386936137E+02 -0.33145579585E+02  0.50528870753E+02  0.30000033140E+02 0.  0.
        -12    1    1    2    0    0  0.27543716560E+01 -0.23386936137E+02  0.33145579585E+02  0.40659129247E+02  0.00000000000E+00 0.  1.
         11    1    3    3    0    0 -0.30184168935E+01  0.85079821505E+01 -0.16479297744E+02  0.18789993486E+02  0.51100000000E-03 0. -1.
        -11    1    3    3    0    0  0.42919711936E+01  0.90074030424E+01 -0.21107518120E+02  0.23346983697E+02  0.51100000000E-03 0.  1.
        -12    1    3    3    0    0 -0.40279259561E+01  0.58715509445E+01  0.44412362789E+01  0.83918935698E+01  0.00000000000E+00 0.  1.
</event>
<event>
 7    1  0.5935282E-013  0.5052887E+02  0.7816164E-02  0.1300439E+00
        -11   -1    0    0    0    0  0.00000000000E+00  0.00000000000E+00  0.45593999997E+02  0.45594000000E+02  0.51100000000E-03 0. -1.
         11   -1    0    0    0    0 -0.00000000000E+00 -0.00000000000E+00 -0.45593999997E+02  0.45594000000E+02  0.51100000000E-03 0.  1.
    9900012    2    1    2    0    0 -0.34924499208E+02 -0.51749827487E+01  0.20165911269E+02  0.50528867340E+02  0.30000022766E+02 0.  0.
        -12    1    1    2    0    0  0.34924499208E+02  0.51749827487E+01 -0.20165911269E+02  0.40659132660E+02  0.00000000000E+00 0.  1.
         11    1    3    3    0    0 -0.20036149427E+02  0.77798545680E+01  0.13381722792E+02  0.25318845276E+02  0.51100000000E-03 0. -1.
        -11    1    3    3    0    0 -0.78815038677E+01 -0.78155232935E+01  0.10933898011E+02  0.15580456783E+02  0.51100000000E-03 0.  1.
        -12    1    3    3    0    0 -0.70068459130E+01 -0.51393140232E+01 -0.41497095351E+01  0.96295652811E+01  0.00000000000E+00 0.  1.
</event>
<event>
 7    1  0.5935282E-013  0.5052886E+02  0.7816164E-02  0.1300439E+00
        -11   -1    0    0    0    0  0.00000000000E+00  0.00000000000E+00  0.45593999997E+02  0.45594000000E+02  0.51100000000E-03 0.  1.
         11   -1    0    0    0    0 -0.00000000000E+00 -0.00000000000E+00 -0.45593999997E+02  0.45594000000E+02  0.51100000000E-03 0. -1.
    9900012    2    1    2    0    0 -0.19773623467E+02 -0.27292414056E+02 -0.22744091008E+02  0.50528859259E+02  0.29999998203E+02 0.  0.
        -12    1    1    2    0    0  0.19773623467E+02  0.27292414056E+02  0.22744091008E+02  0.40659140741E+02  0.00000000000E+00 0.  1.
         11    1    3    3    0    0 -0.40165706186E+01 -0.71386588963E+01 -0.14498032969E+02  0.16651914322E+02  0.51100000000E-03 0. -1.
        -11    1    3    3    0    0  0.35469276794E+01 -0.57694480942E+00 -0.50502637033E+01  0.61982840375E+01  0.51100000000E-03 0.  1.
         12    1    3    3    0    0 -0.19303980528E+02 -0.19576810350E+02 -0.31957943361E+01  0.27678660899E+02  0.00000000000E+00 0. -1.
</event>
<event>
 7    1  0.5935282E-013  0.5052886E+02  0.7816164E-02  0.1300439E+00
        -11   -1    0    0    0    0  0.00000000000E+00  0.00000000000E+00  0.45593999997E+02  0.45594000000E+02  0.51100000000E-03 0. -1.
         11   -1    0    0    0    0 -0.00000000000E+00 -0.00000000000E+00 -0.45593999997E+02  0.45594000000E+02  0.51100000000E-03 0.  1.
    9900012    2    1    2    0    0  0.18545193864E+02  0.50099933614E+01  0.35834922654E+02  0.50528856741E+02  0.29999990551E+02 0.  0.
        -12    1    1    2    0    0 -0.18545193864E+02 -0.50099933614E+01 -0.35834922654E+02  0.40659143259E+02  0.00000000000E+00 0.  1.
         11    1    3    3    0    0  0.15389992852E+02  0.42699642777E+01  0.36809952340E+02  0.40125516401E+02  0.51100000000E-03 0. -1.
        -11    1    3    3    0    0  0.36756017933E+01  0.14905275249E+00  0.39605214183E+01  0.54053672800E+01  0.51100000000E-03 0.  1.
        -12    1    3    3    0    0 -0.52040078045E+00  0.59097633127E+00 -0.49355511052E+01  0.49979730600E+01  0.00000000000E+00 0.  1.
</event>
<event>
 7    1  0.5935282E-013  0.5052887E+02  0.7816164E-02  0.1300439E+00
        -11   -1    0    0    0    0  0.00000000000E+00  0.00000000000E+00  0.45593999997E+02  0.45594000000E+02  0.51100000000E-03 0.  1.
         11   -1    0    0    0    0 -0.00000000000E+00 -0.00000000000E+00 -0.45593999997E+02  0.45594000000E+02  0.51100000000E-03 0. -1.
    9900012    2    1    2    0    0 -0.16451988506E+02  0.10275680450E+02 -0.35733839531E+02  0.50528870371E+02  0.30000031981E+02 0.  0.
        -12    1    1    2    0    0  0.16451988506E+02 -0.10275680450E+02  0.35733839531E+02  0.40659129629E+02  0.00000000000E+00 0.  1.
         11    1    3    3    0    0 -0.13175064248E+02  0.10685912305E+02 -0.17868328306E+02  0.24638348087E+02  0.51100000000E-03 0. -1.
        -11    1    3    3    0    0 -0.90696687984E+01  0.44575777921E+01 -0.58092797433E+01  0.11656612856E+02  0.51100000000E-03 0.  1.
        -12    1    3    3    0    0  0.57927445401E+01 -0.48678096472E+01 -0.12056231482E+02  0.14233909428E+02  0.00000000000E+00 0.  1.
</event>
<event>
 7    1  0.5935282E-013  0.5052887E+02  0.7816164E-02  0.1300439E+00
        -11   -1    0    0    0    0  0.00000000000E+00  0.00000000000E+00  0.45593999997E+02  0.45594000000E+02  0.51100000000E-03 0. -1.
         11   -1    0    0    0    0 -0.00000000000E+00 -0.00000000000E+00 -0.45593999997E+02  0.45594000000E+02  0.51100000000E-03 0.  1.
    9900012    2    1    2    0    0  0.84198131192E+01  0.39554042987E+02  0.42129433816E+01  0.50528874806E+02  0.30000045460E+02 0.  0.
        -12    1    1    2    0    0 -0.84198131192E+01 -0.39554042987E+02 -0.42129433816E+01  0.40659125194E+02  0.00000000000E+00 0.  1.
         11    1    3    3    0    0 -0.89065195210E+00  0.29070141659E+01  0.36976158064E+01  0.47871030042E+01  0.51100000000E-03 0. -1.
        -11    1    3    3    0    0 -0.29547522830E+01 -0.28835587443E+01 -0.12524010351E+01  0.43143922746E+01  0.51100000000E-03 0.  1.
         12    1    3    3    0    0  0.12265217354E+02  0.39530587566E+02  0.17677286103E+01  0.41427379527E+02  0.00000000000E+00 0. -1.
</event>
<event>
 7    1  0.5935282E-013  0.5052886E+02  0.7816164E-02  0.1300439E+00
        -11   -1    0    0    0    0  0.00000000000E+00  0.00000000000E+00  0.45593999997E+02  0.45594000000E+02  0.51100000000E-03 0.  1.
         11   -1    0    0    0    0 -0.00000000000E+00 -0.00000000000E+00 -0.45593999997E+02  0.45594000000E+02  0.51100000000E-03 0. -1.
    9900012    2    1    2    0    0 -0.17421105625E+02  0.35659341795E+02 -0.88364173157E+01  0.50528857739E+02  0.29999993582E+02 0.  0.
        -12    1    1    2    0    0  0.17421105625E+02 -0.35659341795E+02  0.88364173157E+01  0.40659142261E+02  0.00000000000E+00 0.  1.
         11    1    3    3    0    0  0.25951076374E+01  0.15323711526E+02 -0.63028506727E+01  0.16771304226E+02  0.51100000000E-03 0. -1.
        -11    1    3    3    0    0  0.14029328075E+01 -0.68260504924E+00 -0.33947421849E+01  0.37361002234E+01  0.51100000000E-03 0.  1.
         12    1    3    3    0    0 -0.21419146070E+02  0.21018235318E+02  0.86117554194E+00  0.30021453289E+02  0.00000000000E+00 0. -1.
</event>
<event>
 7    1  0.5935282E-013  0.5052886E+02  0.7816164E-02  0.1300439E+00
        -11   -1    0    0    0    0  0.00000000000E+00  0.00000000000E+00  0.45593999997E+02  0.45594000000E+02  0.51100000000E-03 0.  1.
         11   -1    0    0    0    0 -0.00000000000E+00 -0.00000000000E+00 -0.45593999997E+02  0.45594000000E+02  0.51100000000E-03 0. -1.
    9900012    2    1    2    0    0  0.25082328032E+02 -0.30022744149E+02 -0.11075989208E+02  0.50528857329E+02  0.29999992338E+02 0.  0.
        -12    1    1    2    0    0 -0.25082328032E+02  0.30022744149E+02  0.11075989208E+02  0.40659142671E+02  0.00000000000E+00 0.  1.
         11    1    3    3    0    0 -0.27589877824E+01  0.73805924715E+00  0.10462182296E+01  0.30415979157E+01  0.51100000000E-03 0. -1.
        -11    1    3    3    0    0  0.11154119509E+02 -0.91813034430E+01  0.49911497604E+01  0.15284707754E+02  0.51100000000E-03 0.  1.
         12    1    3    3    0    0  0.16687196305E+02 -0.21579499954E+02 -0.17113357198E+02  0.32202551659E+02  0.00000000000E+00 0. -1.
</event>
<event>
 7    1  0.5935282E-013  0.5052876E+02  0.7816164E-02  0.1300439E+00
        -11   -1    0    0    0    0  0.00000000000E+00  0.00000000000E+00  0.45593999997E+02  0.45594000000E+02  0.51100000000E-03 0.  1.
         11   -1    0    0    0    0 -0.00000000000E+00 -0.00000000000E+00 -0.45593999997E+02  0.45594000000E+02  0.51100000000E-03 0. -1.
    9900012    2    1    2    0    0 -0.41224253076E+01 -0.27781441202E+01 -0.40354195982E+02  0.50528762322E+02  0.29999703554E+02 0.  0.
        -12    1    1    2    0    0  0.41224253076E+01  0.27781441202E+01  0.40354195982E+02  0.40659237678E+02  0.00000000000E+00 0.  1.
         11    1    3    3    0    0 -0.85764896634E+01  0.33214823820E+01 -0.41117890308E+02  0.42133945030E+02  0.51100000000E-03 0. -1.
        -11    1    3    3    0    0 -0.45327629518E+00 -0.15919514620E+01  0.48815019545E+00  0.17257055750E+01  0.51100000000E-03 0.  1.
        -12    1    3    3    0    0  0.49073406511E+01 -0.45076750402E+01  0.27554413022E+00  0.66691117175E+01  0.00000000000E+00 0.  1.
</event>
<event>
 7    1  0.5935282E-013  0.5052886E+02  0.7816164E-02  0.1300439E+00
        -11   -1    0    0    0    0  0.00000000000E+00  0.00000000000E+00  0.45593999997E+02  0.45594000000E+02  0.51100000000E-03 0.  1.
         11   -1    0    0    0    0 -0.00000000000E+00 -0.00000000000E+00 -0.45593999997E+02  0.45594000000E+02  0.51100000000E-03 0. -1.
    9900012    2    1    2    0    0  0.11826055975E+02 -0.34933771636E+01 -0.38744118613E+02  0.50528855751E+02  0.29999987540E+02 0.  0.
        -12    1    1    2    0    0 -0.11826055975E+02  0.34933771636E+01  0.38744118613E+02  0.40659144249E+02  0.00000000000E+00 0.  1.
         11    1    3    3    0    0 -0.27431590426E+01 -0.81352515534E+01 -0.96111424508E+01  0.12887253347E+02  0.51100000000E-03 0. -1.
        -11    1    3    3    0    0 -0.39031037623E+01  0.69024371139E+00 -0.16517846841E+01  0.42940712923E+01  0.51100000000E-03 0.  1.
         12    1    3    3    0    0  0.18472318780E+02  0.39516306784E+01 -0.27481191479E+02  0.33347531111E+02  0.00000000000E+00 0. -1.
</event>
<event>
 7    1  0.5935282E-013  0.5052886E+02  0.7816164E-02  0.1300439E+00
        -11   -1    0    0    0    0  0.00000000000E+00  0.00000000000E+00  0.45593999997E+02  0.45594000000E+02  0.51100000000E-03 0.  1.
         11   -1    0    0    0    0 -0.00000000000E+00 -0.00000000000E+00 -0.45593999997E+02  0.45594000000E+02  0.51100000000E-03 0. -1.
    9900012    2    1    2    0    0  0.14289293491E+02 -0.78690286104E+01 -0.37243257578E+02  0.50528858903E+02  0.29999997122E+02 0.  0.
        -12    1    1    2    0    0 -0.14289293491E+02  0.78690286104E+01  0.37243257578E+02  0.40659141097E+02  0.00000000000E+00 0.  1.
         11    1    3    3    0    0 -0.12549420127E+01 -0.73347486419E+01 -0.15060901197E+02  0.16798933365E+02  0.51100000000E-03 0. -1.
        -11    1    3    3    0    0  0.11813406312E+01 -0.85457985587E+01 -0.51208657957E+01  0.10032422711E+02  0.51100000000E-03 0.  1.
         12    1    3    3    0    0  0.14362894872E+02  0.80115185902E+01 -0.17061490585E+02  0.23697502827E+02  0.00000000000E+00 0. -1.
</event>
<event>
 7    1  0.5935282E-013  0.5052886E+02  0.7816164E-02  0.1300439E+00
        -11   -1    0    0    0    0  0.00000000000E+00  0.00000000000E+00  0.45593999997E+02  0.45594000000E+02  0.51100000000E-03 0.  1.
         11   -1    0    0    0    0 -0.00000000000E+00 -0.00000000000E+00 -0.45593999997E+02  0.45594000000E+02  0.51100000000E-03 0. -1.
    9900012    2    1    2    0    0 -0.12529566604E+02  0.13944274352E+02 -0.36079533915E+02  0.50528860880E+02  0.30000003129E+02 0.  0.
        -12    1    1    2    0    0  0.12529566604E+02 -0.13944274352E+02  0.36079533915E+02  0.40659139120E+02  0.00000000000E+00 0.  1.
         11    1    3    3    0    0 -0.44140255666E+01  0.21172900637E+01 -0.21140305451E+02  0.21699747780E+02  0.51100000000E-03 0. -1.
        -11    1    3    3    0    0  0.37287924038E+01  0.10388953507E+02 -0.12454580046E+02  0.16641839205E+02  0.51100000000E-03 0.  1.
         12    1    3    3    0    0 -0.11844333441E+02  0.14380307809E+01 -0.24846484185E+01  0.12187273894E+02  0.00000000000E+00 0. -1.
</event>
<event>
 7    1  0.5935282E-013  0.5052887E+02  0.7816164E-02  0.1300439E+00
        -11   -1    0    0    0    0  0.00000000000E+00  0.00000000000E+00  0.45593999997E+02  0.45594000000E+02  0.51100000000E-03 0.  1.
         11   -1    0    0    0    0 -0.00000000000E+00 -0.00000000000E+00 -0.45593999997E+02  0.45594000000E+02  0.51100000000E-03 0. -1.
    9900012    2    1    2    0    0 -0.28931453886E+02  0.26889246526E+02 -0.96490742479E+01  0.50528865276E+02  0.30000016493E+02 0.  0.
        -12    1    1    2    0    0  0.28931453886E+02 -0.26889246526E+02  0.96490742479E+01  0.40659134724E+02  0.00000000000E+00 0.  1.
         11    1    3    3    0    0  0.35258955572E+01  0.11262623577E+02 -0.49722191776E+01  0.12806310676E+02  0.51100000000E-03 0. -1.
        -11    1    3    3    0    0 -0.68380121546E+00 -0.12391184306E+01  0.16871297254E+00  0.14252939751E+01  0.51100000000E-03 0.  1.
        -12    1    3    3    0    0 -0.31773548227E+02  0.16865741379E+02 -0.48455680428E+01  0.36297260625E+02  0.00000000000E+00 0.  1.
</event>
<event>
 7    1  0.5935282E-013  0.5052886E+02  0.7816164E-02  0.1300439E+00
        -11   -1    0    0    0    0  0.00000000000E+00  0.00000000000E+00  0.45593999997E+02  0.45594000000E+02  0.51100000000E-03 0.  1.
         11   -1    0    0    0    0 -0.00000000000E+00 -0.00000000000E+00 -0.45593999997E+02  0.45594000000E+02  0.51100000000E-03 0. -1.
    9900012    2    1    2    0    0 -0.15488935474E+02  0.16696793153E+02 -0.33681975498E+02  0.50528862071E+02  0.30000006751E+02 0.  0.
        -12    1    1    2    0    0  0.15488935474E+02 -0.16696793153E+02  0.33681975498E+02  0.40659137929E+02  0.00000000000E+00 0.  1.
         11    1    3    3    0    0 -0.13602735138E+02  0.24365383715E+01 -0.14343092605E+02  0.19917214368E+02  0.51100000000E-03 0. -1.
        -11    1    3    3    0    0 -0.42905183051E+01 -0.23435475793E+01 -0.10649252084E+02  0.11717821162E+02  0.51100000000E-03 0.  1.
         12    1    3    3    0    0  0.24043179690E+01  0.16603802361E+02 -0.86896308092E+01  0.18893826540E+02  0.00000000000E+00 0. -1.
</event>
<event>
 7    1  0.5935282E-013  0.5052886E+02  0.7816164E-02  0.1300439E+00
        -11   -1    0    0    0    0  0.00000000000E+00  0.00000000000E+00  0.45593999997E+02  0.45594000000E+02  0.51100000000E-03 0. -1.
         11   -1    0    0    0    0 -0.00000000000E+00 -0.00000000000E+00 -0.45593999997E+02  0.45594000000E+02  0.51100000000E-03 0.  1.
    9900012    2    1    2    0    0 -0.54408920395E-01  0.87563993551E+01  0.39705010409E+02  0.50528863984E+02  0.30000012565E+02 0.  0.
        -12    1    1    2    0    0  0.54408920395E-01 -0.87563993551E+01 -0.39705010409E+02  0.40659136016E+02  0.00000000000E+00 0.  1.
         11    1    3    3    0    0 -0.13766276435E+01 -0.23805274611E+01  0.52983901370E+00  0.28004900113E+01  0.51100000000E-03 0. -1.
        -11    1    3    3    0    0  0.63719599923E+01 -0.25535797389E+01  0.10992029252E+01  0.69520422149E+01  0.51100000000E-03 0.  1.
         12    1    3    3    0    0 -0.50497412692E+01  0.13690506555E+02  0.38075968470E+02  0.40776331757E+02  0.00000000000E+00 0. -1.
</event>
<event>
 7    1  0.5935282E-013  0.5052886E+02  0.7816164E-02  0.1300439E+00
        -11   -1    0    0    0    0  0.00000000000E+00  0.00000000000E+00  0.45593999997E+02  0.45594000000E+02  0.51100000000E-03 0. -1.
         11   -1    0    0    0    0 -0.00000000000E+00 -0.00000000000E+00 -0.45593999997E+02  0.45594000000E+02  0.51100000000E-03 0.  1.
    9900012    2    1    2    0    0  0.31417300017E+02 -0.11223917862E+02  0.23240965117E+02  0.50528861641E+02  0.30000005445E+02 0.  0.
        -12    1    1    2    0    0 -0.31417300017E+02  0.11223917862E+02 -0.23240965117E+02  0.40659138359E+02  0.00000000000E+00 0.  1.
         11    1    3    3    0    0  0.11085361137E+02 -0.39017492406E+01  0.38802041584E+01  0.12375979284E+02  0.51100000000E-03 0. -1.
        -11    1    3    3    0    0  0.11811216448E+02 -0.16113561650E+02  0.82337176546E+01  0.21608928935E+02  0.51100000000E-03 0.  1.
         12    1    3    3    0    0  0.85207224323E+01  0.87913930293E+01  0.11127043304E+02  0.16543953422E+02  0.00000000000E+00 0. -1.
</event>
<event>
 7    1  0.5935282E-013  0.5052886E+02  0.7816164E-02  0.1300439E+00
        -11   -1    0    0    0    0  0.00000000000E+00  0.00000000000E+00  0.45593999997E+02  0.45594000000E+02  0.51100000000E-03 0. -1.
         11   -1    0    0    0    0 -0.00000000000E+00 -0.00000000000E+00 -0.45593999997E+02  0.45594000000E+02  0.51100000000E-03 0.  1.
    9900012    2    1    2    0    0  0.84747797337E+01 -0.33560545990E+02  0.21331520024E+02  0.50528857299E+02  0.29999992246E+02 0.  0.
        -12    1    1    2    0    0 -0.84747797337E+01  0.33560545990E+02 -0.21331520024E+02  0.40659142701E+02  0.00000000000E+00 0.  1.
         11    1    3    3    0    0 -0.65814817210E+01 -0.67652499073E+01  0.20879726902E+01  0.96666508248E+01  0.51100000000E-03 0. -1.
        -11    1    3    3    0    0  0.12303224223E+01 -0.11761320393E+02 -0.12954447135E+01  0.11896240075E+02  0.51100000000E-03 0.  1.
         12    1    3    3    0    0  0.13825939032E+02 -0.15033975689E+02  0.20538992047E+02  0.28965966400E+02  0.00000000000E+00 0. -1.
</event>
<event>
 7    1  0.5935282E-013  0.5052886E+02  0.7816164E-02  0.1300439E+00
        -11   -1    0    0    0    0  0.00000000000E+00  0.00000000000E+00  0.45593999997E+02  0.45594000000E+02  0.51100000000E-03 0.  1.
         11   -1    0    0    0    0 -0.00000000000E+00 -0.00000000000E+00 -0.45593999997E+02  0.45594000000E+02  0.51100000000E-03 0. -1.
    9900012    2    1    2    0    0  0.31205729891E+02 -0.18406035719E+02 -0.18454979886E+02  0.50528855745E+02  0.29999987523E+02 0.  0.
        -12    1    1    2    0    0 -0.31205729891E+02  0.18406035719E+02  0.18454979886E+02  0.40659144255E+02  0.00000000000E+00 0.  1.
         11    1    3    3    0    0  0.30307340021E+01 -0.44721724909E+01 -0.47665499348E+01  0.72045592455E+01  0.51100000000E-03 0. -1.
        -11    1    3    3    0    0  0.52837576222E+01 -0.15734079021E+02 -0.11637574526E+02  0.20270976256E+02  0.51100000000E-03 0.  1.
        -12    1    3    3    0    0  0.22891238267E+02  0.18002157924E+01 -0.20508554254E+01  0.23053320244E+02  0.00000000000E+00 0.  1.
</event>
<event>
 7    1  0.5935282E-013  0.5052885E+02  0.7816164E-02  0.1300439E+00
        -11   -1    0    0    0    0  0.00000000000E+00  0.00000000000E+00  0.45593999997E+02  0.45594000000E+02  0.51100000000E-03 0. -1.
         11   -1    0    0    0    0 -0.00000000000E+00 -0.00000000000E+00 -0.45593999997E+02  0.45594000000E+02  0.51100000000E-03 0.  1.
    9900012    2    1    2    0    0  0.28646699118E+02  0.82481195023E+01  0.27649622721E+02  0.50528849956E+02  0.29999969927E+02 0.  0.
        -12    1    1    2    0    0 -0.28646699118E+02 -0.82481195023E+01 -0.27649622721E+02  0.40659150044E+02  0.00000000000E+00 0.  1.
         11    1    3    3    0    0  0.63298809675E+01 -0.87964335814E+01  0.92528908934E+01  0.14249934279E+02  0.51100000000E-03 0.  1.
        -11    1    3    3    0    0  0.14907889908E+01  0.16542162357E+01  0.81179601805E+01  0.84178477607E+01  0.51100000000E-03 0. -1.
         12    1    3    3    0    0  0.20826029160E+02  0.15390336848E+02  0.10278771647E+02  0.27861067916E+02  0.00000000000E+00 0. -1.
</event>
<event>
 7    1  0.5935282E-013  0.5052886E+02  0.7816164E-02  0.1300439E+00
        -11   -1    0    0    0    0  0.00000000000E+00  0.00000000000E+00  0.45593999997E+02  0.45594000000E+02  0.51100000000E-03 0.  1.
         11   -1    0    0    0    0 -0.00000000000E+00 -0.00000000000E+00 -0.45593999997E+02  0.45594000000E+02  0.51100000000E-03 0. -1.
    9900012    2    1    2    0    0 -0.36109478240E+02 -0.36694358401E+01  0.18325024832E+02  0.50528859413E+02  0.29999998672E+02 0.  0.
        -12    1    1    2    0    0  0.36109478240E+02  0.36694358401E+01 -0.18325024832E+02  0.40659140587E+02  0.00000000000E+00 0.  1.
         11    1    3    3    0    0 -0.22084816786E+02  0.40296890885E+01  0.66696496850E+01  0.23419260318E+02  0.51100000000E-03 0. -1.
        -11    1    3    3    0    0 -0.84038734790E+01  0.55383638863E+01  0.41401637216E+01  0.10882992231E+02  0.51100000000E-03 0.  1.
         12    1    3    3    0    0 -0.56207879751E+01 -0.13237488815E+02  0.75152114251E+01  0.16226606865E+02  0.00000000000E+00 0. -1.
</event>
<event>
 7    1  0.5935282E-013  0.5052886E+02  0.7816164E-02  0.1300439E+00
        -11   -1    0    0    0    0  0.00000000000E+00  0.00000000000E+00  0.45593999997E+02  0.45594000000E+02  0.51100000000E-03 0.  1.
         11   -1    0    0    0    0 -0.00000000000E+00 -0.00000000000E+00 -0.45593999997E+02  0.45594000000E+02  0.51100000000E-03 0. -1.
    9900012    2    1    2    0    0 -0.18357120010E+02 -0.58347570450E+01 -0.35806951409E+02  0.50528855715E+02  0.29999987431E+02 0.  0.
        -12    1    1    2    0    0  0.18357120010E+02  0.58347570450E+01  0.35806951409E+02  0.40659144285E+02  0.00000000000E+00 0.  1.
         11    1    3    3    0    0  0.11295266783E+01  0.20544049984E+01 -0.77201015439E+01  0.80682326766E+01  0.51100000000E-03 0. -1.
        -11    1    3    3    0    0  0.19964748169E+01  0.59496622102E+01 -0.60385494298E+01  0.87091028003E+01  0.51100000000E-03 0.  1.
        -12    1    3    3    0    0 -0.21483121505E+02 -0.13838824254E+02 -0.22048300435E+02  0.33751520238E+02  0.00000000000E+00 0.  1.
</event>
<event>
 7    1  0.5935282E-013  0.5052884E+02  0.7816164E-02  0.1300439E+00
        -11   -1    0    0    0    0  0.00000000000E+00  0.00000000000E+00  0.45593999997E+02  0.45594000000E+02  0.51100000000E-03 0.  1.
         11   -1    0    0    0    0 -0.00000000000E+00 -0.00000000000E+00 -0.45593999997E+02  0.45594000000E+02  0.51100000000E-03 0. -1.
    9900012    2    1    2    0    0  0.33316385146E+02  0.12559609946E+02 -0.19632673257E+02  0.50528841371E+02  0.29999943831E+02 0.  0.
        -12    1    1    2    0    0 -0.33316385146E+02 -0.12559609946E+02  0.19632673257E+02  0.40659158629E+02  0.00000000000E+00 0.  1.
         11    1    3    3    0    0  0.21222678267E+02  0.24152862306E+01 -0.96062996933E+01  0.23420432841E+02  0.51100000000E-03 0. -1.
        -11    1    3    3    0    0  0.12748638629E+02 -0.68426269664E+00 -0.67326823805E+00  0.12784728887E+02  0.51100000000E-03 0.  1.
        -12    1    3    3    0    0 -0.65493174994E+00  0.10828586412E+02 -0.93531053261E+01  0.14323679643E+02  0.00000000000E+00 0.  1.
</event>
<event>
 7    1  0.5935282E-013  0.5052887E+02  0.7816164E-02  0.1300439E+00
        -11   -1    0    0    0    0  0.00000000000E+00  0.00000000000E+00  0.45593999997E+02  0.45594000000E+02  0.51100000000E-03 0.  1.
         11   -1    0    0    0    0 -0.00000000000E+00 -0.00000000000E+00 -0.45593999997E+02  0.45594000000E+02  0.51100000000E-03 0. -1.
    9900012    2    1    2    0    0 -0.16962025745E+02 -0.22339962267E+01 -0.36884463669E+02  0.50528871668E+02  0.30000035923E+02 0.  0.
        -12    1    1    2    0    0  0.16962025745E+02  0.22339962267E+01  0.36884463669E+02  0.40659128332E+02  0.00000000000E+00 0.  1.
         11    1    3    3    0    0 -0.39186544568E+01 -0.87060797952E+01 -0.11893744232E+02  0.15251650084E+02  0.51100000000E-03 0. -1.
        -11    1    3    3    0    0  0.31269741694E+01  0.30608616358E+01  0.98948421371E+00  0.44861922250E+01  0.51100000000E-03 0.  1.
        -12    1    3    3    0    0 -0.16170345457E+02  0.34112219327E+01 -0.25980203651E+02  0.30791029360E+02  0.00000000000E+00 0.  1.
</event>
<event>
 7    1  0.5935282E-013  0.5052886E+02  0.7816164E-02  0.1300439E+00
        -11   -1    0    0    0    0  0.00000000000E+00  0.00000000000E+00  0.45593999997E+02  0.45594000000E+02  0.51100000000E-03 0.  1.
         11   -1    0    0    0    0 -0.00000000000E+00 -0.00000000000E+00 -0.45593999997E+02  0.45594000000E+02  0.51100000000E-03 0. -1.
    9900012    2    1    2    0    0  0.24572481258E+02 -0.15227388645E+02 -0.28591705020E+02  0.50528858395E+02  0.29999995577E+02 0.  0.
        -12    1    1    2    0    0 -0.24572481258E+02  0.15227388645E+02  0.28591705020E+02  0.40659141605E+02  0.00000000000E+00 0.  1.
         11    1    3    3    0    0  0.14183713414E+01 -0.18852403636E+00 -0.50068355725E+01  0.52072758027E+01  0.51100000000E-03 0. -1.
        -11    1    3    3    0    0  0.15524287013E+02  0.24683976121E+00 -0.23585805186E+02  0.28237468436E+02  0.51100000000E-03 0.  1.
        -12    1    3    3    0    0  0.76298229034E+01 -0.15285704370E+02  0.93573871893E-03  0.17084114156E+02  0.00000000000E+00 0.  1.
</event>
<event>
 7    1  0.5935282E-013  0.5052886E+02  0.7816164E-02  0.1300439E+00
        -11   -1    0    0    0    0  0.00000000000E+00  0.00000000000E+00  0.45593999997E+02  0.45594000000E+02  0.51100000000E-03 0. -1.
         11   -1    0    0    0    0 -0.00000000000E+00 -0.00000000000E+00 -0.45593999997E+02  0.45594000000E+02  0.51100000000E-03 0.  1.
    9900012    2    1    2    0    0 -0.15518302328E+02 -0.36393975471E+02  0.93715690453E+01  0.50528862477E+02  0.30000007986E+02 0.  0.
        -12    1    1    2    0    0  0.15518302328E+02  0.36393975471E+02 -0.93715690453E+01  0.40659137523E+02  0.00000000000E+00 0.  1.
         11    1    3    3    0    0 -0.85595431151E+01 -0.15083656907E+02  0.80341499452E+01  0.19113609016E+02  0.51100000000E-03 0. -1.
        -11    1    3    3    0    0 -0.96631336957E+01 -0.13311409670E+02  0.10055022443E+02  0.19278829239E+02  0.51100000000E-03 0.  1.
        -12    1    3    3    0    0  0.27043744831E+01 -0.79989088943E+01 -0.87176033434E+01  0.12136424222E+02  0.00000000000E+00 0.  1.
</event>
<event>
 7    1  0.5935282E-013  0.5052885E+02  0.7816164E-02  0.1300439E+00
        -11   -1    0    0    0    0  0.00000000000E+00  0.00000000000E+00  0.45593999997E+02  0.45594000000E+02  0.51100000000E-03 0.  1.
         11   -1    0    0    0    0 -0.00000000000E+00 -0.00000000000E+00 -0.45593999997E+02  0.45594000000E+02  0.51100000000E-03 0. -1.
    9900012    2    1    2    0    0  0.17494831513E+02 -0.30043441318E+02 -0.21082899606E+02  0.50528854021E+02  0.29999982282E+02 0.  0.
        -12    1    1    2    0    0 -0.17494831513E+02  0.30043441318E+02  0.21082899606E+02  0.40659145979E+02  0.00000000000E+00 0.  1.
         11    1    3    3    0    0  0.59510110809E-01 -0.83461079552E+01 -0.12949877817E+02  0.15406504963E+02  0.51100000000E-03 0.  1.
        -11    1    3    3    0    0  0.16148820431E+00 -0.25725842511E+00 -0.75777369158E+01  0.75838220815E+01  0.51100000000E-03 0. -1.
         12    1    3    3    0    0  0.17273833198E+02 -0.21440074938E+02 -0.55528487355E+00  0.27538526976E+02  0.00000000000E+00 0. -1.
</event>
<event>
 7    1  0.5935282E-013  0.5052887E+02  0.7816164E-02  0.1300439E+00
        -11   -1    0    0    0    0  0.00000000000E+00  0.00000000000E+00  0.45593999997E+02  0.45594000000E+02  0.51100000000E-03 0.  1.
         11   -1    0    0    0    0 -0.00000000000E+00 -0.00000000000E+00 -0.45593999997E+02  0.45594000000E+02  0.51100000000E-03 0. -1.
    9900012    2    1    2    0    0  0.18799619187E+02  0.32112372640E+02 -0.16387036143E+02  0.50528866811E+02  0.30000021158E+02 0.  0.
        -12    1    1    2    0    0 -0.18799619187E+02 -0.32112372640E+02  0.16387036143E+02  0.40659133189E+02  0.00000000000E+00 0.  1.
         11    1    3    3    0    0  0.12659275490E+02  0.14118699901E+02  0.27033921873E+00  0.18964915670E+02  0.51100000000E-03 0. -1.
        -11    1    3    3    0    0  0.72374408640E+01  0.11692683889E+01  0.70164229822E+00  0.73647838394E+01  0.51100000000E-03 0.  1.
         12    1    3    3    0    0 -0.10970971673E+01  0.16824404350E+02 -0.17359017660E+02  0.24199167301E+02  0.00000000000E+00 0. -1.
</event>
<event>
 7    1  0.5935282E-013  0.5052886E+02  0.7816164E-02  0.1300439E+00
        -11   -1    0    0    0    0  0.00000000000E+00  0.00000000000E+00  0.45593999997E+02  0.45594000000E+02  0.51100000000E-03 0.  1.
         11   -1    0    0    0    0 -0.00000000000E+00 -0.00000000000E+00 -0.45593999997E+02  0.45594000000E+02  0.51100000000E-03 0. -1.
    9900012    2    1    2    0    0  0.33713152186E+02  0.17829268022E+02 -0.14096311538E+02  0.50528862927E+02  0.30000009354E+02 0.  0.
        -12    1    1    2    0    0 -0.33713152186E+02 -0.17829268022E+02  0.14096311538E+02  0.40659137073E+02  0.00000000000E+00 0.  1.
         11    1    3    3    0    0  0.55206117323E+01 -0.82391743973E+00 -0.30882204899E+01  0.63791143508E+01  0.51100000000E-03 0. -1.
        -11    1    3    3    0    0  0.28452431477E+02  0.79846669920E+01 -0.10757891538E+01  0.29571152945E+02  0.51100000000E-03 0.  1.
         12    1    3    3    0    0 -0.25989102296E+00  0.10668518470E+02 -0.99323018942E+01  0.14578595632E+02  0.00000000000E+00 0. -1.
</event>
<event>
 7    1  0.5935282E-013  0.5052885E+02  0.7816164E-02  0.1300439E+00
        -11   -1    0    0    0    0  0.00000000000E+00  0.00000000000E+00  0.45593999997E+02  0.45594000000E+02  0.51100000000E-03 0.  1.
         11   -1    0    0    0    0 -0.00000000000E+00 -0.00000000000E+00 -0.45593999997E+02  0.45594000000E+02  0.51100000000E-03 0. -1.
    9900012    2    1    2    0    0  0.43678611136E+00  0.22345405626E+02 -0.33965545510E+02  0.50528853225E+02  0.29999979863E+02 0.  0.
        -12    1    1    2    0    0 -0.43678611136E+00 -0.22345405626E+02  0.33965545510E+02  0.40659146775E+02  0.00000000000E+00 0.  1.
         11    1    3    3    0    0 -0.29760357911E+01  0.25018792080E+01 -0.22387615067E+02  0.22722708845E+02  0.51100000000E-03 0. -1.
        -11    1    3    3    0    0 -0.43919707777E+01  0.35422580070E+01 -0.73124158055E+01  0.92362559663E+01  0.51100000000E-03 0.  1.
        -12    1    3    3    0    0  0.78047926802E+01  0.16301268411E+02 -0.42655146373E+01  0.18569888414E+02  0.00000000000E+00 0.  1.
</event>
<event>
 7    1  0.5935282E-013  0.5052886E+02  0.7816164E-02  0.1300439E+00
        -11   -1    0    0    0    0  0.00000000000E+00  0.00000000000E+00  0.45593999997E+02  0.45594000000E+02  0.51100000000E-03 0. -1.
         11   -1    0    0    0    0 -0.00000000000E+00 -0.00000000000E+00 -0.45593999997E+02  0.45594000000E+02  0.51100000000E-03 0.  1.
    9900012    2    1    2    0    0 -0.12891090760E+02 -0.38332699632E+02  0.41940013500E+01  0.50528859215E+02  0.29999998070E+02 0.  0.
        -12    1    1    2    0    0  0.12891090760E+02  0.38332699632E+02 -0.41940013500E+01  0.40659140785E+02  0.00000000000E+00 0.  1.
         11    1    3    3    0    0 -0.65436727819E+01 -0.55676687758E+01 -0.33531484997E+01  0.92229167944E+01  0.51100000000E-03 0.  1.
        -11    1    3    3    0    0 -0.13784844832E+02 -0.24664291608E+02  0.52868898912E+00  0.28260020168E+02  0.51100000000E-03 0. -1.
         12    1    3    3    0    0  0.74374268542E+01 -0.81007392478E+01  0.70184608605E+01  0.13045922253E+02  0.00000000000E+00 0. -1.
</event>
<event>
 7    1  0.5935282E-013  0.5052887E+02  0.7816164E-02  0.1300439E+00
        -11   -1    0    0    0    0  0.00000000000E+00  0.00000000000E+00  0.45593999997E+02  0.45594000000E+02  0.51100000000E-03 0. -1.
         11   -1    0    0    0    0 -0.00000000000E+00 -0.00000000000E+00 -0.45593999997E+02  0.45594000000E+02  0.51100000000E-03 0.  1.
    9900012    2    1    2    0    0  0.23964179653E+02 -0.15558143343E+02  0.28927970474E+02  0.50528865645E+02  0.30000017615E+02 0.  0.
        -12    1    1    2    0    0 -0.23964179653E+02  0.15558143343E+02 -0.28927970474E+02  0.40659134355E+02  0.00000000000E+00 0.  1.
         11    1    3    3    0    0 -0.25273511134E+01 -0.11401814666E+02  0.49521575782E+01  0.12685138796E+02  0.51100000000E-03 0. -1.
        -11    1    3    3    0    0  0.52163451910E+01 -0.31738287424E+01  0.46966832566E+00  0.61240537747E+01  0.51100000000E-03 0.  1.
         12    1    3    3    0    0  0.21275185576E+02 -0.98249993450E+00  0.23506144570E+02  0.31719673075E+02  0.00000000000E+00 0. -1.
</event>
<event>
 7    1  0.5935282E-013  0.5052886E+02  0.7816164E-02  0.1300439E+00
        -11   -1    0    0    0    0  0.00000000000E+00  0.00000000000E+00  0.45593999997E+02  0.45594000000E+02  0.51100000000E-03 0.  1.
         11   -1    0    0    0    0 -0.00000000000E+00 -0.00000000000E+00 -0.45593999997E+02  0.45594000000E+02  0.51100000000E-03 0. -1.
    9900012    2    1    2    0    0 -0.26324364079E+02  0.10183903568E+02 -0.29265704340E+02  0.50528862201E+02  0.30000007146E+02 0.  0.
        -12    1    1    2    0    0  0.26324364079E+02 -0.10183903568E+02  0.29265704340E+02  0.40659137799E+02  0.00000000000E+00 0.  1.
         11    1    3    3    0    0 -0.50438693038E+01  0.17165648400E+01 -0.15288902891E+02  0.16190669050E+02  0.51100000000E-03 0.  1.
        -11    1    3    3    0    0 -0.19973544579E+02 -0.11093498037E+01 -0.14424283151E+02  0.24662381975E+02  0.51100000000E-03 0. -1.
         12    1    3    3    0    0 -0.13069501964E+01  0.95766885316E+01  0.44748170119E+00  0.96758111763E+01  0.00000000000E+00 0. -1.
</event>
<event>
 7    1  0.5935282E-013  0.5052884E+02  0.7816164E-02  0.1300439E+00
        -11   -1    0    0    0    0  0.00000000000E+00  0.00000000000E+00  0.45593999997E+02  0.45594000000E+02  0.51100000000E-03 0.  1.
         11   -1    0    0    0    0 -0.00000000000E+00 -0.00000000000E+00 -0.45593999997E+02  0.45594000000E+02  0.51100000000E-03 0. -1.
    9900012    2    1    2    0    0  0.49711777728E+01 -0.39130023397E+02 -0.98638654749E+01  0.50528841357E+02  0.29999943788E+02 0.  0.
        -12    1    1    2    0    0 -0.49711777728E+01  0.39130023397E+02  0.98638654749E+01  0.40659158643E+02  0.00000000000E+00 0.  1.
         11    1    3    3    0    0  0.90268243765E+01 -0.33069601771E+02 -0.61469828855E+01  0.34826247551E+02  0.51100000000E-03 0. -1.
        -11    1    3    3    0    0  0.37806275735E+01  0.17052587110E+01 -0.32286883812E+00  0.41599635418E+01  0.51100000000E-03 0.  1.
         12    1    3    3    0    0 -0.78362741772E+01 -0.77656803367E+01 -0.33940137513E+01  0.11542630264E+02  0.00000000000E+00 0. -1.
</event>
<event>
 7    1  0.5935282E-013  0.5052888E+02  0.7816164E-02  0.1300439E+00
        -11   -1    0    0    0    0  0.00000000000E+00  0.00000000000E+00  0.45593999997E+02  0.45594000000E+02  0.51100000000E-03 0. -1.
         11   -1    0    0    0    0 -0.00000000000E+00 -0.00000000000E+00 -0.45593999997E+02  0.45594000000E+02  0.51100000000E-03 0.  1.
    9900012    2    1    2    0    0 -0.13631539248E+02  0.35342702905E+02 -0.14772899487E+02  0.50528879619E+02  0.30000060091E+02 0.  0.
        -12    1    1    2    0    0  0.13631539248E+02 -0.35342702905E+02  0.14772899487E+02  0.40659120381E+02  0.00000000000E+00 0.  1.
         11    1    3    3    0    0 -0.96549752021E+01  0.16834727521E+02 -0.15103257055E+02  0.24591359678E+02  0.51100000000E-03 0. -1.
        -11    1    3    3    0    0 -0.57904106889E+01  0.53698116532E+01  0.74741025377E+01  0.10873175348E+02  0.51100000000E-03 0.  1.
         12    1    3    3    0    0  0.18138466433E+01  0.13138163730E+02 -0.71437449695E+01  0.15064344594E+02  0.00000000000E+00 0. -1.
</event>
<event>
 7    1  0.5935282E-013  0.5052884E+02  0.7816164E-02  0.1300439E+00
        -11   -1    0    0    0    0  0.00000000000E+00  0.00000000000E+00  0.45593999997E+02  0.45594000000E+02  0.51100000000E-03 0.  1.
         11   -1    0    0    0    0 -0.00000000000E+00 -0.00000000000E+00 -0.45593999997E+02  0.45594000000E+02  0.51100000000E-03 0. -1.
    9900012    2    1    2    0    0 -0.30836791079E+02  0.23527869883E+02 -0.12194212766E+02  0.50528841496E+02  0.29999944212E+02 0.  0.
        -12    1    1    2    0    0  0.30836791079E+02 -0.23527869883E+02  0.12194212766E+02  0.40659158504E+02  0.00000000000E+00 0.  1.
         11    1    3    3    0    0 -0.13644733809E+02  0.45643538422E+01 -0.14808101464E+02  0.20646838885E+02  0.51100000000E-03 0. -1.
        -11    1    3    3    0    0 -0.45588032617E+01  0.34832447091E+01 -0.58396253611E+01  0.81863853746E+01  0.51100000000E-03 0.  1.
        -12    1    3    3    0    0 -0.12633254008E+02  0.15480271331E+02  0.84535140591E+01  0.21695617237E+02  0.00000000000E+00 0.  1.
</event>
<event>
 7    1  0.5935282E-013  0.5052886E+02  0.7816164E-02  0.1300439E+00
        -11   -1    0    0    0    0  0.00000000000E+00  0.00000000000E+00  0.45593999997E+02  0.45594000000E+02  0.51100000000E-03 0. -1.
         11   -1    0    0    0    0 -0.00000000000E+00 -0.00000000000E+00 -0.45593999997E+02  0.45594000000E+02  0.51100000000E-03 0.  1.
    9900012    2    1    2    0    0  0.32972765798E+02  0.53458994892E+01  0.23181539987E+02  0.50528859306E+02  0.29999998348E+02 0.  0.
        -12    1    1    2    0    0 -0.32972765798E+02 -0.53458994892E+01 -0.23181539987E+02  0.40659140694E+02  0.00000000000E+00 0.  1.
         11    1    3    3    0    0  0.28334259760E+02  0.82453945437E+01  0.41411536479E+01  0.29798757711E+02  0.51100000000E-03 0. -1.
        -11    1    3    3    0    0  0.11252246675E+01 -0.14771222739E+01  0.67201604172E+00  0.19747472207E+01  0.51100000000E-03 0.  1.
         12    1    3    3    0    0  0.35132813710E+01 -0.14223727806E+01  0.18368370298E+02  0.18755354375E+02  0.00000000000E+00 0. -1.
</event>
<event>
 7    1  0.5935282E-013  0.5052886E+02  0.7816164E-02  0.1300439E+00
        -11   -1    0    0    0    0  0.00000000000E+00  0.00000000000E+00  0.45593999997E+02  0.45594000000E+02  0.51100000000E-03 0.  1.
         11   -1    0    0    0    0 -0.00000000000E+00 -0.00000000000E+00 -0.45593999997E+02  0.45594000000E+02  0.51100000000E-03 0. -1.
    9900012    2    1    2    0    0 -0.11854448195E+02 -0.38854816837E+02 -0.17148257910E+01  0.50528863746E+02  0.30000011843E+02 0.  0.
        -12    1    1    2    0    0  0.11854448195E+02  0.38854816837E+02  0.17148257910E+01  0.40659136254E+02  0.00000000000E+00 0.  1.
         11    1    3    3    0    0 -0.27276387844E+00  0.30421929648E+00  0.93314763495E-01  0.41911504380E+00  0.51100000000E-03 0. -1.
        -11    1    3    3    0    0 -0.10136753021E+02 -0.38509033236E+02  0.76251510528E+01  0.40544325514E+02  0.51100000000E-03 0.  1.
         12    1    3    3    0    0 -0.14449312951E+01 -0.65000289731E+00 -0.94332916073E+01  0.95654231878E+01  0.00000000000E+00 0. -1.
</event>
<event>
 7    1  0.5935282E-013  0.5052886E+02  0.7816164E-02  0.1300439E+00
        -11   -1    0    0    0    0  0.00000000000E+00  0.00000000000E+00  0.45593999997E+02  0.45594000000E+02  0.51100000000E-03 0.  1.
         11   -1    0    0    0    0 -0.00000000000E+00 -0.00000000000E+00 -0.45593999997E+02  0.45594000000E+02  0.51100000000E-03 0. -1.
    9900012    2    1    2    0    0  0.13180714192E+02  0.22054615338E+02 -0.31512354904E+02  0.50528858396E+02  0.29999995582E+02 0.  0.
        -12    1    1    2    0    0 -0.13180714192E+02 -0.22054615338E+02  0.31512354904E+02  0.40659141604E+02  0.00000000000E+00 0.  1.
         11    1    3    3    0    0  0.11491458522E+02  0.85856965607E+01 -0.67064710600E+01  0.15834915811E+02  0.51100000000E-03 0. -1.
        -11    1    3    3    0    0  0.35153618833E+01 -0.21989836071E+01  0.11658730848E+01  0.43072680884E+01  0.51100000000E-03 0.  1.
         12    1    3    3    0    0 -0.18261062132E+01  0.15667902385E+02 -0.25971756929E+02  0.30386674497E+02  0.00000000000E+00 0. -1.
</event>
<event>
 7    1  0.5935282E-013  0.5052886E+02  0.7816164E-02  0.1300439E+00
        -11   -1    0    0    0    0  0.00000000000E+00  0.00000000000E+00  0.45593999997E+02  0.45594000000E+02  0.51100000000E-03 0.  1.
         11   -1    0    0    0    0 -0.00000000000E+00 -0.00000000000E+00 -0.45593999997E+02  0.45594000000E+02  0.51100000000E-03 0. -1.
    9900012    2    1    2    0    0  0.61111121543E+01  0.31803718663E+02 -0.24583392203E+02  0.50528863453E+02  0.30000010952E+02 0.  0.
        -12    1    1    2    0    0 -0.61111121543E+01 -0.31803718663E+02  0.24583392203E+02  0.40659136547E+02  0.00000000000E+00 0.  1.
         11    1    3    3    0    0  0.25953674538E+01  0.66222614712E+01  0.27734681945E+01  0.76342914079E+01  0.51100000000E-03 0. -1.
        -11    1    3    3    0    0 -0.23511174019E+01  0.32097113324E-01  0.24910395774E+01  0.34255016712E+01  0.51100000000E-03 0.  1.
        -12    1    3    3    0    0  0.58668621025E+01  0.25149360079E+02 -0.29847899974E+02  0.39469070374E+02  0.00000000000E+00 0.  1.
</event>
<event>
 7    1  0.5935282E-013  0.5052886E+02  0.7816164E-02  0.1300439E+00
        -11   -1    0    0    0    0  0.00000000000E+00  0.00000000000E+00  0.45593999997E+02  0.45594000000E+02  0.51100000000E-03 0.  1.
         11   -1    0    0    0    0 -0.00000000000E+00 -0.00000000000E+00 -0.45593999997E+02  0.45594000000E+02  0.51100000000E-03 0. -1.
    9900012    2    1    2    0    0  0.39408638375E+02 -0.98694708751E+01  0.16487977361E+01  0.50528858741E+02  0.29999996631E+02 0.  0.
        -12    1    1    2    0    0 -0.39408638375E+02  0.98694708751E+01 -0.16487977361E+01  0.40659141259E+02  0.00000000000E+00 0.  1.
         11    1    3    3    0    0  0.91561209707E+01  0.20666698968E+00  0.37022765584E+01  0.98784672116E+01  0.51100000000E-03 0. -1.
        -11    1    3    3    0    0  0.32505214449E+02 -0.69387711772E+01  0.39920109418E+01  0.33476434449E+02  0.51100000000E-03 0.  1.
        -12    1    3    3    0    0 -0.22526970447E+01 -0.31373666876E+01 -0.60454897641E+01  0.71739570807E+01  0.00000000000E+00 0.  1.
</event>
<event>
 7    1  0.5935282E-013  0.5052885E+02  0.7816164E-02  0.1300439E+00
        -11   -1    0    0    0    0  0.00000000000E+00  0.00000000000E+00  0.45593999997E+02  0.45594000000E+02  0.51100000000E-03 0.  1.
         11   -1    0    0    0    0 -0.00000000000E+00 -0.00000000000E+00 -0.45593999997E+02  0.45594000000E+02  0.51100000000E-03 0. -1.
    9900012    2    1    2    0    0  0.27193539282E+02 -0.15847317435E+02 -0.25739857388E+02  0.50528852113E+02  0.29999976483E+02 0.  0.
        -12    1    1    2    0    0 -0.27193539282E+02  0.15847317435E+02  0.25739857388E+02  0.40659147887E+02  0.00000000000E+00 0.  1.
         11    1    3    3    0    0  0.80377499849E+01 -0.35612340331E+01 -0.59892970454E+01  0.10637645041E+02  0.51100000000E-03 0. -1.
        -11    1    3    3    0    0  0.15596758833E+02 -0.19427272248E+02 -0.89697669709E+01  0.26478944708E+02  0.51100000000E-03 0.  1.
        -12    1    3    3    0    0  0.35590304643E+01  0.71411888468E+01 -0.10780793372E+02  0.13412262364E+02  0.00000000000E+00 0.  1.
</event>
<event>
 7    1  0.5935282E-013  0.5052886E+02  0.7816164E-02  0.1300439E+00
        -11   -1    0    0    0    0  0.00000000000E+00  0.00000000000E+00  0.45593999997E+02  0.45594000000E+02  0.51100000000E-03 0.  1.
         11   -1    0    0    0    0 -0.00000000000E+00 -0.00000000000E+00 -0.45593999997E+02  0.45594000000E+02  0.51100000000E-03 0. -1.
    9900012    2    1    2    0    0  0.35728064165E+02 -0.17976957228E+02 -0.73143654957E+01  0.50528862002E+02  0.30000006540E+02 0.  0.
        -12    1    1    2    0    0 -0.35728064165E+02  0.17976957228E+02  0.73143654957E+01  0.40659137998E+02  0.00000000000E+00 0.  1.
         11    1    3    3    0    0  0.76481511951E+00 -0.53866138122E+01 -0.20088362285E+01  0.57996529019E+01  0.51100000000E-03 0. -1.
        -11    1    3    3    0    0 -0.17491517798E+01 -0.52897346885E+01  0.30857822932E+01  0.63688992491E+01  0.51100000000E-03 0.  1.
         12    1    3    3    0    0  0.36712400825E+02 -0.73006087278E+01 -0.83913115604E+01  0.38360309851E+02  0.00000000000E+00 0. -1.
</event>
<event>
 7    1  0.5935282E-013  0.5052886E+02  0.7816164E-02  0.1300439E+00
        -11   -1    0    0    0    0  0.00000000000E+00  0.00000000000E+00  0.45593999997E+02  0.45594000000E+02  0.51100000000E-03 0.  1.
         11   -1    0    0    0    0 -0.00000000000E+00 -0.00000000000E+00 -0.45593999997E+02  0.45594000000E+02  0.51100000000E-03 0. -1.
    9900012    2    1    2    0    0  0.57971234877E+01 -0.36217711111E+02 -0.17545278066E+02  0.50528855625E+02  0.29999987159E+02 0.  0.
        -12    1    1    2    0    0 -0.57971234877E+01  0.36217711111E+02  0.17545278066E+02  0.40659144375E+02  0.00000000000E+00 0.  1.
         11    1    3    3    0    0 -0.70832961323E+01 -0.14215431177E+02 -0.25203630380E+01  0.16081162823E+02  0.51100000000E-03 0. -1.
        -11    1    3    3    0    0 -0.42371691000E+01 -0.24701777751E+01 -0.13059681827E+01  0.50755229660E+01  0.51100000000E-03 0.  1.
        -12    1    3    3    0    0  0.17117588720E+02 -0.19532102159E+02 -0.13718946845E+02  0.29372169836E+02  0.00000000000E+00 0.  1.
</event>
<event>
 7    1  0.5935282E-013  0.5052888E+02  0.7816164E-02  0.1300439E+00
        -11   -1    0    0    0    0  0.00000000000E+00  0.00000000000E+00  0.45593999997E+02  0.45594000000E+02  0.51100000000E-03 0.  1.
         11   -1    0    0    0    0 -0.00000000000E+00 -0.00000000000E+00 -0.45593999997E+02  0.45594000000E+02  0.51100000000E-03 0. -1.
    9900012    2    1    2    0    0 -0.29525478735E+02 -0.25901320153E+02 -0.10513424615E+02  0.50528875841E+02  0.30000048608E+02 0.  0.
        -12    1    1    2    0    0  0.29525478735E+02  0.25901320153E+02  0.10513424615E+02  0.40659124159E+02  0.00000000000E+00 0.  1.
         11    1    3    3    0    0 -0.25953274145E+02 -0.56005253668E+01 -0.91680933121E+01  0.28089006007E+02  0.51100000000E-03 0. -1.
        -11    1    3    3    0    0 -0.47155288928E+01 -0.46872871626E+01 -0.13503084787E+01  0.67845565023E+01  0.51100000000E-03 0.  1.
        -12    1    3    3    0    0  0.11433243022E+01 -0.15613507623E+02  0.49771756271E-02  0.15655313332E+02  0.00000000000E+00 0.  1.
</event>
<event>
 7    1  0.5935282E-013  0.5052886E+02  0.7816164E-02  0.1300439E+00
        -11   -1    0    0    0    0  0.00000000000E+00  0.00000000000E+00  0.45593999997E+02  0.45594000000E+02  0.51100000000E-03 0. -1.
         11   -1    0    0    0    0 -0.00000000000E+00 -0.00000000000E+00 -0.45593999997E+02  0.45594000000E+02  0.51100000000E-03 0.  1.
    9900012    2    1    2    0    0 -0.40609998138E+02 -0.19679369542E+01  0.34776801874E+00  0.50528859980E+02  0.30000000394E+02 0.  0.
        -12    1    1    2    0    0  0.40609998138E+02  0.19679369542E+01 -0.34776801874E+00  0.40659140020E+02  0.00000000000E+00 0.  1.
         11    1    3    3    0    0 -0.29794688961E+01 -0.18127987125E+01  0.15759633893E+01  0.38271575536E+01  0.51100000000E-03 0. -1.
        -11    1    3    3    0    0 -0.18167650348E+02 -0.13695674859E+02  0.16839713713E+01  0.22813828895E+02  0.51100000000E-03 0.  1.
        -12    1    3    3    0    0 -0.19462878894E+02  0.13540536617E+02 -0.29121667419E+01  0.23887873531E+02  0.00000000000E+00 0.  1.
</event>
<event>
 7    1  0.5935282E-013  0.5052886E+02  0.7816164E-02  0.1300439E+00
        -11   -1    0    0    0    0  0.00000000000E+00  0.00000000000E+00  0.45593999997E+02  0.45594000000E+02  0.51100000000E-03 0.  1.
         11   -1    0    0    0    0 -0.00000000000E+00 -0.00000000000E+00 -0.45593999997E+02  0.45594000000E+02  0.51100000000E-03 0. -1.
    9900012    2    1    2    0    0  0.21410090294E+02  0.31041523733E+02 -0.15205188826E+02  0.50528856757E+02  0.29999990597E+02 0.  0.
        -12    1    1    2    0    0 -0.21410090294E+02 -0.31041523733E+02  0.15205188826E+02  0.40659143243E+02  0.00000000000E+00 0.  1.
         11    1    3    3    0    0  0.61444162536E+01  0.17358990558E+01 -0.51958684758E+01  0.82319041606E+01  0.51100000000E-03 0. -1.
        -11    1    3    3    0    0  0.21711071051E+02  0.22957582274E+02 -0.10333418242E+02  0.33244559298E+02  0.51100000000E-03 0.  1.
        -12    1    3    3    0    0 -0.64453970110E+01  0.63480424035E+01  0.32409789245E+00  0.90523932985E+01  0.00000000000E+00 0.  1.
</event>
<event>
 7    1  0.5935282E-013  0.5052886E+02  0.7816164E-02  0.1300439E+00
        -11   -1    0    0    0    0  0.00000000000E+00  0.00000000000E+00  0.45593999997E+02  0.45594000000E+02  0.51100000000E-03 0. -1.
         11   -1    0    0    0    0 -0.00000000000E+00 -0.00000000000E+00 -0.45593999997E+02  0.45594000000E+02  0.51100000000E-03 0.  1.
    9900012    2    1    2    0    0  0.63016635362E+01  0.83069599193E+01  0.39299476002E+02  0.50528863752E+02  0.30000011859E+02 0.  0.
        -12    1    1    2    0    0 -0.63016635362E+01 -0.83069599193E+01 -0.39299476002E+02  0.40659136248E+02  0.00000000000E+00 0.  1.
         11    1    3    3    0    0  0.61283233354E+01 -0.71511972100E+01  0.17670994162E+02  0.20023985702E+02  0.51100000000E-03 0. -1.
        -11    1    3    3    0    0  0.25179856443E+01 -0.15702744513E+01  0.81128252893E+01  0.86385153813E+01  0.51100000000E-03 0.  1.
        -12    1    3    3    0    0 -0.23446454435E+01  0.17028431581E+02  0.13515656550E+02  0.21866362668E+02  0.00000000000E+00 0.  1.
</event>
<event>
 7    1  0.5935282E-013  0.5052886E+02  0.7816164E-02  0.1300439E+00
        -11   -1    0    0    0    0  0.00000000000E+00  0.00000000000E+00  0.45593999997E+02  0.45594000000E+02  0.51100000000E-03 0. -1.
         11   -1    0    0    0    0 -0.00000000000E+00 -0.00000000000E+00 -0.45593999997E+02  0.45594000000E+02  0.51100000000E-03 0.  1.
    9900012    2    1    2    0    0  0.34975216663E+02  0.20268538805E+02  0.43687453056E+01  0.50528863493E+02  0.30000011075E+02 0.  0.
        -12    1    1    2    0    0 -0.34975216663E+02 -0.20268538805E+02 -0.43687453056E+01  0.40659136507E+02  0.00000000000E+00 0.  1.
         11    1    3    3    0    0  0.16593001429E+02  0.20324223214E+02 -0.69561599037E+01  0.27143874199E+02  0.51100000000E-03 0. -1.
        -11    1    3    3    0    0  0.31477857846E+01  0.19590542050E+01 -0.82107246510E+00  0.37974476926E+01  0.51100000000E-03 0.  1.
        -12    1    3    3    0    0  0.15234429449E+02 -0.20147386140E+01  0.12145977674E+02  0.19587541601E+02  0.00000000000E+00 0.  1.
</event>
<event>
 7    1  0.5935282E-013  0.5052885E+02  0.7816164E-02  0.1300439E+00
        -11   -1    0    0    0    0  0.00000000000E+00  0.00000000000E+00  0.45593999997E+02  0.45594000000E+02  0.51100000000E-03 0. -1.
         11   -1    0    0    0    0 -0.00000000000E+00 -0.00000000000E+00 -0.45593999997E+02  0.45594000000E+02  0.51100000000E-03 0.  1.
    9900012    2    1    2    0    0 -0.33415848653E+02 -0.23028874157E+02 -0.24936841320E+01  0.50528850394E+02  0.29999971258E+02 0.  0.
        -12    1    1    2    0    0  0.33415848653E+02  0.23028874157E+02  0.24936841320E+01  0.40659149606E+02  0.00000000000E+00 0.  1.
         11    1    3    3    0    0 -0.20087504023E+02 -0.14553131028E+02  0.10162358988E+01  0.24826078551E+02  0.51100000000E-03 0. -1.
        -11    1    3    3    0    0 -0.17146982882E+02 -0.81121707230E+01 -0.72858853679E+01  0.20320198367E+02  0.51100000000E-03 0.  1.
        -12    1    3    3    0    0  0.38186382523E+01 -0.36357240615E+00  0.37759653371E+01  0.53825734759E+01  0.00000000000E+00 0.  1.
</event>
<event>
 7    1  0.5935282E-013  0.5052886E+02  0.7816164E-02  0.1300439E+00
        -11   -1    0    0    0    0  0.00000000000E+00  0.00000000000E+00  0.45593999997E+02  0.45594000000E+02  0.51100000000E-03 0. -1.
         11   -1    0    0    0    0 -0.00000000000E+00 -0.00000000000E+00 -0.45593999997E+02  0.45594000000E+02  0.51100000000E-03 0.  1.
    9900012    2    1    2    0    0 -0.12511425529E+02  0.31052651485E+02  0.23072992186E+02  0.50528857099E+02  0.29999991638E+02 0.  0.
        -12    1    1    2    0    0  0.12511425529E+02 -0.31052651485E+02 -0.23072992186E+02  0.40659142901E+02  0.00000000000E+00 0.  1.
         11    1    3    3    0    0  0.13319920080E+01  0.41762135374E+01  0.11708366619E+01  0.45371600114E+01  0.51100000000E-03 0.  1.
        -11    1    3    3    0    0  0.57577817052E+01  0.33280065037E+01 -0.22044840204E+01  0.70062420392E+01  0.51100000000E-03 0. -1.
         12    1    3    3    0    0 -0.19601199243E+02  0.23548431444E+02  0.24106639544E+02  0.38985455049E+02  0.00000000000E+00 0. -1.
</event>
<event>
 7    1  0.5935282E-013  0.5052885E+02  0.7816164E-02  0.1300439E+00
        -11   -1    0    0    0    0  0.00000000000E+00  0.00000000000E+00  0.45593999997E+02  0.45594000000E+02  0.51100000000E-03 0.  1.
         11   -1    0    0    0    0 -0.00000000000E+00 -0.00000000000E+00 -0.45593999997E+02  0.45594000000E+02  0.51100000000E-03 0. -1.
    9900012    2    1    2    0    0  0.20313721669E+02  0.11448035996E+02 -0.33308580384E+02  0.50528851664E+02  0.29999975118E+02 0.  0.
        -12    1    1    2    0    0 -0.20313721669E+02 -0.11448035996E+02  0.33308580384E+02  0.40659148336E+02  0.00000000000E+00 0.  1.
         11    1    3    3    0    0  0.87361294655E+01  0.20230247241E+01 -0.67044289221E+01  0.11196515284E+02  0.51100000000E-03 0. -1.
        -11    1    3    3    0    0  0.18594696758E+02  0.78868952816E+01 -0.13213155665E+02  0.24136141937E+02  0.51100000000E-03 0.  1.
         12    1    3    3    0    0 -0.70171045547E+01  0.15381159907E+01 -0.13390995797E+02  0.15196194444E+02  0.00000000000E+00 0. -1.
</event>
<event>
 7    1  0.5935282E-013  0.5052886E+02  0.7816164E-02  0.1300439E+00
        -11   -1    0    0    0    0  0.00000000000E+00  0.00000000000E+00  0.45593999997E+02  0.45594000000E+02  0.51100000000E-03 0. -1.
         11   -1    0    0    0    0 -0.00000000000E+00 -0.00000000000E+00 -0.45593999997E+02  0.45594000000E+02  0.51100000000E-03 0.  1.
    9900012    2    1    2    0    0 -0.21137430663E+00  0.65711760079E+01  0.40124067051E+02  0.50528858470E+02  0.29999995806E+02 0.  0.
        -12    1    1    2    0    0  0.21137430663E+00 -0.65711760079E+01 -0.40124067051E+02  0.40659141530E+02  0.00000000000E+00 0.  1.
         11    1    3    3    0    0  0.43106488717E+01  0.12050513060E+02  0.14305438520E+02  0.19194846450E+02  0.51100000000E-03 0. -1.
        -11    1    3    3    0    0  0.57224093048E+01  0.40962232548E+00  0.10747165880E+02  0.12182583199E+02  0.51100000000E-03 0.  1.
        -12    1    3    3    0    0 -0.10244432483E+02 -0.58889593780E+01  0.15071462651E+02  0.19151428821E+02  0.00000000000E+00 0.  1.
</event>
<event>
 7    1  0.5935282E-013  0.5052886E+02  0.7816164E-02  0.1300439E+00
        -11   -1    0    0    0    0  0.00000000000E+00  0.00000000000E+00  0.45593999997E+02  0.45594000000E+02  0.51100000000E-03 0.  1.
         11   -1    0    0    0    0 -0.00000000000E+00 -0.00000000000E+00 -0.45593999997E+02  0.45594000000E+02  0.51100000000E-03 0. -1.
    9900012    2    1    2    0    0 -0.14679999714E+02 -0.83949088177E+01 -0.36975520519E+02  0.50528855847E+02  0.29999987831E+02 0.  0.
        -12    1    1    2    0    0  0.14679999714E+02  0.83949088177E+01  0.36975520519E+02  0.40659144153E+02  0.00000000000E+00 0.  1.
         11    1    3    3    0    0 -0.91992682112E+01  0.24299133009E+01 -0.11181987271E+02  0.14682229186E+02  0.51100000000E-03 0. -1.
        -11    1    3    3    0    0 -0.12292060928E+02 -0.55761846660E+01 -0.23241948478E+02  0.26877067671E+02  0.51100000000E-03 0.  1.
        -12    1    3    3    0    0  0.68113294245E+01 -0.52486374526E+01 -0.25515847697E+01  0.89695589900E+01  0.00000000000E+00 0.  1.
</event>
<event>
 7    1  0.5935282E-013  0.5052885E+02  0.7816164E-02  0.1300439E+00
        -11   -1    0    0    0    0  0.00000000000E+00  0.00000000000E+00  0.45593999997E+02  0.45594000000E+02  0.51100000000E-03 0. -1.
         11   -1    0    0    0    0 -0.00000000000E+00 -0.00000000000E+00 -0.45593999997E+02  0.45594000000E+02  0.51100000000E-03 0.  1.
    9900012    2    1    2    0    0 -0.25213679914E+02 -0.24495116667E+02 -0.20431002303E+02  0.50528852807E+02  0.29999978593E+02 0.  0.
        -12    1    1    2    0    0  0.25213679914E+02  0.24495116667E+02  0.20431002303E+02  0.40659147193E+02  0.00000000000E+00 0.  1.
         11    1    3    3    0    0 -0.15740359304E+02 -0.25511667585E+01 -0.30713905091E+01  0.16238867040E+02  0.51100000000E-03 0. -1.
        -11    1    3    3    0    0 -0.43182480443E+01  0.17102432004E+01 -0.26239171206E+00  0.46519939433E+01  0.51100000000E-03 0.  1.
        -12    1    3    3    0    0 -0.51550725658E+01 -0.23654193109E+02 -0.17097220082E+02  0.29637991823E+02  0.00000000000E+00 0.  1.
</event>
<event>
 7    1  0.5935282E-013  0.5052885E+02  0.7816164E-02  0.1300439E+00
        -11   -1    0    0    0    0  0.00000000000E+00  0.00000000000E+00  0.45593999997E+02  0.45594000000E+02  0.51100000000E-03 0. -1.
         11   -1    0    0    0    0 -0.00000000000E+00 -0.00000000000E+00 -0.45593999997E+02  0.45594000000E+02  0.51100000000E-03 0.  1.
    9900012    2    1    2    0    0  0.19832478232E+02 -0.34752127576E+02  0.72200102447E+01  0.50528854512E+02  0.29999983774E+02 0.  0.
        -12    1    1    2    0    0 -0.19832478232E+02  0.34752127576E+02 -0.72200102447E+01  0.40659145488E+02  0.00000000000E+00 0.  1.
         11    1    3    3    0    0  0.49672434493E+01 -0.47072773541E+01  0.94292829377E+00  0.69080447018E+01  0.51100000000E-03 0. -1.
        -11    1    3    3    0    0  0.87571218032E+01  0.10950162130E+01 -0.47547382010E+01  0.10024658518E+02  0.51100000000E-03 0.  1.
         12    1    3    3    0    0  0.61081129793E+01 -0.31139866435E+02  0.11031820152E+02  0.33596151292E+02  0.00000000000E+00 0. -1.
</event>
<event>
 7    1  0.5935282E-013  0.5052873E+02  0.7816164E-02  0.1300439E+00
        -11   -1    0    0    0    0  0.00000000000E+00  0.00000000000E+00  0.45593999997E+02  0.45594000000E+02  0.51100000000E-03 0.  1.
         11   -1    0    0    0    0 -0.00000000000E+00 -0.00000000000E+00 -0.45593999997E+02  0.45594000000E+02  0.51100000000E-03 0. -1.
    9900012    2    1    2    0    0  0.10219745776E+02 -0.36643478216E+02 -0.14352289045E+02  0.50528734140E+02  0.29999617888E+02 0.  0.
        -12    1    1    2    0    0 -0.10219745776E+02  0.36643478216E+02  0.14352289045E+02  0.40659265860E+02  0.00000000000E+00 0.  1.
         11    1    3    3    0    0  0.96175427557E+00  0.24851816091E+01 -0.30423387184E+01  0.40443694262E+01  0.51100000000E-03 0. -1.
        -11    1    3    3    0    0  0.36258011027E+01  0.13615998312E+01  0.56601106168E+00  0.39141737979E+01  0.51100000000E-03 0.  1.
         12    1    3    3    0    0  0.56321903973E+01 -0.40490259656E+02 -0.11875961388E+02  0.42570190916E+02  0.00000000000E+00 0. -1.
</event>
<event>
 7    1  0.5935282E-013  0.5052886E+02  0.7816164E-02  0.1300439E+00
        -11   -1    0    0    0    0  0.00000000000E+00  0.00000000000E+00  0.45593999997E+02  0.45594000000E+02  0.51100000000E-03 0.  1.
         11   -1    0    0    0    0 -0.00000000000E+00 -0.00000000000E+00 -0.45593999997E+02  0.45594000000E+02  0.51100000000E-03 0. -1.
    9900012    2    1    2    0    0 -0.15834901024E+02  0.28408196230E+02 -0.24400734183E+02  0.50528861640E+02  0.30000005442E+02 0.  0.
        -12    1    1    2    0    0  0.15834901024E+02 -0.28408196230E+02  0.24400734183E+02  0.40659138360E+02  0.00000000000E+00 0.  1.
         11    1    3    3    0    0  0.12128552080E+01  0.35548125712E+00 -0.14049348919E+01  0.18897690312E+01  0.51100000000E-03 0. -1.
        -11    1    3    3    0    0  0.68713006045E+01  0.31139824872E+01 -0.79215196109E+01  0.10939018792E+02  0.51100000000E-03 0.  1.
        -12    1    3    3    0    0 -0.23919056836E+02  0.24938732485E+02 -0.15074279680E+02  0.37700073817E+02  0.00000000000E+00 0.  1.
</event>
<event>
 7    1  0.5935282E-013  0.5052885E+02  0.7816164E-02  0.1300439E+00
        -11   -1    0    0    0    0  0.00000000000E+00  0.00000000000E+00  0.45593999997E+02  0.45594000000E+02  0.51100000000E-03 0.  1.
         11   -1    0    0    0    0 -0.00000000000E+00 -0.00000000000E+00 -0.45593999997E+02  0.45594000000E+02  0.51100000000E-03 0. -1.
    9900012    2    1    2    0    0 -0.17917877793E+02  0.27834886397E+02 -0.23607940115E+02  0.50528854881E+02  0.29999984896E+02 0.  0.
        -12    1    1    2    0    0  0.17917877793E+02 -0.27834886397E+02  0.23607940115E+02  0.40659145119E+02  0.00000000000E+00 0.  1.
         11    1    3    3    0    0 -0.83795148206E+01  0.38075544680E+01  0.16633083830E+01  0.93530922530E+01  0.51100000000E-03 0. -1.
        -11    1    3    3    0    0 -0.24153506563E+01 -0.20599879512E+01  0.11426773954E+01  0.33738970113E+01  0.51100000000E-03 0.  1.
         12    1    3    3    0    0 -0.71230123159E+01  0.26087319881E+02 -0.26413925893E+02  0.37801865617E+02  0.00000000000E+00 0. -1.
</event>
<event>
 7    1  0.5935282E-013  0.5052887E+02  0.7816164E-02  0.1300439E+00
        -11   -1    0    0    0    0  0.00000000000E+00  0.00000000000E+00  0.45593999997E+02  0.45594000000E+02  0.51100000000E-03 0.  1.
         11   -1    0    0    0    0 -0.00000000000E+00 -0.00000000000E+00 -0.45593999997E+02  0.45594000000E+02  0.51100000000E-03 0. -1.
    9900012    2    1    2    0    0 -0.29395223078E+02  0.66927231129E+00 -0.28082699355E+02  0.50528867345E+02  0.30000022782E+02 0.  0.
        -12    1    1    2    0    0  0.29395223078E+02 -0.66927231129E+00  0.28082699355E+02  0.40659132655E+02  0.00000000000E+00 0.  1.
         11    1    3    3    0    0  0.18780227268E+01 -0.12703034751E+01 -0.13645003952E+01  0.26462240780E+01  0.51100000000E-03 0. -1.
        -11    1    3    3    0    0 -0.10182241578E+01  0.67929009813E+01 -0.12142773271E+02  0.13950886250E+02  0.51100000000E-03 0.  1.
        -12    1    3    3    0    0 -0.30255021647E+02 -0.48533251950E+01 -0.14575425688E+02  0.33931757017E+02  0.00000000000E+00 0.  1.
</event>
<event>
 7    1  0.5935282E-013  0.5052886E+02  0.7816164E-02  0.1300439E+00
        -11   -1    0    0    0    0  0.00000000000E+00  0.00000000000E+00  0.45593999997E+02  0.45594000000E+02  0.51100000000E-03 0.  1.
         11   -1    0    0    0    0 -0.00000000000E+00 -0.00000000000E+00 -0.45593999997E+02  0.45594000000E+02  0.51100000000E-03 0. -1.
    9900012    2    1    2    0    0  0.16815860058E+02  0.17642410020E+02 -0.32544393116E+02  0.50528864445E+02  0.30000013967E+02 0.  0.
        -12    1    1    2    0    0 -0.16815860058E+02 -0.17642410020E+02  0.32544393116E+02  0.40659135555E+02  0.00000000000E+00 0.  1.
         11    1    3    3    0    0 -0.33077657359E+01  0.32736508017E+01 -0.33715019382E+01  0.57467494564E+01  0.51100000000E-03 0. -1.
        -11    1    3    3    0    0  0.62525424957E+01  0.17547511590E+02 -0.10765195271E+02  0.21515084944E+02  0.51100000000E-03 0.  1.
         12    1    3    3    0    0  0.13871083298E+02 -0.31787523721E+01 -0.18407695907E+02  0.23267030045E+02  0.00000000000E+00 0. -1.
</event>
<event>
 7    1  0.5935282E-013  0.5052886E+02  0.7816164E-02  0.1300439E+00
        -11   -1    0    0    0    0  0.00000000000E+00  0.00000000000E+00  0.45593999997E+02  0.45594000000E+02  0.51100000000E-03 0.  1.
         11   -1    0    0    0    0 -0.00000000000E+00 -0.00000000000E+00 -0.45593999997E+02  0.45594000000E+02  0.51100000000E-03 0. -1.
    9900012    2    1    2    0    0  0.32997431590E+02  0.14683562738E+02 -0.18674262110E+02  0.50528861156E+02  0.30000003969E+02 0.  0.
        -12    1    1    2    0    0 -0.32997431590E+02 -0.14683562738E+02  0.18674262110E+02  0.40659138844E+02  0.00000000000E+00 0.  1.
         11    1    3    3    0    0  0.68443512055E+01 -0.56923885907E+01 -0.60298742042E+01  0.10752107443E+02  0.51100000000E-03 0.  1.
        -11    1    3    3    0    0  0.10959748031E+02  0.13928104468E+02 -0.14853924824E+02  0.23124602784E+02  0.51100000000E-03 0. -1.
         12    1    3    3    0    0  0.15193332354E+02  0.64478468603E+01  0.22095369185E+01  0.16652150928E+02  0.00000000000E+00 0. -1.
</event>
<event>
 7    1  0.5935282E-013  0.5052894E+02  0.7816164E-02  0.1300439E+00
        -11   -1    0    0    0    0  0.00000000000E+00  0.00000000000E+00  0.45593999997E+02  0.45594000000E+02  0.51100000000E-03 0.  1.
         11   -1    0    0    0    0 -0.00000000000E+00 -0.00000000000E+00 -0.45593999997E+02  0.45594000000E+02  0.51100000000E-03 0. -1.
    9900012    2    1    2    0    0 -0.30789043134E+02  0.26451359075E+02  0.23494511826E+01  0.50528935883E+02  0.30000231109E+02 0.  0.
        -12    1    1    2    0    0  0.30789043134E+02 -0.26451359075E+02 -0.23494511826E+01  0.40659064117E+02  0.00000000000E+00 0.  1.
         11    1    3    3    0    0 -0.11398051657E+02  0.15166574618E+02 -0.42458708366E+01  0.19441398783E+02  0.51100000000E-03 0. -1.
        -11    1    3    3    0    0 -0.16130889565E+02  0.15878773327E+02  0.29607839878E+00  0.22636888108E+02  0.51100000000E-03 0.  1.
        -12    1    3    3    0    0 -0.32601019119E+01 -0.45939888695E+01  0.62992436204E+01  0.84506489927E+01  0.00000000000E+00 0.  1.
</event>
<event>
 7    1  0.5935282E-013  0.5052886E+02  0.7816164E-02  0.1300439E+00
        -11   -1    0    0    0    0  0.00000000000E+00  0.00000000000E+00  0.45593999997E+02  0.45594000000E+02  0.51100000000E-03 0. -1.
         11   -1    0    0    0    0 -0.00000000000E+00 -0.00000000000E+00 -0.45593999997E+02  0.45594000000E+02  0.51100000000E-03 0.  1.
    9900012    2    1    2    0    0  0.18368564348E+02 -0.32860645710E+02  0.15360315025E+02  0.50528862400E+02  0.30000007750E+02 0.  0.
        -12    1    1    2    0    0 -0.18368564348E+02  0.32860645710E+02 -0.15360315025E+02  0.40659137600E+02  0.00000000000E+00 0.  1.
         11    1    3    3    0    0  0.12017796835E+02 -0.26739342732E+02  0.66998522365E+01  0.30071712801E+02  0.51100000000E-03 0. -1.
        -11    1    3    3    0    0 -0.43013228362E+01 -0.65630066576E+01  0.31451187314E+01  0.84537687823E+01  0.51100000000E-03 0.  1.
        -12    1    3    3    0    0  0.10652090349E+02  0.44170367963E+00  0.55153440575E+01  0.12003380816E+02  0.00000000000E+00 0.  1.
</event>
<event>
 7    1  0.5935282E-013  0.5052886E+02  0.7816164E-02  0.1300439E+00
        -11   -1    0    0    0    0  0.00000000000E+00  0.00000000000E+00  0.45593999997E+02  0.45594000000E+02  0.51100000000E-03 0.  1.
         11   -1    0    0    0    0 -0.00000000000E+00 -0.00000000000E+00 -0.45593999997E+02  0.45594000000E+02  0.51100000000E-03 0. -1.
    9900012    2    1    2    0    0 -0.19058511576E+02  0.20348415465E+02 -0.29595279379E+02  0.50528862811E+02  0.30000009000E+02 0.  0.
        -12    1    1    2    0    0  0.19058511576E+02 -0.20348415465E+02  0.29595279379E+02  0.40659137189E+02  0.00000000000E+00 0.  1.
         11    1    3    3    0    0  0.46780869361E+01  0.13569030384E+01 -0.84489844285E+01  0.97524879581E+01  0.51100000000E-03 0. -1.
        -11    1    3    3    0    0  0.19677607520E-01 -0.25087672302E+01 -0.24488877720E+00  0.25207679381E+01  0.51100000000E-03 0.  1.
         12    1    3    3    0    0 -0.23756276120E+02  0.21500279657E+02 -0.20901406173E+02  0.38255606915E+02  0.00000000000E+00 0. -1.
</event>
<event>
 7    1  0.5935282E-013  0.5052886E+02  0.7816164E-02  0.1300439E+00
        -11   -1    0    0    0    0  0.00000000000E+00  0.00000000000E+00  0.45593999997E+02  0.45594000000E+02  0.51100000000E-03 0.  1.
         11   -1    0    0    0    0 -0.00000000000E+00 -0.00000000000E+00 -0.45593999997E+02  0.45594000000E+02  0.51100000000E-03 0. -1.
    9900012    2    1    2    0    0  0.31049056154E+02 -0.91480477632E+00 -0.26235185344E+02  0.50528859505E+02  0.29999998950E+02 0.  0.
        -12    1    1    2    0    0 -0.31049056154E+02  0.91480477632E+00  0.26235185344E+02  0.40659140495E+02  0.00000000000E+00 0.  1.
         11    1    3    3    0    0  0.55454795142E+01  0.49205159207E+01 -0.31423003565E+01  0.80521967040E+01  0.51100000000E-03 0. -1.
        -11    1    3    3    0    0 -0.28814637333E+01  0.32380169091E+01  0.63929534227E+00  0.43813565874E+01  0.51100000000E-03 0.  1.
         12    1    3    3    0    0  0.28385040373E+02 -0.90733376061E+01 -0.23732180330E+02  0.38095306213E+02  0.00000000000E+00 0. -1.
</event>
<event>
 7    1  0.5935282E-013  0.5052886E+02  0.7816164E-02  0.1300439E+00
        -11   -1    0    0    0    0  0.00000000000E+00  0.00000000000E+00  0.45593999997E+02  0.45594000000E+02  0.51100000000E-03 0. -1.
         11   -1    0    0    0    0 -0.00000000000E+00 -0.00000000000E+00 -0.45593999997E+02  0.45594000000E+02  0.51100000000E-03 0.  1.
    9900012    2    1    2    0    0  0.14637080494E+02  0.37863867664E+02  0.22911169199E+01  0.50528858143E+02  0.29999994810E+02 0.  0.
        -12    1    1    2    0    0 -0.14637080494E+02 -0.37863867664E+02 -0.22911169199E+01  0.40659141857E+02  0.00000000000E+00 0.  1.
         11    1    3    3    0    0 -0.14549502008E+01  0.22569038554E+02  0.92026016860E+00  0.22634603164E+02  0.51100000000E-03 0. -1.
        -11    1    3    3    0    0  0.22914202350E+00  0.10754688021E+02 -0.22782355793E+01  0.10995734542E+02  0.51100000000E-03 0.  1.
        -12    1    3    3    0    0  0.15862888672E+02  0.45401410881E+01  0.36490923306E+01  0.16898520437E+02  0.00000000000E+00 0.  1.
</event>
<event>
 7    1  0.5935282E-013  0.5052886E+02  0.7816164E-02  0.1300439E+00
        -11   -1    0    0    0    0  0.00000000000E+00  0.00000000000E+00  0.45593999997E+02  0.45594000000E+02  0.51100000000E-03 0.  1.
         11   -1    0    0    0    0 -0.00000000000E+00 -0.00000000000E+00 -0.45593999997E+02  0.45594000000E+02  0.51100000000E-03 0. -1.
    9900012    2    1    2    0    0 -0.41864816375E+00  0.34182673314E+02 -0.22012160723E+02  0.50528860303E+02  0.30000001378E+02 0.  0.
        -12    1    1    2    0    0  0.41864816375E+00 -0.34182673314E+02  0.22012160723E+02  0.40659139697E+02  0.00000000000E+00 0.  1.
         11    1    3    3    0    0 -0.81912412284E+00  0.41534501651E+01 -0.16795675504E+02  0.17320993866E+02  0.51100000000E-03 0. -1.
        -11    1    3    3    0    0 -0.24127133713E+01  0.13607147657E+02 -0.85026193456E+01  0.16225602891E+02  0.51100000000E-03 0.  1.
        -12    1    3    3    0    0  0.28131893303E+01  0.16422075492E+02  0.32861341268E+01  0.16982263547E+02  0.00000000000E+00 0.  1.
</event>
<event>
 7    1  0.5935282E-013  0.5052886E+02  0.7816164E-02  0.1300439E+00
        -11   -1    0    0    0    0  0.00000000000E+00  0.00000000000E+00  0.45593999997E+02  0.45594000000E+02  0.51100000000E-03 0.  1.
         11   -1    0    0    0    0 -0.00000000000E+00 -0.00000000000E+00 -0.45593999997E+02  0.45594000000E+02  0.51100000000E-03 0. -1.
    9900012    2    1    2    0    0 -0.27982091192E+02 -0.30639456171E+01 -0.29339061396E+02  0.50528859407E+02  0.29999998653E+02 0.  0.
        -12    1    1    2    0    0  0.27982091192E+02  0.30639456171E+01  0.29339061396E+02  0.40659140593E+02  0.00000000000E+00 0.  1.
         11    1    3    3    0    0 -0.12854643753E+02 -0.14968194344E+01 -0.21490701378E+02  0.25086501957E+02  0.51100000000E-03 0. -1.
        -11    1    3    3    0    0 -0.88560220585E+01 -0.67524557257E+01 -0.11945579416E+02  0.16331615133E+02  0.51100000000E-03 0.  1.
        -12    1    3    3    0    0 -0.62714253804E+01  0.51853295430E+01  0.40972193982E+01  0.91107423171E+01  0.00000000000E+00 0.  1.
</event>
<event>
 7    1  0.5935282E-013  0.5052886E+02  0.7816164E-02  0.1300439E+00
        -11   -1    0    0    0    0  0.00000000000E+00  0.00000000000E+00  0.45593999997E+02  0.45594000000E+02  0.51100000000E-03 0. -1.
         11   -1    0    0    0    0 -0.00000000000E+00 -0.00000000000E+00 -0.45593999997E+02  0.45594000000E+02  0.51100000000E-03 0.  1.
    9900012    2    1    2    0    0 -0.39570801968E+02 -0.87639392647E+01  0.32419836773E+01  0.50528862553E+02  0.30000008215E+02 0.  0.
        -12    1    1    2    0    0  0.39570801968E+02  0.87639392647E+01 -0.32419836773E+01  0.40659137447E+02  0.00000000000E+00 0.  1.
         11    1    3    3    0    0 -0.14982275639E+01 -0.19927556481E+01  0.14892864961E+01  0.29040894330E+01  0.51100000000E-03 0. -1.
        -11    1    3    3    0    0 -0.36526598303E+01 -0.99038630551E+01  0.70007128245E+01  0.12666428366E+02  0.51100000000E-03 0.  1.
        -12    1    3    3    0    0 -0.34419914573E+02  0.31326794386E+01 -0.52480156433E+01  0.34958344753E+02  0.00000000000E+00 0.  1.
</event>
<event>
 7    1  0.5935282E-013  0.5052886E+02  0.7816164E-02  0.1300439E+00
        -11   -1    0    0    0    0  0.00000000000E+00  0.00000000000E+00  0.45593999997E+02  0.45594000000E+02  0.51100000000E-03 0.  1.
         11   -1    0    0    0    0 -0.00000000000E+00 -0.00000000000E+00 -0.45593999997E+02  0.45594000000E+02  0.51100000000E-03 0. -1.
    9900012    2    1    2    0    0 -0.39633400618E+02  0.59111639153E+00 -0.90559433256E+01  0.50528856223E+02  0.29999988977E+02 0.  0.
        -12    1    1    2    0    0  0.39633400618E+02 -0.59111639153E+00  0.90559433256E+01  0.40659143777E+02  0.00000000000E+00 0.  1.
         11    1    3    3    0    0 -0.22220966152E+02  0.96245895418E+01  0.27042035595E+01  0.24366304146E+02  0.51100000000E-03 0. -1.
        -11    1    3    3    0    0 -0.10308861634E+01  0.29087239978E+01 -0.18425029835E+01  0.35941924103E+01  0.51100000000E-03 0.  1.
        -12    1    3    3    0    0 -0.16381548303E+02 -0.11942197148E+02 -0.99176439016E+01  0.22568359667E+02  0.00000000000E+00 0.  1.
</event>
<event>
 7    1  0.5935282E-013  0.5052886E+02  0.7816164E-02  0.1300439E+00
        -11   -1    0    0    0    0  0.00000000000E+00  0.00000000000E+00  0.45593999997E+02  0.45594000000E+02  0.51100000000E-03 0.  1.
         11   -1    0    0    0    0 -0.00000000000E+00 -0.00000000000E+00 -0.45593999997E+02  0.45594000000E+02  0.51100000000E-03 0. -1.
    9900012    2    1    2    0    0  0.29143967622E+02  0.13030848128E+01 -0.28321316908E+02  0.50528857484E+02  0.29999992808E+02 0.  0.
        -12    1    1    2    0    0 -0.29143967622E+02 -0.13030848128E+01  0.28321316908E+02  0.40659142516E+02  0.00000000000E+00 0.  1.
         11    1    3    3    0    0  0.14932748446E+02  0.27937633545E+01 -0.42216223905E+01  0.15767504105E+02  0.51100000000E-03 0. -1.
        -11    1    3    3    0    0 -0.20478421375E+01  0.11842032752E+01  0.25188134647E+01  0.34554907536E+01  0.51100000000E-03 0.  1.
         12    1    3    3    0    0  0.16259061314E+02 -0.26748818169E+01 -0.26618507982E+02  0.31305862625E+02  0.00000000000E+00 0. -1.
</event>
<event>
 7    1  0.5935282E-013  0.5052885E+02  0.7816164E-02  0.1300439E+00
        -11   -1    0    0    0    0  0.00000000000E+00  0.00000000000E+00  0.45593999997E+02  0.45594000000E+02  0.51100000000E-03 0.  1.
         11   -1    0    0    0    0 -0.00000000000E+00 -0.00000000000E+00 -0.45593999997E+02  0.45594000000E+02  0.51100000000E-03 0. -1.
    9900012    2    1    2    0    0  0.19198420976E+02 -0.24973519929E+02 -0.25708178690E+02  0.50528849527E+02  0.29999968622E+02 0.  0.
        -12    1    1    2    0    0 -0.19198420976E+02  0.24973519929E+02  0.25708178690E+02  0.40659150473E+02  0.00000000000E+00 0.  1.
         11    1    3    3    0    0  0.10739115654E+02 -0.11003991998E+02 -0.82903980453E+01  0.17468461436E+02  0.51100000000E-03 0. -1.
        -11    1    3    3    0    0  0.23529776658E+01  0.26990957564E+01  0.39163550847E+01  0.53065487097E+01  0.51100000000E-03 0.  1.
         12    1    3    3    0    0  0.61063276560E+01 -0.16668623687E+02 -0.21334135730E+02  0.27753839381E+02  0.00000000000E+00 0. -1.
</event>
<event>
 7    1  0.5935282E-013  0.5052889E+02  0.7816164E-02  0.1300439E+00
        -11   -1    0    0    0    0  0.00000000000E+00  0.00000000000E+00  0.45593999997E+02  0.45594000000E+02  0.51100000000E-03 0.  1.
         11   -1    0    0    0    0 -0.00000000000E+00 -0.00000000000E+00 -0.45593999997E+02  0.45594000000E+02  0.51100000000E-03 0. -1.
    9900012    2    1    2    0    0 -0.27031178126E+02 -0.82791258521E+00 -0.30361051909E+02  0.50528886591E+02  0.30000081283E+02 0.  0.
        -12    1    1    2    0    0  0.27031178126E+02  0.82791258521E+00  0.30361051909E+02  0.40659113409E+02  0.00000000000E+00 0.  1.
         11    1    3    3    0    0 -0.10181388600E+02  0.14933487996E+01 -0.15352457114E+02  0.18482118498E+02  0.51100000000E-03 0. -1.
        -11    1    3    3    0    0 -0.19001348597E+02 -0.71572114826E+01 -0.16908649350E+02  0.26423083617E+02  0.51100000000E-03 0.  1.
        -12    1    3    3    0    0  0.21515590708E+01  0.48359500977E+01  0.19000545550E+01  0.56236844768E+01  0.00000000000E+00 0.  1.
</event>
<event>
 7    1  0.5935282E-013  0.5052886E+02  0.7816164E-02  0.1300439E+00
        -11   -1    0    0    0    0  0.00000000000E+00  0.00000000000E+00  0.45593999997E+02  0.45594000000E+02  0.51100000000E-03 0.  1.
         11   -1    0    0    0    0 -0.00000000000E+00 -0.00000000000E+00 -0.45593999997E+02  0.45594000000E+02  0.51100000000E-03 0. -1.
    9900012    2    1    2    0    0  0.63796651133E+01 -0.22923159949E+02 -0.32969593452E+02  0.50528862264E+02  0.30000007338E+02 0.  0.
        -12    1    1    2    0    0 -0.63796651133E+01  0.22923159949E+02  0.32969593452E+02  0.40659137736E+02  0.00000000000E+00 0.  1.
         11    1    3    3    0    0  0.23532951344E+00  0.37960589146E+01 -0.10129756464E+02  0.10820231492E+02  0.51100000000E-03 0. -1.
        -11    1    3    3    0    0  0.18223073993E+01  0.20926726094E+01 -0.14596302209E+00  0.27787386298E+01  0.51100000000E-03 0.  1.
         12    1    3    3    0    0  0.43220282006E+01 -0.28811891473E+02 -0.22693873966E+02  0.36929892142E+02  0.00000000000E+00 0. -1.
</event>
<event>
 7    1  0.5935282E-013  0.5052882E+02  0.7816164E-02  0.1300439E+00
        -11   -1    0    0    0    0  0.00000000000E+00  0.00000000000E+00  0.45593999997E+02  0.45594000000E+02  0.51100000000E-03 0.  1.
         11   -1    0    0    0    0 -0.00000000000E+00 -0.00000000000E+00 -0.45593999997E+02  0.45594000000E+02  0.51100000000E-03 0. -1.
    9900012    2    1    2    0    0  0.25895248796E+02 -0.27712410028E+02 -0.14650156183E+02  0.50528823226E+02  0.29999888677E+02 0.  0.
        -12    1    1    2    0    0 -0.25895248796E+02  0.27712410028E+02  0.14650156183E+02  0.40659176774E+02  0.00000000000E+00 0.  1.
         11    1    3    3    0    0  0.55575966141E+01  0.19108363656E+01  0.12560291020E+01  0.60096410132E+01  0.51100000000E-03 0. -1.
        -11    1    3    3    0    0 -0.33089688883E+01 -0.10170212925E+02 -0.63715582039E+01  0.12449066642E+02  0.51100000000E-03 0.  1.
         12    1    3    3    0    0  0.23646621070E+02 -0.19453033468E+02 -0.95346270807E+01  0.32070115571E+02  0.00000000000E+00 0. -1.
</event>
<event>
 7    1  0.5935282E-013  0.5052886E+02  0.7816164E-02  0.1300439E+00
        -11   -1    0    0    0    0  0.00000000000E+00  0.00000000000E+00  0.45593999997E+02  0.45594000000E+02  0.51100000000E-03 0.  1.
         11   -1    0    0    0    0 -0.00000000000E+00 -0.00000000000E+00 -0.45593999997E+02  0.45594000000E+02  0.51100000000E-03 0. -1.
    9900012    2    1    2    0    0  0.24715908263E+02 -0.17326141062E+02 -0.27241404893E+02  0.50528862947E+02  0.30000009414E+02 0.  0.
        -12    1    1    2    0    0 -0.24715908263E+02  0.17326141062E+02  0.27241404893E+02  0.40659137053E+02  0.00000000000E+00 0.  1.
         11    1    3    3    0    0  0.47700827928E+01 -0.86391478436E+00 -0.10357858172E+01  0.49571051154E+01  0.51100000000E-03 0. -1.
        -11    1    3    3    0    0 -0.34443308582E+01  0.40519377043E+01 -0.74475300904E+00  0.53699414825E+01  0.51100000000E-03 0.  1.
         12    1    3    3    0    0  0.23390156328E+02 -0.20514163982E+02 -0.25460866067E+02  0.40201816349E+02  0.00000000000E+00 0. -1.
</event>
<event>
 7    1  0.5935282E-013  0.5052876E+02  0.7816164E-02  0.1300439E+00
        -11   -1    0    0    0    0  0.00000000000E+00  0.00000000000E+00  0.45593999997E+02  0.45594000000E+02  0.51100000000E-03 0. -1.
         11   -1    0    0    0    0 -0.00000000000E+00 -0.00000000000E+00 -0.45593999997E+02  0.45594000000E+02  0.51100000000E-03 0.  1.
    9900012    2    1    2    0    0 -0.37539204604E+02 -0.55159776062E+00 -0.15610174853E+02  0.50528761181E+02  0.29999700084E+02 0.  0.
        -12    1    1    2    0    0  0.37539204604E+02  0.55159776062E+00  0.15610174853E+02  0.40659238819E+02  0.00000000000E+00 0.  1.
         11    1    3    3    0    0 -0.18792838134E+02  0.23209283529E+00  0.25219840035E-01  0.18794288188E+02  0.51100000000E-03 0. -1.
        -11    1    3    3    0    0 -0.12835253358E+02 -0.10191570614E+02 -0.10727234033E+02  0.19587888876E+02  0.51100000000E-03 0.  1.
         12    1    3    3    0    0 -0.59111131120E+01  0.94078800177E+01 -0.49081606603E+01  0.12146584117E+02  0.00000000000E+00 0. -1.
</event>
<event>
 7    1  0.5935282E-013  0.5052887E+02  0.7816164E-02  0.1300439E+00
        -11   -1    0    0    0    0  0.00000000000E+00  0.00000000000E+00  0.45593999997E+02  0.45594000000E+02  0.51100000000E-03 0.  1.
         11   -1    0    0    0    0 -0.00000000000E+00 -0.00000000000E+00 -0.45593999997E+02  0.45594000000E+02  0.51100000000E-03 0. -1.
    9900012    2    1    2    0    0 -0.99532546501E+01 -0.38383931984E+02  0.89873044263E+01  0.50528866297E+02  0.30000019595E+02 0.  0.
        -12    1    1    2    0    0  0.99532546501E+01  0.38383931984E+02 -0.89873044263E+01  0.40659133703E+02  0.00000000000E+00 0.  1.
         11    1    3    3    0    0 -0.37879686868E+01 -0.56606054662E+01 -0.91642541538E+01  0.11418174787E+02  0.51100000000E-03 0. -1.
        -11    1    3    3    0    0 -0.69794163256E+01 -0.12400929262E+02  0.62159796164E+01  0.15528480340E+02  0.51100000000E-03 0.  1.
        -12    1    3    3    0    0  0.81413036230E+00 -0.20322397255E+02  0.11935578964E+02  0.23582211169E+02  0.00000000000E+00 0.  1.
</event>
<event>
 7    1  0.5935282E-013  0.5052885E+02  0.7816164E-02  0.1300439E+00
        -11   -1    0    0    0    0  0.00000000000E+00  0.00000000000E+00  0.45593999997E+02  0.45594000000E+02  0.51100000000E-03 0. -1.
         11   -1    0    0    0    0 -0.00000000000E+00 -0.00000000000E+00 -0.45593999997E+02  0.45594000000E+02  0.51100000000E-03 0.  1.
    9900012    2    1    2    0    0 -0.35305353119E+02  0.97102116874E+01 -0.17675121227E+02  0.50528854900E+02  0.29999984955E+02 0.  0.
        -12    1    1    2    0    0  0.35305353119E+02 -0.97102116874E+01  0.17675121227E+02  0.40659145100E+02  0.00000000000E+00 0.  1.
         11    1    3    3    0    0 -0.26997527852E+02  0.16857036233E+00 -0.13609842802E+00  0.26998397158E+02  0.51100000000E-03 0. -1.
        -11    1    3    3    0    0 -0.12865784880E+01 -0.16317398917E+01 -0.82700314436E+00  0.22364690344E+01  0.51100000000E-03 0.  1.
        -12    1    3    3    0    0 -0.70212467793E+01  0.11173381217E+02 -0.16712019655E+02  0.21293988708E+02  0.00000000000E+00 0.  1.
</event>
<event>
 7    1  0.5935282E-013  0.5052886E+02  0.7816164E-02  0.1300439E+00
        -11   -1    0    0    0    0  0.00000000000E+00  0.00000000000E+00  0.45593999997E+02  0.45594000000E+02  0.51100000000E-03 0.  1.
         11   -1    0    0    0    0 -0.00000000000E+00 -0.00000000000E+00 -0.45593999997E+02  0.45594000000E+02  0.51100000000E-03 0. -1.
    9900012    2    1    2    0    0 -0.13876653688E+02  0.30609446758E+02 -0.22883746057E+02  0.50528861027E+02  0.30000003578E+02 0.  0.
        -12    1    1    2    0    0  0.13876653688E+02 -0.30609446758E+02  0.22883746057E+02  0.40659138973E+02  0.00000000000E+00 0.  1.
         11    1    3    3    0    0 -0.75443023884E+01  0.14607600425E+02 -0.78193601261E+01  0.18205517893E+02  0.51100000000E-03 0. -1.
        -11    1    3    3    0    0 -0.90162741172E+01  0.17539330889E+02 -0.30971094027E+01  0.19962800753E+02  0.51100000000E-03 0.  1.
        -12    1    3    3    0    0  0.26839228177E+01 -0.15374845561E+01 -0.11967276528E+02  0.12360542381E+02  0.00000000000E+00 0.  1.
</event>
<event>
 7    1  0.5935282E-013  0.5052886E+02  0.7816164E-02  0.1300439E+00
        -11   -1    0    0    0    0  0.00000000000E+00  0.00000000000E+00  0.45593999997E+02  0.45594000000E+02  0.51100000000E-03 0. -1.
         11   -1    0    0    0    0 -0.00000000000E+00 -0.00000000000E+00 -0.45593999997E+02  0.45594000000E+02  0.51100000000E-03 0.  1.
    9900012    2    1    2    0    0  0.96797411105E+01  0.38716181514E+02 -0.77798135176E+01  0.50528860838E+02  0.30000003004E+02 0.  0.
        -12    1    1    2    0    0 -0.96797411105E+01 -0.38716181514E+02  0.77798135176E+01  0.40659139162E+02  0.00000000000E+00 0.  1.
         11    1    3    3    0    0  0.15703808346E+02  0.12855528098E+02 -0.35177364039E+01  0.20597297612E+02  0.51100000000E-03 0. -1.
        -11    1    3    3    0    0 -0.99501913032E+00  0.31519904728E+00  0.27722781967E+01  0.29622525500E+01  0.51100000000E-03 0.  1.
        -12    1    3    3    0    0 -0.50290481048E+01  0.25545454369E+02 -0.70343553104E+01  0.26969310677E+02  0.00000000000E+00 0.  1.
</event>
<event>
 7    1  0.5935282E-013  0.5052885E+02  0.7816164E-02  0.1300439E+00
        -11   -1    0    0    0    0  0.00000000000E+00  0.00000000000E+00  0.45593999997E+02  0.45594000000E+02  0.51100000000E-03 0.  1.
         11   -1    0    0    0    0 -0.00000000000E+00 -0.00000000000E+00 -0.45593999997E+02  0.45594000000E+02  0.51100000000E-03 0. -1.
    9900012    2    1    2    0    0 -0.23107639723E+02 -0.16996854801E+02 -0.28815107579E+02  0.50528849597E+02  0.29999968836E+02 0.  0.
        -12    1    1    2    0    0  0.23107639723E+02  0.16996854801E+02  0.28815107579E+02  0.40659150403E+02  0.00000000000E+00 0.  1.
         11    1    3    3    0    0 -0.16389297679E+01  0.25156605709E+01 -0.11334650198E+02  0.11725567545E+02  0.51100000000E-03 0. -1.
        -11    1    3    3    0    0 -0.34550036998E+01 -0.37525469725E+01  0.41245208489E+01  0.65597508977E+01  0.51100000000E-03 0.  1.
        -12    1    3    3    0    0 -0.18013706255E+02 -0.15759968399E+02 -0.21604978230E+02  0.32243531155E+02  0.00000000000E+00 0.  1.
</event>
<event>
 7    1  0.5935282E-013  0.5052888E+02  0.7816164E-02  0.1300439E+00
        -11   -1    0    0    0    0  0.00000000000E+00  0.00000000000E+00  0.45593999997E+02  0.45594000000E+02  0.51100000000E-03 0.  1.
         11   -1    0    0    0    0 -0.00000000000E+00 -0.00000000000E+00 -0.45593999997E+02  0.45594000000E+02  0.51100000000E-03 0. -1.
    9900012    2    1    2    0    0 -0.31888470492E+02  0.19195903206E+02 -0.16364794018E+02  0.50528883759E+02  0.30000072674E+02 0.  0.
        -12    1    1    2    0    0  0.31888470492E+02 -0.19195903206E+02  0.16364794018E+02  0.40659116241E+02  0.00000000000E+00 0.  1.
         11    1    3    3    0    0 -0.13317997681E+01  0.48459786303E+01 -0.12836627401E+01  0.51870020050E+01  0.51100000000E-03 0. -1.
        -11    1    3    3    0    0 -0.26316449067E+02  0.20973361973E+02 -0.76249952803E+01  0.34504752676E+02  0.51100000000E-03 0.  1.
        -12    1    3    3    0    0 -0.42402216576E+01 -0.66234373969E+01 -0.74561359973E+01  0.10837129079E+02  0.00000000000E+00 0.  1.
</event>
<event>
 7    1  0.5935282E-013  0.5052886E+02  0.7816164E-02  0.1300439E+00
        -11   -1    0    0    0    0  0.00000000000E+00  0.00000000000E+00  0.45593999997E+02  0.45594000000E+02  0.51100000000E-03 0.  1.
         11   -1    0    0    0    0 -0.00000000000E+00 -0.00000000000E+00 -0.45593999997E+02  0.45594000000E+02  0.51100000000E-03 0. -1.
    9900012    2    1    2    0    0 -0.32224520197E+02  0.11603271766E+02 -0.21911419808E+02  0.50528856679E+02  0.29999990362E+02 0.  0.
        -12    1    1    2    0    0  0.32224520197E+02 -0.11603271766E+02  0.21911419808E+02  0.40659143321E+02  0.00000000000E+00 0.  1.
         11    1    3    3    0    0 -0.62022001548E+01 -0.59993181623E+01  0.10718418457E+01  0.86952832258E+01  0.51100000000E-03 0.  1.
        -11    1    3    3    0    0 -0.11182793718E+00  0.51643679336E+01 -0.77256353017E+01  0.92934731246E+01  0.51100000000E-03 0. -1.
         12    1    3    3    0    0 -0.25910492105E+02  0.12438221995E+02 -0.15257626352E+02  0.32540100329E+02  0.00000000000E+00 0. -1.
</event>
<event>
 7    1  0.5935282E-013  0.5052884E+02  0.7816164E-02  0.1300439E+00
        -11   -1    0    0    0    0  0.00000000000E+00  0.00000000000E+00  0.45593999997E+02  0.45594000000E+02  0.51100000000E-03 0.  1.
         11   -1    0    0    0    0 -0.00000000000E+00 -0.00000000000E+00 -0.45593999997E+02  0.45594000000E+02  0.51100000000E-03 0. -1.
    9900012    2    1    2    0    0 -0.19150615510E+02 -0.35816066369E+02  0.19053175410E+01  0.50528844580E+02  0.29999953585E+02 0.  0.
        -12    1    1    2    0    0  0.19150615510E+02  0.35816066369E+02 -0.19053175410E+01  0.40659155420E+02  0.00000000000E+00 0.  1.
         11    1    3    3    0    0 -0.13984654067E+02 -0.60791109847E+01 -0.64570035376E-01  0.15248944531E+02  0.51100000000E-03 0. -1.
        -11    1    3    3    0    0 -0.61228738624E+01 -0.21603432079E+02 -0.66217340440E+01  0.23410365737E+02  0.51100000000E-03 0.  1.
        -12    1    3    3    0    0  0.95691241929E+00 -0.81335233053E+01  0.85916216203E+01  0.11869534313E+02  0.00000000000E+00 0.  1.
</event>
<event>
 7    1  0.5935282E-013  0.5052883E+02  0.7816164E-02  0.1300439E+00
        -11   -1    0    0    0    0  0.00000000000E+00  0.00000000000E+00  0.45593999997E+02  0.45594000000E+02  0.51100000000E-03 0.  1.
         11   -1    0    0    0    0 -0.00000000000E+00 -0.00000000000E+00 -0.45593999997E+02  0.45594000000E+02  0.51100000000E-03 0. -1.
    9900012    2    1    2    0    0  0.29098718439E+02  0.10515865867E+02 -0.26378955373E+02  0.50528829616E+02  0.29999908102E+02 0.  0.
        -12    1    1    2    0    0 -0.29098718439E+02 -0.10515865867E+02  0.26378955373E+02  0.40659170384E+02  0.00000000000E+00 0.  1.
         11    1    3    3    0    0  0.19941289457E+02  0.31825822560E+01 -0.61423017589E+01  0.21107148698E+02  0.51100000000E-03 0. -1.
        -11    1    3    3    0    0  0.13116355832E+02  0.45054783496E+01 -0.74547976619E+01  0.15745225750E+02  0.51100000000E-03 0.  1.
        -12    1    3    3    0    0 -0.39589268497E+01  0.28278052610E+01 -0.12781855952E+02  0.13676455169E+02  0.00000000000E+00 0.  1.
</event>
<event>
 7    1  0.5935282E-013  0.5052885E+02  0.7816164E-02  0.1300439E+00
        -11   -1    0    0    0    0  0.00000000000E+00  0.00000000000E+00  0.45593999997E+02  0.45594000000E+02  0.51100000000E-03 0.  1.
         11   -1    0    0    0    0 -0.00000000000E+00 -0.00000000000E+00 -0.45593999997E+02  0.45594000000E+02  0.51100000000E-03 0. -1.
    9900012    2    1    2    0    0  0.40058773970E+01 -0.22214505484E+02 -0.33817673643E+02  0.50528851481E+02  0.29999974562E+02 0.  0.
        -12    1    1    2    0    0 -0.40058773970E+01  0.22214505484E+02  0.33817673643E+02  0.40659148519E+02  0.00000000000E+00 0.  1.
         11    1    3    3    0    0  0.72504410216E+01 -0.16839093190E+02 -0.28949758505E+02  0.34266783804E+02  0.51100000000E-03 0. -1.
        -11    1    3    3    0    0 -0.28526749850E+01  0.26545843068E+01 -0.69405571184E+01  0.79596423153E+01  0.51100000000E-03 0.  1.
        -12    1    3    3    0    0 -0.39188863963E+00 -0.80299966010E+01  0.20726419802E+01  0.83024253622E+01  0.00000000000E+00 0.  1.
</event>
<event>
 7    1  0.5935282E-013  0.5052886E+02  0.7816164E-02  0.1300439E+00
        -11   -1    0    0    0    0  0.00000000000E+00  0.00000000000E+00  0.45593999997E+02  0.45594000000E+02  0.51100000000E-03 0. -1.
         11   -1    0    0    0    0 -0.00000000000E+00 -0.00000000000E+00 -0.45593999997E+02  0.45594000000E+02  0.51100000000E-03 0.  1.
    9900012    2    1    2    0    0  0.10006466545E+02 -0.39189446794E+02  0.41501661510E+01  0.50528855987E+02  0.29999988259E+02 0.  0.
        -12    1    1    2    0    0 -0.10006466545E+02  0.39189446794E+02 -0.41501661510E+01  0.40659144013E+02  0.00000000000E+00 0.  1.
         11    1    3    3    0    0  0.12479602741E+02 -0.18949560919E+02 -0.34953316811E+01  0.22957432073E+02  0.51100000000E-03 0. -1.
        -11    1    3    3    0    0  0.20285470527E+01 -0.17390227309E+02  0.11542439903E+02  0.20970525224E+02  0.51100000000E-03 0.  1.
        -12    1    3    3    0    0 -0.45016832486E+01 -0.28496585665E+01 -0.38969420705E+01  0.66008986901E+01  0.00000000000E+00 0.  1.
</event>
<event>
 7    1  0.5935282E-013  0.5052886E+02  0.7816164E-02  0.1300439E+00
        -11   -1    0    0    0    0  0.00000000000E+00  0.00000000000E+00  0.45593999997E+02  0.45594000000E+02  0.51100000000E-03 0.  1.
         11   -1    0    0    0    0 -0.00000000000E+00 -0.00000000000E+00 -0.45593999997E+02  0.45594000000E+02  0.51100000000E-03 0. -1.
    9900012    2    1    2    0    0 -0.39731068399E+02  0.79340069636E-02 -0.86375651940E+01  0.50528863369E+02  0.30000010697E+02 0.  0.
        -12    1    1    2    0    0  0.39731068399E+02 -0.79340069636E-02  0.86375651940E+01  0.40659136631E+02  0.00000000000E+00 0.  1.
         11    1    3    3    0    0 -0.22630526063E+02 -0.77882590521E+01 -0.14483311816E+01  0.23976975465E+02  0.51100000000E-03 0. -1.
        -11    1    3    3    0    0 -0.91921881148E+01 -0.41804542064E+01 -0.68379819487E+01  0.12195512170E+02  0.51100000000E-03 0.  1.
        -12    1    3    3    0    0 -0.79083542211E+01  0.11976647266E+02 -0.35125206381E+00  0.14356375734E+02  0.00000000000E+00 0.  1.
</event>
<event>
 7    1  0.5935282E-013  0.5052887E+02  0.7816164E-02  0.1300439E+00
        -11   -1    0    0    0    0  0.00000000000E+00  0.00000000000E+00  0.45593999997E+02  0.45594000000E+02  0.51100000000E-03 0.  1.
         11   -1    0    0    0    0 -0.00000000000E+00 -0.00000000000E+00 -0.45593999997E+02  0.45594000000E+02  0.51100000000E-03 0. -1.
    9900012    2    1    2    0    0 -0.10087161075E+02  0.34025522437E+02 -0.19841320700E+02  0.50528868151E+02  0.30000025230E+02 0.  0.
        -12    1    1    2    0    0  0.10087161075E+02 -0.34025522437E+02  0.19841320700E+02  0.40659131849E+02  0.00000000000E+00 0.  1.
         11    1    3    3    0    0  0.40450477911E+01  0.43720543986E+00  0.30273335499E+00  0.40798539158E+01  0.51100000000E-03 0. -1.
        -11    1    3    3    0    0 -0.57403990905E+01  0.37426356411E+01  0.32748695271E+01  0.75950163885E+01  0.51100000000E-03 0.  1.
         12    1    3    3    0    0 -0.83918097752E+01  0.29845681356E+02 -0.23418923582E+02  0.38853997846E+02  0.00000000000E+00 0. -1.
</event>
<event>
 7    1  0.5935282E-013  0.5052887E+02  0.7816164E-02  0.1300439E+00
        -11   -1    0    0    0    0  0.00000000000E+00  0.00000000000E+00  0.45593999997E+02  0.45594000000E+02  0.51100000000E-03 0. -1.
         11   -1    0    0    0    0 -0.00000000000E+00 -0.00000000000E+00 -0.45593999997E+02  0.45594000000E+02  0.51100000000E-03 0.  1.
    9900012    2    1    2    0    0 -0.23847329656E+02 -0.32260257056E+02  0.66140691339E+01  0.50528865386E+02  0.30000016828E+02 0.  0.
        -12    1    1    2    0    0  0.23847329656E+02  0.32260257056E+02 -0.66140691339E+01  0.40659134614E+02  0.00000000000E+00 0.  1.
         11    1    3    3    0    0 -0.23840037425E+02 -0.14192401904E+02  0.21282908570E+01  0.27826269575E+02  0.51100000000E-03 0. -1.
        -11    1    3    3    0    0 -0.58286907105E+01 -0.47961059951E+01  0.30431996369E+01  0.81386320968E+01  0.51100000000E-03 0.  1.
        -12    1    3    3    0    0  0.58213984793E+01 -0.13271749157E+02  0.14425786400E+01  0.14563963714E+02  0.00000000000E+00 0.  1.
</event>
<event>
 7    1  0.5935282E-013  0.5052885E+02  0.7816164E-02  0.1300439E+00
        -11   -1    0    0    0    0  0.00000000000E+00  0.00000000000E+00  0.45593999997E+02  0.45594000000E+02  0.51100000000E-03 0.  1.
         11   -1    0    0    0    0 -0.00000000000E+00 -0.00000000000E+00 -0.45593999997E+02  0.45594000000E+02  0.51100000000E-03 0. -1.
    9900012    2    1    2    0    0  0.10201899518E+01  0.27555297934E+02 -0.29880278584E+02  0.50528852444E+02  0.29999977488E+02 0.  0.
        -12    1    1    2    0    0 -0.10201899518E+01 -0.27555297934E+02  0.29880278584E+02  0.40659147556E+02  0.00000000000E+00 0.  1.
         11    1    3    3    0    0 -0.33158013155E+01  0.10033916725E+02 -0.73560377027E+01  0.12875764605E+02  0.51100000000E-03 0. -1.
        -11    1    3    3    0    0  0.28433016140E+01  0.17955676948E+02 -0.27205481794E+02  0.32720466663E+02  0.51100000000E-03 0.  1.
         12    1    3    3    0    0  0.14926896533E+01 -0.43429573928E+00  0.46812409127E+01  0.49326211767E+01  0.00000000000E+00 0. -1.
</event>
<event>
 7    1  0.5935282E-013  0.5052884E+02  0.7816164E-02  0.1300439E+00
        -11   -1    0    0    0    0  0.00000000000E+00  0.00000000000E+00  0.45593999997E+02  0.45594000000E+02  0.51100000000E-03 0.  1.
         11   -1    0    0    0    0 -0.00000000000E+00 -0.00000000000E+00 -0.45593999997E+02  0.45594000000E+02  0.51100000000E-03 0. -1.
    9900012    2    1    2    0    0 -0.98953049452E+00 -0.19278305419E+02 -0.35784561857E+02  0.50528842388E+02  0.29999946922E+02 0.  0.
        -12    1    1    2    0    0  0.98953049452E+00  0.19278305419E+02  0.35784561857E+02  0.40659157612E+02  0.00000000000E+00 0.  1.
         11    1    3    3    0    0 -0.65151861961E+01 -0.17940937900E+01 -0.97136541851E+01  0.11833068139E+02  0.51100000000E-03 0. -1.
        -11    1    3    3    0    0 -0.26742488024E+01 -0.42852169459E+01 -0.22083195675E+02  0.22653525607E+02  0.51100000000E-03 0.  1.
        -12    1    3    3    0    0  0.81999045040E+01 -0.13198994683E+02 -0.39877119966E+01  0.16042248642E+02  0.00000000000E+00 0.  1.
</event>
<event>
 7    1  0.5935282E-013  0.5052888E+02  0.7816164E-02  0.1300439E+00
        -11   -1    0    0    0    0  0.00000000000E+00  0.00000000000E+00  0.45593999997E+02  0.45594000000E+02  0.51100000000E-03 0. -1.
         11   -1    0    0    0    0 -0.00000000000E+00 -0.00000000000E+00 -0.45593999997E+02  0.45594000000E+02  0.51100000000E-03 0.  1.
    9900012    2    1    2    0    0  0.26669878934E+02 -0.26052158677E+02 -0.16222422430E+02  0.50528875518E+02  0.30000047625E+02 0.  0.
        -12    1    1    2    0    0 -0.26669878934E+02  0.26052158677E+02  0.16222422430E+02  0.40659124482E+02  0.00000000000E+00 0.  1.
         11    1    3    3    0    0  0.38414131612E+01 -0.18376916490E+02 -0.28873301752E+00  0.18776338349E+02  0.51100000000E-03 0. -1.
        -11    1    3    3    0    0  0.24766190654E+01 -0.22366122118E+01  0.21664186418E+01  0.39786236532E+01  0.51100000000E-03 0.  1.
        -12    1    3    3    0    0  0.20351846708E+02 -0.54386299750E+01 -0.18100108055E+02  0.27773913516E+02  0.00000000000E+00 0.  1.
</event>
<event>
 7    1  0.5935282E-013  0.5052885E+02  0.7816164E-02  0.1300439E+00
        -11   -1    0    0    0    0  0.00000000000E+00  0.00000000000E+00  0.45593999997E+02  0.45594000000E+02  0.51100000000E-03 0.  1.
         11   -1    0    0    0    0 -0.00000000000E+00 -0.00000000000E+00 -0.45593999997E+02  0.45594000000E+02  0.51100000000E-03 0. -1.
    9900012    2    1    2    0    0  0.68335846678E+01 -0.22441240291E+02 -0.33209328733E+02  0.50528847770E+02  0.29999963281E+02 0.  0.
        -12    1    1    2    0    0 -0.68335846678E+01  0.22441240291E+02  0.33209328733E+02  0.40659152230E+02  0.00000000000E+00 0.  1.
         11    1    3    3    0    0 -0.10766293343E+01 -0.45365492233E+01 -0.42333274735E+01  0.62976560193E+01  0.51100000000E-03 0. -1.
        -11    1    3    3    0    0 -0.21655344895E+01 -0.21177742473E+02 -0.12631501976E+02  0.24753608996E+02  0.51100000000E-03 0.  1.
        -12    1    3    3    0    0  0.10075748492E+02  0.32730514054E+01 -0.16344499283E+02  0.19477582755E+02  0.00000000000E+00 0.  1.
</event>
<event>
 7    1  0.5935282E-013  0.5052886E+02  0.7816164E-02  0.1300439E+00
        -11   -1    0    0    0    0  0.00000000000E+00  0.00000000000E+00  0.45593999997E+02  0.45594000000E+02  0.51100000000E-03 0. -1.
         11   -1    0    0    0    0 -0.00000000000E+00 -0.00000000000E+00 -0.45593999997E+02  0.45594000000E+02  0.51100000000E-03 0.  1.
    9900012    2    1    2    0    0 -0.39767496388E+02 -0.84667652038E+01  0.16047025695E+00  0.50528860404E+02  0.30000001683E+02 0.  0.
        -12    1    1    2    0    0  0.39767496388E+02  0.84667652038E+01 -0.16047025695E+00  0.40659139596E+02  0.00000000000E+00 0.  1.
         11    1    3    3    0    0 -0.27090562025E+02 -0.10152652374E+02 -0.59659942322E+01  0.29539261814E+02  0.51100000000E-03 0. -1.
        -11    1    3    3    0    0 -0.14495546404E+02 -0.20517639920E+01  0.14174397353E+01  0.14708491992E+02  0.51100000000E-03 0.  1.
        -12    1    3    3    0    0  0.18186120404E+01  0.37376511617E+01  0.47090247539E+01  0.62811065978E+01  0.00000000000E+00 0.  1.
</event>
<event>
 7    1  0.5935282E-013  0.5052886E+02  0.7816164E-02  0.1300439E+00
        -11   -1    0    0    0    0  0.00000000000E+00  0.00000000000E+00  0.45593999997E+02  0.45594000000E+02  0.51100000000E-03 0.  1.
         11   -1    0    0    0    0 -0.00000000000E+00 -0.00000000000E+00 -0.45593999997E+02  0.45594000000E+02  0.51100000000E-03 0. -1.
    9900012    2    1    2    0    0  0.21996276546E+02  0.23809105501E+01 -0.34112474602E+02  0.50528857850E+02  0.29999993920E+02 0.  0.
        -12    1    1    2    0    0 -0.21996276546E+02 -0.23809105501E+01  0.34112474602E+02  0.40659142150E+02  0.00000000000E+00 0.  1.
         11    1    3    3    0    0  0.12628224799E+02 -0.69689199366E+01 -0.21368443089E+02  0.25780773203E+02  0.51100000000E-03 0. -1.
        -11    1    3    3    0    0 -0.15786943318E+01  0.27617912351E+01 -0.11476318862E+02  0.11909057960E+02  0.51100000000E-03 0.  1.
        -12    1    3    3    0    0  0.10946746079E+02  0.65880392517E+01 -0.12677126514E+01  0.12839026687E+02  0.00000000000E+00 0.  1.
</event>
<event>
 7    1  0.5935282E-013  0.5052886E+02  0.7816164E-02  0.1300439E+00
        -11   -1    0    0    0    0  0.00000000000E+00  0.00000000000E+00  0.45593999997E+02  0.45594000000E+02  0.51100000000E-03 0. -1.
         11   -1    0    0    0    0 -0.00000000000E+00 -0.00000000000E+00 -0.45593999997E+02  0.45594000000E+02  0.51100000000E-03 0.  1.
    9900012    2    1    2    0    0 -0.32253592402E+02 -0.24731381394E+02 -0.11091544368E+01  0.50528859920E+02  0.30000000214E+02 0.  0.
        -12    1    1    2    0    0  0.32253592402E+02  0.24731381394E+02  0.11091544368E+01  0.40659140080E+02  0.00000000000E+00 0.  1.
         11    1    3    3    0    0 -0.87444652607E+01  0.14477562075E+01 -0.32189378571E+01  0.94299115542E+01  0.51100000000E-03 0. -1.
        -11    1    3    3    0    0 -0.84403370084E+01  0.23348550126E+01  0.11630336263E+01  0.88342223327E+01  0.51100000000E-03 0.  1.
         12    1    3    3    0    0 -0.15068790133E+02 -0.28513992614E+02  0.94674979397E+00  0.32264726033E+02  0.00000000000E+00 0. -1.
</event>
<event>
 7    1  0.5935282E-013  0.5052885E+02  0.7816164E-02  0.1300439E+00
        -11   -1    0    0    0    0  0.00000000000E+00  0.00000000000E+00  0.45593999997E+02  0.45594000000E+02  0.51100000000E-03 0.  1.
         11   -1    0    0    0    0 -0.00000000000E+00 -0.00000000000E+00 -0.45593999997E+02  0.45594000000E+02  0.51100000000E-03 0. -1.
    9900012    2    1    2    0    0  0.26646235261E+02  0.28656556411E+02 -0.11042932710E+02  0.50528850454E+02  0.29999971440E+02 0.  0.
        -12    1    1    2    0    0 -0.26646235261E+02 -0.28656556411E+02  0.11042932710E+02  0.40659149546E+02  0.00000000000E+00 0.  1.
         11    1    3    3    0    0  0.20313259614E+02  0.16926862797E+02 -0.47449128969E+01  0.26863756233E+02  0.51100000000E-03 0.  1.
        -11    1    3    3    0    0  0.36861317851E+01  0.15582035110E+02 -0.24043286072E+00  0.16013906267E+02  0.51100000000E-03 0. -1.
        -12    1    3    3    0    0  0.26468438620E+01 -0.38523414952E+01 -0.60575869523E+01  0.76511879542E+01  0.00000000000E+00 0.  1.
</event>
<event>
 7    1  0.5935282E-013  0.5052885E+02  0.7816164E-02  0.1300439E+00
        -11   -1    0    0    0    0  0.00000000000E+00  0.00000000000E+00  0.45593999997E+02  0.45594000000E+02  0.51100000000E-03 0.  1.
         11   -1    0    0    0    0 -0.00000000000E+00 -0.00000000000E+00 -0.45593999997E+02  0.45594000000E+02  0.51100000000E-03 0. -1.
    9900012    2    1    2    0    0 -0.23825558263E+02 -0.16413489806E+02 -0.28567575470E+02  0.50528852907E+02  0.29999978895E+02 0.  0.
        -12    1    1    2    0    0  0.23825558263E+02  0.16413489806E+02  0.28567575470E+02  0.40659147093E+02  0.00000000000E+00 0.  1.
         11    1    3    3    0    0 -0.13978140424E+02 -0.15960754226E+02 -0.72363434370E+01  0.22416483930E+02  0.51100000000E-03 0. -1.
        -11    1    3    3    0    0 -0.87899930338E+01 -0.32283629187E+01 -0.34395419397E+01  0.99758084226E+01  0.51100000000E-03 0.  1.
        -12    1    3    3    0    0 -0.10574248045E+01  0.27756273392E+01 -0.17891690093E+02  0.18136560554E+02  0.00000000000E+00 0.  1.
</event>
<event>
 7    1  0.5935282E-013  0.5052888E+02  0.7816164E-02  0.1300439E+00
        -11   -1    0    0    0    0  0.00000000000E+00  0.00000000000E+00  0.45593999997E+02  0.45594000000E+02  0.51100000000E-03 0.  1.
         11   -1    0    0    0    0 -0.00000000000E+00 -0.00000000000E+00 -0.45593999997E+02  0.45594000000E+02  0.51100000000E-03 0. -1.
    9900012    2    1    2    0    0 -0.12846740203E+02  0.38215982023E+02  0.52596606163E+01  0.50528879921E+02  0.30000061007E+02 0.  0.
        -12    1    1    2    0    0  0.12846740203E+02 -0.38215982023E+02 -0.52596606163E+01  0.40659120079E+02  0.00000000000E+00 0.  1.
         11    1    3    3    0    0 -0.43588296921E+01  0.13672042215E+02  0.95741771756E+01  0.17250768199E+02  0.51100000000E-03 0. -1.
        -11    1    3    3    0    0  0.43797310256E+01  0.12408413341E+02 -0.77338678583E+01  0.15263141152E+02  0.51100000000E-03 0.  1.
         12    1    3    3    0    0 -0.12867641536E+02  0.12135526466E+02  0.34193512990E+01  0.18014970570E+02  0.00000000000E+00 0. -1.
</event>
<event>
 7    1  0.5935282E-013  0.5052885E+02  0.7816164E-02  0.1300439E+00
        -11   -1    0    0    0    0  0.00000000000E+00  0.00000000000E+00  0.45593999997E+02  0.45594000000E+02  0.51100000000E-03 0. -1.
         11   -1    0    0    0    0 -0.00000000000E+00 -0.00000000000E+00 -0.45593999997E+02  0.45594000000E+02  0.51100000000E-03 0.  1.
    9900012    2    1    2    0    0 -0.65652694367E+01 -0.16019881979E+02  0.36788953998E+02  0.50528849521E+02  0.29999968605E+02 0.  0.
        -12    1    1    2    0    0  0.65652694367E+01  0.16019881979E+02 -0.36788953998E+02  0.40659150479E+02  0.00000000000E+00 0.  1.
         11    1    3    3    0    0 -0.81171140322E+01 -0.19686242736E+02  0.25161936150E+02  0.32962990221E+02  0.51100000000E-03 0. -1.
        -11    1    3    3    0    0 -0.49851682295E+00  0.19744845043E+01  0.13912145170E+02  0.14060401544E+02  0.51100000000E-03 0.  1.
        -12    1    3    3    0    0  0.20503614185E+01  0.16918762527E+01 -0.22851273221E+01  0.35054577560E+01  0.00000000000E+00 0.  1.
</event>
<event>
 7    1  0.5935282E-013  0.5052885E+02  0.7816164E-02  0.1300439E+00
        -11   -1    0    0    0    0  0.00000000000E+00  0.00000000000E+00  0.45593999997E+02  0.45594000000E+02  0.51100000000E-03 0.  1.
         11   -1    0    0    0    0 -0.00000000000E+00 -0.00000000000E+00 -0.45593999997E+02  0.45594000000E+02  0.51100000000E-03 0. -1.
    9900012    2    1    2    0    0 -0.24381915493E+02 -0.18649106296E+02 -0.26662691551E+02  0.50528854786E+02  0.29999984609E+02 0.  0.
        -12    1    1    2    0    0  0.24381915493E+02  0.18649106296E+02  0.26662691551E+02  0.40659145214E+02  0.00000000000E+00 0.  1.
         11    1    3    3    0    0 -0.47095853358E+01 -0.41996100606E+01 -0.10153317030E+02  0.11954361784E+02  0.51100000000E-03 0. -1.
        -11    1    3    3    0    0  0.45042743545E+01 -0.31058287997E+01 -0.95024540779E+01  0.10965003135E+02  0.51100000000E-03 0.  1.
         12    1    3    3    0    0 -0.24176604512E+02 -0.11343667436E+02 -0.70069204430E+01  0.27609489867E+02  0.00000000000E+00 0. -1.
</event>
<event>
 7    1  0.5935282E-013  0.5052888E+02  0.7816164E-02  0.1300439E+00
        -11   -1    0    0    0    0  0.00000000000E+00  0.00000000000E+00  0.45593999997E+02  0.45594000000E+02  0.51100000000E-03 0. -1.
         11   -1    0    0    0    0 -0.00000000000E+00 -0.00000000000E+00 -0.45593999997E+02  0.45594000000E+02  0.51100000000E-03 0.  1.
    9900012    2    1    2    0    0 -0.35705358338E+02 -0.43800086578E+01  0.18950126780E+02  0.50528875625E+02  0.30000047951E+02 0.  0.
        -12    1    1    2    0    0  0.35705358338E+02  0.43800086578E+01 -0.18950126780E+02  0.40659124375E+02  0.00000000000E+00 0.  1.
         11    1    3    3    0    0  0.25143593433E+01 -0.17709783383E+00  0.70508080679E+01  0.74878075043E+01  0.51100000000E-03 0. -1.
        -11    1    3    3    0    0 -0.90076491855E+00  0.15059665346E+01 -0.21351777253E+01  0.27637468809E+01  0.51100000000E-03 0.  1.
         12    1    3    3    0    0 -0.37318952763E+02 -0.57088773586E+01  0.14034496438E+02  0.40277321240E+02  0.00000000000E+00 0. -1.
</event>
<event>
 7    1  0.5935282E-013  0.5052885E+02  0.7816164E-02  0.1300439E+00
        -11   -1    0    0    0    0  0.00000000000E+00  0.00000000000E+00  0.45593999997E+02  0.45594000000E+02  0.51100000000E-03 0.  1.
         11   -1    0    0    0    0 -0.00000000000E+00 -0.00000000000E+00 -0.45593999997E+02  0.45594000000E+02  0.51100000000E-03 0. -1.
    9900012    2    1    2    0    0  0.34896482863E+01 -0.26860486220E+02 -0.30323311002E+02  0.50528849059E+02  0.29999967199E+02 0.  0.
        -12    1    1    2    0    0 -0.34896482863E+01  0.26860486220E+02  0.30323311002E+02  0.40659150941E+02  0.00000000000E+00 0.  1.
         11    1    3    3    0    0 -0.71338261788E+01 -0.97679962066E+01 -0.13031913419E+02  0.17780213538E+02  0.51100000000E-03 0. -1.
        -11    1    3    3    0    0 -0.51137261260E+01 -0.13965675375E+01 -0.15859697467E+01  0.55331632975E+01  0.51100000000E-03 0.  1.
        -12    1    3    3    0    0  0.15737200591E+02 -0.15695922476E+02 -0.15705427836E+02  0.27215472223E+02  0.00000000000E+00 0.  1.
</event>
<event>
 7    1  0.5935282E-013  0.5052886E+02  0.7816164E-02  0.1300439E+00
        -11   -1    0    0    0    0  0.00000000000E+00  0.00000000000E+00  0.45593999997E+02  0.45594000000E+02  0.51100000000E-03 0. -1.
         11   -1    0    0    0    0 -0.00000000000E+00 -0.00000000000E+00 -0.45593999997E+02  0.45594000000E+02  0.51100000000E-03 0.  1.
    9900012    2    1    2    0    0 -0.12328088875E+01  0.40100063765E+02  0.66053260776E+01  0.50528864934E+02  0.30000015453E+02 0.  0.
        -12    1    1    2    0    0  0.12328088875E+01 -0.40100063765E+02 -0.66053260776E+01  0.40659135066E+02  0.00000000000E+00 0.  1.
         11    1    3    3    0    0  0.16593734848E+01  0.48137595686E+01 -0.37995725640E+00  0.51058955457E+01  0.51100000000E-03 0. -1.
        -11    1    3    3    0    0 -0.11909408410E+02  0.32954770827E+02  0.83176912392E+01  0.36014370975E+02  0.51100000000E-03 0.  1.
        -12    1    3    3    0    0  0.90172260377E+01  0.23315333702E+01 -0.13324079052E+01  0.94085984130E+01  0.00000000000E+00 0.  1.
</event>
<event>
 7    1  0.5935282E-013  0.5052886E+02  0.7816164E-02  0.1300439E+00
        -11   -1    0    0    0    0  0.00000000000E+00  0.00000000000E+00  0.45593999997E+02  0.45594000000E+02  0.51100000000E-03 0.  1.
         11   -1    0    0    0    0 -0.00000000000E+00 -0.00000000000E+00 -0.45593999997E+02  0.45594000000E+02  0.51100000000E-03 0. -1.
    9900012    2    1    2    0    0 -0.82982964671E+01  0.15887364713E+02 -0.36495148834E+02  0.50528856253E+02  0.29999989066E+02 0.  0.
        -12    1    1    2    0    0  0.82982964671E+01 -0.15887364713E+02  0.36495148834E+02  0.40659143747E+02  0.00000000000E+00 0.  1.
         11    1    3    3    0    0 -0.47361450551E+01  0.76889248736E+01 -0.12356167986E+01  0.91146796339E+01  0.51100000000E-03 0. -1.
        -11    1    3    3    0    0  0.58187071975E+01  0.10547565635E+02 -0.19048603548E+02  0.22537918974E+02  0.51100000000E-03 0.  1.
        -12    1    3    3    0    0 -0.93808586095E+01 -0.23491257952E+01 -0.16210928488E+02  0.18876257645E+02  0.00000000000E+00 0.  1.
</event>
<event>
 7    1  0.5935282E-013  0.5052885E+02  0.7816164E-02  0.1300439E+00
        -11   -1    0    0    0    0  0.00000000000E+00  0.00000000000E+00  0.45593999997E+02  0.45594000000E+02  0.51100000000E-03 0.  1.
         11   -1    0    0    0    0 -0.00000000000E+00 -0.00000000000E+00 -0.45593999997E+02  0.45594000000E+02  0.51100000000E-03 0. -1.
    9900012    2    1    2    0    0  0.14670640964E+02 -0.15513394606E+02 -0.34601633795E+02  0.50528853676E+02  0.29999981233E+02 0.  0.
        -12    1    1    2    0    0 -0.14670640964E+02  0.15513394606E+02  0.34601633795E+02  0.40659146324E+02  0.00000000000E+00 0.  1.
         11    1    3    3    0    0  0.79969535801E+01 -0.13276735736E+00 -0.18812962326E+02  0.20442515635E+02  0.51100000000E-03 0. -1.
        -11    1    3    3    0    0  0.12318646210E+02 -0.44831413865E+01 -0.10155167558E+02  0.16582371047E+02  0.51100000000E-03 0.  1.
        -12    1    3    3    0    0 -0.56449588259E+01 -0.10897485863E+02 -0.56335039105E+01  0.13503966994E+02  0.00000000000E+00 0.  1.
</event>
<event>
 7    1  0.5935282E-013  0.5052885E+02  0.7816164E-02  0.1300439E+00
        -11   -1    0    0    0    0  0.00000000000E+00  0.00000000000E+00  0.45593999997E+02  0.45594000000E+02  0.51100000000E-03 0.  1.
         11   -1    0    0    0    0 -0.00000000000E+00 -0.00000000000E+00 -0.45593999997E+02  0.45594000000E+02  0.51100000000E-03 0. -1.
    9900012    2    1    2    0    0 -0.25073658729E+02 -0.31938737075E+02  0.20964710903E+01  0.50528849996E+02  0.29999970048E+02 0.  0.
        -12    1    1    2    0    0  0.25073658729E+02  0.31938737075E+02 -0.20964710903E+01  0.40659150004E+02  0.00000000000E+00 0.  1.
         11    1    3    3    0    0 -0.21594078600E+02 -0.11763732621E+02 -0.95420056231E+00  0.24608944202E+02  0.51100000000E-03 0. -1.
        -11    1    3    3    0    0 -0.33051370564E+01 -0.57475670285E+01  0.82492931924E+01  0.10583444437E+02  0.51100000000E-03 0.  1.
        -12    1    3    3    0    0 -0.17444307247E+00 -0.14427437426E+02 -0.51986215398E+01  0.15336461358E+02  0.00000000000E+00 0.  1.
</event>
<event>
 7    1  0.5935282E-013  0.5052886E+02  0.7816164E-02  0.1300439E+00
        -11   -1    0    0    0    0  0.00000000000E+00  0.00000000000E+00  0.45593999997E+02  0.45594000000E+02  0.51100000000E-03 0.  1.
         11   -1    0    0    0    0 -0.00000000000E+00 -0.00000000000E+00 -0.45593999997E+02  0.45594000000E+02  0.51100000000E-03 0. -1.
    9900012    2    1    2    0    0 -0.82160423156E+01 -0.77631174765E+01 -0.39056320908E+02  0.50528861456E+02  0.30000004881E+02 0.  0.
        -12    1    1    2    0    0  0.82160423156E+01  0.77631174765E+01  0.39056320908E+02  0.40659138544E+02  0.00000000000E+00 0.  1.
         11    1    3    3    0    0 -0.33166306649E+01  0.43382938380E+01 -0.65556268265E+00  0.55000540983E+01  0.51100000000E-03 0. -1.
        -11    1    3    3    0    0 -0.32439948232E+01 -0.16427238388E+02 -0.20148772228E+02  0.26198295480E+02  0.51100000000E-03 0.  1.
         12    1    3    3    0    0 -0.16554168276E+01  0.43258270733E+01 -0.18251985997E+02  0.18830511878E+02  0.00000000000E+00 0. -1.
</event>
<event>
 7    1  0.5935282E-013  0.5052886E+02  0.7816164E-02  0.1300439E+00
        -11   -1    0    0    0    0  0.00000000000E+00  0.00000000000E+00  0.45593999997E+02  0.45594000000E+02  0.51100000000E-03 0.  1.
         11   -1    0    0    0    0 -0.00000000000E+00 -0.00000000000E+00 -0.45593999997E+02  0.45594000000E+02  0.51100000000E-03 0. -1.
    9900012    2    1    2    0    0  0.14374044747E+02 -0.20940432179E+01 -0.37975884438E+02  0.50528856155E+02  0.29999988769E+02 0.  0.
        -12    1    1    2    0    0 -0.14374044747E+02  0.20940432179E+01  0.37975884438E+02  0.40659143845E+02  0.00000000000E+00 0.  1.
         11    1    3    3    0    0  0.10819190704E+02 -0.62643214611E+01 -0.18916545007E+02  0.22674485355E+02  0.51100000000E-03 0. -1.
        -11    1    3    3    0    0  0.67564655692E+01 -0.51857012095E+01 -0.14824762395E+02  0.17097219200E+02  0.51100000000E-03 0.  1.
        -12    1    3    3    0    0 -0.32016115260E+01  0.93559794526E+01 -0.42345770349E+01  0.10757151600E+02  0.00000000000E+00 0.  1.
</event>
<event>
 7    1  0.5935282E-013  0.5052887E+02  0.7816164E-02  0.1300439E+00
        -11   -1    0    0    0    0  0.00000000000E+00  0.00000000000E+00  0.45593999997E+02  0.45594000000E+02  0.51100000000E-03 0. -1.
         11   -1    0    0    0    0 -0.00000000000E+00 -0.00000000000E+00 -0.45593999997E+02  0.45594000000E+02  0.51100000000E-03 0.  1.
    9900012    2    1    2    0    0 -0.39371522024E+02  0.66624939966E+01  0.76589576626E+01  0.50528865661E+02  0.30000017662E+02 0.  0.
        -12    1    1    2    0    0  0.39371522024E+02 -0.66624939966E+01 -0.76589576626E+01  0.40659134339E+02  0.00000000000E+00 0.  1.
         11    1    3    3    0    0 -0.11525820551E+02  0.14354437471E+00  0.47296499282E+01  0.12459323138E+02  0.51100000000E-03 0. -1.
        -11    1    3    3    0    0 -0.10561139614E+02 -0.26303906475E+00  0.13155448048E+02  0.16872245645E+02  0.51100000000E-03 0.  1.
        -12    1    3    3    0    0 -0.17284561859E+02  0.67819886866E+01 -0.10226140313E+02  0.21197296877E+02  0.00000000000E+00 0.  1.
</event>
<event>
 7    1  0.5935282E-013  0.5052886E+02  0.7816164E-02  0.1300439E+00
        -11   -1    0    0    0    0  0.00000000000E+00  0.00000000000E+00  0.45593999997E+02  0.45594000000E+02  0.51100000000E-03 0.  1.
         11   -1    0    0    0    0 -0.00000000000E+00 -0.00000000000E+00 -0.45593999997E+02  0.45594000000E+02  0.51100000000E-03 0. -1.
    9900012    2    1    2    0    0 -0.19776893709E+02 -0.30315543068E+02  0.18520483796E+02  0.50528855932E+02  0.29999988091E+02 0.  0.
        -12    1    1    2    0    0  0.19776893709E+02  0.30315543068E+02 -0.18520483796E+02  0.40659144068E+02  0.00000000000E+00 0.  1.
         11    1    3    3    0    0 -0.11325854708E+02 -0.11876655441E+02 -0.12314470728E+01  0.16457411446E+02  0.51100000000E-03 0. -1.
        -11    1    3    3    0    0 -0.12687790242E+02 -0.81226436050E+01  0.56434467195E+01  0.16087443908E+02  0.51100000000E-03 0.  1.
         12    1    3    3    0    0  0.42367512414E+01 -0.10316244022E+02  0.14108484149E+02  0.17984000578E+02  0.00000000000E+00 0. -1.
</event>
<event>
 7    1  0.5935282E-013  0.5052886E+02  0.7816164E-02  0.1300439E+00
        -11   -1    0    0    0    0  0.00000000000E+00  0.00000000000E+00  0.45593999997E+02  0.45594000000E+02  0.51100000000E-03 0.  1.
         11   -1    0    0    0    0 -0.00000000000E+00 -0.00000000000E+00 -0.45593999997E+02  0.45594000000E+02  0.51100000000E-03 0. -1.
    9900012    2    1    2    0    0 -0.74331883090E+01 -0.22831109726E+02 -0.32812407080E+02  0.50528856894E+02  0.29999991015E+02 0.  0.
        -12    1    1    2    0    0  0.74331883090E+01  0.22831109726E+02  0.32812407080E+02  0.40659143106E+02  0.00000000000E+00 0.  1.
         11    1    3    3    0    0  0.64110080128E+01 -0.68949681538E+01 -0.23817152232E+01  0.97115486534E+01  0.51100000000E-03 0.  1.
        -11    1    3    3    0    0 -0.99103437343E+01 -0.19455189674E+02 -0.23118115923E+02  0.31798845927E+02  0.51100000000E-03 0. -1.
         12    1    3    3    0    0 -0.39338525875E+01  0.35190481020E+01 -0.73125759334E+01  0.90184623138E+01  0.00000000000E+00 0. -1.
</event>
<event>
 7    1  0.5935282E-013  0.5052886E+02  0.7816164E-02  0.1300439E+00
        -11   -1    0    0    0    0  0.00000000000E+00  0.00000000000E+00  0.45593999997E+02  0.45594000000E+02  0.51100000000E-03 0. -1.
         11   -1    0    0    0    0 -0.00000000000E+00 -0.00000000000E+00 -0.45593999997E+02  0.45594000000E+02  0.51100000000E-03 0.  1.
    9900012    2    1    2    0    0 -0.15527389125E+02 -0.87010099593E+01  0.36556239798E+02  0.50528855204E+02  0.29999985877E+02 0.  0.
        -12    1    1    2    0    0  0.15527389125E+02  0.87010099593E+01 -0.36556239798E+02  0.40659144796E+02  0.00000000000E+00 0.  1.
         11    1    3    3    0    0 -0.10293170761E+02 -0.11887038322E+02  0.29599415197E+02  0.33516808092E+02  0.51100000000E-03 0. -1.
        -11    1    3    3    0    0 -0.16555597962E+01  0.13754898820E+01  0.11064053568E+02  0.11271474272E+02  0.51100000000E-03 0.  1.
         12    1    3    3    0    0 -0.35786585684E+01  0.18105384808E+01 -0.41072289669E+01  0.57405728396E+01  0.00000000000E+00 0. -1.
</event>
<event>
 7    1  0.5935282E-013  0.5052886E+02  0.7816164E-02  0.1300439E+00
        -11   -1    0    0    0    0  0.00000000000E+00  0.00000000000E+00  0.45593999997E+02  0.45594000000E+02  0.51100000000E-03 0.  1.
         11   -1    0    0    0    0 -0.00000000000E+00 -0.00000000000E+00 -0.45593999997E+02  0.45594000000E+02  0.51100000000E-03 0. -1.
    9900012    2    1    2    0    0  0.19710454626E+02  0.34652604323E+02 -0.79912786163E+01  0.50528861521E+02  0.30000005080E+02 0.  0.
        -12    1    1    2    0    0 -0.19710454626E+02 -0.34652604323E+02  0.79912786163E+01  0.40659138479E+02  0.00000000000E+00 0.  1.
         11    1    3    3    0    0  0.18300877060E+02  0.21311034899E+02  0.22348600184E+01  0.28179370277E+02  0.51100000000E-03 0. -1.
        -11    1    3    3    0    0  0.32411287946E+01  0.12051088920E+02 -0.62995407860E+00  0.12495219183E+02  0.51100000000E-03 0.  1.
         12    1    3    3    0    0 -0.18315512285E+01  0.12904805038E+01 -0.95961845561E+01  0.98542720618E+01  0.00000000000E+00 0. -1.
</event>
<event>
 7    1  0.5935282E-013  0.5052886E+02  0.7816164E-02  0.1300439E+00
        -11   -1    0    0    0    0  0.00000000000E+00  0.00000000000E+00  0.45593999997E+02  0.45594000000E+02  0.51100000000E-03 0. -1.
         11   -1    0    0    0    0 -0.00000000000E+00 -0.00000000000E+00 -0.45593999997E+02  0.45594000000E+02  0.51100000000E-03 0.  1.
    9900012    2    1    2    0    0 -0.14591222744E+02  0.35000840862E+02  0.14669794254E+02  0.50528861966E+02  0.30000006431E+02 0.  0.
        -12    1    1    2    0    0  0.14591222744E+02 -0.35000840862E+02 -0.14669794254E+02  0.40659138034E+02  0.00000000000E+00 0.  1.
         11    1    3    3    0    0 -0.19321216994E+02  0.18860210167E+02  0.53619676760E+01  0.27527579831E+02  0.51100000000E-03 0. -1.
        -11    1    3    3    0    0  0.39714178231E+01  0.96714347550E+01 -0.13181406727E+01  0.10537851054E+02  0.51100000000E-03 0.  1.
        -12    1    3    3    0    0  0.75857642727E+00  0.64691959398E+01  0.10625967250E+02  0.12463431081E+02  0.00000000000E+00 0.  1.
</event>
<event>
 7    1  0.5935282E-013  0.5052885E+02  0.7816164E-02  0.1300439E+00
        -11   -1    0    0    0    0  0.00000000000E+00  0.00000000000E+00  0.45593999997E+02  0.45594000000E+02  0.51100000000E-03 0.  1.
         11   -1    0    0    0    0 -0.00000000000E+00 -0.00000000000E+00 -0.45593999997E+02  0.45594000000E+02  0.51100000000E-03 0. -1.
    9900012    2    1    2    0    0 -0.21511682924E+02 -0.30438890100E+02 -0.16244636975E+02  0.50528846502E+02  0.29999959427E+02 0.  0.
        -12    1    1    2    0    0  0.21511682924E+02  0.30438890100E+02  0.16244636975E+02  0.40659153498E+02  0.00000000000E+00 0.  1.
         11    1    3    3    0    0 -0.60572107026E+01 -0.56332951029E+01 -0.57530166714E+00  0.82918506669E+01  0.51100000000E-03 0. -1.
        -11    1    3    3    0    0 -0.12650274434E+02  0.10690540892E+01 -0.83714108026E+01  0.15206999671E+02  0.51100000000E-03 0.  1.
         12    1    3    3    0    0 -0.28041977879E+01 -0.25874649086E+02 -0.72979245055E+01  0.27029996164E+02  0.00000000000E+00 0. -1.
</event>
<event>
 7    1  0.5935282E-013  0.5052884E+02  0.7816164E-02  0.1300439E+00
        -11   -1    0    0    0    0  0.00000000000E+00  0.00000000000E+00  0.45593999997E+02  0.45594000000E+02  0.51100000000E-03 0. -1.
         11   -1    0    0    0    0 -0.00000000000E+00 -0.00000000000E+00 -0.45593999997E+02  0.45594000000E+02  0.51100000000E-03 0.  1.
    9900012    2    1    2    0    0 -0.35036185297E+02  0.17716350756E+00  0.20630106583E+02  0.50528844024E+02  0.29999951895E+02 0.  0.
        -12    1    1    2    0    0  0.35036185297E+02 -0.17716350756E+00 -0.20630106583E+02  0.40659155976E+02  0.00000000000E+00 0.  1.
         11    1    3    3    0    0  0.27853291848E+00 -0.18128683705E+01  0.36538899490E+01  0.40883963037E+01  0.51100000000E-03 0. -1.
        -11    1    3    3    0    0  0.25234691343E+01  0.15033336565E+01  0.65663679291E+01  0.71934064667E+01  0.51100000000E-03 0.  1.
        -12    1    3    3    0    0 -0.37838187350E+02  0.48669822151E+00  0.10409848704E+02  0.39247041253E+02  0.00000000000E+00 0.  1.
</event>
<event>
 7    1  0.5935282E-013  0.5052885E+02  0.7816164E-02  0.1300439E+00
        -11   -1    0    0    0    0  0.00000000000E+00  0.00000000000E+00  0.45593999997E+02  0.45594000000E+02  0.51100000000E-03 0.  1.
         11   -1    0    0    0    0 -0.00000000000E+00 -0.00000000000E+00 -0.45593999997E+02  0.45594000000E+02  0.51100000000E-03 0. -1.
    9900012    2    1    2    0    0  0.20604949329E+02  0.26865973517E+02 -0.22512702612E+02  0.50528852828E+02  0.29999978657E+02 0.  0.
        -12    1    1    2    0    0 -0.20604949329E+02 -0.26865973517E+02  0.22512702612E+02  0.40659147172E+02  0.00000000000E+00 0.  1.
         11    1    3    3    0    0  0.34928797295E+01  0.32017094430E+00  0.18846019812E+01  0.39817638211E+01  0.51100000000E-03 0. -1.
        -11    1    3    3    0    0 -0.57654479498E+01  0.20410991976E+01 -0.38715725103E+01  0.72384770470E+01  0.51100000000E-03 0.  1.
         12    1    3    3    0    0  0.22877517549E+02  0.24504703375E+02 -0.20525732082E+02  0.39308611960E+02  0.00000000000E+00 0. -1.
</event>
<event>
 7    1  0.5935282E-013  0.5052885E+02  0.7816164E-02  0.1300439E+00
        -11   -1    0    0    0    0  0.00000000000E+00  0.00000000000E+00  0.45593999997E+02  0.45594000000E+02  0.51100000000E-03 0.  1.
         11   -1    0    0    0    0 -0.00000000000E+00 -0.00000000000E+00 -0.45593999997E+02  0.45594000000E+02  0.51100000000E-03 0. -1.
    9900012    2    1    2    0    0 -0.33055178846E+02 -0.52716769231E+01 -0.23080970235E+02  0.50528848347E+02  0.29999965036E+02 0.  0.
        -12    1    1    2    0    0  0.33055178846E+02  0.52716769231E+01  0.23080970235E+02  0.40659151653E+02  0.00000000000E+00 0.  1.
         11    1    3    3    0    0 -0.20167338084E+02  0.53708298754E+01 -0.25580274351E+02  0.33013902754E+02  0.51100000000E-03 0. -1.
        -11    1    3    3    0    0 -0.66846021996E+01 -0.84074344535E+01  0.16446985491E+01  0.10866181217E+02  0.51100000000E-03 0.  1.
        -12    1    3    3    0    0 -0.62032385629E+01 -0.22350723450E+01  0.85460556699E+00  0.66487643762E+01  0.00000000000E+00 0.  1.
</event>
<event>
 7    1  0.5935282E-013  0.5052883E+02  0.7816164E-02  0.1300439E+00
        -11   -1    0    0    0    0  0.00000000000E+00  0.00000000000E+00  0.45593999997E+02  0.45594000000E+02  0.51100000000E-03 0.  1.
         11   -1    0    0    0    0 -0.00000000000E+00 -0.00000000000E+00 -0.45593999997E+02  0.45594000000E+02  0.51100000000E-03 0. -1.
    9900012    2    1    2    0    0 -0.53205966529E+01 -0.36993278756E+02 -0.16011132879E+02  0.50528833777E+02  0.29999920750E+02 0.  0.
        -12    1    1    2    0    0  0.53205966529E+01  0.36993278756E+02  0.16011132879E+02  0.40659166223E+02  0.00000000000E+00 0.  1.
         11    1    3    3    0    0  0.73580803845E+01 -0.20304306827E+02 -0.44658418015E+01  0.22053343645E+02  0.51100000000E-03 0. -1.
        -11    1    3    3    0    0  0.74934037786E+00  0.18399962399E+01  0.11612901821E+01  0.23012371266E+01  0.51100000000E-03 0.  1.
         12    1    3    3    0    0 -0.13428017415E+02 -0.18528968169E+02 -0.12706581260E+02  0.26174253006E+02  0.00000000000E+00 0. -1.
</event>
<event>
 7    1  0.5935282E-013  0.5052887E+02  0.7816164E-02  0.1300439E+00
        -11   -1    0    0    0    0  0.00000000000E+00  0.00000000000E+00  0.45593999997E+02  0.45594000000E+02  0.51100000000E-03 0. -1.
         11   -1    0    0    0    0 -0.00000000000E+00 -0.00000000000E+00 -0.45593999997E+02  0.45594000000E+02  0.51100000000E-03 0.  1.
    9900012    2    1    2    0    0  0.42597888674E+01 -0.38538901797E+02 -0.12238139319E+02  0.50528870559E+02  0.30000032552E+02 0.  0.
        -12    1    1    2    0    0 -0.42597888674E+01  0.38538901797E+02  0.12238139319E+02  0.40659129441E+02  0.00000000000E+00 0.  1.
         11    1    3    3    0    0 -0.38024757166E+01 -0.12183664525E+02 -0.13313317111E+02  0.18443018071E+02  0.51100000000E-03 0. -1.
        -11    1    3    3    0    0  0.10815306788E+02 -0.94105092599E+01 -0.24946472049E+01  0.14551694416E+02  0.51100000000E-03 0.  1.
         12    1    3    3    0    0 -0.27530422037E+01 -0.16944728012E+02  0.35698249967E+01  0.17534158072E+02  0.00000000000E+00 0. -1.
</event>
<event>
 7    1  0.5935282E-013  0.5052886E+02  0.7816164E-02  0.1300439E+00
        -11   -1    0    0    0    0  0.00000000000E+00  0.00000000000E+00  0.45593999997E+02  0.45594000000E+02  0.51100000000E-03 0.  1.
         11   -1    0    0    0    0 -0.00000000000E+00 -0.00000000000E+00 -0.45593999997E+02  0.45594000000E+02  0.51100000000E-03 0. -1.
    9900012    2    1    2    0    0 -0.10617345176E+02  0.39155668639E+02 -0.26965157396E+01  0.50528860778E+02  0.30000002821E+02 0.  0.
        -12    1    1    2    0    0  0.10617345176E+02 -0.39155668639E+02  0.26965157396E+01  0.40659139222E+02  0.00000000000E+00 0.  1.
         11    1    3    3    0    0  0.66783284243E+00  0.81198889671E+01  0.48816878120E+01  0.94978667973E+01  0.51100000000E-03 0. -1.
        -11    1    3    3    0    0  0.43363638673E+01  0.62425095101E+01  0.50458330150E+01  0.91232344949E+01  0.51100000000E-03 0.  1.
        -12    1    3    3    0    0 -0.15621541885E+02  0.24793270162E+02 -0.12624036567E+02  0.31907759486E+02  0.00000000000E+00 0.  1.
</event>
<event>
 7    1  0.5935282E-013  0.5052887E+02  0.7816164E-02  0.1300439E+00
        -11   -1    0    0    0    0  0.00000000000E+00  0.00000000000E+00  0.45593999997E+02  0.45594000000E+02  0.51100000000E-03 0. -1.
         11   -1    0    0    0    0 -0.00000000000E+00 -0.00000000000E+00 -0.45593999997E+02  0.45594000000E+02  0.51100000000E-03 0.  1.
    9900012    2    1    2    0    0 -0.31615102622E+01 -0.28341855340E+02  0.28981178040E+02  0.50528873204E+02  0.30000040591E+02 0.  0.
        -12    1    1    2    0    0  0.31615102622E+01  0.28341855340E+02 -0.28981178040E+02  0.40659126796E+02  0.00000000000E+00 0.  1.
         11    1    3    3    0    0 -0.78758524110E+01 -0.22351295630E+02  0.18244580414E+02  0.29907761238E+02  0.51100000000E-03 0. -1.
        -11    1    3    3    0    0 -0.44958319120E+01 -0.67254074114E+01  0.32073065895E+01  0.87023229801E+01  0.51100000000E-03 0.  1.
         12    1    3    3    0    0  0.92101740608E+01  0.73484770142E+00  0.75292910361E+01  0.11918788985E+02  0.00000000000E+00 0. -1.
</event>
<event>
 7    1  0.5935282E-013  0.5052886E+02  0.7816164E-02  0.1300439E+00
        -11   -1    0    0    0    0  0.00000000000E+00  0.00000000000E+00  0.45593999997E+02  0.45594000000E+02  0.51100000000E-03 0.  1.
         11   -1    0    0    0    0 -0.00000000000E+00 -0.00000000000E+00 -0.45593999997E+02  0.45594000000E+02  0.51100000000E-03 0. -1.
    9900012    2    1    2    0    0 -0.18779003168E+02  0.28462130754E+02 -0.22145474037E+02  0.50528857519E+02  0.29999992914E+02 0.  0.
        -12    1    1    2    0    0  0.18779003168E+02 -0.28462130754E+02  0.22145474037E+02  0.40659142481E+02  0.00000000000E+00 0.  1.
         11    1    3    3    0    0 -0.13415470751E+02  0.53582490137E+01 -0.85395626135E+01  0.16781234098E+02  0.51100000000E-03 0. -1.
        -11    1    3    3    0    0 -0.99388252686E+01  0.42895450401E+01 -0.83872277575E+01  0.13694014535E+02  0.51100000000E-03 0.  1.
        -12    1    3    3    0    0  0.45752928519E+01  0.18814336700E+02 -0.52186836657E+01  0.20053608886E+02  0.00000000000E+00 0.  1.
</event>
<event>
 7    1  0.5935282E-013  0.5052883E+02  0.7816164E-02  0.1300439E+00
        -11   -1    0    0    0    0  0.00000000000E+00  0.00000000000E+00  0.45593999997E+02  0.45594000000E+02  0.51100000000E-03 0.  1.
         11   -1    0    0    0    0 -0.00000000000E+00 -0.00000000000E+00 -0.45593999997E+02  0.45594000000E+02  0.51100000000E-03 0. -1.
    9900012    2    1    2    0    0  0.21719478300E+02  0.33714283492E+02  0.66917253975E+01  0.50528833287E+02  0.29999919260E+02 0.  0.
        -12    1    1    2    0    0 -0.21719478300E+02 -0.33714283492E+02 -0.66917253975E+01  0.40659166713E+02  0.00000000000E+00 0.  1.
         11    1    3    3    0    0  0.10067246567E+02  0.59726582897E+01  0.10597879547E+02  0.15790413283E+02  0.51100000000E-03 0. -1.
        -11    1    3    3    0    0  0.73565636206E+01  0.23595684192E+02  0.37829748528E+01  0.25003724518E+02  0.51100000000E-03 0.  1.
         12    1    3    3    0    0  0.42956681123E+01  0.41459410102E+01 -0.76891290028E+01  0.97346954864E+01  0.00000000000E+00 0. -1.
</event>
<event>
 7    1  0.5935282E-013  0.5052886E+02  0.7816164E-02  0.1300439E+00
        -11   -1    0    0    0    0  0.00000000000E+00  0.00000000000E+00  0.45593999997E+02  0.45594000000E+02  0.51100000000E-03 0.  1.
         11   -1    0    0    0    0 -0.00000000000E+00 -0.00000000000E+00 -0.45593999997E+02  0.45594000000E+02  0.51100000000E-03 0. -1.
    9900012    2    1    2    0    0  0.10419201595E+02 -0.31183058451E+02 -0.23921177825E+02  0.50528860255E+02  0.30000001231E+02 0.  0.
        -12    1    1    2    0    0 -0.10419201595E+02  0.31183058451E+02  0.23921177825E+02  0.40659139745E+02  0.00000000000E+00 0.  1.
         11    1    3    3    0    0  0.49973859897E+01 -0.23897092847E+02 -0.13906117525E+02  0.28096708315E+02  0.51100000000E-03 0. -1.
        -11    1    3    3    0    0 -0.50274628923E+01 -0.35081797997E+01  0.16229975813E+01  0.63416740732E+01  0.51100000000E-03 0.  1.
        -12    1    3    3    0    0  0.10449278498E+02 -0.37777858042E+01 -0.11638057882E+02  0.16090477867E+02  0.00000000000E+00 0.  1.
</event>
<event>
 7    1  0.5935282E-013  0.5052886E+02  0.7816164E-02  0.1300439E+00
        -11   -1    0    0    0    0  0.00000000000E+00  0.00000000000E+00  0.45593999997E+02  0.45594000000E+02  0.51100000000E-03 0. -1.
         11   -1    0    0    0    0 -0.00000000000E+00 -0.00000000000E+00 -0.45593999997E+02  0.45594000000E+02  0.51100000000E-03 0.  1.
    9900012    2    1    2    0    0 -0.34063864866E+02 -0.17122795052E+02  0.14129007363E+02  0.50528857743E+02  0.29999993595E+02 0.  0.
        -12    1    1    2    0    0  0.34063864866E+02  0.17122795052E+02 -0.14129007363E+02  0.40659142257E+02  0.00000000000E+00 0.  1.
         11    1    3    3    0    0 -0.15730254437E+02 -0.10235745979E+02 -0.57832528794E+01  0.19638162198E+02  0.51100000000E-03 0. -1.
        -11    1    3    3    0    0 -0.39455642859E+01  0.24071580625E+01  0.10203911417E+02  0.11201861272E+02  0.51100000000E-03 0.  1.
        -12    1    3    3    0    0 -0.14388046143E+02 -0.92942071360E+01  0.97083488255E+01  0.19688834273E+02  0.00000000000E+00 0.  1.
</event>
<event>
 7    1  0.5935282E-013  0.5052887E+02  0.7816164E-02  0.1300439E+00
        -11   -1    0    0    0    0  0.00000000000E+00  0.00000000000E+00  0.45593999997E+02  0.45594000000E+02  0.51100000000E-03 0.  1.
         11   -1    0    0    0    0 -0.00000000000E+00 -0.00000000000E+00 -0.45593999997E+02  0.45594000000E+02  0.51100000000E-03 0. -1.
    9900012    2    1    2    0    0  0.22827339894E+02 -0.27065040041E+02 -0.19989029573E+02  0.50528866434E+02  0.30000020013E+02 0.  0.
        -12    1    1    2    0    0 -0.22827339894E+02  0.27065040041E+02  0.19989029573E+02  0.40659133566E+02  0.00000000000E+00 0.  1.
         11    1    3    3    0    0  0.21135668272E+01 -0.33814771891E+01 -0.11360601852E+01  0.41463460684E+01  0.51100000000E-03 0. -1.
        -11    1    3    3    0    0 -0.41430432111E+01  0.21369689015E+01 -0.74191266814E+01  0.87621278301E+01  0.51100000000E-03 0.  1.
        -12    1    3    3    0    0  0.24856816278E+02 -0.25820531753E+02 -0.11433842706E+02  0.37620392536E+02  0.00000000000E+00 0.  1.
</event>
<event>
 7    1  0.5935282E-013  0.5052885E+02  0.7816164E-02  0.1300439E+00
        -11   -1    0    0    0    0  0.00000000000E+00  0.00000000000E+00  0.45593999997E+02  0.45594000000E+02  0.51100000000E-03 0.  1.
         11   -1    0    0    0    0 -0.00000000000E+00 -0.00000000000E+00 -0.45593999997E+02  0.45594000000E+02  0.51100000000E-03 0. -1.
    9900012    2    1    2    0    0  0.10477264446E+02 -0.23689248435E+02 -0.31340278206E+02  0.50528848512E+02  0.29999965538E+02 0.  0.
        -12    1    1    2    0    0 -0.10477264446E+02  0.23689248435E+02  0.31340278206E+02  0.40659151488E+02  0.00000000000E+00 0.  1.
         11    1    3    3    0    0  0.10303480694E+02 -0.99012778395E+01 -0.57388846227E+01  0.15399084851E+02  0.51100000000E-03 0. -1.
        -11    1    3    3    0    0  0.62993425710E+01  0.12512217411E+01 -0.24997304976E+01  0.68917287739E+01  0.51100000000E-03 0.  1.
         12    1    3    3    0    0 -0.61255588195E+01 -0.15039192336E+02 -0.23101663086E+02  0.28238034887E+02  0.00000000000E+00 0. -1.
</event>
<event>
 7    1  0.5935282E-013  0.5052883E+02  0.7816164E-02  0.1300439E+00
        -11   -1    0    0    0    0  0.00000000000E+00  0.00000000000E+00  0.45593999997E+02  0.45594000000E+02  0.51100000000E-03 0. -1.
         11   -1    0    0    0    0 -0.00000000000E+00 -0.00000000000E+00 -0.45593999997E+02  0.45594000000E+02  0.51100000000E-03 0.  1.
    9900012    2    1    2    0    0  0.13817217229E+02 -0.68918819385E+01  0.37613226829E+02  0.50528826852E+02  0.29999899698E+02 0.  0.
        -12    1    1    2    0    0 -0.13817217229E+02  0.68918819385E+01 -0.37613226829E+02  0.40659173148E+02  0.00000000000E+00 0.  1.
         11    1    3    3    0    0 -0.30318777959E+01 -0.45019762203E+01  0.20253498900E+02  0.20968173283E+02  0.51100000000E-03 0. -1.
        -11    1    3    3    0    0 -0.26694032549E+01 -0.73298035022E+00  0.67224530264E+01  0.72700996475E+01  0.51100000000E-03 0.  1.
         12    1    3    3    0    0  0.19518498280E+02 -0.16569253680E+01  0.10637274902E+02  0.22290553922E+02  0.00000000000E+00 0. -1.
</event>
<event>
 7    1  0.5935282E-013  0.5052886E+02  0.7816164E-02  0.1300439E+00
        -11   -1    0    0    0    0  0.00000000000E+00  0.00000000000E+00  0.45593999997E+02  0.45594000000E+02  0.51100000000E-03 0.  1.
         11   -1    0    0    0    0 -0.00000000000E+00 -0.00000000000E+00 -0.45593999997E+02  0.45594000000E+02  0.51100000000E-03 0. -1.
    9900012    2    1    2    0    0  0.11401866751E+02  0.26321069563E+02 -0.28816050327E+02  0.50528855583E+02  0.29999987029E+02 0.  0.
        -12    1    1    2    0    0 -0.11401866751E+02 -0.26321069563E+02  0.28816050327E+02  0.40659144417E+02  0.00000000000E+00 0.  1.
         11    1    3    3    0    0  0.20209178758E+00  0.20558482957E+01 -0.53577066868E+01  0.57421576527E+01  0.51100000000E-03 0. -1.
        -11    1    3    3    0    0  0.16625731705E+02  0.95035966905E+01 -0.21730837037E+02  0.28964850826E+02  0.51100000000E-03 0.  1.
        -12    1    3    3    0    0 -0.54259567425E+01  0.14761624576E+02 -0.17275066031E+01  0.15821847104E+02  0.00000000000E+00 0.  1.
</event>
<event>
 7    1  0.5935282E-013  0.5052886E+02  0.7816164E-02  0.1300439E+00
        -11   -1    0    0    0    0  0.00000000000E+00  0.00000000000E+00  0.45593999997E+02  0.45594000000E+02  0.51100000000E-03 0.  1.
         11   -1    0    0    0    0 -0.00000000000E+00 -0.00000000000E+00 -0.45593999997E+02  0.45594000000E+02  0.51100000000E-03 0. -1.
    9900012    2    1    2    0    0  0.37531935168E+02  0.95459661649E+01 -0.12385227945E+02  0.50528862051E+02  0.30000006691E+02 0.  0.
        -12    1    1    2    0    0 -0.37531935168E+02 -0.95459661649E+01  0.12385227945E+02  0.40659137949E+02  0.00000000000E+00 0.  1.
         11    1    3    3    0    0  0.13169042097E+02  0.14521673990E+02 -0.14500568189E+01  0.19657195890E+02  0.51100000000E-03 0. -1.
        -11    1    3    3    0    0  0.39873054185E+01 -0.18388832408E+01  0.35744565709E+01  0.56618756708E+01  0.51100000000E-03 0.  1.
         12    1    3    3    0    0  0.20375587653E+02 -0.31368245842E+01 -0.14509627697E+02  0.25209790490E+02  0.00000000000E+00 0. -1.
</event>
<event>
 7    1  0.5935282E-013  0.5052886E+02  0.7816164E-02  0.1300439E+00
        -11   -1    0    0    0    0  0.00000000000E+00  0.00000000000E+00  0.45593999997E+02  0.45594000000E+02  0.51100000000E-03 0. -1.
         11   -1    0    0    0    0 -0.00000000000E+00 -0.00000000000E+00 -0.45593999997E+02  0.45594000000E+02  0.51100000000E-03 0.  1.
    9900012    2    1    2    0    0  0.25752229064E+02 -0.31438922317E+02  0.12579616518E+01  0.50528860735E+02  0.30000002691E+02 0.  0.
        -12    1    1    2    0    0 -0.25752229064E+02  0.31438922317E+02 -0.12579616518E+01  0.40659139265E+02  0.00000000000E+00 0.  1.
         11    1    3    3    0    0  0.12871523738E+02 -0.67762712105E+01 -0.50406202920E+01  0.15394863691E+02  0.51100000000E-03 0. -1.
        -11    1    3    3    0    0  0.13348059385E+02 -0.12122834024E+02 -0.44936119168E+01  0.18582958388E+02  0.51100000000E-03 0.  1.
         12    1    3    3    0    0 -0.46735405993E+00 -0.12539817082E+02  0.10792193861E+02  0.16551038656E+02  0.00000000000E+00 0. -1.
</event>
<event>
 7    1  0.5935282E-013  0.5052886E+02  0.7816164E-02  0.1300439E+00
        -11   -1    0    0    0    0  0.00000000000E+00  0.00000000000E+00  0.45593999997E+02  0.45594000000E+02  0.51100000000E-03 0. -1.
         11   -1    0    0    0    0 -0.00000000000E+00 -0.00000000000E+00 -0.45593999997E+02  0.45594000000E+02  0.51100000000E-03 0.  1.
    9900012    2    1    2    0    0 -0.34886954104E+02 -0.53291716032E+00  0.20875385442E+02  0.50528864683E+02  0.30000014691E+02 0.  0.
        -12    1    1    2    0    0  0.34886954104E+02  0.53291716032E+00 -0.20875385442E+02  0.40659135317E+02  0.00000000000E+00 0.  1.
         11    1    3    3    0    0 -0.24035509180E+02  0.38764019798E+01  0.35455261324E+01  0.24602905309E+02  0.51100000000E-03 0. -1.
        -11    1    3    3    0    0 -0.13546059241E+02 -0.79651080117E+00  0.84986942225E+01  0.16011182160E+02  0.51100000000E-03 0.  1.
        -12    1    3    3    0    0  0.26946143165E+01 -0.36128083390E+01  0.88311650871E+01  0.99147772140E+01  0.00000000000E+00 0.  1.
</event>
<event>
 7    1  0.5935282E-013  0.5052886E+02  0.7816164E-02  0.1300439E+00
        -11   -1    0    0    0    0  0.00000000000E+00  0.00000000000E+00  0.45593999997E+02  0.45594000000E+02  0.51100000000E-03 0.  1.
         11   -1    0    0    0    0 -0.00000000000E+00 -0.00000000000E+00 -0.45593999997E+02  0.45594000000E+02  0.51100000000E-03 0. -1.
    9900012    2    1    2    0    0 -0.28482925447E+02  0.19712216392E+01 -0.28948277639E+02  0.50528861604E+02  0.30000005333E+02 0.  0.
        -12    1    1    2    0    0  0.28482925447E+02 -0.19712216392E+01  0.28948277639E+02  0.40659138396E+02  0.00000000000E+00 0.  1.
         11    1    3    3    0    0 -0.20498788698E+01 -0.66141426968E+01 -0.17950964090E+01  0.71534088638E+01  0.51100000000E-03 0. -1.
        -11    1    3    3    0    0 -0.16339944344E+02 -0.11454900216E+01 -0.23914303576E+02  0.28986200929E+02  0.51100000000E-03 0.  1.
        -12    1    3    3    0    0 -0.10093102234E+02  0.97308543575E+01 -0.32388776545E+01  0.14389251811E+02  0.00000000000E+00 0.  1.
</event>
<event>
 7    1  0.5935282E-013  0.5052885E+02  0.7816164E-02  0.1300439E+00
        -11   -1    0    0    0    0  0.00000000000E+00  0.00000000000E+00  0.45593999997E+02  0.45594000000E+02  0.51100000000E-03 0.  1.
         11   -1    0    0    0    0 -0.00000000000E+00 -0.00000000000E+00 -0.45593999997E+02  0.45594000000E+02  0.51100000000E-03 0. -1.
    9900012    2    1    2    0    0  0.63102850786E+01 -0.32085371005E+02  0.24163514798E+02  0.50528853702E+02  0.29999981313E+02 0.  0.
        -12    1    1    2    0    0 -0.63102850786E+01  0.32085371005E+02 -0.24163514798E+02  0.40659146298E+02  0.00000000000E+00 0.  1.
         11    1    3    3    0    0 -0.57827751877E+01 -0.73995970545E+01 -0.16803295682E+01  0.95403371617E+01  0.51100000000E-03 0. -1.
        -11    1    3    3    0    0  0.12816489310E+01 -0.26499088155E+01 -0.22335172552E+01  0.36950291343E+01  0.51100000000E-03 0.  1.
        -12    1    3    3    0    0  0.10811411335E+02 -0.22035865135E+02  0.28077361621E+02  0.37293487406E+02  0.00000000000E+00 0.  1.
</event>
<event>
 7    1  0.5935282E-013  0.5052886E+02  0.7816164E-02  0.1300439E+00
        -11   -1    0    0    0    0  0.00000000000E+00  0.00000000000E+00  0.45593999997E+02  0.45594000000E+02  0.51100000000E-03 0.  1.
         11   -1    0    0    0    0 -0.00000000000E+00 -0.00000000000E+00 -0.45593999997E+02  0.45594000000E+02  0.51100000000E-03 0. -1.
    9900012    2    1    2    0    0 -0.14607415835E+02  0.28335623043E+02 -0.25236509467E+02  0.50528861536E+02  0.30000005124E+02 0.  0.
        -12    1    1    2    0    0  0.14607415835E+02 -0.28335623043E+02  0.25236509467E+02  0.40659138464E+02  0.00000000000E+00 0.  1.
         11    1    3    3    0    0 -0.10398859987E+02 -0.19087661723E+01 -0.92788121414E+01  0.14066841591E+02  0.51100000000E-03 0.  1.
        -11    1    3    3    0    0 -0.22775296404E+01  0.76630620735E+01 -0.10416663570E+02  0.13130747953E+02  0.51100000000E-03 0. -1.
         12    1    3    3    0    0 -0.19310262077E+01  0.22581327141E+02 -0.55410337556E+01  0.23331271992E+02  0.00000000000E+00 0. -1.
</event>
<event>
 7    1  0.5935282E-013  0.5052886E+02  0.7816164E-02  0.1300439E+00
        -11   -1    0    0    0    0  0.00000000000E+00  0.00000000000E+00  0.45593999997E+02  0.45594000000E+02  0.51100000000E-03 0. -1.
         11   -1    0    0    0    0 -0.00000000000E+00 -0.00000000000E+00 -0.45593999997E+02  0.45594000000E+02  0.51100000000E-03 0.  1.
    9900012    2    1    2    0    0 -0.19855908602E+02  0.31964583462E+02  0.15400458240E+02  0.50528858146E+02  0.29999994819E+02 0.  0.
        -12    1    1    2    0    0  0.19855908602E+02 -0.31964583462E+02 -0.15400458240E+02  0.40659141854E+02  0.00000000000E+00 0.  1.
         11    1    3    3    0    0 -0.13835719695E+02  0.23495154619E+02  0.11302337642E+02  0.29515966298E+02  0.51100000000E-03 0. -1.
        -11    1    3    3    0    0 -0.11901253442E+02  0.25544707302E+01  0.14329602565E+01  0.12256366899E+02  0.51100000000E-03 0.  1.
         12    1    3    3    0    0  0.58810645347E+01  0.59149581130E+01  0.26651603415E+01  0.87565249492E+01  0.00000000000E+00 0. -1.
</event>
<event>
 7    1  0.5935282E-013  0.5052885E+02  0.7816164E-02  0.1300439E+00
        -11   -1    0    0    0    0  0.00000000000E+00  0.00000000000E+00  0.45593999997E+02  0.45594000000E+02  0.51100000000E-03 0.  1.
         11   -1    0    0    0    0 -0.00000000000E+00 -0.00000000000E+00 -0.45593999997E+02  0.45594000000E+02  0.51100000000E-03 0. -1.
    9900012    2    1    2    0    0 -0.86620866085E+01  0.39691140802E+02 -0.16576896345E+01  0.50528851737E+02  0.29999975339E+02 0.  0.
        -12    1    1    2    0    0  0.86620866085E+01 -0.39691140802E+02  0.16576896345E+01  0.40659148263E+02  0.00000000000E+00 0.  1.
         11    1    3    3    0    0  0.25612217970E+00  0.17653919471E+02  0.65997995232E+01  0.18848974117E+02  0.51100000000E-03 0. -1.
        -11    1    3    3    0    0  0.30462924936E+01  0.14123143493E+02  0.12000677515E+01  0.14497697850E+02  0.51100000000E-03 0.  1.
         12    1    3    3    0    0 -0.11964501282E+02  0.79140778379E+01 -0.94575569091E+01  0.17182179770E+02  0.00000000000E+00 0. -1.
</event>
<event>
 7    1  0.5935282E-013  0.5052894E+02  0.7816164E-02  0.1300439E+00
        -11   -1    0    0    0    0  0.00000000000E+00  0.00000000000E+00  0.45593999997E+02  0.45594000000E+02  0.51100000000E-03 0.  1.
         11   -1    0    0    0    0 -0.00000000000E+00 -0.00000000000E+00 -0.45593999997E+02  0.45594000000E+02  0.51100000000E-03 0. -1.
    9900012    2    1    2    0    0  0.34642245168E+02 -0.23022240089E+01 -0.21160663915E+02  0.50528940948E+02  0.30000246506E+02 0.  0.
        -12    1    1    2    0    0 -0.34642245168E+02  0.23022240089E+01  0.21160663915E+02  0.40659059052E+02  0.00000000000E+00 0.  1.
         11    1    3    3    0    0  0.21174994541E+02 -0.80236347647E+00 -0.16038304576E+02  0.26575390776E+02  0.51100000000E-03 0. -1.
        -11    1    3    3    0    0  0.17401935060E+02 -0.41375055677E+01 -0.64819940409E+01  0.19025313221E+02  0.51100000000E-03 0.  1.
        -12    1    3    3    0    0 -0.39346844333E+01  0.26376450353E+01  0.13596347026E+01  0.49282369511E+01  0.00000000000E+00 0.  1.
</event>
<event>
 7    1  0.5935282E-013  0.5052887E+02  0.7816164E-02  0.1300439E+00
        -11   -1    0    0    0    0  0.00000000000E+00  0.00000000000E+00  0.45593999997E+02  0.45594000000E+02  0.51100000000E-03 0.  1.
         11   -1    0    0    0    0 -0.00000000000E+00 -0.00000000000E+00 -0.45593999997E+02  0.45594000000E+02  0.51100000000E-03 0. -1.
    9900012    2    1    2    0    0  0.35247345989E+02  0.66089460047E+01 -0.19160151434E+02  0.50528868559E+02  0.30000026473E+02 0.  0.
        -12    1    1    2    0    0 -0.35247345989E+02 -0.66089460047E+01  0.19160151434E+02  0.40659131441E+02  0.00000000000E+00 0.  1.
         11    1    3    3    0    0  0.63765976806E+01  0.32911781496E+01 -0.17635325363E+01  0.73893774339E+01  0.51100000000E-03 0. -1.
        -11    1    3    3    0    0  0.13613161249E+02  0.14581071287E+02 -0.12542471623E+02  0.23563518280E+02  0.51100000000E-03 0.  1.
        -12    1    3    3    0    0  0.15257587060E+02 -0.11263303432E+02 -0.48541472748E+01  0.19575972846E+02  0.00000000000E+00 0.  1.
</event>
<event>
 7    1  0.5935282E-013  0.5052887E+02  0.7816164E-02  0.1300439E+00
        -11   -1    0    0    0    0  0.00000000000E+00  0.00000000000E+00  0.45593999997E+02  0.45594000000E+02  0.51100000000E-03 0.  1.
         11   -1    0    0    0    0 -0.00000000000E+00 -0.00000000000E+00 -0.45593999997E+02  0.45594000000E+02  0.51100000000E-03 0. -1.
    9900012    2    1    2    0    0 -0.22344381792E+02  0.37303298904E+01 -0.33763564063E+02  0.50528867976E+02  0.30000024699E+02 0.  0.
        -12    1    1    2    0    0  0.22344381792E+02 -0.37303298904E+01  0.33763564063E+02  0.40659132024E+02  0.00000000000E+00 0.  1.
         11    1    3    3    0    0 -0.25282500454E+01 -0.95777263325E+00 -0.40864964153E+01  0.48998806029E+01  0.51100000000E-03 0. -1.
        -11    1    3    3    0    0 -0.20776792398E+02  0.10410347345E+02 -0.10331615965E+02  0.25432119906E+02  0.51100000000E-03 0.  1.
         12    1    3    3    0    0  0.96066065162E+00 -0.57222448217E+01 -0.19345451683E+02  0.20196867467E+02  0.00000000000E+00 0. -1.
</event>
<event>
 7    1  0.5935282E-013  0.5052887E+02  0.7816164E-02  0.1300439E+00
        -11   -1    0    0    0    0  0.00000000000E+00  0.00000000000E+00  0.45593999997E+02  0.45594000000E+02  0.51100000000E-03 0.  1.
         11   -1    0    0    0    0 -0.00000000000E+00 -0.00000000000E+00 -0.45593999997E+02  0.45594000000E+02  0.51100000000E-03 0. -1.
    9900012    2    1    2    0    0 -0.23351531858E+02  0.32966324908E+01 -0.33121042048E+02  0.50528865082E+02  0.30000015904E+02 0.  0.
        -12    1    1    2    0    0  0.23351531858E+02 -0.32966324908E+01  0.33121042048E+02  0.40659134918E+02  0.00000000000E+00 0.  1.
         11    1    3    3    0    0  0.38462288117E+00  0.14239823697E+01 -0.40270711378E-01  0.14755617714E+01  0.51100000000E-03 0. -1.
        -11    1    3    3    0    0 -0.46021536312E+01  0.61905737057E+01  0.27627423559E+01  0.81936418299E+01  0.51100000000E-03 0.  1.
         12    1    3    3    0    0 -0.19134001108E+02 -0.43179235846E+01 -0.35843513693E+02  0.40859661481E+02  0.00000000000E+00 0. -1.
</event>
<event>
 7    1  0.5935282E-013  0.5052887E+02  0.7816164E-02  0.1300439E+00
        -11   -1    0    0    0    0  0.00000000000E+00  0.00000000000E+00  0.45593999997E+02  0.45594000000E+02  0.51100000000E-03 0.  1.
         11   -1    0    0    0    0 -0.00000000000E+00 -0.00000000000E+00 -0.45593999997E+02  0.45594000000E+02  0.51100000000E-03 0. -1.
    9900012    2    1    2    0    0 -0.10775759092E+02 -0.24482305914E+02 -0.30621310067E+02  0.50528869204E+02  0.30000028432E+02 0.  0.
        -12    1    1    2    0    0  0.10775759092E+02  0.24482305914E+02  0.30621310067E+02  0.40659130796E+02  0.00000000000E+00 0.  1.
         11    1    3    3    0    0  0.48055225846E+01 -0.64676826360E+01 -0.35098660202E+01  0.87888068435E+01  0.51100000000E-03 0. -1.
        -11    1    3    3    0    0  0.83953290758E+00 -0.26976690447E+01  0.30368696330E+01  0.41478682726E+01  0.51100000000E-03 0.  1.
         12    1    3    3    0    0 -0.16420814584E+02 -0.15316954233E+02 -0.30148313680E+02  0.37592194088E+02  0.00000000000E+00 0. -1.
</event>
<event>
 7    1  0.5935282E-013  0.5052886E+02  0.7816164E-02  0.1300439E+00
        -11   -1    0    0    0    0  0.00000000000E+00  0.00000000000E+00  0.45593999997E+02  0.45594000000E+02  0.51100000000E-03 0.  1.
         11   -1    0    0    0    0 -0.00000000000E+00 -0.00000000000E+00 -0.45593999997E+02  0.45594000000E+02  0.51100000000E-03 0. -1.
    9900012    2    1    2    0    0 -0.22713094597E+02  0.13935602816E+01 -0.33694786614E+02  0.50528864231E+02  0.30000013318E+02 0.  0.
        -12    1    1    2    0    0  0.22713094597E+02 -0.13935602816E+01  0.33694786614E+02  0.40659135769E+02  0.00000000000E+00 0.  1.
         11    1    3    3    0    0 -0.79251656599E+01 -0.45294921639E+01 -0.10194443231E+02  0.13683976873E+02  0.51100000000E-03 0. -1.
        -11    1    3    3    0    0 -0.18463798878E+02 -0.14350857403E+01 -0.21506712586E+02  0.28381508534E+02  0.51100000000E-03 0.  1.
        -12    1    3    3    0    0  0.36758699410E+01  0.73581381858E+01 -0.19936307971E+01  0.84633788253E+01  0.00000000000E+00 0.  1.
</event>
<event>
 7    1  0.5935282E-013  0.5052886E+02  0.7816164E-02  0.1300439E+00
        -11   -1    0    0    0    0  0.00000000000E+00  0.00000000000E+00  0.45593999997E+02  0.45594000000E+02  0.51100000000E-03 0. -1.
         11   -1    0    0    0    0 -0.00000000000E+00 -0.00000000000E+00 -0.45593999997E+02  0.45594000000E+02  0.51100000000E-03 0.  1.
    9900012    2    1    2    0    0  0.31426140252E+02 -0.21292260776E+02  0.14567190999E+02  0.50528859408E+02  0.29999998658E+02 0.  0.
        -12    1    1    2    0    0 -0.31426140252E+02  0.21292260776E+02 -0.14567190999E+02  0.40659140592E+02  0.00000000000E+00 0.  1.
         11    1    3    3    0    0  0.10072674074E+02 -0.10389266615E+02  0.15084808270E+02  0.20903278800E+02  0.51100000000E-03 0. -1.
        -11    1    3    3    0    0 -0.20184479926E+01 -0.42044819010E+01  0.22084646456E+01  0.51603407549E+01  0.51100000000E-03 0.  1.
         12    1    3    3    0    0  0.23371914170E+02 -0.66985122596E+01 -0.27260819164E+01  0.24465239853E+02  0.00000000000E+00 0. -1.
</event>
<event>
 7    1  0.5935282E-013  0.5052886E+02  0.7816164E-02  0.1300439E+00
        -11   -1    0    0    0    0  0.00000000000E+00  0.00000000000E+00  0.45593999997E+02  0.45594000000E+02  0.51100000000E-03 0.  1.
         11   -1    0    0    0    0 -0.00000000000E+00 -0.00000000000E+00 -0.45593999997E+02  0.45594000000E+02  0.51100000000E-03 0. -1.
    9900012    2    1    2    0    0 -0.31432540352E+01  0.31417815646E+02 -0.25616522785E+02  0.50528862952E+02  0.30000009429E+02 0.  0.
        -12    1    1    2    0    0  0.31432540352E+01 -0.31417815646E+02  0.25616522785E+02  0.40659137048E+02  0.00000000000E+00 0.  1.
         11    1    3    3    0    0 -0.12902740317E+01  0.31772188903E+01 -0.17027336561E+02  0.17369217529E+02  0.51100000000E-03 0. -1.
        -11    1    3    3    0    0  0.56273277712E+00 -0.16636282344E+01 -0.15520308660E+01  0.23437421255E+01  0.51100000000E-03 0.  1.
        -12    1    3    3    0    0 -0.24157127806E+01  0.29904224990E+02 -0.70371553579E+01  0.30815903297E+02  0.00000000000E+00 0.  1.
</event>
<event>
 7    1  0.5935282E-013  0.5052886E+02  0.7816164E-02  0.1300439E+00
        -11   -1    0    0    0    0  0.00000000000E+00  0.00000000000E+00  0.45593999997E+02  0.45594000000E+02  0.51100000000E-03 0.  1.
         11   -1    0    0    0    0 -0.00000000000E+00 -0.00000000000E+00 -0.45593999997E+02  0.45594000000E+02  0.51100000000E-03 0. -1.
    9900012    2    1    2    0    0 -0.31889694746E+02  0.17277820771E+02 -0.18376334068E+02  0.50528863568E+02  0.30000011303E+02 0.  0.
        -12    1    1    2    0    0  0.31889694746E+02 -0.17277820771E+02  0.18376334068E+02  0.40659136432E+02  0.00000000000E+00 0.  1.
         11    1    3    3    0    0 -0.19396308939E+02  0.88652560796E+01 -0.12624088472E+02  0.24782598247E+02  0.51100000000E-03 0. -1.
        -11    1    3    3    0    0 -0.15099981969E+02 -0.47924095136E+00 -0.65075594377E+01  0.16449542773E+02  0.51100000000E-03 0.  1.
        -12    1    3    3    0    0  0.26065961624E+01  0.88918056430E+01  0.75531384252E+00  0.92967225486E+01  0.00000000000E+00 0.  1.
</event>
<event>
 7    1  0.5935282E-013  0.5052886E+02  0.7816164E-02  0.1300439E+00
        -11   -1    0    0    0    0  0.00000000000E+00  0.00000000000E+00  0.45593999997E+02  0.45594000000E+02  0.51100000000E-03 0.  1.
         11   -1    0    0    0    0 -0.00000000000E+00 -0.00000000000E+00 -0.45593999997E+02  0.45594000000E+02  0.51100000000E-03 0. -1.
    9900012    2    1    2    0    0  0.22685512617E+02 -0.24192722676E+02 -0.23521161418E+02  0.50528863909E+02  0.30000012339E+02 0.  0.
        -12    1    1    2    0    0 -0.22685512617E+02  0.24192722676E+02  0.23521161418E+02  0.40659136091E+02  0.00000000000E+00 0.  1.
         11    1    3    3    0    0  0.96945705446E+01 -0.12421522493E+02 -0.15579351014E+02  0.22158409179E+02  0.51100000000E-03 0. -1.
        -11    1    3    3    0    0 -0.98342886354E+00 -0.79378545232E+01 -0.10960576870E+02  0.13568747633E+02  0.51100000000E-03 0.  1.
         12    1    3    3    0    0  0.13974370936E+02 -0.38333456598E+01  0.30187664652E+01  0.14801707097E+02  0.00000000000E+00 0. -1.
</event>
<event>
 7    1  0.5935282E-013  0.5052885E+02  0.7816164E-02  0.1300439E+00
        -11   -1    0    0    0    0  0.00000000000E+00  0.00000000000E+00  0.45593999997E+02  0.45594000000E+02  0.51100000000E-03 0.  1.
         11   -1    0    0    0    0 -0.00000000000E+00 -0.00000000000E+00 -0.45593999997E+02  0.45594000000E+02  0.51100000000E-03 0. -1.
    9900012    2    1    2    0    0 -0.39773927052E+02 -0.20682820617E+01 -0.81806612413E+01  0.50528852417E+02  0.29999977406E+02 0.  0.
        -12    1    1    2    0    0  0.39773927052E+02  0.20682820617E+01  0.81806612413E+01  0.40659147583E+02  0.00000000000E+00 0.  1.
         11    1    3    3    0    0 -0.53360938816E+01  0.32107402591E+01 -0.19031551761E+01  0.65118930282E+01  0.51100000000E-03 0. -1.
        -11    1    3    3    0    0 -0.13966814699E+01  0.63453510912E+01  0.38545920724E+01  0.75546065354E+01  0.51100000000E-03 0.  1.
         12    1    3    3    0    0 -0.33041151701E+02 -0.11624373412E+02 -0.10132098138E+02  0.36462352853E+02  0.00000000000E+00 0. -1.
</event>
<event>
 7    1  0.5935282E-013  0.5052886E+02  0.7816164E-02  0.1300439E+00
        -11   -1    0    0    0    0  0.00000000000E+00  0.00000000000E+00  0.45593999997E+02  0.45594000000E+02  0.51100000000E-03 0. -1.
         11   -1    0    0    0    0 -0.00000000000E+00 -0.00000000000E+00 -0.45593999997E+02  0.45594000000E+02  0.51100000000E-03 0.  1.
    9900012    2    1    2    0    0 -0.27643517245E+02 -0.43482997296E+01  0.29497356023E+02  0.50528858733E+02  0.29999996605E+02 0.  0.
        -12    1    1    2    0    0  0.27643517245E+02  0.43482997296E+01 -0.29497356023E+02  0.40659141267E+02  0.00000000000E+00 0.  1.
         11    1    3    3    0    0 -0.88364648263E+01  0.91879397698E+01  0.36009385030E+01  0.13246437491E+02  0.51100000000E-03 0. -1.
        -11    1    3    3    0    0 -0.54383271729E+00 -0.94944522253E+00 -0.16103858894E+01  0.19469317474E+01  0.51100000000E-03 0.  1.
         12    1    3    3    0    0 -0.18263219701E+02 -0.12586794277E+02  0.27506803409E+02  0.35335489495E+02  0.00000000000E+00 0. -1.
</event>
<event>
 7    1  0.5935282E-013  0.5052895E+02  0.7816164E-02  0.1300438E+00
        -11   -1    0    0    0    0  0.00000000000E+00  0.00000000000E+00  0.45593999997E+02  0.45594000000E+02  0.51100000000E-03 0.  1.
         11   -1    0    0    0    0 -0.00000000000E+00 -0.00000000000E+00 -0.45593999997E+02  0.45594000000E+02  0.51100000000E-03 0. -1.
    9900012    2    1    2    0    0 -0.18939991080E+00  0.10378889098E+02 -0.39311588899E+02  0.50528951400E+02  0.30000278276E+02 0.  0.
        -12    1    1    2    0    0  0.18939991080E+00 -0.10378889098E+02  0.39311588899E+02  0.40659048600E+02  0.00000000000E+00 0.  1.
         11    1    3    3    0    0  0.51022117539E+01 -0.33771562074E+01 -0.24849987482E+01  0.66040114984E+01  0.51100000000E-03 0.  1.
        -11    1    3    3    0    0 -0.10169939905E+02  0.21692619033E+01 -0.22975682879E+02  0.25219345330E+02  0.51100000000E-03 0. -1.
         12    1    3    3    0    0  0.48783282401E+01  0.11586783402E+02 -0.13850907272E+02  0.18705594572E+02  0.00000000000E+00 0. -1.
</event>
<event>
 7    1  0.5935282E-013  0.5052885E+02  0.7816164E-02  0.1300439E+00
        -11   -1    0    0    0    0  0.00000000000E+00  0.00000000000E+00  0.45593999997E+02  0.45594000000E+02  0.51100000000E-03 0. -1.
         11   -1    0    0    0    0 -0.00000000000E+00 -0.00000000000E+00 -0.45593999997E+02  0.45594000000E+02  0.51100000000E-03 0.  1.
    9900012    2    1    2    0    0  0.23928156255E+02  0.28194487220E+02  0.16902082534E+02  0.50528853853E+02  0.29999981773E+02 0.  0.
        -12    1    1    2    0    0 -0.23928156255E+02 -0.28194487220E+02 -0.16902082534E+02  0.40659146147E+02  0.00000000000E+00 0.  1.
         11    1    3    3    0    0  0.85942587197E+01  0.14573266552E+02  0.99501870733E+01  0.19627725390E+02  0.51100000000E-03 0. -1.
        -11    1    3    3    0    0  0.50126804866E+01 -0.18092765241E+01  0.10707961674E+02  0.11960806439E+02  0.51100000000E-03 0.  1.
        -12    1    3    3    0    0  0.10321217049E+02  0.15430497192E+02 -0.37560662134E+01  0.18940322024E+02  0.00000000000E+00 0.  1.
</event>
<event>
 7    1  0.5935282E-013  0.5052886E+02  0.7816164E-02  0.1300439E+00
        -11   -1    0    0    0    0  0.00000000000E+00  0.00000000000E+00  0.45593999997E+02  0.45594000000E+02  0.51100000000E-03 0. -1.
         11   -1    0    0    0    0 -0.00000000000E+00 -0.00000000000E+00 -0.45593999997E+02  0.45594000000E+02  0.51100000000E-03 0.  1.
    9900012    2    1    2    0    0  0.23154151402E+02  0.23648461227E+02  0.23617821963E+02  0.50528856381E+02  0.29999989456E+02 0.  0.
        -12    1    1    2    0    0 -0.23154151402E+02 -0.23648461227E+02 -0.23617821963E+02  0.40659143619E+02  0.00000000000E+00 0.  1.
         11    1    3    3    0    0  0.10385916058E+02  0.10842639830E+02  0.63851461478E+01  0.16315642263E+02  0.51100000000E-03 0. -1.
        -11    1    3    3    0    0  0.19325509886E+02  0.12275831657E+02  0.12291795747E+02  0.25985757987E+02  0.51100000000E-03 0.  1.
         12    1    3    3    0    0 -0.65572745420E+01  0.52998973990E+00  0.49408800678E+01  0.82274561310E+01  0.00000000000E+00 0. -1.
</event>
<event>
 7    1  0.5935282E-013  0.5052886E+02  0.7816164E-02  0.1300439E+00
        -11   -1    0    0    0    0  0.00000000000E+00  0.00000000000E+00  0.45593999997E+02  0.45594000000E+02  0.51100000000E-03 0. -1.
         11   -1    0    0    0    0 -0.00000000000E+00 -0.00000000000E+00 -0.45593999997E+02  0.45594000000E+02  0.51100000000E-03 0.  1.
    9900012    2    1    2    0    0  0.29149449174E+02  0.28339940523E+02  0.56806702213E+00  0.50528864297E+02  0.30000013518E+02 0.  0.
        -12    1    1    2    0    0 -0.29149449174E+02 -0.28339940523E+02 -0.56806702213E+00  0.40659135703E+02  0.00000000000E+00 0.  1.
         11    1    3    3    0    0  0.22531922949E+02  0.53623275112E+01 -0.19317419935E+01  0.23241637970E+02  0.51100000000E-03 0.  1.
        -11    1    3    3    0    0  0.74940732157E+01  0.46893901635E+01  0.13399610983E+01  0.89413091589E+01  0.51100000000E-03 0. -1.
        -12    1    3    3    0    0 -0.87654699141E+00  0.18288222848E+02  0.11598479173E+01  0.18345917169E+02  0.00000000000E+00 0.  1.
</event>
<event>
 7    1  0.5935282E-013  0.5052885E+02  0.7816164E-02  0.1300439E+00
        -11   -1    0    0    0    0  0.00000000000E+00  0.00000000000E+00  0.45593999997E+02  0.45594000000E+02  0.51100000000E-03 0.  1.
         11   -1    0    0    0    0 -0.00000000000E+00 -0.00000000000E+00 -0.45593999997E+02  0.45594000000E+02  0.51100000000E-03 0. -1.
    9900012    2    1    2    0    0  0.37144366675E+02 -0.14863512704E+02 -0.72483450626E+01  0.50528849840E+02  0.29999969574E+02 0.  0.
        -12    1    1    2    0    0 -0.37144366675E+02  0.14863512704E+02  0.72483450626E+01  0.40659150160E+02  0.00000000000E+00 0.  1.
         11    1    3    3    0    0  0.14972637405E+02 -0.16090861726E+02 -0.25970774802E+01  0.22132340898E+02  0.51100000000E-03 0. -1.
        -11    1    3    3    0    0 -0.15810553268E+01  0.28192788580E+01 -0.31966204538E+01  0.45460369348E+01  0.51100000000E-03 0.  1.
         12    1    3    3    0    0  0.23752784596E+02 -0.15919298362E+01 -0.14546471286E+01  0.23850472007E+02  0.00000000000E+00 0. -1.
</event>
<event>
 7    1  0.5935282E-013  0.5052886E+02  0.7816164E-02  0.1300439E+00
        -11   -1    0    0    0    0  0.00000000000E+00  0.00000000000E+00  0.45593999997E+02  0.45594000000E+02  0.51100000000E-03 0. -1.
         11   -1    0    0    0    0 -0.00000000000E+00 -0.00000000000E+00 -0.45593999997E+02  0.45594000000E+02  0.51100000000E-03 0.  1.
    9900012    2    1    2    0    0 -0.54831478854E+01 -0.24240319822E+02  0.32179309232E+02  0.50528856398E+02  0.29999989509E+02 0.  0.
        -12    1    1    2    0    0  0.54831478854E+01  0.24240319822E+02 -0.32179309232E+02  0.40659143602E+02  0.00000000000E+00 0.  1.
         11    1    3    3    0    0  0.39117000214E+01 -0.91159031842E+01  0.99812688772E+01  0.14072200133E+02  0.51100000000E-03 0. -1.
        -11    1    3    3    0    0  0.58307865827E+01 -0.10528251999E+02  0.50011676402E+01  0.13032798638E+02  0.51100000000E-03 0.  1.
        -12    1    3    3    0    0 -0.15225634489E+02 -0.45961646390E+01  0.17196872714E+02  0.23423857627E+02  0.00000000000E+00 0.  1.
</event>
<event>
 7    1  0.5935282E-013  0.5052886E+02  0.7816164E-02  0.1300439E+00
        -11   -1    0    0    0    0  0.00000000000E+00  0.00000000000E+00  0.45593999997E+02  0.45594000000E+02  0.51100000000E-03 0.  1.
         11   -1    0    0    0    0 -0.00000000000E+00 -0.00000000000E+00 -0.45593999997E+02  0.45594000000E+02  0.51100000000E-03 0. -1.
    9900012    2    1    2    0    0 -0.21663349998E+00  0.25638796472E+02 -0.31555831581E+02  0.50528864232E+02  0.30000013321E+02 0.  0.
        -12    1    1    2    0    0  0.21663349998E+00 -0.25638796472E+02  0.31555831581E+02  0.40659135768E+02  0.00000000000E+00 0.  1.
         11    1    3    3    0    0  0.74386903558E+01  0.20482373280E+02 -0.29327563436E+02  0.36537209893E+02  0.51100000000E-03 0. -1.
        -11    1    3    3    0    0  0.19738546799E+01 -0.65826169672E+00 -0.17732446884E+01  0.27338265755E+01  0.51100000000E-03 0.  1.
        -12    1    3    3    0    0 -0.96291785356E+01  0.58146848885E+01 -0.45502345667E+00  0.11257827764E+02  0.00000000000E+00 0.  1.
</event>
<event>
 7    1  0.5935282E-013  0.5052886E+02  0.7816164E-02  0.1300439E+00
        -11   -1    0    0    0    0  0.00000000000E+00  0.00000000000E+00  0.45593999997E+02  0.45594000000E+02  0.51100000000E-03 0.  1.
         11   -1    0    0    0    0 -0.00000000000E+00 -0.00000000000E+00 -0.45593999997E+02  0.45594000000E+02  0.51100000000E-03 0. -1.
    9900012    2    1    2    0    0  0.32979383256E+02 -0.10577623130E+02 -0.21298825413E+02  0.50528858408E+02  0.29999995617E+02 0.  0.
        -12    1    1    2    0    0 -0.32979383256E+02  0.10577623130E+02  0.21298825413E+02  0.40659141592E+02  0.00000000000E+00 0.  1.
         11    1    3    3    0    0  0.12522585451E+02 -0.40631336263E+01 -0.17057944357E+02  0.21547567547E+02  0.51100000000E-03 0. -1.
        -11    1    3    3    0    0  0.16523813260E+02 -0.26915695370E+01 -0.11183630080E+02  0.20133418320E+02  0.51100000000E-03 0.  1.
        -12    1    3    3    0    0  0.39329845449E+01 -0.38229199666E+01  0.69427490237E+01  0.88478725414E+01  0.00000000000E+00 0.  1.
</event>
<event>
 7    1  0.5935282E-013  0.5052883E+02  0.7816164E-02  0.1300439E+00
        -11   -1    0    0    0    0  0.00000000000E+00  0.00000000000E+00  0.45593999997E+02  0.45594000000E+02  0.51100000000E-03 0. -1.
         11   -1    0    0    0    0 -0.00000000000E+00 -0.00000000000E+00 -0.45593999997E+02  0.45594000000E+02  0.51100000000E-03 0.  1.
    9900012    2    1    2    0    0 -0.37000540361E+02  0.16179877252E+02 -0.47264540668E+01  0.50528833962E+02  0.29999921311E+02 0.  0.
        -12    1    1    2    0    0  0.37000540361E+02 -0.16179877252E+02  0.47264540668E+01  0.40659166038E+02  0.00000000000E+00 0.  1.
         11    1    3    3    0    0 -0.37723291458E+01  0.71003468052E+00 -0.57143216036E+01  0.68839006444E+01  0.51100000000E-03 0.  1.
        -11    1    3    3    0    0 -0.24179162624E+02  0.27354093262E+01 -0.80087316638E+01  0.25617457964E+02  0.51100000000E-03 0. -1.
        -12    1    3    3    0    0 -0.90490485908E+01  0.12734433245E+02  0.89965992005E+01  0.18027475354E+02  0.00000000000E+00 0.  1.
</event>
<event>
 7    1  0.5935282E-013  0.5052885E+02  0.7816164E-02  0.1300439E+00
        -11   -1    0    0    0    0  0.00000000000E+00  0.00000000000E+00  0.45593999997E+02  0.45594000000E+02  0.51100000000E-03 0. -1.
         11   -1    0    0    0    0 -0.00000000000E+00 -0.00000000000E+00 -0.45593999997E+02  0.45594000000E+02  0.51100000000E-03 0.  1.
    9900012    2    1    2    0    0  0.33927407136E+02  0.22241458204E+02 -0.27230003088E+01  0.50528854058E+02  0.29999982395E+02 0.  0.
        -12    1    1    2    0    0 -0.33927407136E+02 -0.22241458204E+02  0.27230003088E+01  0.40659145942E+02  0.00000000000E+00 0.  1.
         11    1    3    3    0    0  0.17945458605E+02  0.18356707671E+02 -0.44358419594E+01  0.26051581434E+02  0.51100000000E-03 0. -1.
        -11    1    3    3    0    0 -0.18919241059E+01  0.83090837448E+00 -0.47875545482E+01  0.52144476565E+01  0.51100000000E-03 0.  1.
         12    1    3    3    0    0  0.17873872637E+02  0.30538421583E+01  0.65003961988E+01  0.19262824967E+02  0.00000000000E+00 0. -1.
</event>
<event>
 7    1  0.5935282E-013  0.5052884E+02  0.7816164E-02  0.1300439E+00
        -11   -1    0    0    0    0  0.00000000000E+00  0.00000000000E+00  0.45593999997E+02  0.45594000000E+02  0.51100000000E-03 0.  1.
         11   -1    0    0    0    0 -0.00000000000E+00 -0.00000000000E+00 -0.45593999997E+02  0.45594000000E+02  0.51100000000E-03 0. -1.
    9900012    2    1    2    0    0 -0.11452669340E+02  0.77649840815E+00 -0.39005133897E+02  0.50528842912E+02  0.29999948515E+02 0.  0.
        -12    1    1    2    0    0  0.11452669340E+02 -0.77649840815E+00  0.39005133897E+02  0.40659157088E+02  0.00000000000E+00 0.  1.
         11    1    3    3    0    0 -0.82742240928E+01  0.75592564326E+01 -0.31676710615E+02  0.33600880015E+02  0.51100000000E-03 0. -1.
        -11    1    3    3    0    0 -0.17217268328E+00  0.22218779755E+01 -0.70897448291E+01  0.74317472491E+01  0.51100000000E-03 0.  1.
        -12    1    3    3    0    0 -0.30062725639E+01 -0.90046359999E+01 -0.23867845258E+00  0.94962156475E+01  0.00000000000E+00 0.  1.
</event>
<event>
 7    1  0.5935282E-013  0.5052886E+02  0.7816164E-02  0.1300439E+00
        -11   -1    0    0    0    0  0.00000000000E+00  0.00000000000E+00  0.45593999997E+02  0.45594000000E+02  0.51100000000E-03 0. -1.
         11   -1    0    0    0    0 -0.00000000000E+00 -0.00000000000E+00 -0.45593999997E+02  0.45594000000E+02  0.51100000000E-03 0.  1.
    9900012    2    1    2    0    0 -0.13584903113E+02 -0.26306919247E+02 -0.27866865332E+02  0.50528858638E+02  0.29999996317E+02 0.  0.
        -12    1    1    2    0    0  0.13584903113E+02  0.26306919247E+02  0.27866865332E+02  0.40659141362E+02  0.00000000000E+00 0.  1.
         11    1    3    3    0    0 -0.65652878713E+01 -0.12828713306E+02 -0.66963809785E+01  0.15890890736E+02  0.51100000000E-03 0. -1.
        -11    1    3    3    0    0  0.34253161100E+01 -0.13378667115E+02 -0.37238002469E+01  0.14303433601E+02  0.51100000000E-03 0.  1.
        -12    1    3    3    0    0 -0.10444931352E+02 -0.99538825401E-01 -0.17446684106E+02  0.20334534301E+02  0.00000000000E+00 0.  1.
</event>
<event>
 7    1  0.5935282E-013  0.5052880E+02  0.7816164E-02  0.1300439E+00
        -11   -1    0    0    0    0  0.00000000000E+00  0.00000000000E+00  0.45593999997E+02  0.45594000000E+02  0.51100000000E-03 0.  1.
         11   -1    0    0    0    0 -0.00000000000E+00 -0.00000000000E+00 -0.45593999997E+02  0.45594000000E+02  0.51100000000E-03 0. -1.
    9900012    2    1    2    0    0 -0.17983978205E+02 -0.26467663823E+02 -0.25084060702E+02  0.50528796840E+02  0.29999808475E+02 0.  0.
        -12    1    1    2    0    0  0.17983978205E+02  0.26467663823E+02  0.25084060702E+02  0.40659203160E+02  0.00000000000E+00 0.  1.
         11    1    3    3    0    0 -0.62433657183E+01 -0.51347191516E+01 -0.22526165945E+02  0.23932678678E+02  0.51100000000E-03 0. -1.
        -11    1    3    3    0    0 -0.31094477501E+00 -0.46824476154E+01 -0.42475812587E+01  0.63296089243E+01  0.51100000000E-03 0.  1.
         12    1    3    3    0    0 -0.11429667711E+02 -0.16650497056E+02  0.16896865024E+01  0.20266509238E+02  0.00000000000E+00 0. -1.
</event>
<event>
 7    1  0.5935282E-013  0.5052888E+02  0.7816164E-02  0.1300439E+00
        -11   -1    0    0    0    0  0.00000000000E+00  0.00000000000E+00  0.45593999997E+02  0.45594000000E+02  0.51100000000E-03 0.  1.
         11   -1    0    0    0    0 -0.00000000000E+00 -0.00000000000E+00 -0.45593999997E+02  0.45594000000E+02  0.51100000000E-03 0. -1.
    9900012    2    1    2    0    0 -0.32866973345E+02  0.20364559189E+02 -0.12578201404E+02  0.50528876075E+02  0.30000049317E+02 0.  0.
        -12    1    1    2    0    0  0.32866973345E+02 -0.20364559189E+02  0.12578201404E+02  0.40659123925E+02  0.00000000000E+00 0.  1.
         11    1    3    3    0    0 -0.17981140051E+02 -0.13944376635E+01 -0.94314609735E+01  0.20352353925E+02  0.51100000000E-03 0. -1.
        -11    1    3    3    0    0 -0.74439940892E+01  0.18358444140E+01  0.26853796277E+01  0.81237083108E+01  0.51100000000E-03 0.  1.
         12    1    3    3    0    0 -0.74418392041E+01  0.19923152439E+02 -0.58321200586E+01  0.22052813839E+02  0.00000000000E+00 0. -1.
</event>
<event>
 7    1  0.5935282E-013  0.5052886E+02  0.7816164E-02  0.1300439E+00
        -11   -1    0    0    0    0  0.00000000000E+00  0.00000000000E+00  0.45593999997E+02  0.45594000000E+02  0.51100000000E-03 0.  1.
         11   -1    0    0    0    0 -0.00000000000E+00 -0.00000000000E+00 -0.45593999997E+02  0.45594000000E+02  0.51100000000E-03 0. -1.
    9900012    2    1    2    0    0  0.28933077299E+01 -0.40109491820E+02 -0.60019233690E+01  0.50528860218E+02  0.30000001120E+02 0.  0.
        -12    1    1    2    0    0 -0.28933077299E+01  0.40109491820E+02  0.60019233690E+01  0.40659139782E+02  0.00000000000E+00 0.  1.
         11    1    3    3    0    0 -0.36659734236E+01 -0.13099640319E+02 -0.12179805078E+02  0.18258904393E+02  0.51100000000E-03 0. -1.
        -11    1    3    3    0    0  0.11059840484E+01  0.14191762343E+01  0.25142336754E+01  0.30917039210E+01  0.51100000000E-03 0.  1.
        -12    1    3    3    0    0  0.54532971051E+01 -0.28429027735E+02  0.36636480340E+01  0.29178251904E+02  0.00000000000E+00 0.  1.
</event>
<event>
 7    1  0.5935282E-013  0.5052886E+02  0.7816164E-02  0.1300439E+00
        -11   -1    0    0    0    0  0.00000000000E+00  0.00000000000E+00  0.45593999997E+02  0.45594000000E+02  0.51100000000E-03 0.  1.
         11   -1    0    0    0    0 -0.00000000000E+00 -0.00000000000E+00 -0.45593999997E+02  0.45594000000E+02  0.51100000000E-03 0. -1.
    9900012    2    1    2    0    0 -0.11039339716E+02 -0.39024373595E+02 -0.28977297697E+01  0.50528860884E+02  0.30000003143E+02 0.  0.
        -12    1    1    2    0    0  0.11039339716E+02  0.39024373595E+02  0.28977297697E+01  0.40659139116E+02  0.00000000000E+00 0.  1.
         11    1    3    3    0    0 -0.68814984757E+01 -0.10850102161E+02 -0.94851889803E+01  0.15970239460E+02  0.51100000000E-03 0. -1.
        -11    1    3    3    0    0  0.52597303608E+01 -0.18244598665E+02 -0.80421328526E+00  0.19004654777E+02  0.51100000000E-03 0.  1.
         12    1    3    3    0    0 -0.94175716013E+01 -0.99296727691E+01  0.73916724958E+01  0.15553966647E+02  0.00000000000E+00 0. -1.
</event>
<event>
 7    1  0.5935282E-013  0.5052886E+02  0.7816164E-02  0.1300439E+00
        -11   -1    0    0    0    0  0.00000000000E+00  0.00000000000E+00  0.45593999997E+02  0.45594000000E+02  0.51100000000E-03 0. -1.
         11   -1    0    0    0    0 -0.00000000000E+00 -0.00000000000E+00 -0.45593999997E+02  0.45594000000E+02  0.51100000000E-03 0.  1.
    9900012    2    1    2    0    0  0.12628585367E+02 -0.20495627165E+02  0.32766043228E+02  0.50528862158E+02  0.30000007016E+02 0.  0.
        -12    1    1    2    0    0 -0.12628585367E+02  0.20495627165E+02 -0.32766043228E+02  0.40659137842E+02  0.00000000000E+00 0.  1.
         11    1    3    3    0    0  0.80941604409E+00 -0.72720000557E+01 -0.15016861680E+00  0.73184486073E+01  0.51100000000E-03 0. -1.
        -11    1    3    3    0    0  0.65378111745E+01 -0.15955568309E+02  0.10886014848E+02  0.20391872267E+02  0.51100000000E-03 0.  1.
        -12    1    3    3    0    0  0.52813581480E+01  0.27319412003E+01  0.22030196997E+02  0.22818541284E+02  0.00000000000E+00 0.  1.
</event>
<event>
 7    1  0.5935282E-013  0.5052886E+02  0.7816164E-02  0.1300439E+00
        -11   -1    0    0    0    0  0.00000000000E+00  0.00000000000E+00  0.45593999997E+02  0.45594000000E+02  0.51100000000E-03 0.  1.
         11   -1    0    0    0    0 -0.00000000000E+00 -0.00000000000E+00 -0.45593999997E+02  0.45594000000E+02  0.51100000000E-03 0. -1.
    9900012    2    1    2    0    0  0.31885171133E+02  0.93318781873E+01 -0.23439656625E+02  0.50528860912E+02  0.30000003228E+02 0.  0.
        -12    1    1    2    0    0 -0.31885171133E+02 -0.93318781873E+01  0.23439656625E+02  0.40659139088E+02  0.00000000000E+00 0.  1.
         11    1    3    3    0    0  0.28495317707E+01 -0.27608768943E+01  0.93949917598E+00  0.40773682077E+01  0.51100000000E-03 0. -1.
        -11    1    3    3    0    0  0.24612804074E+02  0.15527894222E+02 -0.95956200906E+01  0.30642805820E+02  0.51100000000E-03 0.  1.
         12    1    3    3    0    0  0.44228352891E+01 -0.34351391407E+01 -0.14783535710E+02  0.15808686884E+02  0.00000000000E+00 0. -1.
</event>
<event>
 7    1  0.5935282E-013  0.5052886E+02  0.7816164E-02  0.1300439E+00
        -11   -1    0    0    0    0  0.00000000000E+00  0.00000000000E+00  0.45593999997E+02  0.45594000000E+02  0.51100000000E-03 0.  1.
         11   -1    0    0    0    0 -0.00000000000E+00 -0.00000000000E+00 -0.45593999997E+02  0.45594000000E+02  0.51100000000E-03 0. -1.
    9900012    2    1    2    0    0 -0.64679301871E+01  0.14902457141E+02 -0.37272616662E+02  0.50528864463E+02  0.30000014023E+02 0.  0.
        -12    1    1    2    0    0  0.64679301871E+01 -0.14902457141E+02  0.37272616662E+02  0.40659135537E+02  0.00000000000E+00 0.  1.
         11    1    3    3    0    0 -0.72285310956E+01  0.81559217277E+00 -0.12905645285E+02  0.14814605391E+02  0.51100000000E-03 0. -1.
        -11    1    3    3    0    0 -0.73457018835E+01 -0.15523050108E+01 -0.31606314392E+01  0.81460774833E+01  0.51100000000E-03 0.  1.
        -12    1    3    3    0    0  0.81063027920E+01  0.15639169979E+02 -0.21206339938E+02  0.27568181590E+02  0.00000000000E+00 0.  1.
</event>
<event>
 7    1  0.5935282E-013  0.5052885E+02  0.7816164E-02  0.1300439E+00
        -11   -1    0    0    0    0  0.00000000000E+00  0.00000000000E+00  0.45593999997E+02  0.45594000000E+02  0.51100000000E-03 0. -1.
         11   -1    0    0    0    0 -0.00000000000E+00 -0.00000000000E+00 -0.45593999997E+02  0.45594000000E+02  0.51100000000E-03 0.  1.
    9900012    2    1    2    0    0  0.12027948170E+02  0.34700845469E+02  0.17445512874E+02  0.50528854253E+02  0.29999982988E+02 0.  0.
        -12    1    1    2    0    0 -0.12027948170E+02 -0.34700845469E+02 -0.17445512874E+02  0.40659145747E+02  0.00000000000E+00 0.  1.
         11    1    3    3    0    0 -0.53564058321E-01 -0.10005791984E+01 -0.15119487775E+01  0.18138404582E+01  0.51100000000E-03 0.  1.
        -11    1    3    3    0    0  0.11466919345E+02  0.72356572925E+01 -0.15196016436E+01  0.13643832494E+02  0.51100000000E-03 0. -1.
        -12    1    3    3    0    0  0.61459288379E+00  0.28465767375E+02  0.20477063295E+02  0.35071181301E+02  0.00000000000E+00 0.  1.
</event>
<event>
 7    1  0.5935282E-013  0.5052890E+02  0.7816164E-02  0.1300439E+00
        -11   -1    0    0    0    0  0.00000000000E+00  0.00000000000E+00  0.45593999997E+02  0.45594000000E+02  0.51100000000E-03 0.  1.
         11   -1    0    0    0    0 -0.00000000000E+00 -0.00000000000E+00 -0.45593999997E+02  0.45594000000E+02  0.51100000000E-03 0. -1.
    9900012    2    1    2    0    0 -0.37150208788E+02 -0.15993754151E+02  0.41501620777E+01  0.50528904706E+02  0.30000136345E+02 0.  0.
        -12    1    1    2    0    0  0.37150208788E+02  0.15993754151E+02 -0.41501620777E+01  0.40659095294E+02  0.00000000000E+00 0.  1.
         11    1    3    3    0    0 -0.39978004952E+01 -0.83352412677E+00 -0.59894625360E+01  0.72491953347E+01  0.51100000000E-03 0. -1.
        -11    1    3    3    0    0 -0.91738577384E+00  0.41821403018E+01  0.23649460340E+01  0.48913049554E+01  0.51100000000E-03 0.  1.
         12    1    3    3    0    0 -0.32235022519E+02 -0.19342370326E+02  0.77746785796E+01  0.38388404416E+02  0.00000000000E+00 0. -1.
</event>
<event>
 7    1  0.5935282E-013  0.5052884E+02  0.7816164E-02  0.1300439E+00
        -11   -1    0    0    0    0  0.00000000000E+00  0.00000000000E+00  0.45593999997E+02  0.45594000000E+02  0.51100000000E-03 0. -1.
         11   -1    0    0    0    0 -0.00000000000E+00 -0.00000000000E+00 -0.45593999997E+02  0.45594000000E+02  0.51100000000E-03 0.  1.
    9900012    2    1    2    0    0 -0.37638098002E+02  0.12160253563E+02  0.94164282729E+01  0.50528839785E+02  0.29999939011E+02 0.  0.
        -12    1    1    2    0    0  0.37638098002E+02 -0.12160253563E+02 -0.94164282729E+01  0.40659160215E+02  0.00000000000E+00 0.  1.
         11    1    3    3    0    0 -0.63644979825E+01  0.40006949801E+01  0.57313788855E+01  0.94530999721E+01  0.51100000000E-03 0. -1.
        -11    1    3    3    0    0 -0.21580290727E+01  0.91977474101E+01  0.69935935600E+01  0.11754403347E+02  0.51100000000E-03 0.  1.
         12    1    3    3    0    0 -0.29115570947E+02 -0.10381888270E+01 -0.33085441725E+01  0.29321336466E+02  0.00000000000E+00 0. -1.
</event>
<event>
 7    1  0.5935282E-013  0.5052886E+02  0.7816164E-02  0.1300439E+00
        -11   -1    0    0    0    0  0.00000000000E+00  0.00000000000E+00  0.45593999997E+02  0.45594000000E+02  0.51100000000E-03 0. -1.
         11   -1    0    0    0    0 -0.00000000000E+00 -0.00000000000E+00 -0.45593999997E+02  0.45594000000E+02  0.51100000000E-03 0.  1.
    9900012    2    1    2    0    0 -0.25573627397E+02  0.15079183194E+02  0.27780808464E+02  0.50528861999E+02  0.30000006533E+02 0.  0.
        -12    1    1    2    0    0  0.25573627397E+02 -0.15079183194E+02 -0.27780808464E+02  0.40659138001E+02  0.00000000000E+00 0.  1.
         11    1    3    3    0    0 -0.94229966224E+01  0.15866315929E+02  0.25785098493E+02  0.31708108602E+02  0.51100000000E-03 0. -1.
        -11    1    3    3    0    0 -0.22381187514E+01 -0.15673891029E+01  0.38946954209E+01  0.47575767811E+01  0.51100000000E-03 0.  1.
        -12    1    3    3    0    0 -0.13912512024E+02  0.78025636710E+00 -0.18989854503E+01  0.14063176616E+02  0.00000000000E+00 0.  1.
</event>
<event>
 7    1  0.5935282E-013  0.5052886E+02  0.7816164E-02  0.1300439E+00
        -11   -1    0    0    0    0  0.00000000000E+00  0.00000000000E+00  0.45593999997E+02  0.45594000000E+02  0.51100000000E-03 0. -1.
         11   -1    0    0    0    0 -0.00000000000E+00 -0.00000000000E+00 -0.45593999997E+02  0.45594000000E+02  0.51100000000E-03 0.  1.
    9900012    2    1    2    0    0 -0.21886523230E+01  0.23684671999E+02  0.32975924816E+02  0.50528861985E+02  0.30000006490E+02 0.  0.
        -12    1    1    2    0    0  0.21886523230E+01 -0.23684671999E+02 -0.32975924816E+02  0.40659138015E+02  0.00000000000E+00 0.  1.
         11    1    3    3    0    0  0.42293716233E+01  0.37018325371E+01  0.18518839774E+01  0.59178224870E+01  0.51100000000E-03 0. -1.
        -11    1    3    3    0    0 -0.71859534629E+01  0.21642299611E+02  0.34156839246E+02  0.41069657012E+02  0.51100000000E-03 0.  1.
         12    1    3    3    0    0  0.76792951655E+00 -0.16594601493E+01 -0.30327984073E+01  0.35413824855E+01  0.00000000000E+00 0. -1.
</event>
<event>
 7    1  0.5935282E-013  0.5052886E+02  0.7816164E-02  0.1300439E+00
        -11   -1    0    0    0    0  0.00000000000E+00  0.00000000000E+00  0.45593999997E+02  0.45594000000E+02  0.51100000000E-03 0.  1.
         11   -1    0    0    0    0 -0.00000000000E+00 -0.00000000000E+00 -0.45593999997E+02  0.45594000000E+02  0.51100000000E-03 0. -1.
    9900012    2    1    2    0    0 -0.57839128170E+01  0.10124682365E+02 -0.38951288628E+02  0.50528859254E+02  0.29999998188E+02 0.  0.
        -12    1    1    2    0    0  0.57839128170E+01 -0.10124682365E+02  0.38951288628E+02  0.40659140746E+02  0.00000000000E+00 0.  1.
         11    1    3    3    0    0 -0.60954828010E+01  0.41015613217E+01 -0.49799291340E+01  0.88756639354E+01  0.51100000000E-03 0. -1.
        -11    1    3    3    0    0  0.48538467208E+01 -0.17833757709E+01  0.12268826241E+01  0.53146494112E+01  0.51100000000E-03 0.  1.
         12    1    3    3    0    0 -0.45422767368E+01  0.78064968143E+01 -0.35198242118E+02  0.36338545907E+02  0.00000000000E+00 0. -1.
</event>
<event>
 7    1  0.5935282E-013  0.5052885E+02  0.7816164E-02  0.1300439E+00
        -11   -1    0    0    0    0  0.00000000000E+00  0.00000000000E+00  0.45593999997E+02  0.45594000000E+02  0.51100000000E-03 0.  1.
         11   -1    0    0    0    0 -0.00000000000E+00 -0.00000000000E+00 -0.45593999997E+02  0.45594000000E+02  0.51100000000E-03 0. -1.
    9900012    2    1    2    0    0 -0.14280797817E+02  0.38068299239E+02  0.17271640044E+00  0.50528850671E+02  0.29999972098E+02 0.  0.
        -12    1    1    2    0    0  0.14280797817E+02 -0.38068299239E+02 -0.17271640044E+00  0.40659149329E+02  0.00000000000E+00 0.  1.
         11    1    3    3    0    0  0.35636893992E+01  0.93954736367E+01  0.52842807711E+01  0.11353344464E+02  0.51100000000E-03 0. -1.
        -11    1    3    3    0    0 -0.26984822612E+01 -0.28134065021E+01 -0.37881624309E+00  0.39167032907E+01  0.51100000000E-03 0.  1.
         12    1    3    3    0    0 -0.15146004955E+02  0.31486232104E+02 -0.47327481276E+01  0.35258802916E+02  0.00000000000E+00 0. -1.
</event>
<event>
 7    1  0.5935282E-013  0.5052885E+02  0.7816164E-02  0.1300439E+00
        -11   -1    0    0    0    0  0.00000000000E+00  0.00000000000E+00  0.45593999997E+02  0.45594000000E+02  0.51100000000E-03 0. -1.
         11   -1    0    0    0    0 -0.00000000000E+00 -0.00000000000E+00 -0.45593999997E+02  0.45594000000E+02  0.51100000000E-03 0.  1.
    9900012    2    1    2    0    0 -0.15146902144E+02 -0.36400350167E+02  0.99374095910E+01  0.50528852859E+02  0.29999978750E+02 0.  0.
        -12    1    1    2    0    0  0.15146902144E+02  0.36400350167E+02 -0.99374095910E+01  0.40659147141E+02  0.00000000000E+00 0.  1.
         11    1    3    3    0    0 -0.92091844572E+01 -0.18889809868E+01  0.39821372957E+01  0.10209541872E+02  0.51100000000E-03 0. -1.
        -11    1    3    3    0    0  0.71589909659E+00 -0.17733959158E+01 -0.48456609723E+01  0.52094025675E+01  0.51100000000E-03 0.  1.
         12    1    3    3    0    0 -0.66536167837E+01 -0.32737973264E+02  0.10800933268E+02  0.35109908419E+02  0.00000000000E+00 0. -1.
</event>
<event>
 7    1  0.5935282E-013  0.5052882E+02  0.7816164E-02  0.1300439E+00
        -11   -1    0    0    0    0  0.00000000000E+00  0.00000000000E+00  0.45593999997E+02  0.45594000000E+02  0.51100000000E-03 0. -1.
         11   -1    0    0    0    0 -0.00000000000E+00 -0.00000000000E+00 -0.45593999997E+02  0.45594000000E+02  0.51100000000E-03 0.  1.
    9900012    2    1    2    0    0 -0.21430777534E+02  0.20794940415E+02  0.27594584455E+02  0.50528820670E+02  0.29999880907E+02 0.  0.
        -12    1    1    2    0    0  0.21430777534E+02 -0.20794940415E+02 -0.27594584455E+02  0.40659179330E+02  0.00000000000E+00 0.  1.
         11    1    3    3    0    0 -0.52412363726E+01  0.16030017952E+02  0.13799928137E+02  0.21791513281E+02  0.51100000000E-03 0. -1.
        -11    1    3    3    0    0 -0.50378788841E+00 -0.11299866318E+01 -0.40639330718E+01  0.42480847799E+01  0.51100000000E-03 0.  1.
         12    1    3    3    0    0 -0.15685753273E+02  0.58949090955E+01  0.17858589389E+02  0.24489222608E+02  0.00000000000E+00 0. -1.
</event>
<event>
 7    1  0.5935282E-013  0.5052887E+02  0.7816164E-02  0.1300439E+00
        -11   -1    0    0    0    0  0.00000000000E+00  0.00000000000E+00  0.45593999997E+02  0.45594000000E+02  0.51100000000E-03 0. -1.
         11   -1    0    0    0    0 -0.00000000000E+00 -0.00000000000E+00 -0.45593999997E+02  0.45594000000E+02  0.51100000000E-03 0.  1.
    9900012    2    1    2    0    0  0.26200464626E+02 -0.30679557898E+02  0.50463171554E+01  0.50528868968E+02  0.30000027716E+02 0.  0.
        -12    1    1    2    0    0 -0.26200464626E+02  0.30679557898E+02 -0.50463171554E+01  0.40659131032E+02  0.00000000000E+00 0.  1.
         11    1    3    3    0    0 -0.17887784516E+01 -0.19131963954E+01 -0.14349063424E+01  0.29864703697E+01  0.51100000000E-03 0. -1.
        -11    1    3    3    0    0  0.34833904026E+01 -0.44362352695E+01 -0.82543077446E+01  0.99973890926E+01  0.51100000000E-03 0.  1.
         12    1    3    3    0    0  0.24505852675E+02 -0.24330126233E+02  0.14735531242E+02  0.37545009506E+02  0.00000000000E+00 0. -1.
</event>
<event>
 7    1  0.5935282E-013  0.5052885E+02  0.7816164E-02  0.1300439E+00
        -11   -1    0    0    0    0  0.00000000000E+00  0.00000000000E+00  0.45593999997E+02  0.45594000000E+02  0.51100000000E-03 0.  1.
         11   -1    0    0    0    0 -0.00000000000E+00 -0.00000000000E+00 -0.45593999997E+02  0.45594000000E+02  0.51100000000E-03 0. -1.
    9900012    2    1    2    0    0  0.71622667142E+01 -0.40018532271E+02 -0.62112242871E+00  0.50528846262E+02  0.29999958697E+02 0.  0.
        -12    1    1    2    0    0 -0.71622667142E+01  0.40018532271E+02  0.62112242871E+00  0.40659153738E+02  0.00000000000E+00 0.  1.
         11    1    3    3    0    0  0.51881174958E+01 -0.29604224723E+01 -0.20767660262E+01  0.63240510555E+01  0.51100000000E-03 0. -1.
        -11    1    3    3    0    0 -0.20109851208E+01  0.29317269620E+01  0.18653383589E+01  0.40147940907E+01  0.51100000000E-03 0.  1.
        -12    1    3    3    0    0  0.39851343392E+01 -0.39989836761E+02 -0.40969476143E+00  0.40190001116E+02  0.00000000000E+00 0.  1.
</event>
<event>
 7    1  0.5935282E-013  0.5052886E+02  0.7816164E-02  0.1300439E+00
        -11   -1    0    0    0    0  0.00000000000E+00  0.00000000000E+00  0.45593999997E+02  0.45594000000E+02  0.51100000000E-03 0. -1.
         11   -1    0    0    0    0 -0.00000000000E+00 -0.00000000000E+00 -0.45593999997E+02  0.45594000000E+02  0.51100000000E-03 0.  1.
    9900012    2    1    2    0    0 -0.18048683533E+02  0.29043545582E+02  0.21997343984E+02  0.50528860073E+02  0.30000000678E+02 0.  0.
        -12    1    1    2    0    0  0.18048683533E+02 -0.29043545582E+02 -0.21997343984E+02  0.40659139927E+02  0.00000000000E+00 0.  1.
         11    1    3    3    0    0 -0.60729499240E+01  0.24612948730E+02  0.19211094992E+02  0.31807925695E+02  0.51100000000E-03 0. -1.
        -11    1    3    3    0    0  0.27239898784E+00  0.60990101304E+01  0.30216667416E+00  0.61125633526E+01  0.51100000000E-03 0.  1.
         12    1    3    3    0    0 -0.12248132596E+02 -0.16684132777E+01  0.24840823173E+01  0.12608371026E+02  0.00000000000E+00 0. -1.
</event>
<event>
 7    1  0.5935282E-013  0.5052886E+02  0.7816164E-02  0.1300439E+00
        -11   -1    0    0    0    0  0.00000000000E+00  0.00000000000E+00  0.45593999997E+02  0.45594000000E+02  0.51100000000E-03 0.  1.
         11   -1    0    0    0    0 -0.00000000000E+00 -0.00000000000E+00 -0.45593999997E+02  0.45594000000E+02  0.51100000000E-03 0. -1.
    9900012    2    1    2    0    0 -0.15354518597E+01 -0.32189657171E+02 -0.24791808173E+02  0.50528863343E+02  0.30000010617E+02 0.  0.
        -12    1    1    2    0    0  0.15354518597E+01  0.32189657171E+02  0.24791808173E+02  0.40659136657E+02  0.00000000000E+00 0.  1.
         11    1    3    3    0    0  0.76162429307E+01 -0.20766091088E+01 -0.47064704829E+01  0.91907739847E+01  0.51100000000E-03 0. -1.
        -11    1    3    3    0    0  0.11203840899E+01  0.15231908579E+01 -0.39278573382E+01  0.43592928818E+01  0.51100000000E-03 0.  1.
         12    1    3    3    0    0 -0.10272078880E+02 -0.31636238920E+02 -0.16157480352E+02  0.36978796477E+02  0.00000000000E+00 0. -1.
</event>
<event>
 7    1  0.5935282E-013  0.5052878E+02  0.7816164E-02  0.1300439E+00
        -11   -1    0    0    0    0  0.00000000000E+00  0.00000000000E+00  0.45593999997E+02  0.45594000000E+02  0.51100000000E-03 0.  1.
         11   -1    0    0    0    0 -0.00000000000E+00 -0.00000000000E+00 -0.45593999997E+02  0.45594000000E+02  0.51100000000E-03 0. -1.
    9900012    2    1    2    0    0  0.17309000017E+02  0.17179233751E+02 -0.32533744767E+02  0.50528780844E+02  0.29999759851E+02 0.  0.
        -12    1    1    2    0    0 -0.17309000017E+02 -0.17179233751E+02  0.32533744767E+02  0.40659219156E+02  0.00000000000E+00 0.  1.
         11    1    3    3    0    0  0.65030488853E+00  0.76642834450E+01 -0.17993998302E+02  0.19569060078E+02  0.51100000000E-03 0. -1.
        -11    1    3    3    0    0 -0.20112010724E+01 -0.38476769734E+01 -0.17729092800E+01  0.46896434215E+01  0.51100000000E-03 0.  1.
        -12    1    3    3    0    0  0.18669896201E+02  0.13362627279E+02 -0.12766837184E+02  0.26270077344E+02  0.00000000000E+00 0.  1.
</event>
<event>
 7    1  0.5935282E-013  0.5052886E+02  0.7816164E-02  0.1300439E+00
        -11   -1    0    0    0    0  0.00000000000E+00  0.00000000000E+00  0.45593999997E+02  0.45594000000E+02  0.51100000000E-03 0. -1.
         11   -1    0    0    0    0 -0.00000000000E+00 -0.00000000000E+00 -0.45593999997E+02  0.45594000000E+02  0.51100000000E-03 0.  1.
    9900012    2    1    2    0    0 -0.38070930936E+02 -0.10714664151E+02 -0.94321839531E+01  0.50528857063E+02  0.29999991529E+02 0.  0.
        -12    1    1    2    0    0  0.38070930936E+02  0.10714664151E+02  0.94321839531E+01  0.40659142937E+02  0.00000000000E+00 0.  1.
         11    1    3    3    0    0 -0.76797430465E+01 -0.83445106051E+01  0.40771431448E+01  0.12051240890E+02  0.51100000000E-03 0. -1.
        -11    1    3    3    0    0 -0.79924081395E+01 -0.93819812352E+01 -0.26025491773E+01  0.12596563906E+02  0.51100000000E-03 0.  1.
         12    1    3    3    0    0 -0.22398779750E+02  0.70118276890E+01 -0.10906777921E+02  0.25881052267E+02  0.00000000000E+00 0. -1.
</event>
<event>
 7    1  0.5935282E-013  0.5052886E+02  0.7816164E-02  0.1300439E+00
        -11   -1    0    0    0    0  0.00000000000E+00  0.00000000000E+00  0.45593999997E+02  0.45594000000E+02  0.51100000000E-03 0. -1.
         11   -1    0    0    0    0 -0.00000000000E+00 -0.00000000000E+00 -0.45593999997E+02  0.45594000000E+02  0.51100000000E-03 0.  1.
    9900012    2    1    2    0    0 -0.11543629953E+02  0.21709764312E+02  0.32382034936E+02  0.50528862705E+02  0.30000008678E+02 0.  0.
        -12    1    1    2    0    0  0.11543629953E+02 -0.21709764312E+02 -0.32382034936E+02  0.40659137295E+02  0.00000000000E+00 0.  1.
         11    1    3    3    0    0 -0.25540665195E+01  0.12318316750E+02  0.23290692859E+02  0.26471126864E+02  0.51100000000E-03 0.  1.
        -11    1    3    3    0    0  0.37194658596E+01  0.23561523906E+01  0.84368698366E+01  0.95166513685E+01  0.51100000000E-03 0. -1.
        -12    1    3    3    0    0 -0.12709029293E+02  0.70352951713E+01  0.65447224034E+00  0.14541084472E+02  0.00000000000E+00 0.  1.
</event>
<event>
 7    1  0.5935282E-013  0.5052888E+02  0.7816164E-02  0.1300439E+00
        -11   -1    0    0    0    0  0.00000000000E+00  0.00000000000E+00  0.45593999997E+02  0.45594000000E+02  0.51100000000E-03 0. -1.
         11   -1    0    0    0    0 -0.00000000000E+00 -0.00000000000E+00 -0.45593999997E+02  0.45594000000E+02  0.51100000000E-03 0.  1.
    9900012    2    1    2    0    0  0.20237522301E+02  0.34407302656E+02  0.77294419732E+01  0.50528879767E+02  0.30000060538E+02 0.  0.
        -12    1    1    2    0    0 -0.20237522301E+02 -0.34407302656E+02 -0.77294419732E+01  0.40659120233E+02  0.00000000000E+00 0.  1.
         11    1    3    3    0    0  0.10288825589E+02  0.98900835940E+01  0.39734781575E+01  0.14814257134E+02  0.51100000000E-03 0. -1.
        -11    1    3    3    0    0  0.11500715580E+02  0.44436620283E+01  0.85679839913E+01  0.15014091414E+02  0.51100000000E-03 0.  1.
        -12    1    3    3    0    0 -0.15520188678E+01  0.20073557034E+02 -0.48120201755E+01  0.20700531218E+02  0.00000000000E+00 0.  1.
</event>
<event>
 7    1  0.5935282E-013  0.5052886E+02  0.7816164E-02  0.1300439E+00
        -11   -1    0    0    0    0  0.00000000000E+00  0.00000000000E+00  0.45593999997E+02  0.45594000000E+02  0.51100000000E-03 0. -1.
         11   -1    0    0    0    0 -0.00000000000E+00 -0.00000000000E+00 -0.45593999997E+02  0.45594000000E+02  0.51100000000E-03 0.  1.
    9900012    2    1    2    0    0 -0.34425657582E+01 -0.14729491454E+02  0.37740651667E+02  0.50528856309E+02  0.29999989236E+02 0.  0.
        -12    1    1    2    0    0  0.34425657582E+01  0.14729491454E+02 -0.37740651667E+02  0.40659143691E+02  0.00000000000E+00 0.  1.
         11    1    3    3    0    0 -0.10750776179E+01 -0.52268083395E+00  0.16695717485E+02  0.16738457807E+02  0.51100000000E-03 0. -1.
        -11    1    3    3    0    0 -0.10136328724E+02 -0.60487055956E+00  0.48282022384E+01  0.11243778970E+02  0.51100000000E-03 0.  1.
         12    1    3    3    0    0  0.77688405842E+01 -0.13601940060E+02  0.16216731943E+02  0.22546619532E+02  0.00000000000E+00 0. -1.
</event>
<event>
 7    1  0.5935282E-013  0.5052886E+02  0.7816164E-02  0.1300439E+00
        -11   -1    0    0    0    0  0.00000000000E+00  0.00000000000E+00  0.45593999997E+02  0.45594000000E+02  0.51100000000E-03 0.  1.
         11   -1    0    0    0    0 -0.00000000000E+00 -0.00000000000E+00 -0.45593999997E+02  0.45594000000E+02  0.51100000000E-03 0. -1.
    9900012    2    1    2    0    0 -0.63728480700E+01 -0.39933357667E+02 -0.42283771789E+01  0.50528863012E+02  0.30000009610E+02 0.  0.
        -12    1    1    2    0    0  0.63728480700E+01  0.39933357667E+02  0.42283771789E+01  0.40659136988E+02  0.00000000000E+00 0.  1.
         11    1    3    3    0    0 -0.55628311974E+01 -0.28867597880E+02 -0.99365153726E+01  0.31032525458E+02  0.51100000000E-03 0. -1.
        -11    1    3    3    0    0 -0.56771024107E+01 -0.81178901762E+01 -0.18075136642E+01  0.10069594759E+02  0.51100000000E-03 0.  1.
        -12    1    3    3    0    0  0.48670855380E+01 -0.29478696107E+01  0.75156518580E+01  0.94267427952E+01  0.00000000000E+00 0.  1.
</event>
<event>
 7    1  0.5935282E-013  0.5052886E+02  0.7816164E-02  0.1300439E+00
        -11   -1    0    0    0    0  0.00000000000E+00  0.00000000000E+00  0.45593999997E+02  0.45594000000E+02  0.51100000000E-03 0.  1.
         11   -1    0    0    0    0 -0.00000000000E+00 -0.00000000000E+00 -0.45593999997E+02  0.45594000000E+02  0.51100000000E-03 0. -1.
    9900012    2    1    2    0    0  0.11742833119E+02 -0.30947111625E+01 -0.38803272433E+02  0.50528864269E+02  0.30000013432E+02 0.  0.
        -12    1    1    2    0    0 -0.11742833119E+02  0.30947111625E+01  0.38803272433E+02  0.40659135731E+02  0.00000000000E+00 0.  1.
         11    1    3    3    0    0  0.10655168914E+02 -0.84632141391E+01 -0.32357749524E+02  0.35102458214E+02  0.51100000000E-03 0. -1.
        -11    1    3    3    0    0  0.30430722746E+01  0.60022080995E+01 -0.95622528026E+01  0.11692881162E+02  0.51100000000E-03 0.  1.
        -12    1    3    3    0    0 -0.19554080694E+01 -0.63370512286E+00  0.31167298933E+01  0.37335248933E+01  0.00000000000E+00 0.  1.
</event>
<event>
 7    1  0.5935282E-013  0.5052886E+02  0.7816164E-02  0.1300439E+00
        -11   -1    0    0    0    0  0.00000000000E+00  0.00000000000E+00  0.45593999997E+02  0.45594000000E+02  0.51100000000E-03 0. -1.
         11   -1    0    0    0    0 -0.00000000000E+00 -0.00000000000E+00 -0.45593999997E+02  0.45594000000E+02  0.51100000000E-03 0.  1.
    9900012    2    1    2    0    0  0.34219973843E+02 -0.14781601285E+02  0.16237722412E+02  0.50528856188E+02  0.29999988870E+02 0.  0.
        -12    1    1    2    0    0 -0.34219973843E+02  0.14781601285E+02 -0.16237722412E+02  0.40659143812E+02  0.00000000000E+00 0.  1.
         11    1    3    3    0    0  0.20505961526E+02 -0.37935404797E+01 -0.59217536501E+00  0.20862312417E+02  0.51100000000E-03 0. -1.
        -11    1    3    3    0    0  0.61870804676E+01 -0.14808150293E+01 -0.25103515452E+01  0.68391990032E+01  0.51100000000E-03 0.  1.
         12    1    3    3    0    0  0.75269318495E+01 -0.95072457761E+01  0.19340249322E+02  0.22827344768E+02  0.00000000000E+00 0. -1.
</event>
<event>
 7    1  0.5935282E-013  0.5052886E+02  0.7816164E-02  0.1300439E+00
        -11   -1    0    0    0    0  0.00000000000E+00  0.00000000000E+00  0.45593999997E+02  0.45594000000E+02  0.51100000000E-03 0.  1.
         11   -1    0    0    0    0 -0.00000000000E+00 -0.00000000000E+00 -0.45593999997E+02  0.45594000000E+02  0.51100000000E-03 0. -1.
    9900012    2    1    2    0    0 -0.81658418409E+01  0.21440455352E+02 -0.33567715529E+02  0.50528860505E+02  0.30000001990E+02 0.  0.
        -12    1    1    2    0    0  0.81658418409E+01 -0.21440455352E+02  0.33567715529E+02  0.40659139495E+02  0.00000000000E+00 0.  1.
         11    1    3    3    0    0 -0.54237247664E+01  0.80113151770E+00 -0.66871409090E+01  0.86473380787E+01  0.51100000000E-03 0.  1.
        -11    1    3    3    0    0 -0.52660036899E+01 -0.19348872063E+01  0.12270590223E+01  0.57428440227E+01  0.51100000000E-03 0. -1.
         12    1    3    3    0    0  0.25238866154E+01  0.22574211040E+02 -0.28107633643E+02  0.36138678403E+02  0.00000000000E+00 0. -1.
</event>
<event>
 7    1  0.5935282E-013  0.5052884E+02  0.7816164E-02  0.1300439E+00
        -11   -1    0    0    0    0  0.00000000000E+00  0.00000000000E+00  0.45593999997E+02  0.45594000000E+02  0.51100000000E-03 0. -1.
         11   -1    0    0    0    0 -0.00000000000E+00 -0.00000000000E+00 -0.45593999997E+02  0.45594000000E+02  0.51100000000E-03 0.  1.
    9900012    2    1    2    0    0 -0.96635419163E+01  0.38748276089E+02  0.76390053393E+01  0.50528839349E+02  0.29999937686E+02 0.  0.
        -12    1    1    2    0    0  0.96635419163E+01 -0.38748276089E+02 -0.76390053393E+01  0.40659160651E+02  0.00000000000E+00 0.  1.
         11    1    3    3    0    0 -0.11986631321E+01  0.17784523147E+02 -0.77539888021E+01  0.19438374404E+02  0.51100000000E-03 0. -1.
        -11    1    3    3    0    0 -0.84200347280E+01  0.19137454378E+02  0.63298683937E+01  0.21845053881E+02  0.51100000000E-03 0.  1.
        -12    1    3    3    0    0 -0.44844056145E-01  0.18262985641E+01  0.90631257477E+01  0.92454110646E+01  0.00000000000E+00 0.  1.
</event>
<event>
 7    1  0.5935282E-013  0.5052886E+02  0.7816164E-02  0.1300439E+00
        -11   -1    0    0    0    0  0.00000000000E+00  0.00000000000E+00  0.45593999997E+02  0.45594000000E+02  0.51100000000E-03 0.  1.
         11   -1    0    0    0    0 -0.00000000000E+00 -0.00000000000E+00 -0.45593999997E+02  0.45594000000E+02  0.51100000000E-03 0. -1.
    9900012    2    1    2    0    0 -0.27279742928E+02 -0.21058167911E+02 -0.21576260790E+02  0.50528857859E+02  0.29999993950E+02 0.  0.
        -12    1    1    2    0    0  0.27279742928E+02  0.21058167911E+02  0.21576260790E+02  0.40659142141E+02  0.00000000000E+00 0.  1.
         11    1    3    3    0    0 -0.76158167969E+01 -0.41314342249E+01  0.55045219844E-01  0.86644356121E+01  0.51100000000E-03 0.  1.
        -11    1    3    3    0    0 -0.44486050868E+01  0.64589893570E+01 -0.60780082143E+01  0.99222383990E+01  0.51100000000E-03 0. -1.
         12    1    3    3    0    0 -0.15215321044E+02 -0.23385723043E+02 -0.15553297795E+02  0.31942183848E+02  0.00000000000E+00 0. -1.
</event>
<event>
 7    1  0.5935282E-013  0.5052885E+02  0.7816164E-02  0.1300439E+00
        -11   -1    0    0    0    0  0.00000000000E+00  0.00000000000E+00  0.45593999997E+02  0.45594000000E+02  0.51100000000E-03 0.  1.
         11   -1    0    0    0    0 -0.00000000000E+00 -0.00000000000E+00 -0.45593999997E+02  0.45594000000E+02  0.51100000000E-03 0. -1.
    9900012    2    1    2    0    0  0.12597676397E+02  0.30666561397E+02 -0.23537778893E+02  0.50528850062E+02  0.29999970247E+02 0.  0.
        -12    1    1    2    0    0 -0.12597676397E+02 -0.30666561397E+02  0.23537778893E+02  0.40659149938E+02  0.00000000000E+00 0.  1.
         11    1    3    3    0    0  0.16129757171E+01  0.11371855909E+01 -0.28561564389E+01  0.34716727376E+01  0.51100000000E-03 0. -1.
        -11    1    3    3    0    0 -0.83711879475E+01  0.22104367976E+01 -0.27959758422E+01  0.90983679668E+01  0.51100000000E-03 0.  1.
        -12    1    3    3    0    0  0.19355888627E+02  0.27318939008E+02 -0.17885646612E+02  0.37958809357E+02  0.00000000000E+00 0.  1.
</event>
<event>
 7    1  0.5935282E-013  0.5052879E+02  0.7816164E-02  0.1300439E+00
        -11   -1    0    0    0    0  0.00000000000E+00  0.00000000000E+00  0.45593999997E+02  0.45594000000E+02  0.51100000000E-03 0.  1.
         11   -1    0    0    0    0 -0.00000000000E+00 -0.00000000000E+00 -0.45593999997E+02  0.45594000000E+02  0.51100000000E-03 0. -1.
    9900012    2    1    2    0    0 -0.32336095618E+02  0.14870789385E+02  0.19657262653E+02  0.50528789091E+02  0.29999784919E+02 0.  0.
        -12    1    1    2    0    0  0.32336095618E+02 -0.14870789385E+02 -0.19657262653E+02  0.40659210909E+02  0.00000000000E+00 0.  1.
         11    1    3    3    0    0  0.10053353656E+01 -0.25931351666E+00 -0.72909755524E+00  0.12686710383E+01  0.51100000000E-03 0. -1.
        -11    1    3    3    0    0 -0.90667734081E+01  0.17349373852E+02  0.42634488938E+01  0.20034573862E+02  0.51100000000E-03 0.  1.
         12    1    3    3    0    0 -0.24274657576E+02 -0.22192709507E+01  0.16122911314E+02  0.29225544190E+02  0.00000000000E+00 0. -1.
</event>
<event>
 7    1  0.5935282E-013  0.5052886E+02  0.7816164E-02  0.1300439E+00
        -11   -1    0    0    0    0  0.00000000000E+00  0.00000000000E+00  0.45593999997E+02  0.45594000000E+02  0.51100000000E-03 0. -1.
         11   -1    0    0    0    0 -0.00000000000E+00 -0.00000000000E+00 -0.45593999997E+02  0.45594000000E+02  0.51100000000E-03 0.  1.
    9900012    2    1    2    0    0 -0.23273567616E+02  0.10016941566E+02  0.31798865988E+02  0.50528856550E+02  0.29999989970E+02 0.  0.
        -12    1    1    2    0    0  0.23273567616E+02 -0.10016941566E+02 -0.31798865988E+02  0.40659143450E+02  0.00000000000E+00 0.  1.
         11    1    3    3    0    0 -0.47754659916E+01  0.42702739935E-01  0.23308136573E+02  0.23792354439E+02  0.51100000000E-03 0. -1.
        -11    1    3    3    0    0 -0.81412791678E+01 -0.42320128745E+00  0.88815850361E+01  0.12055790262E+02  0.51100000000E-03 0.  1.
        -12    1    3    3    0    0 -0.10356822457E+02  0.10397440113E+02 -0.39085562095E+00  0.14680711850E+02  0.00000000000E+00 0.  1.
</event>
<event>
 7    1  0.5935282E-013  0.5052890E+02  0.7816164E-02  0.1300439E+00
        -11   -1    0    0    0    0  0.00000000000E+00  0.00000000000E+00  0.45593999997E+02  0.45594000000E+02  0.51100000000E-03 0.  1.
         11   -1    0    0    0    0 -0.00000000000E+00 -0.00000000000E+00 -0.45593999997E+02  0.45594000000E+02  0.51100000000E-03 0. -1.
    9900012    2    1    2    0    0  0.36007958551E+02 -0.18658541357E+02  0.29065677926E+01  0.50528900392E+02  0.30000123233E+02 0.  0.
        -12    1    1    2    0    0 -0.36007958551E+02  0.18658541357E+02 -0.29065677926E+01  0.40659099608E+02  0.00000000000E+00 0.  1.
         11    1    3    3    0    0  0.12741769855E+02 -0.68519015417E+01 -0.82121513521E+01  0.16635524755E+02  0.51100000000E-03 0. -1.
        -11    1    3    3    0    0  0.87069713493E+01 -0.93279904052E+01 -0.33768982040E+01  0.13199477142E+02  0.51100000000E-03 0.  1.
        -12    1    3    3    0    0  0.14559217346E+02 -0.24786494105E+01  0.14495617349E+02  0.20693898496E+02  0.00000000000E+00 0.  1.
</event>
<event>
 7    1  0.5935282E-013  0.5052883E+02  0.7816164E-02  0.1300439E+00
        -11   -1    0    0    0    0  0.00000000000E+00  0.00000000000E+00  0.45593999997E+02  0.45594000000E+02  0.51100000000E-03 0.  1.
         11   -1    0    0    0    0 -0.00000000000E+00 -0.00000000000E+00 -0.45593999997E+02  0.45594000000E+02  0.51100000000E-03 0. -1.
    9900012    2    1    2    0    0  0.35037563018E+02  0.14716793964E+02 -0.14455211392E+02  0.50528831498E+02  0.29999913822E+02 0.  0.
        -12    1    1    2    0    0 -0.35037563018E+02 -0.14716793964E+02  0.14455211392E+02  0.40659168502E+02  0.00000000000E+00 0.  1.
         11    1    3    3    0    0  0.69016439256E+01 -0.58045469539E+01 -0.26941962303E+01  0.94119152038E+01  0.51100000000E-03 0. -1.
        -11    1    3    3    0    0  0.13369742278E+02 -0.62623482042E+00 -0.61071244652E+01  0.14711870993E+02  0.51100000000E-03 0.  1.
         12    1    3    3    0    0  0.14766176815E+02  0.21147575739E+02 -0.56538906969E+01  0.26405045301E+02  0.00000000000E+00 0. -1.
</event>
<event>
 7    1  0.5935282E-013  0.5052886E+02  0.7816164E-02  0.1300439E+00
        -11   -1    0    0    0    0  0.00000000000E+00  0.00000000000E+00  0.45593999997E+02  0.45594000000E+02  0.51100000000E-03 0.  1.
         11   -1    0    0    0    0 -0.00000000000E+00 -0.00000000000E+00 -0.45593999997E+02  0.45594000000E+02  0.51100000000E-03 0. -1.
    9900012    2    1    2    0    0  0.32441270063E+02 -0.14276982402E+02 -0.19922290624E+02  0.50528857196E+02  0.29999991933E+02 0.  0.
        -12    1    1    2    0    0 -0.32441270063E+02  0.14276982402E+02  0.19922290624E+02  0.40659142804E+02  0.00000000000E+00 0.  1.
         11    1    3    3    0    0  0.23219889823E+02 -0.29302071028E+00 -0.14044998618E+02  0.27138738566E+02  0.51100000000E-03 0. -1.
        -11    1    3    3    0    0  0.11606610797E+02 -0.42917831690E+01 -0.14103352762E+01  0.12454792765E+02  0.51100000000E-03 0.  1.
         12    1    3    3    0    0 -0.23852305573E+01 -0.96921785231E+01 -0.44669567304E+01  0.10935325865E+02  0.00000000000E+00 0. -1.
</event>
<event>
 7    1  0.5935282E-013  0.5052886E+02  0.7816164E-02  0.1300439E+00
        -11   -1    0    0    0    0  0.00000000000E+00  0.00000000000E+00  0.45593999997E+02  0.45594000000E+02  0.51100000000E-03 0. -1.
         11   -1    0    0    0    0 -0.00000000000E+00 -0.00000000000E+00 -0.45593999997E+02  0.45594000000E+02  0.51100000000E-03 0.  1.
    9900012    2    1    2    0    0  0.13684235980E+02  0.33316414331E+02  0.18865944930E+02  0.50528860114E+02  0.30000000801E+02 0.  0.
        -12    1    1    2    0    0 -0.13684235980E+02 -0.33316414331E+02 -0.18865944930E+02  0.40659139886E+02  0.00000000000E+00 0.  1.
         11    1    3    3    0    0 -0.15938357641E+01  0.13159710838E+02  0.11174092417E+02  0.17337204025E+02  0.51100000000E-03 0. -1.
        -11    1    3    3    0    0  0.10585437109E+02  0.23918533813E+02  0.73421509717E+01  0.27167166207E+02  0.51100000000E-03 0.  1.
         12    1    3    3    0    0  0.46926346347E+01 -0.37618303202E+01  0.34970154123E+00  0.60244898822E+01  0.00000000000E+00 0. -1.
</event>
<event>
 7    1  0.5935282E-013  0.5052885E+02  0.7816164E-02  0.1300439E+00
        -11   -1    0    0    0    0  0.00000000000E+00  0.00000000000E+00  0.45593999997E+02  0.45594000000E+02  0.51100000000E-03 0.  1.
         11   -1    0    0    0    0 -0.00000000000E+00 -0.00000000000E+00 -0.45593999997E+02  0.45594000000E+02  0.51100000000E-03 0. -1.
    9900012    2    1    2    0    0  0.98818742234E+01  0.34822976360E+02 -0.18516889327E+02  0.50528852061E+02  0.29999976325E+02 0.  0.
        -12    1    1    2    0    0 -0.98818742234E+01 -0.34822976360E+02  0.18516889327E+02  0.40659147939E+02  0.00000000000E+00 0.  1.
         11    1    3    3    0    0  0.56604145679E+01  0.19792014213E+02 -0.15258821352E+02  0.25624124356E+02  0.51100000000E-03 0. -1.
        -11    1    3    3    0    0  0.26896093443E+01  0.13608165428E+02 -0.10480658414E+02  0.17385636767E+02  0.51100000000E-03 0.  1.
        -12    1    3    3    0    0  0.15318503111E+01  0.14227967191E+01  0.72225904393E+01  0.75190909380E+01  0.00000000000E+00 0.  1.
</event>
<event>
 7    1  0.5935282E-013  0.5052885E+02  0.7816164E-02  0.1300439E+00
        -11   -1    0    0    0    0  0.00000000000E+00  0.00000000000E+00  0.45593999997E+02  0.45594000000E+02  0.51100000000E-03 0.  1.
         11   -1    0    0    0    0 -0.00000000000E+00 -0.00000000000E+00 -0.45593999997E+02  0.45594000000E+02  0.51100000000E-03 0. -1.
    9900012    2    1    2    0    0 -0.23617852537E+02  0.15696232782E+02 -0.29137462039E+02  0.50528851263E+02  0.29999973898E+02 0.  0.
        -12    1    1    2    0    0  0.23617852537E+02 -0.15696232782E+02  0.29137462039E+02  0.40659148737E+02  0.00000000000E+00 0.  1.
         11    1    3    3    0    0  0.87795244831E+00 -0.19244476804E+01  0.15323076324E+01  0.26119468443E+01  0.51100000000E-03 0.  1.
        -11    1    3    3    0    0 -0.53186915148E+01  0.83942874307E+01  0.75298247413E+00  0.99659181095E+01  0.51100000000E-03 0. -1.
         12    1    3    3    0    0 -0.19177113470E+02  0.92263930317E+01 -0.31422752145E+02  0.37950986309E+02  0.00000000000E+00 0. -1.
</event>
<event>
 7    1  0.5935282E-013  0.5052885E+02  0.7816164E-02  0.1300439E+00
        -11   -1    0    0    0    0  0.00000000000E+00  0.00000000000E+00  0.45593999997E+02  0.45594000000E+02  0.51100000000E-03 0.  1.
         11   -1    0    0    0    0 -0.00000000000E+00 -0.00000000000E+00 -0.45593999997E+02  0.45594000000E+02  0.51100000000E-03 0. -1.
    9900012    2    1    2    0    0 -0.23995144121E+02 -0.19977642729E+02 -0.26044071948E+02  0.50528845631E+02  0.29999956780E+02 0.  0.
        -12    1    1    2    0    0  0.23995144121E+02  0.19977642729E+02  0.26044071948E+02  0.40659154369E+02  0.00000000000E+00 0.  1.
         11    1    3    3    0    0 -0.23284757485E+01  0.60734270302E+00 -0.26983871150E+01  0.36155162500E+01  0.51100000000E-03 0. -1.
        -11    1    3    3    0    0 -0.21398784376E+02 -0.16009201947E+02 -0.39881309531E+01  0.27020505335E+02  0.51100000000E-03 0.  1.
         12    1    3    3    0    0 -0.26788399621E+00 -0.45757834844E+01 -0.19357553880E+02  0.19892824046E+02  0.00000000000E+00 0. -1.
</event>
<event>
 7    1  0.5935282E-013  0.5052887E+02  0.7816164E-02  0.1300439E+00
        -11   -1    0    0    0    0  0.00000000000E+00  0.00000000000E+00  0.45593999997E+02  0.45594000000E+02  0.51100000000E-03 0. -1.
         11   -1    0    0    0    0 -0.00000000000E+00 -0.00000000000E+00 -0.45593999997E+02  0.45594000000E+02  0.51100000000E-03 0.  1.
    9900012    2    1    2    0    0 -0.14935245171E+02 -0.20270194377E+02  0.31925271003E+02  0.50528865024E+02  0.30000015726E+02 0.  0.
        -12    1    1    2    0    0  0.14935245171E+02  0.20270194377E+02 -0.31925271003E+02  0.40659134976E+02  0.00000000000E+00 0.  1.
         11    1    3    3    0    0 -0.69700390392E+01 -0.15579476002E+02  0.27888814914E+02  0.32696903742E+02  0.51100000000E-03 0. -1.
        -11    1    3    3    0    0 -0.81114708351E+01 -0.91231010833E+01  0.51657554237E+01  0.13255638870E+02  0.51100000000E-03 0.  1.
        -12    1    3    3    0    0  0.14626470350E+00  0.44323827079E+01 -0.11292993352E+01  0.45763224123E+01  0.00000000000E+00 0.  1.
</event>
<event>
 7    1  0.5935282E-013  0.5052886E+02  0.7816164E-02  0.1300439E+00
        -11   -1    0    0    0    0  0.00000000000E+00  0.00000000000E+00  0.45593999997E+02  0.45594000000E+02  0.51100000000E-03 0.  1.
         11   -1    0    0    0    0 -0.00000000000E+00 -0.00000000000E+00 -0.45593999997E+02  0.45594000000E+02  0.51100000000E-03 0. -1.
    9900012    2    1    2    0    0 -0.38317174755E+02 -0.11245786159E+02 -0.76480036898E+01  0.50528861446E+02  0.30000004850E+02 0.  0.
        -12    1    1    2    0    0  0.38317174755E+02  0.11245786159E+02  0.76480036898E+01  0.40659138554E+02  0.00000000000E+00 0.  1.
         11    1    3    3    0    0 -0.14164426809E+02  0.64379655295E+01 -0.44617409768E+00  0.15565264488E+02  0.51100000000E-03 0. -1.
        -11    1    3    3    0    0 -0.17061317749E+02 -0.13667382188E+02  0.28250395823E+01  0.22042385264E+02  0.51100000000E-03 0.  1.
         12    1    3    3    0    0 -0.70914301968E+01 -0.40163695002E+01 -0.10026869174E+02  0.12921211694E+02  0.00000000000E+00 0. -1.
</event>
<event>
 7    1  0.5935282E-013  0.5052886E+02  0.7816164E-02  0.1300439E+00
        -11   -1    0    0    0    0  0.00000000000E+00  0.00000000000E+00  0.45593999997E+02  0.45594000000E+02  0.51100000000E-03 0. -1.
         11   -1    0    0    0    0 -0.00000000000E+00 -0.00000000000E+00 -0.45593999997E+02  0.45594000000E+02  0.51100000000E-03 0.  1.
    9900012    2    1    2    0    0 -0.39221369416E+02 -0.91049770854E+01 -0.56523530715E+01  0.50528861767E+02  0.30000005828E+02 0.  0.
        -12    1    1    2    0    0  0.39221369416E+02  0.91049770854E+01  0.56523530715E+01  0.40659138233E+02  0.00000000000E+00 0.  1.
         11    1    3    3    0    0 -0.52102998446E+01  0.14497212729E+01  0.63728552538E+01  0.83583611185E+01  0.51100000000E-03 0. -1.
        -11    1    3    3    0    0 -0.21300444160E+01  0.10431666383E+01  0.40004963805E+01  0.46507265455E+01  0.51100000000E-03 0.  1.
        -12    1    3    3    0    0 -0.31881025155E+02 -0.11597864997E+02 -0.16025704706E+02  0.37519774103E+02  0.00000000000E+00 0.  1.
</event>
<event>
 7    1  0.5935282E-013  0.5052887E+02  0.7816164E-02  0.1300439E+00
        -11   -1    0    0    0    0  0.00000000000E+00  0.00000000000E+00  0.45593999997E+02  0.45594000000E+02  0.51100000000E-03 0.  1.
         11   -1    0    0    0    0 -0.00000000000E+00 -0.00000000000E+00 -0.45593999997E+02  0.45594000000E+02  0.51100000000E-03 0. -1.
    9900012    2    1    2    0    0  0.29847690515E+02 -0.27599893826E+02  0.72536624103E+00  0.50528869113E+02  0.30000028156E+02 0.  0.
        -12    1    1    2    0    0 -0.29847690515E+02  0.27599893826E+02 -0.72536624103E+00  0.40659130887E+02  0.00000000000E+00 0.  1.
         11    1    3    3    0    0  0.21828904608E+02 -0.81503165023E+01  0.63841356005E+01  0.24159592776E+02  0.51100000000E-03 0. -1.
        -11    1    3    3    0    0 -0.30441656963E+01 -0.65736344324E+00 -0.31315627336E+01  0.44165322254E+01  0.51100000000E-03 0.  1.
         12    1    3    3    0    0  0.11062951604E+02 -0.18792213880E+02 -0.25272066259E+01  0.21952744112E+02  0.00000000000E+00 0. -1.
</event>
<event>
 7    1  0.5935282E-013  0.5052887E+02  0.7816164E-02  0.1300439E+00
        -11   -1    0    0    0    0  0.00000000000E+00  0.00000000000E+00  0.45593999997E+02  0.45594000000E+02  0.51100000000E-03 0. -1.
         11   -1    0    0    0    0 -0.00000000000E+00 -0.00000000000E+00 -0.45593999997E+02  0.45594000000E+02  0.51100000000E-03 0.  1.
    9900012    2    1    2    0    0 -0.26979767270E+02 -0.21225602598E+02  0.21788321540E+02  0.50528868146E+02  0.30000025216E+02 0.  0.
        -12    1    1    2    0    0  0.26979767270E+02  0.21225602598E+02 -0.21788321540E+02  0.40659131854E+02  0.00000000000E+00 0.  1.
         11    1    3    3    0    0 -0.60546129188E+01 -0.70275153251E+01  0.62378160334E+01  0.11178311964E+02  0.51100000000E-03 0. -1.
        -11    1    3    3    0    0 -0.71027871718E+01 -0.16555490292E+02 -0.52051119049E+00  0.18022341040E+02  0.51100000000E-03 0.  1.
        -12    1    3    3    0    0 -0.13822367179E+02  0.23574030187E+01  0.16071016697E+02  0.21328215141E+02  0.00000000000E+00 0.  1.
</event>
<event>
 7    1  0.5935282E-013  0.5052884E+02  0.7816164E-02  0.1300439E+00
        -11   -1    0    0    0    0  0.00000000000E+00  0.00000000000E+00  0.45593999997E+02  0.45594000000E+02  0.51100000000E-03 0.  1.
         11   -1    0    0    0    0 -0.00000000000E+00 -0.00000000000E+00 -0.45593999997E+02  0.45594000000E+02  0.51100000000E-03 0. -1.
    9900012    2    1    2    0    0 -0.38116945733E+02 -0.43085675370E+01 -0.13479697924E+02  0.50528836674E+02  0.29999929554E+02 0.  0.
        -12    1    1    2    0    0  0.38116945733E+02  0.43085675370E+01  0.13479697924E+02  0.40659163326E+02  0.00000000000E+00 0.  1.
         11    1    3    3    0    0 -0.11188369291E+02 -0.92591337963E+01 -0.64888974018E+01  0.15906506713E+02  0.51100000000E-03 0. -1.
        -11    1    3    3    0    0 -0.30814670304E+01 -0.51943941352E+01  0.31279759301E+01  0.68015735805E+01  0.51100000000E-03 0.  1.
         12    1    3    3    0    0 -0.23847109412E+02  0.10144960394E+02 -0.10118776452E+02  0.27820756381E+02  0.00000000000E+00 0. -1.
</event>
<event>
 7    1  0.5935282E-013  0.5052886E+02  0.7816164E-02  0.1300439E+00
        -11   -1    0    0    0    0  0.00000000000E+00  0.00000000000E+00  0.45593999997E+02  0.45594000000E+02  0.51100000000E-03 0.  1.
         11   -1    0    0    0    0 -0.00000000000E+00 -0.00000000000E+00 -0.45593999997E+02  0.45594000000E+02  0.51100000000E-03 0. -1.
    9900012    2    1    2    0    0  0.24810383095E+02  0.25480696119E+02 -0.19706465760E+02  0.50528858631E+02  0.29999996296E+02 0.  0.
        -12    1    1    2    0    0 -0.24810383095E+02 -0.25480696119E+02  0.19706465760E+02  0.40659141369E+02  0.00000000000E+00 0.  1.
         11    1    3    3    0    0  0.14270552993E+01 -0.26318566363E+00  0.16909384127E+01  0.22282339414E+01  0.51100000000E-03 0.  1.
        -11    1    3    3    0    0  0.15613136048E+02  0.69944176404E+01  0.21169308856E+01  0.17238714918E+02  0.51100000000E-03 0. -1.
         12    1    3    3    0    0  0.77701917479E+01  0.18749464142E+02 -0.23514335059E+02  0.31061909772E+02  0.00000000000E+00 0. -1.
</event>
<event>
 7    1  0.5935282E-013  0.5052885E+02  0.7816164E-02  0.1300439E+00
        -11   -1    0    0    0    0  0.00000000000E+00  0.00000000000E+00  0.45593999997E+02  0.45594000000E+02  0.51100000000E-03 0.  1.
         11   -1    0    0    0    0 -0.00000000000E+00 -0.00000000000E+00 -0.45593999997E+02  0.45594000000E+02  0.51100000000E-03 0. -1.
    9900012    2    1    2    0    0 -0.30824530201E+02  0.92500610306E+01 -0.24848557378E+02  0.50528854719E+02  0.29999984405E+02 0.  0.
        -12    1    1    2    0    0  0.30824530201E+02 -0.92500610306E+01  0.24848557378E+02  0.40659145281E+02  0.00000000000E+00 0.  1.
         11    1    3    3    0    0 -0.47964873767E+01 -0.48479378624E+00  0.51000701842E+01  0.70179792188E+01  0.51100000000E-03 0. -1.
        -11    1    3    3    0    0 -0.51889782424E+01 -0.21872224656E+01 -0.70590468032E+00  0.56751862518E+01  0.51100000000E-03 0.  1.
         12    1    3    3    0    0 -0.20839064582E+02  0.11922077282E+02 -0.29242722882E+02  0.37835689249E+02  0.00000000000E+00 0. -1.
</event>
<event>
 7    1  0.5935282E-013  0.5052882E+02  0.7816164E-02  0.1300439E+00
        -11   -1    0    0    0    0  0.00000000000E+00  0.00000000000E+00  0.45593999997E+02  0.45594000000E+02  0.51100000000E-03 0. -1.
         11   -1    0    0    0    0 -0.00000000000E+00 -0.00000000000E+00 -0.45593999997E+02  0.45594000000E+02  0.51100000000E-03 0.  1.
    9900012    2    1    2    0    0  0.33849493750E+02 -0.87744512577E+01  0.20745838604E+02  0.50528818486E+02  0.29999874269E+02 0.  0.
        -12    1    1    2    0    0 -0.33849493750E+02  0.87744512577E+01 -0.20745838604E+02  0.40659181514E+02  0.00000000000E+00 0.  1.
         11    1    3    3    0    0  0.13107280807E+01  0.84736795409E+00  0.43390107770E+01  0.46111880612E+01  0.51100000000E-03 0. -1.
        -11    1    3    3    0    0  0.16823687898E+02 -0.15255114574E+02  0.18232969658E+02  0.29123807752E+02  0.51100000000E-03 0.  1.
        -12    1    3    3    0    0  0.15715077771E+02  0.56332953622E+01 -0.18261418306E+01  0.16793822673E+02  0.00000000000E+00 0.  1.
</event>
<event>
 7    1  0.5935282E-013  0.5052886E+02  0.7816164E-02  0.1300439E+00
        -11   -1    0    0    0    0  0.00000000000E+00  0.00000000000E+00  0.45593999997E+02  0.45594000000E+02  0.51100000000E-03 0.  1.
         11   -1    0    0    0    0 -0.00000000000E+00 -0.00000000000E+00 -0.45593999997E+02  0.45594000000E+02  0.51100000000E-03 0. -1.
    9900012    2    1    2    0    0 -0.10101112794E+02 -0.36579780691E+02 -0.14596316792E+02  0.50528864508E+02  0.30000014158E+02 0.  0.
        -12    1    1    2    0    0  0.10101112794E+02  0.36579780691E+02  0.14596316792E+02  0.40659135492E+02  0.00000000000E+00 0.  1.
         11    1    3    3    0    0 -0.30066077487E+01 -0.15350849951E+02 -0.13079446880E+02  0.20390199002E+02  0.51100000000E-03 0. -1.
        -11    1    3    3    0    0  0.18099354722E+01 -0.78339556792E+01 -0.92799933759E+01  0.12278640206E+02  0.51100000000E-03 0.  1.
         12    1    3    3    0    0 -0.89044405174E+01 -0.13394975061E+02  0.77631234641E+01  0.17860025300E+02  0.00000000000E+00 0. -1.
</event>
<event>
 7    1  0.5935282E-013  0.5052884E+02  0.7816164E-02  0.1300439E+00
        -11   -1    0    0    0    0  0.00000000000E+00  0.00000000000E+00  0.45593999997E+02  0.45594000000E+02  0.51100000000E-03 0. -1.
         11   -1    0    0    0    0 -0.00000000000E+00 -0.00000000000E+00 -0.45593999997E+02  0.45594000000E+02  0.51100000000E-03 0.  1.
    9900012    2    1    2    0    0  0.32530109168E+02 -0.22189120688E+02  0.10129273505E+02  0.50528840378E+02  0.29999940814E+02 0.  0.
        -12    1    1    2    0    0 -0.32530109168E+02  0.22189120688E+02 -0.10129273505E+02  0.40659159622E+02  0.00000000000E+00 0.  1.
         11    1    3    3    0    0  0.67669967461E+01  0.22392426061E+01 -0.78002962458E+00  0.71704183203E+01  0.51100000000E-03 0. -1.
        -11    1    3    3    0    0  0.87824242756E+01 -0.25321875524E+00 -0.46799368271E+01  0.99547428325E+01  0.51100000000E-03 0.  1.
         12    1    3    3    0    0  0.16980688147E+02 -0.24175144539E+02  0.15589239957E+02  0.33403679226E+02  0.00000000000E+00 0. -1.
</event>
<event>
 7    1  0.5935282E-013  0.5052885E+02  0.7816164E-02  0.1300439E+00
        -11   -1    0    0    0    0  0.00000000000E+00  0.00000000000E+00  0.45593999997E+02  0.45594000000E+02  0.51100000000E-03 0.  1.
         11   -1    0    0    0    0 -0.00000000000E+00 -0.00000000000E+00 -0.45593999997E+02  0.45594000000E+02  0.51100000000E-03 0. -1.
    9900012    2    1    2    0    0 -0.98591211223E+01  0.39387839244E+02 -0.21359049505E+01  0.50528852940E+02  0.29999978998E+02 0.  0.
        -12    1    1    2    0    0  0.98591211223E+01 -0.39387839244E+02  0.21359049505E+01  0.40659147060E+02  0.00000000000E+00 0.  1.
         11    1    3    3    0    0 -0.12017157962E+02  0.36884362934E+02 -0.33026446259E+01  0.38932965162E+02  0.51100000000E-03 0. -1.
        -11    1    3    3    0    0 -0.42694730445E+01  0.27632919637E+01  0.18853095280E+00  0.50891774124E+01  0.51100000000E-03 0.  1.
        -12    1    3    3    0    0  0.64275098839E+01 -0.25981565336E+00  0.97820872255E+00  0.65067103659E+01  0.00000000000E+00 0.  1.
</event>
<event>
 7    1  0.5935282E-013  0.5052886E+02  0.7816164E-02  0.1300439E+00
        -11   -1    0    0    0    0  0.00000000000E+00  0.00000000000E+00  0.45593999997E+02  0.45594000000E+02  0.51100000000E-03 0.  1.
         11   -1    0    0    0    0 -0.00000000000E+00 -0.00000000000E+00 -0.45593999997E+02  0.45594000000E+02  0.51100000000E-03 0. -1.
    9900012    2    1    2    0    0 -0.18673796492E+02 -0.36093207625E+02  0.13174201807E+01  0.50528857018E+02  0.29999991392E+02 0.  0.
        -12    1    1    2    0    0  0.18673796492E+02  0.36093207625E+02 -0.13174201807E+01  0.40659142982E+02  0.00000000000E+00 0.  1.
         11    1    3    3    0    0 -0.34648707533E+01  0.37371722234E+01  0.36749127968E+01  0.62830541849E+01  0.51100000000E-03 0.  1.
        -11    1    3    3    0    0 -0.71541243194E+01 -0.10513925519E+02  0.37020193821E+01  0.13244964038E+02  0.51100000000E-03 0. -1.
         12    1    3    3    0    0 -0.80548014190E+01 -0.29316454329E+02 -0.60595119982E+01  0.31000838795E+02  0.00000000000E+00 0. -1.
</event>
<event>
 7    1  0.5935282E-013  0.5052887E+02  0.7816164E-02  0.1300439E+00
        -11   -1    0    0    0    0  0.00000000000E+00  0.00000000000E+00  0.45593999997E+02  0.45594000000E+02  0.51100000000E-03 0.  1.
         11   -1    0    0    0    0 -0.00000000000E+00 -0.00000000000E+00 -0.45593999997E+02  0.45594000000E+02  0.51100000000E-03 0. -1.
    9900012    2    1    2    0    0  0.12584105207E+02  0.31677141232E+02 -0.22166722531E+02  0.50528873494E+02  0.30000041472E+02 0.  0.
        -12    1    1    2    0    0 -0.12584105207E+02 -0.31677141232E+02  0.22166722531E+02  0.40659126506E+02  0.00000000000E+00 0.  1.
         11    1    3    3    0    0  0.41864520991E+01  0.25745032184E+01  0.58678853881E-01  0.49150677990E+01  0.51100000000E-03 0. -1.
        -11    1    3    3    0    0  0.36289151787E+01  0.12532927635E+02  0.45060922907E+01  0.13803918591E+02  0.51100000000E-03 0.  1.
         12    1    3    3    0    0  0.47687379293E+01  0.16569710378E+02 -0.26731493675E+02  0.31809887104E+02  0.00000000000E+00 0. -1.
</event>
<event>
 7    1  0.5935282E-013  0.5052887E+02  0.7816164E-02  0.1300439E+00
        -11   -1    0    0    0    0  0.00000000000E+00  0.00000000000E+00  0.45593999997E+02  0.45594000000E+02  0.51100000000E-03 0. -1.
         11   -1    0    0    0    0 -0.00000000000E+00 -0.00000000000E+00 -0.45593999997E+02  0.45594000000E+02  0.51100000000E-03 0.  1.
    9900012    2    1    2    0    0 -0.66749995701E+01 -0.40086290648E+02 -0.13033428437E+01  0.50528867941E+02  0.30000024595E+02 0.  0.
        -12    1    1    2    0    0  0.66749995701E+01  0.40086290648E+02  0.13033428437E+01  0.40659132059E+02  0.00000000000E+00 0.  1.
         11    1    3    3    0    0 -0.49431986417E+01 -0.17790274932E+02  0.49179601166E+01  0.19107993797E+02  0.51100000000E-03 0. -1.
        -11    1    3    3    0    0 -0.68412791350E+01 -0.10059209658E+02  0.58410213405E+01  0.13494751932E+02  0.51100000000E-03 0.  1.
         12    1    3    3    0    0  0.51094782066E+01 -0.12236806058E+02 -0.12062324301E+02  0.17926122213E+02  0.00000000000E+00 0. -1.
</event>
<event>
 7    1  0.5935282E-013  0.5052887E+02  0.7816164E-02  0.1300439E+00
        -11   -1    0    0    0    0  0.00000000000E+00  0.00000000000E+00  0.45593999997E+02  0.45594000000E+02  0.51100000000E-03 0. -1.
         11   -1    0    0    0    0 -0.00000000000E+00 -0.00000000000E+00 -0.45593999997E+02  0.45594000000E+02  0.51100000000E-03 0.  1.
    9900012    2    1    2    0    0  0.32901266158E+02  0.22758291566E+02  0.72616668028E+01  0.50528868743E+02  0.30000027031E+02 0.  0.
        -12    1    1    2    0    0 -0.32901266158E+02 -0.22758291566E+02 -0.72616668028E+01  0.40659131257E+02  0.00000000000E+00 0.  1.
         11    1    3    3    0    0  0.10835556367E+02  0.96385778628E+01  0.43234594100E+01  0.15132870400E+02  0.51100000000E-03 0. -1.
        -11    1    3    3    0    0  0.10396170437E+02  0.72418035115E+01  0.13559329605E+02  0.18557464737E+02  0.51100000000E-03 0.  1.
        -12    1    3    3    0    0  0.11669539354E+02  0.58779101914E+01 -0.10621122212E+02  0.16838533606E+02  0.00000000000E+00 0.  1.
</event>
<event>
 7    1  0.5935282E-013  0.5052886E+02  0.7816164E-02  0.1300439E+00
        -11   -1    0    0    0    0  0.00000000000E+00  0.00000000000E+00  0.45593999997E+02  0.45594000000E+02  0.51100000000E-03 0.  1.
         11   -1    0    0    0    0 -0.00000000000E+00 -0.00000000000E+00 -0.45593999997E+02  0.45594000000E+02  0.51100000000E-03 0. -1.
    9900012    2    1    2    0    0 -0.24716874378E+01 -0.27996258125E+02 -0.29381390044E+02  0.50528858485E+02  0.29999995850E+02 0.  0.
        -12    1    1    2    0    0  0.24716874378E+01  0.27996258125E+02  0.29381390044E+02  0.40659141515E+02  0.00000000000E+00 0.  1.
         11    1    3    3    0    0  0.23533872764E+01 -0.65774598149E+00  0.11997540408E+01  0.27222181155E+01  0.51100000000E-03 0. -1.
        -11    1    3    3    0    0 -0.42271558938E+00 -0.19846430741E+02 -0.45532080758E+01  0.20366423487E+02  0.51100000000E-03 0.  1.
         12    1    3    3    0    0 -0.44023591248E+01 -0.74920814027E+01 -0.26027936010E+02  0.27440216882E+02  0.00000000000E+00 0. -1.
</event>
<event>
 7    1  0.5935282E-013  0.5052891E+02  0.7816164E-02  0.1300439E+00
        -11   -1    0    0    0    0  0.00000000000E+00  0.00000000000E+00  0.45593999997E+02  0.45594000000E+02  0.51100000000E-03 0. -1.
         11   -1    0    0    0    0 -0.00000000000E+00 -0.00000000000E+00 -0.45593999997E+02  0.45594000000E+02  0.51100000000E-03 0.  1.
    9900012    2    1    2    0    0  0.20904289376E+02  0.34722088730E+02 -0.32478701011E+01  0.50528912206E+02  0.30000159141E+02 0.  0.
        -12    1    1    2    0    0 -0.20904289376E+02 -0.34722088730E+02  0.32478701011E+01  0.40659087794E+02  0.00000000000E+00 0.  1.
         11    1    3    3    0    0  0.32402661173E+01  0.35042665548E+01  0.70480012061E+01  0.85119639250E+01  0.51100000000E-03 0.  1.
        -11    1    3    3    0    0  0.13272586159E+02  0.20096240016E+02  0.28440014933E+01  0.24250953608E+02  0.51100000000E-03 0. -1.
         12    1    3    3    0    0  0.43914370993E+01  0.11121582159E+02 -0.13139872801E+02  0.17765994673E+02  0.00000000000E+00 0. -1.
</event>
<event>
 7    1  0.5935282E-013  0.5052886E+02  0.7816164E-02  0.1300439E+00
        -11   -1    0    0    0    0  0.00000000000E+00  0.00000000000E+00  0.45593999997E+02  0.45594000000E+02  0.51100000000E-03 0.  1.
         11   -1    0    0    0    0 -0.00000000000E+00 -0.00000000000E+00 -0.45593999997E+02  0.45594000000E+02  0.51100000000E-03 0. -1.
    9900012    2    1    2    0    0  0.21968103587E+02  0.92920785353E+00 -0.34200942957E+02  0.50528862016E+02  0.30000006584E+02 0.  0.
        -12    1    1    2    0    0 -0.21968103587E+02 -0.92920785353E+00  0.34200942957E+02  0.40659137984E+02  0.00000000000E+00 0.  1.
         11    1    3    3    0    0  0.82455824002E+01 -0.21406019830E+01 -0.95108392837E+01  0.12768236766E+02  0.51100000000E-03 0. -1.
        -11    1    3    3    0    0  0.21010505324E+02  0.21242090544E+01 -0.16864939886E+02  0.27025539693E+02  0.51100000000E-03 0.  1.
         12    1    3    3    0    0 -0.72879841373E+01  0.94560078207E+00 -0.78251637871E+01  0.10735085557E+02  0.00000000000E+00 0. -1.
</event>
<event>
 7    1  0.5935282E-013  0.5052886E+02  0.7816164E-02  0.1300439E+00
        -11   -1    0    0    0    0  0.00000000000E+00  0.00000000000E+00  0.45593999997E+02  0.45594000000E+02  0.51100000000E-03 0.  1.
         11   -1    0    0    0    0 -0.00000000000E+00 -0.00000000000E+00 -0.45593999997E+02  0.45594000000E+02  0.51100000000E-03 0. -1.
    9900012    2    1    2    0    0 -0.38710373318E+02 -0.62189798719E+01  0.10770186892E+02  0.50528860329E+02  0.30000001456E+02 0.  0.
        -12    1    1    2    0    0  0.38710373318E+02  0.62189798719E+01 -0.10770186892E+02  0.40659139671E+02  0.00000000000E+00 0.  1.
         11    1    3    3    0    0 -0.39788160224E+02 -0.12098705850E+01  0.11889981130E+02  0.41544351389E+02  0.51100000000E-03 0. -1.
        -11    1    3    3    0    0 -0.22673431865E+01 -0.26149694549E+01 -0.28872850604E+01  0.45072525619E+01  0.51100000000E-03 0.  1.
        -12    1    3    3    0    0  0.33451300918E+01 -0.23941398320E+01  0.17674908221E+01  0.44772563778E+01  0.00000000000E+00 0.  1.
</event>
<event>
 7    1  0.5935282E-013  0.5052880E+02  0.7816164E-02  0.1300439E+00
        -11   -1    0    0    0    0  0.00000000000E+00  0.00000000000E+00  0.45593999997E+02  0.45594000000E+02  0.51100000000E-03 0. -1.
         11   -1    0    0    0    0 -0.00000000000E+00 -0.00000000000E+00 -0.45593999997E+02  0.45594000000E+02  0.51100000000E-03 0.  1.
    9900012    2    1    2    0    0 -0.39323872210E+02 -0.67604063726E+01  0.78166610859E+01  0.50528804110E+02  0.29999830571E+02 0.  0.
        -12    1    1    2    0    0  0.39323872210E+02  0.67604063726E+01 -0.78166610859E+01  0.40659195890E+02  0.00000000000E+00 0.  1.
         11    1    3    3    0    0  0.41561734273E+01 -0.11443216984E+01  0.13943078939E+01  0.45307112545E+01  0.51100000000E-03 0. -1.
        -11    1    3    3    0    0  0.57639268429E+00 -0.42454541833E+00  0.11086921571E+01  0.13197219022E+01  0.51100000000E-03 0.  1.
         12    1    3    3    0    0 -0.44056438322E+02 -0.51915392559E+01  0.53136610350E+01  0.44678370953E+02  0.00000000000E+00 0. -1.
</event>
<event>
 7    1  0.5935282E-013  0.5052886E+02  0.7816164E-02  0.1300439E+00
        -11   -1    0    0    0    0  0.00000000000E+00  0.00000000000E+00  0.45593999997E+02  0.45594000000E+02  0.51100000000E-03 0.  1.
         11   -1    0    0    0    0 -0.00000000000E+00 -0.00000000000E+00 -0.45593999997E+02  0.45594000000E+02  0.51100000000E-03 0. -1.
    9900012    2    1    2    0    0  0.31319979851E+02  0.25880805949E+02 -0.15518018180E+01  0.50528863963E+02  0.30000012502E+02 0.  0.
        -12    1    1    2    0    0 -0.31319979851E+02 -0.25880805949E+02  0.15518018180E+01  0.40659136037E+02  0.00000000000E+00 0.  1.
         11    1    3    3    0    0  0.11361471787E+02  0.69334521344E+01  0.54379517663E+01  0.14378008184E+02  0.51100000000E-03 0. -1.
        -11    1    3    3    0    0  0.11665616904E+02  0.56040446702E+01  0.73472193690E+01  0.14881988010E+02  0.51100000000E-03 0.  1.
         12    1    3    3    0    0  0.82928911598E+01  0.13343309144E+02 -0.14336972953E+02  0.21268867769E+02  0.00000000000E+00 0. -1.
</event>
<event>
 7    1  0.5935282E-013  0.5052886E+02  0.7816164E-02  0.1300439E+00
        -11   -1    0    0    0    0  0.00000000000E+00  0.00000000000E+00  0.45593999997E+02  0.45594000000E+02  0.51100000000E-03 0. -1.
         11   -1    0    0    0    0 -0.00000000000E+00 -0.00000000000E+00 -0.45593999997E+02  0.45594000000E+02  0.51100000000E-03 0.  1.
    9900012    2    1    2    0    0 -0.17386433430E+02 -0.35365699855E+02  0.10007239510E+02  0.50528860360E+02  0.30000001551E+02 0.  0.
        -12    1    1    2    0    0  0.17386433430E+02  0.35365699855E+02 -0.10007239510E+02  0.40659139640E+02  0.00000000000E+00 0.  1.
         11    1    3    3    0    0 -0.79366682169E+01 -0.28758916381E+02  0.18942881558E+02  0.35339761400E+02  0.51100000000E-03 0. -1.
        -11    1    3    3    0    0 -0.60555289486E-01  0.50181317214E+00 -0.39613729095E+00  0.64219032787E+00  0.51100000000E-03 0.  1.
        -12    1    3    3    0    0 -0.93892099232E+01 -0.71085966458E+01 -0.85395047573E+01  0.14546908632E+02  0.00000000000E+00 0.  1.
</event>
<event>
 7    1  0.5935282E-013  0.5052886E+02  0.7816164E-02  0.1300439E+00
        -11   -1    0    0    0    0  0.00000000000E+00  0.00000000000E+00  0.45593999997E+02  0.45594000000E+02  0.51100000000E-03 0.  1.
         11   -1    0    0    0    0 -0.00000000000E+00 -0.00000000000E+00 -0.45593999997E+02  0.45594000000E+02  0.51100000000E-03 0. -1.
    9900012    2    1    2    0    0 -0.14360279669E+02  0.15812657801E+02 -0.34596355579E+02  0.50528860827E+02  0.30000002969E+02 0.  0.
        -12    1    1    2    0    0  0.14360279669E+02 -0.15812657801E+02  0.34596355579E+02  0.40659139173E+02  0.00000000000E+00 0.  1.
         11    1    3    3    0    0 -0.30452535904E+01  0.37049094992E+01  0.30814675753E+01  0.57004707267E+01  0.51100000000E-03 0. -1.
        -11    1    3    3    0    0  0.30307694932E+01  0.11459496887E+01 -0.17309567413E+02  0.17610221143E+02  0.51100000000E-03 0.  1.
        -12    1    3    3    0    0 -0.14345795572E+02  0.10961798613E+02 -0.20368255741E+02  0.27218168957E+02  0.00000000000E+00 0.  1.
</event>
<event>
 7    1  0.5935282E-013  0.5052889E+02  0.7816164E-02  0.1300439E+00
        -11   -1    0    0    0    0  0.00000000000E+00  0.00000000000E+00  0.45593999997E+02  0.45594000000E+02  0.51100000000E-03 0.  1.
         11   -1    0    0    0    0 -0.00000000000E+00 -0.00000000000E+00 -0.45593999997E+02  0.45594000000E+02  0.51100000000E-03 0. -1.
    9900012    2    1    2    0    0 -0.11482214361E+02 -0.30652970516E+01 -0.38883488009E+02  0.50528893611E+02  0.30000102619E+02 0.  0.
        -12    1    1    2    0    0  0.11482214361E+02  0.30652970516E+01  0.38883488009E+02  0.40659106389E+02  0.00000000000E+00 0.  1.
         11    1    3    3    0    0  0.12109521050E+01 -0.16458913785E+00 -0.24663077405E+01  0.27524840993E+01  0.51100000000E-03 0. -1.
        -11    1    3    3    0    0  0.40123394935E+01  0.53117463460E+01  0.24257080069E+00  0.66612580125E+01  0.51100000000E-03 0.  1.
         12    1    3    3    0    0 -0.16705505959E+02 -0.82124542597E+01 -0.36659751069E+02  0.41115151499E+02  0.00000000000E+00 0. -1.
</event>
<event>
 7    1  0.5935282E-013  0.5052885E+02  0.7816164E-02  0.1300439E+00
        -11   -1    0    0    0    0  0.00000000000E+00  0.00000000000E+00  0.45593999997E+02  0.45594000000E+02  0.51100000000E-03 0.  1.
         11   -1    0    0    0    0 -0.00000000000E+00 -0.00000000000E+00 -0.45593999997E+02  0.45594000000E+02  0.51100000000E-03 0. -1.
    9900012    2    1    2    0    0  0.12999536957E+02 -0.11726360418E+02 -0.36697019984E+02  0.50528846474E+02  0.29999959342E+02 0.  0.
        -12    1    1    2    0    0 -0.12999536957E+02  0.11726360418E+02  0.36697019984E+02  0.40659153526E+02  0.00000000000E+00 0.  1.
         11    1    3    3    0    0 -0.61673094149E+01 -0.10531780833E+00 -0.14679804119E+02  0.15923047651E+02  0.51100000000E-03 0. -1.
        -11    1    3    3    0    0  0.18536750692E+01  0.33107783711E+01 -0.24853098440E+01  0.45358714672E+01  0.51100000000E-03 0.  1.
         12    1    3    3    0    0  0.17313171303E+02 -0.14931820981E+02 -0.19531906021E+02  0.30069927356E+02  0.00000000000E+00 0. -1.
</event>
<event>
 7    1  0.5935282E-013  0.5052886E+02  0.7816164E-02  0.1300439E+00
        -11   -1    0    0    0    0  0.00000000000E+00  0.00000000000E+00  0.45593999997E+02  0.45594000000E+02  0.51100000000E-03 0.  1.
         11   -1    0    0    0    0 -0.00000000000E+00 -0.00000000000E+00 -0.45593999997E+02  0.45594000000E+02  0.51100000000E-03 0. -1.
    9900012    2    1    2    0    0  0.71860190248E+01  0.20111168398E+01 -0.39968512508E+02  0.50528862620E+02  0.30000008420E+02 0.  0.
        -12    1    1    2    0    0 -0.71860190248E+01 -0.20111168398E+01  0.39968512508E+02  0.40659137380E+02  0.00000000000E+00 0.  1.
         11    1    3    3    0    0 -0.32216307702E+01  0.60888223654E+01 -0.15116235702E+02  0.16611840497E+02  0.51100000000E-03 0.  1.
        -11    1    3    3    0    0 -0.27454351429E+00  0.13434310656E+01 -0.21409058654E+02  0.21452924600E+02  0.51100000000E-03 0. -1.
        -12    1    3    3    0    0  0.10682193309E+02 -0.54211365912E+01 -0.34432181514E+01  0.12464097523E+02  0.00000000000E+00 0.  1.
</event>
<event>
 7    1  0.5935282E-013  0.5052891E+02  0.7816164E-02  0.1300439E+00
        -11   -1    0    0    0    0  0.00000000000E+00  0.00000000000E+00  0.45593999997E+02  0.45594000000E+02  0.51100000000E-03 0. -1.
         11   -1    0    0    0    0 -0.00000000000E+00 -0.00000000000E+00 -0.45593999997E+02  0.45594000000E+02  0.51100000000E-03 0.  1.
    9900012    2    1    2    0    0  0.94613219372E+01  0.12726820936E-01  0.39542944343E+02  0.50528914643E+02  0.30000166548E+02 0.  0.
        -12    1    1    2    0    0 -0.94613219372E+01 -0.12726820936E-01 -0.39542944343E+02  0.40659085357E+02  0.00000000000E+00 0.  1.
         11    1    3    3    0    0  0.14803891122E+02  0.41090315652E+01  0.11859185148E+02  0.19408235504E+02  0.51100000000E-03 0.  1.
        -11    1    3    3    0    0 -0.57338807870E+01  0.32793048468E+01  0.15847326532E+02  0.17168837691E+02  0.51100000000E-03 0. -1.
        -12    1    3    3    0    0  0.39131160229E+00 -0.73756095911E+01  0.11836432663E+02  0.13951841448E+02  0.00000000000E+00 0.  1.
</event>
<event>
 7    1  0.5935282E-013  0.5052886E+02  0.7816164E-02  0.1300439E+00
        -11   -1    0    0    0    0  0.00000000000E+00  0.00000000000E+00  0.45593999997E+02  0.45594000000E+02  0.51100000000E-03 0.  1.
         11   -1    0    0    0    0 -0.00000000000E+00 -0.00000000000E+00 -0.45593999997E+02  0.45594000000E+02  0.51100000000E-03 0. -1.
    9900012    2    1    2    0    0 -0.29477301595E+02 -0.14312391963E+02 -0.24070937135E+02  0.50528857269E+02  0.29999992156E+02 0.  0.
        -12    1    1    2    0    0  0.29477301595E+02  0.14312391963E+02  0.24070937135E+02  0.40659142731E+02  0.00000000000E+00 0.  1.
         11    1    3    3    0    0 -0.90382386037E+00  0.67359217420E+00 -0.10670126961E+02  0.10729502953E+02  0.51100000000E-03 0. -1.
        -11    1    3    3    0    0 -0.55103613906E+01  0.45986879477E+01 -0.18404175929E+01  0.74093961072E+01  0.51100000000E-03 0.  1.
         12    1    3    3    0    0 -0.23063116344E+02 -0.19584672085E+02 -0.11560392581E+02  0.32389958209E+02  0.00000000000E+00 0. -1.
</event>
<event>
 7    1  0.5935282E-013  0.5052887E+02  0.7816164E-02  0.1300439E+00
        -11   -1    0    0    0    0  0.00000000000E+00  0.00000000000E+00  0.45593999997E+02  0.45594000000E+02  0.51100000000E-03 0.  1.
         11   -1    0    0    0    0 -0.00000000000E+00 -0.00000000000E+00 -0.45593999997E+02  0.45594000000E+02  0.51100000000E-03 0. -1.
    9900012    2    1    2    0    0 -0.18907911136E+02  0.12057788577E+02 -0.33915569572E+02  0.50528865378E+02  0.30000016801E+02 0.  0.
        -12    1    1    2    0    0  0.18907911136E+02 -0.12057788577E+02  0.33915569572E+02  0.40659134622E+02  0.00000000000E+00 0.  1.
         11    1    3    3    0    0 -0.12694026335E+02  0.53670981170E+01 -0.23525851968E+02  0.27265541585E+02  0.51100000000E-03 0. -1.
        -11    1    3    3    0    0 -0.80269027547E+01  0.12411275722E+02 -0.79722541789E+01  0.16793682439E+02  0.51100000000E-03 0.  1.
        -12    1    3    3    0    0  0.18130179545E+01 -0.57205852623E+01 -0.24174634242E+01  0.64696413543E+01  0.00000000000E+00 0.  1.
</event>
<event>
 7    1  0.5935282E-013  0.5052886E+02  0.7816164E-02  0.1300439E+00
        -11   -1    0    0    0    0  0.00000000000E+00  0.00000000000E+00  0.45593999997E+02  0.45594000000E+02  0.51100000000E-03 0.  1.
         11   -1    0    0    0    0 -0.00000000000E+00 -0.00000000000E+00 -0.45593999997E+02  0.45594000000E+02  0.51100000000E-03 0. -1.
    9900012    2    1    2    0    0 -0.23281294817E+02  0.18597347838E+02 -0.27663798008E+02  0.50528858897E+02  0.29999997104E+02 0.  0.
        -12    1    1    2    0    0  0.23281294817E+02 -0.18597347838E+02  0.27663798008E+02  0.40659141103E+02  0.00000000000E+00 0.  1.
         11    1    3    3    0    0 -0.10259413340E+02  0.40777050190E+00 -0.26558914775E+01  0.10605451366E+02  0.51100000000E-03 0. -1.
        -11    1    3    3    0    0 -0.11554284996E+02  0.11281285462E+02 -0.25090187726E+01  0.16342095304E+02  0.51100000000E-03 0.  1.
         12    1    3    3    0    0 -0.14675964806E+01  0.69082918743E+01 -0.22498887758E+02  0.23581312228E+02  0.00000000000E+00 0. -1.
</event>
<event>
 7    1  0.5935282E-013  0.5052886E+02  0.7816164E-02  0.1300439E+00
        -11   -1    0    0    0    0  0.00000000000E+00  0.00000000000E+00  0.45593999997E+02  0.45594000000E+02  0.51100000000E-03 0. -1.
         11   -1    0    0    0    0 -0.00000000000E+00 -0.00000000000E+00 -0.45593999997E+02  0.45594000000E+02  0.51100000000E-03 0.  1.
    9900012    2    1    2    0    0  0.27351508631E+02  0.29432558637E+02  0.62277518463E+01  0.50528862954E+02  0.30000009434E+02 0.  0.
        -12    1    1    2    0    0 -0.27351508631E+02 -0.29432558637E+02 -0.62277518463E+01  0.40659137046E+02  0.00000000000E+00 0.  1.
         11    1    3    3    0    0  0.37857557249E+01  0.35498941533E+01 -0.78093153199E+01  0.93765185936E+01  0.51100000000E-03 0. -1.
        -11    1    3    3    0    0  0.18189873380E+02  0.23626135133E+02  0.47591564247E+01  0.30194624109E+02  0.51100000000E-03 0.  1.
        -12    1    3    3    0    0  0.53758795256E+01  0.22565293502E+01  0.92779107416E+01  0.10957720252E+02  0.00000000000E+00 0.  1.
</event>
<event>
 7    1  0.5935282E-013  0.5052884E+02  0.7816164E-02  0.1300439E+00
        -11   -1    0    0    0    0  0.00000000000E+00  0.00000000000E+00  0.45593999997E+02  0.45594000000E+02  0.51100000000E-03 0.  1.
         11   -1    0    0    0    0 -0.00000000000E+00 -0.00000000000E+00 -0.45593999997E+02  0.45594000000E+02  0.51100000000E-03 0. -1.
    9900012    2    1    2    0    0 -0.25667625362E+02 -0.15360251946E+02 -0.27539114030E+02  0.50528841952E+02  0.29999945598E+02 0.  0.
        -12    1    1    2    0    0  0.25667625362E+02  0.15360251946E+02  0.27539114030E+02  0.40659158048E+02  0.00000000000E+00 0.  1.
         11    1    3    3    0    0 -0.90426788309E+01 -0.78294367110E+01 -0.27188619228E+02  0.29703385925E+02  0.51100000000E-03 0. -1.
        -11    1    3    3    0    0  0.62793998988E+00 -0.94576169552E+00 -0.19846848481E+01  0.22864269118E+01  0.51100000000E-03 0.  1.
        -12    1    3    3    0    0 -0.17252886521E+02 -0.65850535397E+01  0.16341900455E+01  0.18539029115E+02  0.00000000000E+00 0.  1.
</event>
<event>
 7    1  0.5935282E-013  0.5052884E+02  0.7816164E-02  0.1300439E+00
        -11   -1    0    0    0    0  0.00000000000E+00  0.00000000000E+00  0.45593999997E+02  0.45594000000E+02  0.51100000000E-03 0. -1.
         11   -1    0    0    0    0 -0.00000000000E+00 -0.00000000000E+00 -0.45593999997E+02  0.45594000000E+02  0.51100000000E-03 0.  1.
    9900012    2    1    2    0    0  0.27739996987E+01  0.30463451705E+02  0.26785256908E+02  0.50528844184E+02  0.29999952380E+02 0.  0.
        -12    1    1    2    0    0 -0.27739996987E+01 -0.30463451705E+02 -0.26785256908E+02  0.40659155816E+02  0.00000000000E+00 0.  1.
         11    1    3    3    0    0  0.60060245274E+01  0.10909700342E+02  0.12082787243E+02  0.17351877132E+02  0.51100000000E-03 0. -1.
        -11    1    3    3    0    0  0.30652069302E+01  0.20763576647E+02  0.16292894297E+02  0.26570284408E+02  0.51100000000E-03 0.  1.
        -12    1    3    3    0    0 -0.62972317589E+01 -0.12098252840E+01 -0.15904246323E+01  0.66066826437E+01  0.00000000000E+00 0.  1.
</event>
<event>
 7    1  0.5935282E-013  0.5052887E+02  0.7816164E-02  0.1300439E+00
        -11   -1    0    0    0    0  0.00000000000E+00  0.00000000000E+00  0.45593999997E+02  0.45594000000E+02  0.51100000000E-03 0.  1.
         11   -1    0    0    0    0 -0.00000000000E+00 -0.00000000000E+00 -0.45593999997E+02  0.45594000000E+02  0.51100000000E-03 0. -1.
    9900012    2    1    2    0    0  0.27573574666E+02  0.16784605896E+02 -0.24721242353E+02  0.50528870172E+02  0.30000031374E+02 0.  0.
        -12    1    1    2    0    0 -0.27573574666E+02 -0.16784605896E+02  0.24721242353E+02  0.40659129828E+02  0.00000000000E+00 0.  1.
         11    1    3    3    0    0  0.86335924558E+01  0.51925003268E+01 -0.11001241490E+02  0.14917382241E+02  0.51100000000E-03 0. -1.
        -11    1    3    3    0    0  0.21344386652E+02  0.16703439758E+02 -0.10218268905E+02  0.28965509852E+02  0.51100000000E-03 0.  1.
        -12    1    3    3    0    0 -0.24044044426E+01 -0.51113341890E+01 -0.35017319575E+01  0.66459780783E+01  0.00000000000E+00 0.  1.
</event>
<event>
 7    1  0.5935282E-013  0.5052890E+02  0.7816164E-02  0.1300439E+00
        -11   -1    0    0    0    0  0.00000000000E+00  0.00000000000E+00  0.45593999997E+02  0.45594000000E+02  0.51100000000E-03 0.  1.
         11   -1    0    0    0    0 -0.00000000000E+00 -0.00000000000E+00 -0.45593999997E+02  0.45594000000E+02  0.51100000000E-03 0. -1.
    9900012    2    1    2    0    0 -0.26569984684E+02 -0.98049450525E+01 -0.29172953208E+02  0.50528902218E+02  0.30000128782E+02 0.  0.
        -12    1    1    2    0    0  0.26569984684E+02  0.98049450525E+01  0.29172953208E+02  0.40659097782E+02  0.00000000000E+00 0.  1.
         11    1    3    3    0    0 -0.11588934420E+02 -0.19173025810E+01  0.63634859130E+00  0.11763689471E+02  0.51100000000E-03 0. -1.
        -11    1    3    3    0    0 -0.14786819610E+02 -0.17871508186E+01 -0.97597672332E+01  0.17807217608E+02  0.51100000000E-03 0.  1.
        -12    1    3    3    0    0 -0.19423065366E+00 -0.61004916528E+01 -0.20049534566E+02  0.20957995139E+02  0.00000000000E+00 0.  1.
</event>
<event>
 7    1  0.5935282E-013  0.5052886E+02  0.7816164E-02  0.1300439E+00
        -11   -1    0    0    0    0  0.00000000000E+00  0.00000000000E+00  0.45593999997E+02  0.45594000000E+02  0.51100000000E-03 0.  1.
         11   -1    0    0    0    0 -0.00000000000E+00 -0.00000000000E+00 -0.45593999997E+02  0.45594000000E+02  0.51100000000E-03 0. -1.
    9900012    2    1    2    0    0 -0.15420718560E+02  0.12633862920E+02 -0.35436594622E+02  0.50528864598E+02  0.30000014432E+02 0.  0.
        -12    1    1    2    0    0  0.15420718560E+02 -0.12633862920E+02  0.35436594622E+02  0.40659135402E+02  0.00000000000E+00 0.  1.
         11    1    3    3    0    0 -0.11803522960E+02  0.17407693961E+02 -0.30987268054E+02  0.37450790980E+02  0.51100000000E-03 0. -1.
        -11    1    3    3    0    0  0.11377753418E+01 -0.52684103194E+01 -0.59874837315E+01  0.80560934526E+01  0.51100000000E-03 0.  1.
        -12    1    3    3    0    0 -0.47549709428E+01  0.49457927824E+00  0.15381571629E+01  0.50219801660E+01  0.00000000000E+00 0.  1.
</event>
<event>
 7    1  0.5935282E-013  0.5052886E+02  0.7816164E-02  0.1300439E+00
        -11   -1    0    0    0    0  0.00000000000E+00  0.00000000000E+00  0.45593999997E+02  0.45594000000E+02  0.51100000000E-03 0.  1.
         11   -1    0    0    0    0 -0.00000000000E+00 -0.00000000000E+00 -0.45593999997E+02  0.45594000000E+02  0.51100000000E-03 0. -1.
    9900012    2    1    2    0    0 -0.23293247163E+02 -0.32891584500E+02  0.53603992278E+01  0.50528861123E+02  0.30000003870E+02 0.  0.
        -12    1    1    2    0    0  0.23293247163E+02  0.32891584500E+02 -0.53603992278E+01  0.40659138877E+02  0.00000000000E+00 0.  1.
         11    1    3    3    0    0  0.32887600934E+01  0.79608475742E+00 -0.11046646102E+01  0.35594912636E+01  0.51100000000E-03 0. -1.
        -11    1    3    3    0    0  0.20299810587E+00 -0.31814567781E+01 -0.39327689013E+01  0.50625632790E+01  0.51100000000E-03 0.  1.
        -12    1    3    3    0    0 -0.26785005363E+02 -0.30506212479E+02  0.10397832739E+02  0.41906806581E+02  0.00000000000E+00 0.  1.
</event>
<event>
 7    1  0.5935282E-013  0.5052886E+02  0.7816164E-02  0.1300439E+00
        -11   -1    0    0    0    0  0.00000000000E+00  0.00000000000E+00  0.45593999997E+02  0.45594000000E+02  0.51100000000E-03 0.  1.
         11   -1    0    0    0    0 -0.00000000000E+00 -0.00000000000E+00 -0.45593999997E+02  0.45594000000E+02  0.51100000000E-03 0. -1.
    9900012    2    1    2    0    0 -0.53373864236E+00  0.38241322680E+02  0.13801537359E+02  0.50528855017E+02  0.29999985309E+02 0.  0.
        -12    1    1    2    0    0  0.53373864236E+00 -0.38241322680E+02 -0.13801537359E+02  0.40659144983E+02  0.00000000000E+00 0.  1.
         11    1    3    3    0    0  0.11469540125E+02  0.19936363855E+02  0.20659766214E-01  0.23000203946E+02  0.51100000000E-03 0. -1.
        -11    1    3    3    0    0 -0.54699797477E+01  0.23238146675E+01  0.64532498415E+01  0.87729827782E+01  0.51100000000E-03 0.  1.
        -12    1    3    3    0    0 -0.65332990194E+01  0.15981144158E+02  0.73276277514E+01  0.18755668293E+02  0.00000000000E+00 0.  1.
</event>
<event>
 7    1  0.5935282E-013  0.5052887E+02  0.7816164E-02  0.1300439E+00
        -11   -1    0    0    0    0  0.00000000000E+00  0.00000000000E+00  0.45593999997E+02  0.45594000000E+02  0.51100000000E-03 0.  1.
         11   -1    0    0    0    0 -0.00000000000E+00 -0.00000000000E+00 -0.45593999997E+02  0.45594000000E+02  0.51100000000E-03 0. -1.
    9900012    2    1    2    0    0 -0.38047734922E+02  0.99102394200E+01 -0.10359638573E+02  0.50528867085E+02  0.30000021991E+02 0.  0.
        -12    1    1    2    0    0  0.38047734922E+02 -0.99102394200E+01  0.10359638573E+02  0.40659132915E+02  0.00000000000E+00 0.  1.
         11    1    3    3    0    0 -0.18365526348E+02 -0.36556800427E+01  0.10180459936E+01  0.18753478945E+02  0.51100000000E-03 0. -1.
        -11    1    3    3    0    0  0.16651705802E+01 -0.10794301622E+01 -0.46074021539E+01  0.50165842369E+01  0.51100000000E-03 0.  1.
         12    1    3    3    0    0 -0.21347379154E+02  0.14645349625E+02 -0.67702824127E+01  0.26758803903E+02  0.00000000000E+00 0. -1.
</event>
<event>
 7    1  0.5935282E-013  0.5052886E+02  0.7816164E-02  0.1300439E+00
        -11   -1    0    0    0    0  0.00000000000E+00  0.00000000000E+00  0.45593999997E+02  0.45594000000E+02  0.51100000000E-03 0.  1.
         11   -1    0    0    0    0 -0.00000000000E+00 -0.00000000000E+00 -0.45593999997E+02  0.45594000000E+02  0.51100000000E-03 0. -1.
    9900012    2    1    2    0    0 -0.86625751713E+01 -0.33705907021E+02 -0.21024680299E+02  0.50528861317E+02  0.30000004460E+02 0.  0.
        -12    1    1    2    0    0  0.86625751713E+01  0.33705907021E+02  0.21024680299E+02  0.40659138683E+02  0.00000000000E+00 0.  1.
         11    1    3    3    0    0 -0.63982975432E+01 -0.51094261031E+01 -0.10493830783E+01  0.82550379563E+01  0.51100000000E-03 0. -1.
        -11    1    3    3    0    0 -0.57991335398E+01  0.18954064927E+01 -0.59617275147E+01  0.85302233737E+01  0.51100000000E-03 0.  1.
         12    1    3    3    0    0  0.35348559117E+01 -0.30491887411E+02 -0.14013569706E+02  0.33743599987E+02  0.00000000000E+00 0. -1.
</event>
<event>
 7    1  0.5935282E-013  0.5052882E+02  0.7816164E-02  0.1300439E+00
        -11   -1    0    0    0    0  0.00000000000E+00  0.00000000000E+00  0.45593999997E+02  0.45594000000E+02  0.51100000000E-03 0.  1.
         11   -1    0    0    0    0 -0.00000000000E+00 -0.00000000000E+00 -0.45593999997E+02  0.45594000000E+02  0.51100000000E-03 0. -1.
    9900012    2    1    2    0    0 -0.13184459933E+02  0.29344614538E+02 -0.24864277295E+02  0.50528823035E+02  0.29999888097E+02 0.  0.
        -12    1    1    2    0    0  0.13184459933E+02 -0.29344614538E+02  0.24864277295E+02  0.40659176965E+02  0.00000000000E+00 0.  1.
         11    1    3    3    0    0 -0.12536455433E+02  0.12781357637E+02 -0.33960607262E+01  0.18222487388E+02  0.51100000000E-03 0. -1.
        -11    1    3    3    0    0 -0.16923633479E+01 -0.27696695725E+01 -0.82440234528E+01  0.88599710042E+01  0.51100000000E-03 0.  1.
        -12    1    3    3    0    0  0.10443588478E+01  0.19332926473E+02 -0.13224193116E+02  0.23446364643E+02  0.00000000000E+00 0.  1.
</event>
<event>
 7    1  0.5935282E-013  0.5052901E+02  0.7816164E-02  0.1300438E+00
        -11   -1    0    0    0    0  0.00000000000E+00  0.00000000000E+00  0.45593999997E+02  0.45594000000E+02  0.51100000000E-03 0. -1.
         11   -1    0    0    0    0 -0.00000000000E+00 -0.00000000000E+00 -0.45593999997E+02  0.45594000000E+02  0.51100000000E-03 0.  1.
    9900012    2    1    2    0    0 -0.92482477892E+01 -0.39224755619E+02  0.53890768468E+01  0.50529007270E+02  0.30000448096E+02 0.  0.
        -12    1    1    2    0    0  0.92482477892E+01  0.39224755619E+02 -0.53890768468E+01  0.40658992730E+02  0.00000000000E+00 0.  1.
         11    1    3    3    0    0 -0.20730739695E+01 -0.36633137987E+01  0.19834732652E+01  0.46531355155E+01  0.51100000000E-03 0. -1.
        -11    1    3    3    0    0 -0.92388389856E+01 -0.25574578364E+02 -0.10052191416E+02  0.28990718460E+02  0.51100000000E-03 0.  1.
        -12    1    3    3    0    0  0.20636651658E+01 -0.99868634561E+01  0.13457794997E+02  0.16885153295E+02  0.00000000000E+00 0.  1.
</event>
<event>
 7    1  0.5935282E-013  0.5052885E+02  0.7816164E-02  0.1300439E+00
        -11   -1    0    0    0    0  0.00000000000E+00  0.00000000000E+00  0.45593999997E+02  0.45594000000E+02  0.51100000000E-03 0.  1.
         11   -1    0    0    0    0 -0.00000000000E+00 -0.00000000000E+00 -0.45593999997E+02  0.45594000000E+02  0.51100000000E-03 0. -1.
    9900012    2    1    2    0    0  0.12571849218E+02  0.32195990272E+02  0.21413399742E+02  0.50528845178E+02  0.29999955402E+02 0.  0.
        -12    1    1    2    0    0 -0.12571849218E+02 -0.32195990272E+02 -0.21413399742E+02  0.40659154822E+02  0.00000000000E+00 0.  1.
         11    1    3    3    0    0  0.15041377440E+02  0.12063279100E+02  0.10828809646E+02  0.22113996847E+02  0.51100000000E-03 0. -1.
        -11    1    3    3    0    0 -0.53822033935E+00  0.26190716261E+01  0.10458200670E+02  0.10794590257E+02  0.51100000000E-03 0.  1.
         12    1    3    3    0    0 -0.19313078827E+01  0.17513639546E+02  0.12638942580E+00  0.17620258074E+02  0.00000000000E+00 0. -1.
</event>
<event>
 7    1  0.5935282E-013  0.5052887E+02  0.7816164E-02  0.1300439E+00
        -11   -1    0    0    0    0  0.00000000000E+00  0.00000000000E+00  0.45593999997E+02  0.45594000000E+02  0.51100000000E-03 0. -1.
         11   -1    0    0    0    0 -0.00000000000E+00 -0.00000000000E+00 -0.45593999997E+02  0.45594000000E+02  0.51100000000E-03 0.  1.
    9900012    2    1    2    0    0 -0.32373417531E+01  0.35277499679E+02  0.19954520330E+02  0.50528865149E+02  0.30000016106E+02 0.  0.
        -12    1    1    2    0    0  0.32373417531E+01 -0.35277499679E+02 -0.19954520330E+02  0.40659134851E+02  0.00000000000E+00 0.  1.
         11    1    3    3    0    0 -0.46679998887E+00  0.46966954907E+01  0.13933924333E+01  0.49212187003E+01  0.51100000000E-03 0. -1.
        -11    1    3    3    0    0 -0.85960496976E+00  0.31597955649E+02  0.51542403373E+01  0.32027112196E+02  0.51100000000E-03 0.  1.
         12    1    3    3    0    0 -0.19109367944E+01 -0.10171514607E+01  0.13406887560E+02  0.13580534252E+02  0.00000000000E+00 0. -1.
</event>
<event>
 7    1  0.5935282E-013  0.5052887E+02  0.7816164E-02  0.1300439E+00
        -11   -1    0    0    0    0  0.00000000000E+00  0.00000000000E+00  0.45593999997E+02  0.45594000000E+02  0.51100000000E-03 0.  1.
         11   -1    0    0    0    0 -0.00000000000E+00 -0.00000000000E+00 -0.45593999997E+02  0.45594000000E+02  0.51100000000E-03 0. -1.
    9900012    2    1    2    0    0 -0.60742621767E+01 -0.23946282794E+02 -0.32293091359E+02  0.50528869781E+02  0.30000030186E+02 0.  0.
        -12    1    1    2    0    0  0.60742621767E+01  0.23946282794E+02  0.32293091359E+02  0.40659130219E+02  0.00000000000E+00 0.  1.
         11    1    3    3    0    0 -0.64465195291E+01 -0.50937408749E+01 -0.14676175456E+01  0.83461195571E+01  0.51100000000E-03 0. -1.
        -11    1    3    3    0    0 -0.96737355406E+01 -0.70389589274E+01 -0.73285761973E+01  0.14029830057E+02  0.51100000000E-03 0.  1.
        -12    1    3    3    0    0  0.10045992893E+02 -0.11813582992E+02 -0.23496897617E+02  0.28152920167E+02  0.00000000000E+00 0.  1.
</event>
<event>
 7    1  0.5935282E-013  0.5052886E+02  0.7816164E-02  0.1300439E+00
        -11   -1    0    0    0    0  0.00000000000E+00  0.00000000000E+00  0.45593999997E+02  0.45594000000E+02  0.51100000000E-03 0.  1.
         11   -1    0    0    0    0 -0.00000000000E+00 -0.00000000000E+00 -0.45593999997E+02  0.45594000000E+02  0.51100000000E-03 0. -1.
    9900012    2    1    2    0    0  0.18265039398E+02  0.35535725100E+02 -0.75343494104E+01  0.50528857810E+02  0.29999993800E+02 0.  0.
        -12    1    1    2    0    0 -0.18265039398E+02 -0.35535725100E+02  0.75343494104E+01  0.40659142190E+02  0.00000000000E+00 0.  1.
         11    1    3    3    0    0  0.68253807398E+01  0.11041050576E+02  0.13331607011E+01  0.13048675710E+02  0.51100000000E-03 0. -1.
        -11    1    3    3    0    0  0.18153009786E+01  0.10703335455E+02  0.81346166609E+01  0.13565717673E+02  0.51100000000E-03 0.  1.
         12    1    3    3    0    0  0.96243576796E+01  0.13791339069E+02 -0.17002126772E+02  0.23914464427E+02  0.00000000000E+00 0. -1.
</event>
<event>
 7    1  0.5935282E-013  0.5052885E+02  0.7816164E-02  0.1300439E+00
        -11   -1    0    0    0    0  0.00000000000E+00  0.00000000000E+00  0.45593999997E+02  0.45594000000E+02  0.51100000000E-03 0.  1.
         11   -1    0    0    0    0 -0.00000000000E+00 -0.00000000000E+00 -0.45593999997E+02  0.45594000000E+02  0.51100000000E-03 0. -1.
    9900012    2    1    2    0    0 -0.51358682537E+01 -0.39350475062E+02 -0.88503863923E+01  0.50528851342E+02  0.29999974139E+02 0.  0.
        -12    1    1    2    0    0  0.51358682537E+01  0.39350475062E+02  0.88503863923E+01  0.40659148658E+02  0.00000000000E+00 0.  1.
         11    1    3    3    0    0  0.10636434740E+01 -0.57545727061E+01 -0.78109391498E+01  0.97599802834E+01  0.51100000000E-03 0. -1.
        -11    1    3    3    0    0 -0.78285433332E+01 -0.22435683942E+01  0.38291119516E+01  0.89989881908E+01  0.51100000000E-03 0.  1.
         12    1    3    3    0    0  0.16290316056E+01 -0.31352333961E+02 -0.48685591941E+01  0.31769882868E+02  0.00000000000E+00 0. -1.
</event>
<event>
 7    1  0.5935282E-013  0.5052885E+02  0.7816164E-02  0.1300439E+00
        -11   -1    0    0    0    0  0.00000000000E+00  0.00000000000E+00  0.45593999997E+02  0.45594000000E+02  0.51100000000E-03 0.  1.
         11   -1    0    0    0    0 -0.00000000000E+00 -0.00000000000E+00 -0.45593999997E+02  0.45594000000E+02  0.51100000000E-03 0. -1.
    9900012    2    1    2    0    0 -0.11371116671E+02  0.32195066164E+02 -0.22075819552E+02  0.50528851109E+02  0.29999973431E+02 0.  0.
        -12    1    1    2    0    0  0.11371116671E+02 -0.32195066164E+02  0.22075819552E+02  0.40659148891E+02  0.00000000000E+00 0.  1.
         11    1    3    3    0    0 -0.11691416938E+02  0.10933833356E+00 -0.50548554609E+01  0.12737847106E+02  0.51100000000E-03 0. -1.
        -11    1    3    3    0    0 -0.10062122580E+01  0.77862085014E+00  0.10224355575E+01  0.16322035004E+01  0.51100000000E-03 0.  1.
        -12    1    3    3    0    0  0.13265125252E+01  0.31307106980E+02 -0.18043399649E+02  0.36158800503E+02  0.00000000000E+00 0.  1.
</event>
<event>
 7    1  0.5935282E-013  0.5052886E+02  0.7816164E-02  0.1300439E+00
        -11   -1    0    0    0    0  0.00000000000E+00  0.00000000000E+00  0.45593999997E+02  0.45594000000E+02  0.51100000000E-03 0. -1.
         11   -1    0    0    0    0 -0.00000000000E+00 -0.00000000000E+00 -0.45593999997E+02  0.45594000000E+02  0.51100000000E-03 0.  1.
    9900012    2    1    2    0    0 -0.77200500326E+01 -0.27861107938E+02  0.28588896207E+02  0.50528862105E+02  0.30000006854E+02 0.  0.
        -12    1    1    2    0    0  0.77200500326E+01  0.27861107938E+02 -0.28588896207E+02  0.40659137895E+02  0.00000000000E+00 0.  1.
         11    1    3    3    0    0 -0.26205479305E+00  0.17574959672E+01  0.25517150427E+01  0.31094556934E+01  0.51100000000E-03 0. -1.
        -11    1    3    3    0    0 -0.23269340073E+01 -0.52672336890E+01 -0.50076874180E+01  0.76312060742E+01  0.51100000000E-03 0.  1.
         12    1    3    3    0    0 -0.51310612322E+01 -0.24351370216E+02  0.31044868582E+02  0.39788200337E+02  0.00000000000E+00 0. -1.
</event>
<event>
 7    1  0.5935282E-013  0.5052886E+02  0.7816164E-02  0.1300439E+00
        -11   -1    0    0    0    0  0.00000000000E+00  0.00000000000E+00  0.45593999997E+02  0.45594000000E+02  0.51100000000E-03 0. -1.
         11   -1    0    0    0    0 -0.00000000000E+00 -0.00000000000E+00 -0.45593999997E+02  0.45594000000E+02  0.51100000000E-03 0.  1.
    9900012    2    1    2    0    0  0.92154082508E+01 -0.24639279084E+02  0.31002382891E+02  0.50528861200E+02  0.30000004104E+02 0.  0.
        -12    1    1    2    0    0 -0.92154082508E+01  0.24639279084E+02 -0.31002382891E+02  0.40659138800E+02  0.00000000000E+00 0.  1.
         11    1    3    3    0    0 -0.11474905404E+00  0.35903167658E+01  0.19464259151E+01  0.40855986009E+01  0.51100000000E-03 0. -1.
        -11    1    3    3    0    0 -0.39721986524E+01 -0.21133522362E+00  0.50592354519E-01  0.39781383282E+01  0.51100000000E-03 0.  1.
         12    1    3    3    0    0  0.13302355957E+02 -0.28018260626E+02  0.29005364622E+02  0.42465124271E+02  0.00000000000E+00 0. -1.
</event>
<event>
 7    1  0.5935282E-013  0.5052883E+02  0.7816164E-02  0.1300439E+00
        -11   -1    0    0    0    0  0.00000000000E+00  0.00000000000E+00  0.45593999997E+02  0.45594000000E+02  0.51100000000E-03 0. -1.
         11   -1    0    0    0    0 -0.00000000000E+00 -0.00000000000E+00 -0.45593999997E+02  0.45594000000E+02  0.51100000000E-03 0.  1.
    9900012    2    1    2    0    0 -0.22285528211E+02 -0.22356312948E+02  0.25626517660E+02  0.50528832477E+02  0.29999916796E+02 0.  0.
        -12    1    1    2    0    0  0.22285528211E+02  0.22356312948E+02 -0.25626517660E+02  0.40659167523E+02  0.00000000000E+00 0.  1.
         11    1    3    3    0    0 -0.15997140783E+02 -0.63519524314E+01  0.60075415695E+01  0.18230369412E+02  0.51100000000E-03 0. -1.
        -11    1    3    3    0    0 -0.26042741947E+01  0.40661163648E+01  0.62716101701E+01  0.79150894347E+01  0.51100000000E-03 0.  1.
        -12    1    3    3    0    0 -0.36841132340E+01 -0.20070476882E+02  0.13347365921E+02  0.24383373630E+02  0.00000000000E+00 0.  1.
</event>
<event>
 7    1  0.5935282E-013  0.5052885E+02  0.7816164E-02  0.1300439E+00
        -11   -1    0    0    0    0  0.00000000000E+00  0.00000000000E+00  0.45593999997E+02  0.45594000000E+02  0.51100000000E-03 0.  1.
         11   -1    0    0    0    0 -0.00000000000E+00 -0.00000000000E+00 -0.45593999997E+02  0.45594000000E+02  0.51100000000E-03 0. -1.
    9900012    2    1    2    0    0  0.91696040533E+01 -0.54275424038E+00 -0.39607955651E+02  0.50528851318E+02  0.29999974068E+02 0.  0.
        -12    1    1    2    0    0 -0.91696040533E+01  0.54275424038E+00  0.39607955651E+02  0.40659148682E+02  0.00000000000E+00 0.  1.
         11    1    3    3    0    0  0.13431949291E+02 -0.31106796738E+01 -0.21170842907E+02  0.25264563710E+02  0.51100000000E-03 0. -1.
        -11    1    3    3    0    0  0.63887317484E+01  0.87277200802E+00 -0.60794588516E+01  0.88621354379E+01  0.51100000000E-03 0.  1.
        -12    1    3    3    0    0 -0.10651076986E+02  0.16951534254E+01 -0.12357653893E+02  0.16402152171E+02  0.00000000000E+00 0.  1.
</event>
<event>
 7    1  0.5935282E-013  0.5052887E+02  0.7816164E-02  0.1300439E+00
        -11   -1    0    0    0    0  0.00000000000E+00  0.00000000000E+00  0.45593999997E+02  0.45594000000E+02  0.51100000000E-03 0. -1.
         11   -1    0    0    0    0 -0.00000000000E+00 -0.00000000000E+00 -0.45593999997E+02  0.45594000000E+02  0.51100000000E-03 0.  1.
    9900012    2    1    2    0    0 -0.15789029827E+02 -0.28656098041E+02  0.24139168799E+02  0.50528869560E+02  0.30000029515E+02 0.  0.
        -12    1    1    2    0    0  0.15789029827E+02  0.28656098041E+02 -0.24139168799E+02  0.40659130440E+02  0.00000000000E+00 0.  1.
         11    1    3    3    0    0 -0.96426368013E+01 -0.13441661473E+02  0.30360554717E+01  0.16818928049E+02  0.51100000000E-03 0. -1.
        -11    1    3    3    0    0 -0.11025776981E+02 -0.80267543866E+01  0.35002499051E+01  0.14080067247E+02  0.51100000000E-03 0.  1.
        -12    1    3    3    0    0  0.48793839562E+01 -0.71876821814E+01  0.17602863422E+02  0.19629874264E+02  0.00000000000E+00 0.  1.
</event>
<event>
 7    1  0.5935282E-013  0.5052883E+02  0.7816164E-02  0.1300439E+00
        -11   -1    0    0    0    0  0.00000000000E+00  0.00000000000E+00  0.45593999997E+02  0.45594000000E+02  0.51100000000E-03 0. -1.
         11   -1    0    0    0    0 -0.00000000000E+00 -0.00000000000E+00 -0.45593999997E+02  0.45594000000E+02  0.51100000000E-03 0.  1.
    9900012    2    1    2    0    0 -0.31684619149E+01 -0.39420539619E+02 -0.94419432566E+01  0.50528826530E+02  0.29999898721E+02 0.  0.
        -12    1    1    2    0    0  0.31684619149E+01  0.39420539619E+02  0.94419432566E+01  0.40659173470E+02  0.00000000000E+00 0.  1.
         11    1    3    3    0    0  0.12118957281E+01 -0.11886357721E+02 -0.34192501301E+01  0.12427608895E+02  0.51100000000E-03 0. -1.
        -11    1    3    3    0    0  0.62787610391E+00 -0.11127240028E+02 -0.15041579606E+02  0.18720545301E+02  0.51100000000E-03 0.  1.
        -12    1    3    3    0    0 -0.50082337469E+01 -0.16406941870E+02  0.90188864799E+01  0.19380672334E+02  0.00000000000E+00 0.  1.
</event>
<event>
 7    1  0.5935282E-013  0.5052888E+02  0.7816164E-02  0.1300439E+00
        -11   -1    0    0    0    0  0.00000000000E+00  0.00000000000E+00  0.45593999997E+02  0.45594000000E+02  0.51100000000E-03 0. -1.
         11   -1    0    0    0    0 -0.00000000000E+00 -0.00000000000E+00 -0.45593999997E+02  0.45594000000E+02  0.51100000000E-03 0.  1.
    9900012    2    1    2    0    0 -0.19418713769E+02 -0.23444765261E+02  0.26952194731E+02  0.50528877243E+02  0.30000052867E+02 0.  0.
        -12    1    1    2    0    0  0.19418713769E+02  0.23444765261E+02 -0.26952194731E+02  0.40659122757E+02  0.00000000000E+00 0.  1.
         11    1    3    3    0    0 -0.54118144919E+01  0.19801160119E+01  0.32169620389E+00  0.57716621716E+01  0.51100000000E-03 0. -1.
        -11    1    3    3    0    0 -0.43105495513E+01 -0.16978129649E+00  0.14466051352E+02  0.15095572368E+02  0.51100000000E-03 0.  1.
         12    1    3    3    0    0 -0.96963497263E+01 -0.25255099976E+02  0.12164447175E+02  0.29661642704E+02  0.00000000000E+00 0. -1.
</event>
<event>
 7    1  0.5935282E-013  0.5052888E+02  0.7816164E-02  0.1300439E+00
        -11   -1    0    0    0    0  0.00000000000E+00  0.00000000000E+00  0.45593999997E+02  0.45594000000E+02  0.51100000000E-03 0.  1.
         11   -1    0    0    0    0 -0.00000000000E+00 -0.00000000000E+00 -0.45593999997E+02  0.45594000000E+02  0.51100000000E-03 0. -1.
    9900012    2    1    2    0    0 -0.89315446957E+01 -0.29255050827E+00 -0.39664918282E+02  0.50528882710E+02  0.30000069487E+02 0.  0.
        -12    1    1    2    0    0  0.89315446957E+01  0.29255050827E+00  0.39664918282E+02  0.40659117290E+02  0.00000000000E+00 0.  1.
         11    1    3    3    0    0 -0.29992396263E+00  0.40463657617E+00 -0.18501791961E+02  0.18508646390E+02  0.51100000000E-03 0. -1.
        -11    1    3    3    0    0  0.62193362050E+01 -0.15029551980E+01 -0.14247407783E+02  0.15618183183E+02  0.51100000000E-03 0.  1.
        -12    1    3    3    0    0 -0.14850956938E+02  0.80576811353E+00 -0.69157185382E+01  0.16402053138E+02  0.00000000000E+00 0.  1.
</event>
<event>
 7    1  0.5935282E-013  0.5052886E+02  0.7816164E-02  0.1300439E+00
        -11   -1    0    0    0    0  0.00000000000E+00  0.00000000000E+00  0.45593999997E+02  0.45594000000E+02  0.51100000000E-03 0.  1.
         11   -1    0    0    0    0 -0.00000000000E+00 -0.00000000000E+00 -0.45593999997E+02  0.45594000000E+02  0.51100000000E-03 0. -1.
    9900012    2    1    2    0    0  0.20766236463E+02 -0.32027703904E+02 -0.14005550952E+02  0.50528857711E+02  0.29999993499E+02 0.  0.
        -12    1    1    2    0    0 -0.20766236463E+02  0.32027703904E+02  0.14005550952E+02  0.40659142289E+02  0.00000000000E+00 0.  1.
         11    1    3    3    0    0  0.46644178623E+01 -0.19232614635E+02  0.42931614029E+01  0.20250469002E+02  0.51100000000E-03 0. -1.
        -11    1    3    3    0    0 -0.15260666117E+01 -0.60459449580E+00  0.55571864969E+00  0.17329850797E+01  0.51100000000E-03 0.  1.
         12    1    3    3    0    0  0.17627885212E+02 -0.12190494773E+02 -0.18854431005E+02  0.28545403630E+02  0.00000000000E+00 0. -1.
</event>
<event>
 7    1  0.5935282E-013  0.5052886E+02  0.7816164E-02  0.1300439E+00
        -11   -1    0    0    0    0  0.00000000000E+00  0.00000000000E+00  0.45593999997E+02  0.45594000000E+02  0.51100000000E-03 0. -1.
         11   -1    0    0    0    0 -0.00000000000E+00 -0.00000000000E+00 -0.45593999997E+02  0.45594000000E+02  0.51100000000E-03 0.  1.
    9900012    2    1    2    0    0  0.91792827303E+01 -0.19648567283E+02  0.34392442304E+02  0.50528861847E+02  0.30000006070E+02 0.  0.
        -12    1    1    2    0    0 -0.91792827303E+01  0.19648567283E+02 -0.34392442304E+02  0.40659138153E+02  0.00000000000E+00 0.  1.
         11    1    3    3    0    0 -0.56096253736E+00  0.12604389646E+01  0.11323454441E+02  0.11407190981E+02  0.51100000000E-03 0. -1.
        -11    1    3    3    0    0 -0.25171290690E+01 -0.18226019983E+02  0.17504844536E+02  0.25395734399E+02  0.51100000000E-03 0.  1.
        -12    1    3    3    0    0  0.12257374337E+02 -0.26829862640E+01  0.55641433272E+01  0.13725936467E+02  0.00000000000E+00 0.  1.
</event>
<event>
 7    1  0.5935282E-013  0.5052887E+02  0.7816164E-02  0.1300439E+00
        -11   -1    0    0    0    0  0.00000000000E+00  0.00000000000E+00  0.45593999997E+02  0.45594000000E+02  0.51100000000E-03 0. -1.
         11   -1    0    0    0    0 -0.00000000000E+00 -0.00000000000E+00 -0.45593999997E+02  0.45594000000E+02  0.51100000000E-03 0.  1.
    9900012    2    1    2    0    0  0.38327340583E+02 -0.15081580309E+01  0.13487237190E+02  0.50528866415E+02  0.30000019956E+02 0.  0.
        -12    1    1    2    0    0 -0.38327340583E+02  0.15081580309E+01 -0.13487237190E+02  0.40659133585E+02  0.00000000000E+00 0.  1.
         11    1    3    3    0    0  0.22836103956E+02  0.17845086164E+01  0.66395783652E+01  0.23848608262E+02  0.51100000000E-03 0. -1.
        -11    1    3    3    0    0  0.16826844189E+02  0.79075023400E+00 -0.18824380151E+01  0.16950266796E+02  0.51100000000E-03 0.  1.
         12    1    3    3    0    0 -0.13356075621E+01 -0.40834168813E+01  0.87300968400E+01  0.97299913578E+01  0.00000000000E+00 0. -1.
</event>
<event>
 7    1  0.5935282E-013  0.5052882E+02  0.7816164E-02  0.1300439E+00
        -11   -1    0    0    0    0  0.00000000000E+00  0.00000000000E+00  0.45593999997E+02  0.45594000000E+02  0.51100000000E-03 0.  1.
         11   -1    0    0    0    0 -0.00000000000E+00 -0.00000000000E+00 -0.45593999997E+02  0.45594000000E+02  0.51100000000E-03 0. -1.
    9900012    2    1    2    0    0 -0.13592752350E+02 -0.13374059923E+02 -0.35910174049E+02  0.50528819050E+02  0.29999875985E+02 0.  0.
        -12    1    1    2    0    0  0.13592752350E+02  0.13374059923E+02  0.35910174049E+02  0.40659180950E+02  0.00000000000E+00 0.  1.
         11    1    3    3    0    0 -0.63771851682E+01  0.33366460752E+01 -0.25697484391E+02  0.26686371091E+02  0.51100000000E-03 0. -1.
        -11    1    3    3    0    0 -0.15179750166E+01  0.16628642364E+01 -0.56163376857E+00  0.23205168327E+01  0.51100000000E-03 0.  1.
         12    1    3    3    0    0 -0.56975921653E+01 -0.18373570235E+02 -0.96510558890E+01  0.21521931127E+02  0.00000000000E+00 0. -1.
</event>
<event>
 7    1  0.5935282E-013  0.5052885E+02  0.7816164E-02  0.1300439E+00
        -11   -1    0    0    0    0  0.00000000000E+00  0.00000000000E+00  0.45593999997E+02  0.45594000000E+02  0.51100000000E-03 0.  1.
         11   -1    0    0    0    0 -0.00000000000E+00 -0.00000000000E+00 -0.45593999997E+02  0.45594000000E+02  0.51100000000E-03 0. -1.
    9900012    2    1    2    0    0 -0.32157077221E+02 -0.74929510858E+01 -0.23726451444E+02  0.50528850605E+02  0.29999971899E+02 0.  0.
        -12    1    1    2    0    0  0.32157077221E+02  0.74929510858E+01  0.23726451444E+02  0.40659149395E+02  0.00000000000E+00 0.  1.
         11    1    3    3    0    0 -0.23415170042E+01 -0.37367568826E+01  0.98415154824E+00  0.45182528052E+01  0.51100000000E-03 0. -1.
        -11    1    3    3    0    0  0.38049964957E+01 -0.15249383608E+01 -0.65677877174E+01  0.77420456662E+01  0.51100000000E-03 0.  1.
         12    1    3    3    0    0 -0.33620556712E+02 -0.22312558424E+01 -0.18142815275E+02  0.38268552134E+02  0.00000000000E+00 0. -1.
</event>
<event>
 7    1  0.5935282E-013  0.5052886E+02  0.7816164E-02  0.1300439E+00
        -11   -1    0    0    0    0  0.00000000000E+00  0.00000000000E+00  0.45593999997E+02  0.45594000000E+02  0.51100000000E-03 0.  1.
         11   -1    0    0    0    0 -0.00000000000E+00 -0.00000000000E+00 -0.45593999997E+02  0.45594000000E+02  0.51100000000E-03 0. -1.
    9900012    2    1    2    0    0  0.23161077060E+02 -0.19859311726E+02 -0.26876349848E+02  0.50528856699E+02  0.29999990423E+02 0.  0.
        -12    1    1    2    0    0 -0.23161077060E+02  0.19859311726E+02  0.26876349848E+02  0.40659143301E+02  0.00000000000E+00 0.  1.
         11    1    3    3    0    0  0.11890495276E+02 -0.10793495580E+02 -0.16698499801E+02  0.23167289885E+02  0.51100000000E-03 0. -1.
        -11    1    3    3    0    0  0.15304002241E+02 -0.58902408390E+01 -0.49943751134E+00  0.16406000726E+02  0.51100000000E-03 0.  1.
         12    1    3    3    0    0 -0.40334204563E+01 -0.31755753063E+01 -0.96784125358E+01  0.10955566088E+02  0.00000000000E+00 0. -1.
</event>
<event>
 7    1  0.5935282E-013  0.5052887E+02  0.7816164E-02  0.1300439E+00
        -11   -1    0    0    0    0  0.00000000000E+00  0.00000000000E+00  0.45593999997E+02  0.45594000000E+02  0.51100000000E-03 0. -1.
         11   -1    0    0    0    0 -0.00000000000E+00 -0.00000000000E+00 -0.45593999997E+02  0.45594000000E+02  0.51100000000E-03 0.  1.
    9900012    2    1    2    0    0  0.40245568057E+02 -0.10478605197E+01  0.56886949341E+01  0.50528868062E+02  0.30000024962E+02 0.  0.
        -12    1    1    2    0    0 -0.40245568057E+02  0.10478605197E+01 -0.56886949341E+01  0.40659131938E+02  0.00000000000E+00 0.  1.
         11    1    3    3    0    0  0.24548216012E+00 -0.85764539745E+00  0.53628528620E+00  0.10408742902E+01  0.51100000000E-03 0. -1.
        -11    1    3    3    0    0  0.17806590276E+01  0.76500469243E+01  0.68697405921E+01  0.10434907790E+02  0.51100000000E-03 0.  1.
         12    1    3    3    0    0  0.38219426869E+02 -0.78402620465E+01 -0.17173309442E+01  0.39053085982E+02  0.00000000000E+00 0. -1.
</event>
<event>
 7    1  0.5935282E-013  0.5052883E+02  0.7816164E-02  0.1300439E+00
        -11   -1    0    0    0    0  0.00000000000E+00  0.00000000000E+00  0.45593999997E+02  0.45594000000E+02  0.51100000000E-03 0.  1.
         11   -1    0    0    0    0 -0.00000000000E+00 -0.00000000000E+00 -0.45593999997E+02  0.45594000000E+02  0.51100000000E-03 0. -1.
    9900012    2    1    2    0    0 -0.75036056441E+01  0.24089151165E+02 -0.31883804376E+02  0.50528827812E+02  0.29999902616E+02 0.  0.
        -12    1    1    2    0    0  0.75036056441E+01 -0.24089151165E+02  0.31883804376E+02  0.40659172188E+02  0.00000000000E+00 0.  1.
         11    1    3    3    0    0 -0.84651923583E+01  0.14373313544E+02 -0.23381632873E+02  0.28721984262E+02  0.51100000000E-03 0. -1.
        -11    1    3    3    0    0 -0.40142545522E+01  0.13137056718E+02 -0.41048285467E+01  0.14336879594E+02  0.51100000000E-03 0.  1.
         12    1    3    3    0    0  0.49758412664E+01 -0.34212190968E+01 -0.43973429568E+01  0.74699639555E+01  0.00000000000E+00 0. -1.
</event>
<event>
 7    1  0.5935282E-013  0.5052884E+02  0.7816164E-02  0.1300439E+00
        -11   -1    0    0    0    0  0.00000000000E+00  0.00000000000E+00  0.45593999997E+02  0.45594000000E+02  0.51100000000E-03 0.  1.
         11   -1    0    0    0    0 -0.00000000000E+00 -0.00000000000E+00 -0.45593999997E+02  0.45594000000E+02  0.51100000000E-03 0. -1.
    9900012    2    1    2    0    0  0.32327797217E+02  0.23773393099E+02 -0.65503088452E+01  0.50528840659E+02  0.29999941666E+02 0.  0.
        -12    1    1    2    0    0 -0.32327797217E+02 -0.23773393099E+02  0.65503088452E+01  0.40659159341E+02  0.00000000000E+00 0.  1.
         11    1    3    3    0    0  0.13191034969E+02 -0.68865003819E+00 -0.72397160901E+01  0.15062905820E+02  0.51100000000E-03 0. -1.
        -11    1    3    3    0    0 -0.12314173936E+01  0.31228202060E+01  0.46145638730E+01  0.57063644149E+01  0.51100000000E-03 0.  1.
         12    1    3    3    0    0  0.20368179642E+02  0.21339222931E+02 -0.39251566282E+01  0.29759570424E+02  0.00000000000E+00 0. -1.
</event>
<event>
 7    1  0.5935282E-013  0.5052886E+02  0.7816164E-02  0.1300439E+00
        -11   -1    0    0    0    0  0.00000000000E+00  0.00000000000E+00  0.45593999997E+02  0.45594000000E+02  0.51100000000E-03 0.  1.
         11   -1    0    0    0    0 -0.00000000000E+00 -0.00000000000E+00 -0.45593999997E+02  0.45594000000E+02  0.51100000000E-03 0. -1.
    9900012    2    1    2    0    0 -0.21706285219E+01  0.27031432734E+02 -0.30294486243E+02  0.50528857356E+02  0.29999992418E+02 0.  0.
        -12    1    1    2    0    0  0.21706285219E+01 -0.27031432734E+02  0.30294486243E+02  0.40659142644E+02  0.00000000000E+00 0.  1.
         11    1    3    3    0    0  0.30698187466E+01  0.15808866721E+02 -0.13885685399E+02  0.21263967490E+02  0.51100000000E-03 0.  1.
        -11    1    3    3    0    0  0.19689193143E+01  0.12411874192E+02 -0.14928807468E+01  0.12655431933E+02  0.51100000000E-03 0. -1.
        -12    1    3    3    0    0 -0.72093665828E+01 -0.11893081794E+01 -0.14915920097E+02  0.16609457933E+02  0.00000000000E+00 0.  1.
</event>
<event>
 7    1  0.5935282E-013  0.5052886E+02  0.7816164E-02  0.1300439E+00
        -11   -1    0    0    0    0  0.00000000000E+00  0.00000000000E+00  0.45593999997E+02  0.45594000000E+02  0.51100000000E-03 0.  1.
         11   -1    0    0    0    0 -0.00000000000E+00 -0.00000000000E+00 -0.45593999997E+02  0.45594000000E+02  0.51100000000E-03 0. -1.
    9900012    2    1    2    0    0 -0.40588932650E+02  0.13037759498E-01 -0.23883925494E+01  0.50528855363E+02  0.29999986360E+02 0.  0.
        -12    1    1    2    0    0  0.40588932650E+02 -0.13037759498E-01  0.23883925494E+01  0.40659144637E+02  0.00000000000E+00 0.  1.
         11    1    3    3    0    0 -0.12696682259E+02  0.19304709190E+01  0.85564670845E+00  0.12871075709E+02  0.51100000000E-03 0. -1.
        -11    1    3    3    0    0 -0.13424307127E+02  0.11400152454E+02  0.59730967891E+00  0.17621926027E+02  0.51100000000E-03 0.  1.
        -12    1    3    3    0    0 -0.14467943264E+02 -0.13317585613E+02 -0.38413489368E+01  0.20035853626E+02  0.00000000000E+00 0.  1.
</event>
<event>
 7    1  0.5935282E-013  0.5052881E+02  0.7816164E-02  0.1300439E+00
        -11   -1    0    0    0    0  0.00000000000E+00  0.00000000000E+00  0.45593999997E+02  0.45594000000E+02  0.51100000000E-03 0.  1.
         11   -1    0    0    0    0 -0.00000000000E+00 -0.00000000000E+00 -0.45593999997E+02  0.45594000000E+02  0.51100000000E-03 0. -1.
    9900012    2    1    2    0    0  0.29705441823E+02 -0.23415470145E+02 -0.14915500657E+02  0.50528810684E+02  0.29999850554E+02 0.  0.
        -12    1    1    2    0    0 -0.29705441823E+02  0.23415470145E+02  0.14915500657E+02  0.40659189316E+02  0.00000000000E+00 0.  1.
         11    1    3    3    0    0  0.19045712575E+02 -0.66991499831E+01 -0.12772124795E+02  0.23890268940E+02  0.51100000000E-03 0. -1.
        -11    1    3    3    0    0 -0.35862157611E+01 -0.77819559085E+00 -0.36921670033E+01  0.52056343805E+01  0.51100000000E-03 0.  1.
         12    1    3    3    0    0  0.14245945009E+02 -0.15938124571E+02  0.15487911413E+01  0.21432907363E+02  0.00000000000E+00 0. -1.
</event>
<event>
 7    1  0.5935282E-013  0.5052886E+02  0.7816164E-02  0.1300439E+00
        -11   -1    0    0    0    0  0.00000000000E+00  0.00000000000E+00  0.45593999997E+02  0.45594000000E+02  0.51100000000E-03 0. -1.
         11   -1    0    0    0    0 -0.00000000000E+00 -0.00000000000E+00 -0.45593999997E+02  0.45594000000E+02  0.51100000000E-03 0.  1.
    9900012    2    1    2    0    0  0.82389968111E+00 -0.30478706452E+02 -0.26898609157E+02  0.50528861639E+02  0.30000005438E+02 0.  0.
        -12    1    1    2    0    0 -0.82389968111E+00  0.30478706452E+02  0.26898609157E+02  0.40659138361E+02  0.00000000000E+00 0.  1.
         11    1    3    3    0    0 -0.18947482978E+01 -0.38754663862E+01 -0.68958956982E+01  0.81340450309E+01  0.51100000000E-03 0. -1.
        -11    1    3    3    0    0  0.11917703566E+02 -0.14486176472E+02 -0.19665930992E+02  0.27177744739E+02  0.51100000000E-03 0.  1.
        -12    1    3    3    0    0 -0.91990555873E+01 -0.12117063594E+02 -0.33678246729E+00  0.15217071869E+02  0.00000000000E+00 0.  1.
</event>
<event>
 7    1  0.5935282E-013  0.5052886E+02  0.7816164E-02  0.1300439E+00
        -11   -1    0    0    0    0  0.00000000000E+00  0.00000000000E+00  0.45593999997E+02  0.45594000000E+02  0.51100000000E-03 0.  1.
         11   -1    0    0    0    0 -0.00000000000E+00 -0.00000000000E+00 -0.45593999997E+02  0.45594000000E+02  0.51100000000E-03 0. -1.
    9900012    2    1    2    0    0 -0.33715677087E+02 -0.18511017162E+02 -0.13181842764E+02  0.50528860604E+02  0.30000002291E+02 0.  0.
        -12    1    1    2    0    0  0.33715677087E+02  0.18511017162E+02  0.13181842764E+02  0.40659139396E+02  0.00000000000E+00 0.  1.
         11    1    3    3    0    0 -0.89521738792E+01 -0.31947970199E+01 -0.86071649485E+01  0.12823082074E+02  0.51100000000E-03 0. -1.
        -11    1    3    3    0    0 -0.21350582339E+02 -0.89313469804E+01 -0.13042079320E+02  0.26565243427E+02  0.51100000000E-03 0.  1.
        -12    1    3    3    0    0 -0.34129208688E+01 -0.63848731620E+01  0.84674015041E+01  0.11140535103E+02  0.00000000000E+00 0.  1.
</event>
<event>
 7    1  0.5935282E-013  0.5052886E+02  0.7816164E-02  0.1300439E+00
        -11   -1    0    0    0    0  0.00000000000E+00  0.00000000000E+00  0.45593999997E+02  0.45594000000E+02  0.51100000000E-03 0.  1.
         11   -1    0    0    0    0 -0.00000000000E+00 -0.00000000000E+00 -0.45593999997E+02  0.45594000000E+02  0.51100000000E-03 0. -1.
    9900012    2    1    2    0    0 -0.11671845455E+02  0.31788509262E+02 -0.22503876583E+02  0.50528858855E+02  0.29999996975E+02 0.  0.
        -12    1    1    2    0    0  0.11671845455E+02 -0.31788509262E+02  0.22503876583E+02  0.40659141145E+02  0.00000000000E+00 0.  1.
         11    1    3    3    0    0 -0.68078819352E+01 -0.48275544674E-01 -0.25986953110E+01  0.72871671143E+01  0.51100000000E-03 0. -1.
        -11    1    3    3    0    0 -0.12821902792E+02  0.16365544954E+02 -0.86334696612E+01  0.22511531522E+02  0.51100000000E-03 0.  1.
         12    1    3    3    0    0  0.79579392720E+01  0.15471239853E+02 -0.11271711611E+02  0.20730160218E+02  0.00000000000E+00 0. -1.
</event>
<event>
 7    1  0.5935282E-013  0.5052888E+02  0.7816164E-02  0.1300439E+00
        -11   -1    0    0    0    0  0.00000000000E+00  0.00000000000E+00  0.45593999997E+02  0.45594000000E+02  0.51100000000E-03 0.  1.
         11   -1    0    0    0    0 -0.00000000000E+00 -0.00000000000E+00 -0.45593999997E+02  0.45594000000E+02  0.51100000000E-03 0. -1.
    9900012    2    1    2    0    0 -0.28590424410E+02  0.21038742954E+02 -0.19827321964E+02  0.50528883319E+02  0.30000071336E+02 0.  0.
        -12    1    1    2    0    0  0.28590424410E+02 -0.21038742954E+02  0.19827321964E+02  0.40659116681E+02  0.00000000000E+00 0.  1.
         11    1    3    3    0    0 -0.17327771212E+02  0.10849758035E+02 -0.18665984519E+00  0.20445139930E+02  0.51100000000E-03 0. -1.
        -11    1    3    3    0    0 -0.78706793307E+01 -0.18278507809E+01 -0.17513572520E+01  0.82677617340E+01  0.51100000000E-03 0.  1.
        -12    1    3    3    0    0 -0.33919738671E+01  0.12016835700E+02 -0.17889304867E+02  0.21815981655E+02  0.00000000000E+00 0.  1.
</event>
<event>
 7    1  0.5935282E-013  0.5052886E+02  0.7816164E-02  0.1300439E+00
        -11   -1    0    0    0    0  0.00000000000E+00  0.00000000000E+00  0.45593999997E+02  0.45594000000E+02  0.51100000000E-03 0. -1.
         11   -1    0    0    0    0 -0.00000000000E+00 -0.00000000000E+00 -0.45593999997E+02  0.45594000000E+02  0.51100000000E-03 0.  1.
    9900012    2    1    2    0    0 -0.24489073115E+01 -0.39332399810E+02 -0.10006540548E+02  0.50528859877E+02  0.30000000082E+02 0.  0.
        -12    1    1    2    0    0  0.24489073115E+01  0.39332399810E+02  0.10006540548E+02  0.40659140123E+02  0.00000000000E+00 0.  1.
         11    1    3    3    0    0  0.78108435296E+01 -0.72963947053E+01 -0.19064770564E+01  0.10857315845E+02  0.51100000000E-03 0.  1.
        -11    1    3    3    0    0  0.11637243340E+01 -0.94147614399E+01  0.54437595614E+01  0.10937390261E+02  0.51100000000E-03 0. -1.
        -12    1    3    3    0    0 -0.11423475175E+02 -0.22621243665E+02 -0.13543823053E+02  0.28734153770E+02  0.00000000000E+00 0.  1.
</event>
<event>
 7    1  0.5935282E-013  0.5052884E+02  0.7816164E-02  0.1300439E+00
        -11   -1    0    0    0    0  0.00000000000E+00  0.00000000000E+00  0.45593999997E+02  0.45594000000E+02  0.51100000000E-03 0.  1.
         11   -1    0    0    0    0 -0.00000000000E+00 -0.00000000000E+00 -0.45593999997E+02  0.45594000000E+02  0.51100000000E-03 0. -1.
    9900012    2    1    2    0    0  0.89039471308E+01 -0.35053918362E+02 -0.18577129602E+02  0.50528840992E+02  0.29999942678E+02 0.  0.
        -12    1    1    2    0    0 -0.89039471308E+01  0.35053918362E+02  0.18577129602E+02  0.40659159008E+02  0.00000000000E+00 0.  1.
         11    1    3    3    0    0  0.66986123832E+01 -0.95788756642E+01 -0.95372039805E+01  0.15085904907E+02  0.51100000000E-03 0. -1.
        -11    1    3    3    0    0 -0.78478086980E+01 -0.11417031641E+01 -0.24904470498E+01  0.83122749139E+01  0.51100000000E-03 0.  1.
         12    1    3    3    0    0  0.10053143446E+02 -0.24333339533E+02 -0.65494785714E+01  0.27130661170E+02  0.00000000000E+00 0. -1.
</event>
<event>
 7    1  0.5935282E-013  0.5052887E+02  0.7816164E-02  0.1300439E+00
        -11   -1    0    0    0    0  0.00000000000E+00  0.00000000000E+00  0.45593999997E+02  0.45594000000E+02  0.51100000000E-03 0.  1.
         11   -1    0    0    0    0 -0.00000000000E+00 -0.00000000000E+00 -0.45593999997E+02  0.45594000000E+02  0.51100000000E-03 0. -1.
    9900012    2    1    2    0    0 -0.18931927525E+01  0.23641503964E+02 -0.33025140474E+02  0.50528870745E+02  0.30000033116E+02 0.  0.
        -12    1    1    2    0    0  0.18931927525E+01 -0.23641503964E+02  0.33025140474E+02  0.40659129255E+02  0.00000000000E+00 0.  1.
         11    1    3    3    0    0 -0.12317023584E+02  0.10607537679E+02 -0.94864837525E+01  0.18820794346E+02  0.51100000000E-03 0. -1.
        -11    1    3    3    0    0 -0.27078061863E+01  0.42175297967E+01 -0.32129332193E+01  0.59533782058E+01  0.51100000000E-03 0.  1.
         12    1    3    3    0    0  0.13131637018E+02  0.88164364886E+01 -0.20325723502E+02  0.25754698193E+02  0.00000000000E+00 0. -1.
</event>
<event>
 7    1  0.5935282E-013  0.5052885E+02  0.7816164E-02  0.1300439E+00
        -11   -1    0    0    0    0  0.00000000000E+00  0.00000000000E+00  0.45593999997E+02  0.45594000000E+02  0.51100000000E-03 0. -1.
         11   -1    0    0    0    0 -0.00000000000E+00 -0.00000000000E+00 -0.45593999997E+02  0.45594000000E+02  0.51100000000E-03 0.  1.
    9900012    2    1    2    0    0  0.13947568586E+02 -0.36669004552E+02  0.10677825564E+02  0.50528849455E+02  0.29999968403E+02 0.  0.
        -12    1    1    2    0    0 -0.13947568586E+02  0.36669004552E+02 -0.10677825564E+02  0.40659150545E+02  0.00000000000E+00 0.  1.
         11    1    3    3    0    0 -0.51991805306E+01 -0.76883361327E+01  0.13934632273E+01  0.93852933202E+01  0.51100000000E-03 0. -1.
        -11    1    3    3    0    0  0.10323625903E+01  0.20459823484E+00 -0.41340101337E+01  0.42658730645E+01  0.51100000000E-03 0.  1.
         12    1    3    3    0    0  0.18114386526E+02 -0.29185266654E+02  0.13418372470E+02  0.36877683070E+02  0.00000000000E+00 0. -1.
</event>
<event>
 7    1  0.5935282E-013  0.5052888E+02  0.7816164E-02  0.1300439E+00
        -11   -1    0    0    0    0  0.00000000000E+00  0.00000000000E+00  0.45593999997E+02  0.45594000000E+02  0.51100000000E-03 0.  1.
         11   -1    0    0    0    0 -0.00000000000E+00 -0.00000000000E+00 -0.45593999997E+02  0.45594000000E+02  0.51100000000E-03 0. -1.
    9900012    2    1    2    0    0 -0.71236196092E+01  0.27853695992E+02 -0.28750472953E+02  0.50528880091E+02  0.30000061524E+02 0.  0.
        -12    1    1    2    0    0  0.71236196092E+01 -0.27853695992E+02  0.28750472953E+02  0.40659119909E+02  0.00000000000E+00 0.  1.
         11    1    3    3    0    0 -0.54286202302E+01  0.64364219178E+01 -0.13702780598E+02  0.16083023381E+02  0.51100000000E-03 0. -1.
        -11    1    3    3    0    0 -0.50838549632E+01  0.52250866019E+01 -0.16299495163E+02  0.17855549673E+02  0.51100000000E-03 0.  1.
        -12    1    3    3    0    0  0.33888555842E+01  0.16192187472E+02  0.12518028080E+01  0.16590307037E+02  0.00000000000E+00 0.  1.
</event>
<event>
 7    1  0.5935282E-013  0.5052887E+02  0.7816164E-02  0.1300439E+00
        -11   -1    0    0    0    0  0.00000000000E+00  0.00000000000E+00  0.45593999997E+02  0.45594000000E+02  0.51100000000E-03 0. -1.
         11   -1    0    0    0    0 -0.00000000000E+00 -0.00000000000E+00 -0.45593999997E+02  0.45594000000E+02  0.51100000000E-03 0.  1.
    9900012    2    1    2    0    0 -0.21675417473E+02 -0.14123393186E+02  0.31366717776E+02  0.50528868901E+02  0.30000027510E+02 0.  0.
        -12    1    1    2    0    0  0.21675417473E+02  0.14123393186E+02 -0.31366717776E+02  0.40659131099E+02  0.00000000000E+00 0.  1.
         11    1    3    3    0    0 -0.44292385796E+00  0.30099316665E+01  0.39817494383E+01  0.50110077860E+01  0.51100000000E-03 0. -1.
        -11    1    3    3    0    0 -0.84047509994E+01  0.56946389262E+01  0.83515180483E+01  0.13145972989E+02  0.51100000000E-03 0.  1.
         12    1    3    3    0    0 -0.12827742616E+02 -0.22827963778E+02  0.19033450289E+02  0.32371888125E+02  0.00000000000E+00 0. -1.
</event>
<event>
 7    1  0.5935282E-013  0.5052886E+02  0.7816164E-02  0.1300439E+00
        -11   -1    0    0    0    0  0.00000000000E+00  0.00000000000E+00  0.45593999997E+02  0.45594000000E+02  0.51100000000E-03 0.  1.
         11   -1    0    0    0    0 -0.00000000000E+00 -0.00000000000E+00 -0.45593999997E+02  0.45594000000E+02  0.51100000000E-03 0. -1.
    9900012    2    1    2    0    0  0.31791150949E+02 -0.22408962699E+02 -0.11845951088E+02  0.50528862711E+02  0.30000008697E+02 0.  0.
        -12    1    1    2    0    0 -0.31791150949E+02  0.22408962699E+02  0.11845951088E+02  0.40659137289E+02  0.00000000000E+00 0.  1.
         11    1    3    3    0    0  0.69131510582E+01 -0.14170152383E+02 -0.11362295888E+02  0.19434161783E+02  0.51100000000E-03 0. -1.
        -11    1    3    3    0    0  0.38608255404E+01  0.23611111613E+01 -0.54023060245E+01  0.70473917454E+01  0.51100000000E-03 0.  1.
        -12    1    3    3    0    0  0.21017174350E+02 -0.10599921477E+02  0.49186508245E+01  0.24047309183E+02  0.00000000000E+00 0.  1.
</event>
<event>
 7    1  0.5935282E-013  0.5052886E+02  0.7816164E-02  0.1300439E+00
        -11   -1    0    0    0    0  0.00000000000E+00  0.00000000000E+00  0.45593999997E+02  0.45594000000E+02  0.51100000000E-03 0.  1.
         11   -1    0    0    0    0 -0.00000000000E+00 -0.00000000000E+00 -0.45593999997E+02  0.45594000000E+02  0.51100000000E-03 0. -1.
    9900012    2    1    2    0    0  0.13191363792E+02  0.38255003029E+02  0.39633968370E+01  0.50528857732E+02  0.29999993563E+02 0.  0.
        -12    1    1    2    0    0 -0.13191363792E+02 -0.38255003029E+02 -0.39633968370E+01  0.40659142268E+02  0.00000000000E+00 0.  1.
         11    1    3    3    0    0  0.87741962600E+00  0.15982060733E+02 -0.10753890419E+02  0.19283212644E+02  0.51100000000E-03 0. -1.
        -11    1    3    3    0    0  0.72513979292E+01  0.38615220587E+01  0.64183195491E+01  0.10425399303E+02  0.51100000000E-03 0.  1.
        -12    1    3    3    0    0  0.50625462368E+01  0.18411420237E+02  0.82989677065E+01  0.20820245785E+02  0.00000000000E+00 0.  1.
</event>
<event>
 7    1  0.5935282E-013  0.5052884E+02  0.7816164E-02  0.1300439E+00
        -11   -1    0    0    0    0  0.00000000000E+00  0.00000000000E+00  0.45593999997E+02  0.45594000000E+02  0.51100000000E-03 0.  1.
         11   -1    0    0    0    0 -0.00000000000E+00 -0.00000000000E+00 -0.45593999997E+02  0.45594000000E+02  0.51100000000E-03 0. -1.
    9900012    2    1    2    0    0  0.30516835318E+02  0.69674004137E+00 -0.26858968850E+02  0.50528844915E+02  0.29999954605E+02 0.  0.
        -12    1    1    2    0    0 -0.30516835318E+02 -0.69674004137E+00  0.26858968850E+02  0.40659155085E+02  0.00000000000E+00 0.  1.
         11    1    3    3    0    0  0.98925196654E+00  0.47142519539E+01  0.33735618936E+01  0.58807917026E+01  0.51100000000E-03 0.  1.
        -11    1    3    3    0    0  0.98628456519E+00 -0.30248676319E+01 -0.17461036861E+00  0.31863883122E+01  0.51100000000E-03 0. -1.
         12    1    3    3    0    0  0.28541298786E+02 -0.99264428065E+00 -0.30057920375E+02  0.41461664901E+02  0.00000000000E+00 0. -1.
</event>
<event>
 7    1  0.5935282E-013  0.5052886E+02  0.7816164E-02  0.1300439E+00
        -11   -1    0    0    0    0  0.00000000000E+00  0.00000000000E+00  0.45593999997E+02  0.45594000000E+02  0.51100000000E-03 0. -1.
         11   -1    0    0    0    0 -0.00000000000E+00 -0.00000000000E+00 -0.45593999997E+02  0.45594000000E+02  0.51100000000E-03 0.  1.
    9900012    2    1    2    0    0  0.12737372819E+02  0.34093726146E+02  0.18125746174E+02  0.50528861996E+02  0.30000006524E+02 0.  0.
        -12    1    1    2    0    0 -0.12737372819E+02 -0.34093726146E+02 -0.18125746174E+02  0.40659138004E+02  0.00000000000E+00 0.  1.
         11    1    3    3    0    0 -0.34204743800E+01  0.13071873496E+02 -0.15871062906E+01  0.13604867817E+02  0.51100000000E-03 0. -1.
        -11    1    3    3    0    0 -0.15044095719E+01  0.49584421156E+00 -0.17575760711E+01  0.23660480868E+01  0.51100000000E-03 0.  1.
         12    1    3    3    0    0  0.17662256770E+02  0.20526008438E+02  0.21470428536E+02  0.34557946093E+02  0.00000000000E+00 0. -1.
</event>
<event>
 7    1  0.5935282E-013  0.5052886E+02  0.7816164E-02  0.1300439E+00
        -11   -1    0    0    0    0  0.00000000000E+00  0.00000000000E+00  0.45593999997E+02  0.45594000000E+02  0.51100000000E-03 0.  1.
         11   -1    0    0    0    0 -0.00000000000E+00 -0.00000000000E+00 -0.45593999997E+02  0.45594000000E+02  0.51100000000E-03 0. -1.
    9900012    2    1    2    0    0  0.99575270079E+01 -0.26013592497E+02 -0.29619360315E+02  0.50528857803E+02  0.29999993779E+02 0.  0.
        -12    1    1    2    0    0 -0.99575270079E+01  0.26013592497E+02  0.29619360315E+02  0.40659142197E+02  0.00000000000E+00 0.  1.
         11    1    3    3    0    0 -0.17144082729E+01 -0.10401215291E+02 -0.17305216909E+02  0.20263144075E+02  0.51100000000E-03 0.  1.
        -11    1    3    3    0    0  0.35647356896E+01 -0.98772194354E+00 -0.13014122612E+02  0.13529609115E+02  0.51100000000E-03 0. -1.
        -12    1    3    3    0    0  0.81071995913E+01 -0.14624655262E+02  0.69997920635E+00  0.16736104613E+02  0.00000000000E+00 0.  1.
</event>
<event>
 7    1  0.5935282E-013  0.5052886E+02  0.7816164E-02  0.1300439E+00
        -11   -1    0    0    0    0  0.00000000000E+00  0.00000000000E+00  0.45593999997E+02  0.45594000000E+02  0.51100000000E-03 0.  1.
         11   -1    0    0    0    0 -0.00000000000E+00 -0.00000000000E+00 -0.45593999997E+02  0.45594000000E+02  0.51100000000E-03 0. -1.
    9900012    2    1    2    0    0  0.13845723280E+02  0.32829602845E+02 -0.19587723193E+02  0.50528858642E+02  0.29999996329E+02 0.  0.
        -12    1    1    2    0    0 -0.13845723280E+02 -0.32829602845E+02  0.19587723193E+02  0.40659141358E+02  0.00000000000E+00 0.  1.
         11    1    3    3    0    0 -0.34423398068E+00  0.18570809444E+02 -0.87753443276E+01  0.20542641718E+02  0.51100000000E-03 0. -1.
        -11    1    3    3    0    0 -0.48006341581E+01  0.46544498797E+01 -0.24600333570E+01  0.71247285128E+01  0.51100000000E-03 0.  1.
         12    1    3    3    0    0  0.18990591419E+02  0.96043435213E+01 -0.83523455079E+01  0.22861488411E+02  0.00000000000E+00 0. -1.
</event>
<event>
 7    1  0.5935282E-013  0.5052886E+02  0.7816164E-02  0.1300439E+00
        -11   -1    0    0    0    0  0.00000000000E+00  0.00000000000E+00  0.45593999997E+02  0.45594000000E+02  0.51100000000E-03 0.  1.
         11   -1    0    0    0    0 -0.00000000000E+00 -0.00000000000E+00 -0.45593999997E+02  0.45594000000E+02  0.51100000000E-03 0. -1.
    9900012    2    1    2    0    0 -0.15948029863E+02  0.15893324134E+02 -0.33855995879E+02  0.50528857541E+02  0.29999992981E+02 0.  0.
        -12    1    1    2    0    0  0.15948029863E+02 -0.15893324134E+02  0.33855995879E+02  0.40659142459E+02  0.00000000000E+00 0.  1.
         11    1    3    3    0    0 -0.97510490598E+01 -0.62204825700E+01 -0.11267448215E+02  0.16147221145E+02  0.51100000000E-03 0. -1.
        -11    1    3    3    0    0 -0.32963422362E+01  0.33864946316E+00 -0.73266465972E+00  0.33937226407E+01  0.51100000000E-03 0.  1.
        -12    1    3    3    0    0 -0.29006385673E+01  0.21775157241E+02 -0.21855883005E+02  0.30987913755E+02  0.00000000000E+00 0.  1.
</event>
<event>
 7    1  0.5935282E-013  0.5052886E+02  0.7816164E-02  0.1300439E+00
        -11   -1    0    0    0    0  0.00000000000E+00  0.00000000000E+00  0.45593999997E+02  0.45594000000E+02  0.51100000000E-03 0.  1.
         11   -1    0    0    0    0 -0.00000000000E+00 -0.00000000000E+00 -0.45593999997E+02  0.45594000000E+02  0.51100000000E-03 0. -1.
    9900012    2    1    2    0    0  0.31908449021E+02  0.23789581632E+02 -0.83109689669E+01  0.50528861811E+02  0.30000005960E+02 0.  0.
        -12    1    1    2    0    0 -0.31908449021E+02 -0.23789581632E+02  0.83109689669E+01  0.40659138189E+02  0.00000000000E+00 0.  1.
         11    1    3    3    0    0  0.53045138573E+01  0.10210283894E+02 -0.68788060198E+01  0.13405436844E+02  0.51100000000E-03 0. -1.
        -11    1    3    3    0    0 -0.39737979147E+00 -0.43962702368E+01 -0.15715878194E+01  0.46856153522E+01  0.51100000000E-03 0.  1.
         12    1    3    3    0    0  0.27001314955E+02  0.17975567975E+02  0.13942487225E+00  0.32437809615E+02  0.00000000000E+00 0. -1.
</event>
<event>
 7    1  0.5935282E-013  0.5052885E+02  0.7816164E-02  0.1300439E+00
        -11   -1    0    0    0    0  0.00000000000E+00  0.00000000000E+00  0.45593999997E+02  0.45594000000E+02  0.51100000000E-03 0.  1.
         11   -1    0    0    0    0 -0.00000000000E+00 -0.00000000000E+00 -0.45593999997E+02  0.45594000000E+02  0.51100000000E-03 0. -1.
    9900012    2    1    2    0    0 -0.19035655764E+02  0.32292366489E+02 -0.15748427958E+02  0.50528854571E+02  0.29999983954E+02 0.  0.
        -12    1    1    2    0    0  0.19035655764E+02 -0.32292366489E+02  0.15748427958E+02  0.40659145429E+02  0.00000000000E+00 0.  1.
         11    1    3    3    0    0 -0.85000888248E+01  0.23400008472E+02 -0.11023422853E+02  0.27227334761E+02  0.51100000000E-03 0. -1.
        -11    1    3    3    0    0 -0.10903403010E+02  0.13668045219E+02 -0.57456851599E+01  0.18404145064E+02  0.51100000000E-03 0.  1.
        -12    1    3    3    0    0  0.36783607039E+00 -0.47756872026E+01  0.10206800544E+01  0.48973747462E+01  0.00000000000E+00 0.  1.
</event>
<event>
 7    1  0.5935282E-013  0.5052887E+02  0.7816164E-02  0.1300439E+00
        -11   -1    0    0    0    0  0.00000000000E+00  0.00000000000E+00  0.45593999997E+02  0.45594000000E+02  0.51100000000E-03 0.  1.
         11   -1    0    0    0    0 -0.00000000000E+00 -0.00000000000E+00 -0.45593999997E+02  0.45594000000E+02  0.51100000000E-03 0. -1.
    9900012    2    1    2    0    0  0.63805010880E+00  0.88435701272E+01 -0.39680589686E+02  0.50528867713E+02  0.30000023900E+02 0.  0.
        -12    1    1    2    0    0 -0.63805010880E+00 -0.88435701272E+01  0.39680589686E+02  0.40659132287E+02  0.00000000000E+00 0.  1.
         11    1    3    3    0    0  0.24547205587E+01  0.35065702546E+01 -0.25095634688E+02  0.25458055084E+02  0.51100000000E-03 0. -1.
        -11    1    3    3    0    0 -0.93928801225E+00  0.49514914698E+01 -0.19460229167E+02  0.20102239906E+02  0.51100000000E-03 0.  1.
        -12    1    3    3    0    0 -0.87738243765E+00  0.38550840274E+00  0.48752741700E+01  0.49685727229E+01  0.00000000000E+00 0.  1.
</event>
<event>
 7    1  0.5935282E-013  0.5052886E+02  0.7816164E-02  0.1300439E+00
        -11   -1    0    0    0    0  0.00000000000E+00  0.00000000000E+00  0.45593999997E+02  0.45594000000E+02  0.51100000000E-03 0.  1.
         11   -1    0    0    0    0 -0.00000000000E+00 -0.00000000000E+00 -0.45593999997E+02  0.45594000000E+02  0.51100000000E-03 0. -1.
    9900012    2    1    2    0    0  0.81375164707E+01 -0.37065520203E+02 -0.14597734104E+02  0.50528858307E+02  0.29999995311E+02 0.  0.
        -12    1    1    2    0    0 -0.81375164707E+01  0.37065520203E+02  0.14597734104E+02  0.40659141693E+02  0.00000000000E+00 0.  1.
         11    1    3    3    0    0  0.72866051548E+01 -0.48945143891E+00  0.30443663657E+00  0.73093679152E+01  0.51100000000E-03 0. -1.
        -11    1    3    3    0    0  0.11623549596E+01 -0.57052643468E+01 -0.10538865272E+02  0.12040298659E+02  0.51100000000E-03 0.  1.
         12    1    3    3    0    0 -0.31144364381E+00 -0.30870804417E+02 -0.43633054685E+01  0.31179191733E+02  0.00000000000E+00 0. -1.
</event>
<event>
 7    1  0.5935282E-013  0.5052886E+02  0.7816164E-02  0.1300439E+00
        -11   -1    0    0    0    0  0.00000000000E+00  0.00000000000E+00  0.45593999997E+02  0.45594000000E+02  0.51100000000E-03 0. -1.
         11   -1    0    0    0    0 -0.00000000000E+00 -0.00000000000E+00 -0.45593999997E+02  0.45594000000E+02  0.51100000000E-03 0.  1.
    9900012    2    1    2    0    0  0.26315336495E+02  0.28895935900E+02 -0.11211326291E+02  0.50528857318E+02  0.29999992304E+02 0.  0.
        -12    1    1    2    0    0 -0.26315336495E+02 -0.28895935900E+02  0.11211326291E+02  0.40659142682E+02  0.00000000000E+00 0.  1.
         11    1    3    3    0    0  0.74146972950E+01  0.18257224243E+02  0.23966587364E+01  0.19850640957E+02  0.51100000000E-03 0. -1.
        -11    1    3    3    0    0  0.67614328613E+01 -0.18601632492E+01  0.19934379416E+01  0.72904716405E+01  0.51100000000E-03 0.  1.
         12    1    3    3    0    0  0.12139206339E+02  0.12498874906E+02 -0.15601422969E+02  0.23387744720E+02  0.00000000000E+00 0. -1.
</event>
<event>
 7    1  0.5935282E-013  0.5052886E+02  0.7816164E-02  0.1300439E+00
        -11   -1    0    0    0    0  0.00000000000E+00  0.00000000000E+00  0.45593999997E+02  0.45594000000E+02  0.51100000000E-03 0.  1.
         11   -1    0    0    0    0 -0.00000000000E+00 -0.00000000000E+00 -0.45593999997E+02  0.45594000000E+02  0.51100000000E-03 0. -1.
    9900012    2    1    2    0    0 -0.35207021094E+00 -0.10829638959E+02 -0.39188780702E+02  0.50528861220E+02  0.30000004164E+02 0.  0.
        -12    1    1    2    0    0  0.35207021094E+00  0.10829638959E+02  0.39188780702E+02  0.40659138780E+02  0.00000000000E+00 0.  1.
         11    1    3    3    0    0 -0.83569269016E+01  0.50300347562E+01 -0.12261485914E+02  0.15667913517E+02  0.51100000000E-03 0. -1.
        -11    1    3    3    0    0  0.66084250082E+00  0.13793932490E+01  0.53027330034E+00  0.16188355631E+01  0.51100000000E-03 0.  1.
         12    1    3    3    0    0  0.73440141898E+01 -0.17239066964E+02 -0.27457568089E+02  0.33242112140E+02  0.00000000000E+00 0. -1.
</event>
<event>
 7    1  0.5935282E-013  0.5052886E+02  0.7816164E-02  0.1300439E+00
        -11   -1    0    0    0    0  0.00000000000E+00  0.00000000000E+00  0.45593999997E+02  0.45594000000E+02  0.51100000000E-03 0.  1.
         11   -1    0    0    0    0 -0.00000000000E+00 -0.00000000000E+00 -0.45593999997E+02  0.45594000000E+02  0.51100000000E-03 0. -1.
    9900012    2    1    2    0    0  0.37586407984E+02 -0.12060718078E+02 -0.97450673277E+01  0.50528864214E+02  0.30000013264E+02 0.  0.
        -12    1    1    2    0    0 -0.37586407984E+02  0.12060718078E+02  0.97450673277E+01  0.40659135786E+02  0.00000000000E+00 0.  1.
         11    1    3    3    0    0  0.15016380894E+02 -0.15720015645E+02 -0.82803455438E+01  0.23263162072E+02  0.51100000000E-03 0. -1.
        -11    1    3    3    0    0  0.78089379303E+01 -0.34676061278E+01 -0.57800304044E+01  0.10315646155E+02  0.51100000000E-03 0.  1.
        -12    1    3    3    0    0  0.14761089160E+02  0.71269036945E+01  0.43153086206E+01  0.16950055986E+02  0.00000000000E+00 0.  1.
</event>
<event>
 7    1  0.5935282E-013  0.5052886E+02  0.7816164E-02  0.1300439E+00
        -11   -1    0    0    0    0  0.00000000000E+00  0.00000000000E+00  0.45593999997E+02  0.45594000000E+02  0.51100000000E-03 0.  1.
         11   -1    0    0    0    0 -0.00000000000E+00 -0.00000000000E+00 -0.45593999997E+02  0.45594000000E+02  0.51100000000E-03 0. -1.
    9900012    2    1    2    0    0 -0.26664538792E+01 -0.12927631213E+02 -0.38456889202E+02  0.50528856475E+02  0.29999989742E+02 0.  0.
        -12    1    1    2    0    0  0.26664538792E+01  0.12927631213E+02  0.38456889202E+02  0.40659143525E+02  0.00000000000E+00 0.  1.
         11    1    3    3    0    0  0.42889658796E+01 -0.20207277088E+01 -0.13457849898E+01  0.49284588148E+01  0.51100000000E-03 0. -1.
        -11    1    3    3    0    0 -0.12152019781E+02  0.15168439359E+01 -0.12222692146E+02  0.17302213842E+02  0.51100000000E-03 0.  1.
         12    1    3    3    0    0  0.51966000217E+01 -0.12423747440E+02 -0.24888412066E+02  0.28298183819E+02  0.00000000000E+00 0. -1.
</event>
<event>
 7    1  0.5935282E-013  0.5052886E+02  0.7816164E-02  0.1300439E+00
        -11   -1    0    0    0    0  0.00000000000E+00  0.00000000000E+00  0.45593999997E+02  0.45594000000E+02  0.51100000000E-03 0. -1.
         11   -1    0    0    0    0 -0.00000000000E+00 -0.00000000000E+00 -0.45593999997E+02  0.45594000000E+02  0.51100000000E-03 0.  1.
    9900012    2    1    2    0    0 -0.34189923839E+02 -0.20544274792E+01  0.21908764597E+02  0.50528861660E+02  0.30000005502E+02 0.  0.
        -12    1    1    2    0    0  0.34189923839E+02  0.20544274792E+01 -0.21908764597E+02  0.40659138340E+02  0.00000000000E+00 0.  1.
         11    1    3    3    0    0 -0.25778020103E+02 -0.70260385007E+01  0.23112627253E+02  0.35327964507E+02  0.51100000000E-03 0. -1.
        -11    1    3    3    0    0 -0.51243174255E+01 -0.12709016264E+01  0.38397657592E+01  0.65282173193E+01  0.51100000000E-03 0.  1.
        -12    1    3    3    0    0 -0.32875863105E+01  0.62425126480E+01 -0.50436284149E+01  0.86726798336E+01  0.00000000000E+00 0.  1.
</event>
<event>
 7    1  0.5935282E-013  0.5052886E+02  0.7816164E-02  0.1300439E+00
        -11   -1    0    0    0    0  0.00000000000E+00  0.00000000000E+00  0.45593999997E+02  0.45594000000E+02  0.51100000000E-03 0.  1.
         11   -1    0    0    0    0 -0.00000000000E+00 -0.00000000000E+00 -0.45593999997E+02  0.45594000000E+02  0.51100000000E-03 0. -1.
    9900012    2    1    2    0    0 -0.10108503857E+01  0.15491156300E+02 -0.37578819005E+02  0.50528863514E+02  0.30000011137E+02 0.  0.
        -12    1    1    2    0    0  0.10108503857E+01 -0.15491156300E+02  0.37578819005E+02  0.40659136486E+02  0.00000000000E+00 0.  1.
         11    1    3    3    0    0  0.16042050671E+01  0.66279582689E+01 -0.11561939278E+02  0.13423179387E+02  0.51100000000E-03 0. -1.
        -11    1    3    3    0    0  0.95398498835E+01  0.87523518696E+01 -0.75194293293E+01  0.14971780681E+02  0.51100000000E-03 0.  1.
        -12    1    3    3    0    0 -0.12154905336E+02  0.11084616123E+00 -0.18497450397E+02  0.22133903447E+02  0.00000000000E+00 0.  1.
</event>
<event>
 7    1  0.5935282E-013  0.5052886E+02  0.7816164E-02  0.1300439E+00
        -11   -1    0    0    0    0  0.00000000000E+00  0.00000000000E+00  0.45593999997E+02  0.45594000000E+02  0.51100000000E-03 0. -1.
         11   -1    0    0    0    0 -0.00000000000E+00 -0.00000000000E+00 -0.45593999997E+02  0.45594000000E+02  0.51100000000E-03 0.  1.
    9900012    2    1    2    0    0 -0.28653424900E+02  0.25085539224E+02 -0.14242975433E+02  0.50528863440E+02  0.30000010911E+02 0.  0.
        -12    1    1    2    0    0  0.28653424900E+02 -0.25085539224E+02  0.14242975433E+02  0.40659136560E+02  0.00000000000E+00 0.  1.
         11    1    3    3    0    0 -0.13681110877E+01 -0.33858398987E+01  0.86825703294E+00  0.37535996463E+01  0.51100000000E-03 0.  1.
        -11    1    3    3    0    0 -0.77202258639E+00 -0.27635360159E+01  0.53522293365E+00  0.29188377884E+01  0.51100000000E-03 0. -1.
         12    1    3    3    0    0 -0.26513291226E+02  0.31234915138E+02 -0.15646455400E+02  0.43856426005E+02  0.00000000000E+00 0. -1.
</event>
<event>
 7    1  0.5935282E-013  0.5052890E+02  0.7816164E-02  0.1300439E+00
        -11   -1    0    0    0    0  0.00000000000E+00  0.00000000000E+00  0.45593999997E+02  0.45594000000E+02  0.51100000000E-03 0.  1.
         11   -1    0    0    0    0 -0.00000000000E+00 -0.00000000000E+00 -0.45593999997E+02  0.45594000000E+02  0.51100000000E-03 0. -1.
    9900012    2    1    2    0    0 -0.35198476552E+02 -0.20701541736E+01 -0.20247074975E+02  0.50528900957E+02  0.30000124950E+02 0.  0.
        -12    1    1    2    0    0  0.35198476552E+02  0.20701541736E+01  0.20247074975E+02  0.40659099043E+02  0.00000000000E+00 0.  1.
         11    1    3    3    0    0 -0.27367594276E+02  0.11375044851E+00 -0.22333263531E+02  0.35323827876E+02  0.51100000000E-03 0.  1.
        -11    1    3    3    0    0 -0.96825853779E+01  0.64019178424E+00 -0.19962169859E+01  0.99069262457E+01  0.51100000000E-03 0. -1.
        -12    1    3    3    0    0  0.18517031012E+01 -0.28240964063E+01  0.40824055418E+01  0.52981468360E+01  0.00000000000E+00 0.  1.
</event>
<event>
 7    1  0.5935282E-013  0.5052886E+02  0.7816164E-02  0.1300439E+00
        -11   -1    0    0    0    0  0.00000000000E+00  0.00000000000E+00  0.45593999997E+02  0.45594000000E+02  0.51100000000E-03 0.  1.
         11   -1    0    0    0    0 -0.00000000000E+00 -0.00000000000E+00 -0.45593999997E+02  0.45594000000E+02  0.51100000000E-03 0. -1.
    9900012    2    1    2    0    0  0.77442483593E+01 -0.36682289626E+01 -0.39745899269E+02  0.50528858407E+02  0.29999995614E+02 0.  0.
        -12    1    1    2    0    0 -0.77442483593E+01  0.36682289626E+01  0.39745899269E+02  0.40659141593E+02  0.00000000000E+00 0.  1.
         11    1    3    3    0    0  0.17935507657E+01  0.21655214398E+01 -0.76499728309E+01  0.81503614662E+01  0.51100000000E-03 0. -1.
        -11    1    3    3    0    0  0.10024446334E+02  0.81709325650E+01 -0.17331124885E+02  0.21624559032E+02  0.51100000000E-03 0.  1.
        -12    1    3    3    0    0 -0.40737487406E+01 -0.14004682967E+02 -0.14764801553E+02  0.20753937909E+02  0.00000000000E+00 0.  1.
</event>
<event>
 7    1  0.5935282E-013  0.5052887E+02  0.7816164E-02  0.1300439E+00
        -11   -1    0    0    0    0  0.00000000000E+00  0.00000000000E+00  0.45593999997E+02  0.45594000000E+02  0.51100000000E-03 0. -1.
         11   -1    0    0    0    0 -0.00000000000E+00 -0.00000000000E+00 -0.45593999997E+02  0.45594000000E+02  0.51100000000E-03 0.  1.
    9900012    2    1    2    0    0 -0.63023188554E+00  0.40423691499E+02 -0.43234872106E+01  0.50528873493E+02  0.30000041469E+02 0.  0.
        -12    1    1    2    0    0  0.63023188554E+00 -0.40423691499E+02  0.43234872106E+01  0.40659126507E+02  0.00000000000E+00 0.  1.
         11    1    3    3    0    0 -0.68535030562E+01  0.20615817294E+02 -0.77325162424E+01  0.23060230583E+02  0.51100000000E-03 0. -1.
        -11    1    3    3    0    0 -0.12215073933E+01  0.12279418955E+02 -0.56145210507E+01  0.13557251088E+02  0.51100000000E-03 0.  1.
        -12    1    3    3    0    0  0.74447785640E+01  0.75284552507E+01  0.90235500825E+01  0.13911391822E+02  0.00000000000E+00 0.  1.
</event>
<event>
 7    1  0.5935282E-013  0.5052887E+02  0.7816164E-02  0.1300439E+00
        -11   -1    0    0    0    0  0.00000000000E+00  0.00000000000E+00  0.45593999997E+02  0.45594000000E+02  0.51100000000E-03 0. -1.
         11   -1    0    0    0    0 -0.00000000000E+00 -0.00000000000E+00 -0.45593999997E+02  0.45594000000E+02  0.51100000000E-03 0.  1.
    9900012    2    1    2    0    0 -0.32556855987E+02 -0.20858433955E+02  0.12575430581E+02  0.50528873188E+02  0.30000040544E+02 0.  0.
        -12    1    1    2    0    0  0.32556855987E+02  0.20858433955E+02 -0.12575430581E+02  0.40659126812E+02  0.00000000000E+00 0.  1.
         11    1    3    3    0    0 -0.31145270099E+01  0.55131563320E+01  0.49935018837E+01  0.80641324741E+01  0.51100000000E-03 0. -1.
        -11    1    3    3    0    0 -0.13608137526E+02 -0.66424595843E+01 -0.22790705487E+01  0.15313322274E+02  0.51100000000E-03 0.  1.
        -12    1    3    3    0    0 -0.15834191451E+02 -0.19729130702E+02  0.98609992457E+01  0.27151418440E+02  0.00000000000E+00 0.  1.
</event>
<event>
 7    1  0.5935282E-013  0.5052886E+02  0.7816164E-02  0.1300439E+00
        -11   -1    0    0    0    0  0.00000000000E+00  0.00000000000E+00  0.45593999997E+02  0.45594000000E+02  0.51100000000E-03 0. -1.
         11   -1    0    0    0    0 -0.00000000000E+00 -0.00000000000E+00 -0.45593999997E+02  0.45594000000E+02  0.51100000000E-03 0.  1.
    9900012    2    1    2    0    0 -0.51863834125E+01 -0.35667502412E+02  0.18817452958E+02  0.50528857891E+02  0.29999994047E+02 0.  0.
        -12    1    1    2    0    0  0.51863834125E+01  0.35667502412E+02 -0.18817452958E+02  0.40659142109E+02  0.00000000000E+00 0.  1.
         11    1    3    3    0    0  0.35681512857E+01 -0.19034677979E+02  0.71937482006E+01  0.20659154939E+02  0.51100000000E-03 0. -1.
        -11    1    3    3    0    0 -0.34810423179E+01 -0.11560511093E+02 -0.39169050922E+01  0.12692723038E+02  0.51100000000E-03 0.  1.
         12    1    3    3    0    0 -0.52734923803E+01 -0.50723133396E+01  0.15540609849E+02  0.17176979915E+02  0.00000000000E+00 0. -1.
</event>
<event>
 7    1  0.5935282E-013  0.5052887E+02  0.7816164E-02  0.1300439E+00
        -11   -1    0    0    0    0  0.00000000000E+00  0.00000000000E+00  0.45593999997E+02  0.45594000000E+02  0.51100000000E-03 0. -1.
         11   -1    0    0    0    0 -0.00000000000E+00 -0.00000000000E+00 -0.45593999997E+02  0.45594000000E+02  0.51100000000E-03 0.  1.
    9900012    2    1    2    0    0 -0.35047093399E+02 -0.45923984845E+01  0.20094180420E+02  0.50528868599E+02  0.30000026592E+02 0.  0.
        -12    1    1    2    0    0  0.35047093399E+02  0.45923984845E+01 -0.20094180420E+02  0.40659131401E+02  0.00000000000E+00 0.  1.
         11    1    3    3    0    0 -0.13914322721E+02 -0.12667064043E+01  0.17675496063E+02  0.22530780795E+02  0.51100000000E-03 0. -1.
        -11    1    3    3    0    0 -0.36514639928E+01 -0.80924444266E+00  0.85261595803E+01  0.93103954431E+01  0.51100000000E-03 0.  1.
        -12    1    3    3    0    0 -0.17481306686E+02 -0.25164476375E+01 -0.61074752236E+01  0.18687692361E+02  0.00000000000E+00 0.  1.
</event>
<event>
 7    1  0.5935282E-013  0.5052886E+02  0.7816164E-02  0.1300439E+00
        -11   -1    0    0    0    0  0.00000000000E+00  0.00000000000E+00  0.45593999997E+02  0.45594000000E+02  0.51100000000E-03 0.  1.
         11   -1    0    0    0    0 -0.00000000000E+00 -0.00000000000E+00 -0.45593999997E+02  0.45594000000E+02  0.51100000000E-03 0. -1.
    9900012    2    1    2    0    0  0.40518381292E+02  0.19310036482E+01 -0.27743982265E+01  0.50528864703E+02  0.30000014751E+02 0.  0.
        -12    1    1    2    0    0 -0.40518381292E+02 -0.19310036482E+01  0.27743982265E+01  0.40659135297E+02  0.00000000000E+00 0.  1.
         11    1    3    3    0    0  0.41191623261E+01  0.33098350619E+01  0.21029924804E+01  0.56872738671E+01  0.51100000000E-03 0. -1.
        -11    1    3    3    0    0  0.11150447442E+02  0.53731144459E+00  0.10409411998E+02  0.15263585429E+02  0.51100000000E-03 0.  1.
         12    1    3    3    0    0  0.25248771523E+02 -0.19161428583E+01 -0.15286802705E+02  0.29578005406E+02  0.00000000000E+00 0. -1.
</event>
<event>
 7    1  0.5935282E-013  0.5052892E+02  0.7816164E-02  0.1300439E+00
        -11   -1    0    0    0    0  0.00000000000E+00  0.00000000000E+00  0.45593999997E+02  0.45594000000E+02  0.51100000000E-03 0. -1.
         11   -1    0    0    0    0 -0.00000000000E+00 -0.00000000000E+00 -0.45593999997E+02  0.45594000000E+02  0.51100000000E-03 0.  1.
    9900012    2    1    2    0    0  0.65032232058E+00 -0.50430152460E+01  0.40339882432E+02  0.50528916924E+02  0.30000173483E+02 0.  0.
        -12    1    1    2    0    0 -0.65032232058E+00  0.50430152460E+01 -0.40339882432E+02  0.40659083076E+02  0.00000000000E+00 0.  1.
         11    1    3    3    0    0 -0.54733163755E+00 -0.49375533228E+00  0.48009517494E+01  0.48572115674E+01  0.51100000000E-03 0. -1.
        -11    1    3    3    0    0 -0.20967157732E+01  0.20447244037E+01 -0.42745674560E+01  0.51816061330E+01  0.51100000000E-03 0.  1.
        -12    1    3    3    0    0  0.32943697314E+01 -0.65939843174E+01  0.39813498139E+02  0.40490099224E+02  0.00000000000E+00 0.  1.
</event>
<event>
 7    1  0.5935282E-013  0.5052886E+02  0.7816164E-02  0.1300439E+00
        -11   -1    0    0    0    0  0.00000000000E+00  0.00000000000E+00  0.45593999997E+02  0.45594000000E+02  0.51100000000E-03 0. -1.
         11   -1    0    0    0    0 -0.00000000000E+00 -0.00000000000E+00 -0.45593999997E+02  0.45594000000E+02  0.51100000000E-03 0.  1.
    9900012    2    1    2    0    0 -0.11248464651E+02  0.20045221697E+02  0.33538434986E+02  0.50528862144E+02  0.30000006974E+02 0.  0.
        -12    1    1    2    0    0  0.11248464651E+02 -0.20045221697E+02 -0.33538434986E+02  0.40659137856E+02  0.00000000000E+00 0.  1.
         11    1    3    3    0    0 -0.66428822965E+01  0.11648944298E+02  0.43760543264E+01  0.14105872543E+02  0.51100000000E-03 0.  1.
        -11    1    3    3    0    0 -0.98549388247E+01  0.11508101196E+02  0.16712750912E+02  0.22558197084E+02  0.51100000000E-03 0. -1.
        -12    1    3    3    0    0  0.52493564704E+01 -0.31118237978E+01  0.12449629748E+02  0.13864792518E+02  0.00000000000E+00 0.  1.
</event>
<event>
 7    1  0.5935282E-013  0.5052886E+02  0.7816164E-02  0.1300439E+00
        -11   -1    0    0    0    0  0.00000000000E+00  0.00000000000E+00  0.45593999997E+02  0.45594000000E+02  0.51100000000E-03 0. -1.
         11   -1    0    0    0    0 -0.00000000000E+00 -0.00000000000E+00 -0.45593999997E+02  0.45594000000E+02  0.51100000000E-03 0.  1.
    9900012    2    1    2    0    0  0.34204627483E+01  0.27134719912E+02  0.30086092114E+02  0.50528861682E+02  0.30000005567E+02 0.  0.
        -12    1    1    2    0    0 -0.34204627483E+01 -0.27134719912E+02 -0.30086092114E+02  0.40659138318E+02  0.00000000000E+00 0.  1.
         11    1    3    3    0    0 -0.57120434269E+01  0.46257078590E+01  0.14699031691E+02  0.16434297862E+02  0.51100000000E-03 0. -1.
        -11    1    3    3    0    0 -0.18624117254E+00 -0.31316870518E+01  0.17980061889E+01  0.36159336390E+01  0.51100000000E-03 0.  1.
         12    1    3    3    0    0  0.93187473477E+01  0.25640699105E+02  0.13589054235E+02  0.30478630181E+02  0.00000000000E+00 0. -1.
</event>
<event>
 7    1  0.5935282E-013  0.5052887E+02  0.7816164E-02  0.1300439E+00
        -11   -1    0    0    0    0  0.00000000000E+00  0.00000000000E+00  0.45593999997E+02  0.45594000000E+02  0.51100000000E-03 0. -1.
         11   -1    0    0    0    0 -0.00000000000E+00 -0.00000000000E+00 -0.45593999997E+02  0.45594000000E+02  0.51100000000E-03 0.  1.
    9900012    2    1    2    0    0 -0.26746790123E+02 -0.14651261627E+02  0.26890791075E+02  0.50528869490E+02  0.30000029303E+02 0.  0.
        -12    1    1    2    0    0  0.26746790123E+02  0.14651261627E+02 -0.26890791075E+02  0.40659130510E+02  0.00000000000E+00 0.  1.
         11    1    3    3    0    0 -0.11599755818E+01 -0.12649126776E+02  0.12212672690E+02  0.17620877562E+02  0.51100000000E-03 0. -1.
        -11    1    3    3    0    0 -0.41455623854E+01 -0.10150122396E+01  0.10095029964E+02  0.10960181001E+02  0.51100000000E-03 0.  1.
        -12    1    3    3    0    0 -0.21441252155E+02 -0.98712261200E+00  0.45830884205E+01  0.21947810928E+02  0.00000000000E+00 0.  1.
</event>
<event>
 7    1  0.5935282E-013  0.5052883E+02  0.7816164E-02  0.1300439E+00
        -11   -1    0    0    0    0  0.00000000000E+00  0.00000000000E+00  0.45593999997E+02  0.45594000000E+02  0.51100000000E-03 0. -1.
         11   -1    0    0    0    0 -0.00000000000E+00 -0.00000000000E+00 -0.45593999997E+02  0.45594000000E+02  0.51100000000E-03 0.  1.
    9900012    2    1    2    0    0  0.25440000279E+02  0.14362015082E+02  0.28279084450E+02  0.50528834874E+02  0.29999924083E+02 0.  0.
        -12    1    1    2    0    0 -0.25440000279E+02 -0.14362015082E+02 -0.28279084450E+02  0.40659165126E+02  0.00000000000E+00 0.  1.
         11    1    3    3    0    0  0.14048819888E+02 -0.13204322280E+01  0.14601934538E+02  0.20305895056E+02  0.51100000000E-03 0. -1.
        -11    1    3    3    0    0  0.53912221677E+01  0.16794153363E+00 -0.34058333694E+01  0.63791207875E+01  0.51100000000E-03 0.  1.
        -12    1    3    3    0    0  0.59999582228E+01  0.15514505776E+02  0.17082983282E+02  0.23843819030E+02  0.00000000000E+00 0.  1.
</event>
<event>
 7    1  0.5935282E-013  0.5052886E+02  0.7816164E-02  0.1300439E+00
        -11   -1    0    0    0    0  0.00000000000E+00  0.00000000000E+00  0.45593999997E+02  0.45594000000E+02  0.51100000000E-03 0.  1.
         11   -1    0    0    0    0 -0.00000000000E+00 -0.00000000000E+00 -0.45593999997E+02  0.45594000000E+02  0.51100000000E-03 0. -1.
    9900012    2    1    2    0    0 -0.33405000120E+02  0.20771818845E+02  0.10286068701E+02  0.50528859571E+02  0.29999999151E+02 0.  0.
        -12    1    1    2    0    0  0.33405000120E+02 -0.20771818845E+02 -0.10286068701E+02  0.40659140429E+02  0.00000000000E+00 0.  1.
         11    1    3    3    0    0 -0.13418210655E+02  0.65205052383E+01 -0.12716700016E+01  0.14972725557E+02  0.51100000000E-03 0. -1.
        -11    1    3    3    0    0 -0.18507160586E+02  0.13196390287E+02  0.17916781593E+02  0.28942542605E+02  0.51100000000E-03 0.  1.
         12    1    3    3    0    0 -0.14796288795E+01  0.10549233197E+01 -0.63590428910E+01  0.66135914086E+01  0.00000000000E+00 0. -1.
</event>
<event>
 7    1  0.5935282E-013  0.5052886E+02  0.7816164E-02  0.1300439E+00
        -11   -1    0    0    0    0  0.00000000000E+00  0.00000000000E+00  0.45593999997E+02  0.45594000000E+02  0.51100000000E-03 0.  1.
         11   -1    0    0    0    0 -0.00000000000E+00 -0.00000000000E+00 -0.45593999997E+02  0.45594000000E+02  0.51100000000E-03 0. -1.
    9900012    2    1    2    0    0  0.24059242987E+02  0.21159274398E+02 -0.25032049997E+02  0.50528860889E+02  0.30000003160E+02 0.  0.
        -12    1    1    2    0    0 -0.24059242987E+02 -0.21159274398E+02  0.25032049997E+02  0.40659139111E+02  0.00000000000E+00 0.  1.
         11    1    3    3    0    0  0.24703233126E+01  0.14856209045E+01  0.49922756085E+01  0.57647534859E+01  0.51100000000E-03 0. -1.
        -11    1    3    3    0    0 -0.53071293116E+00  0.56531599470E+01 -0.11703095602E+01  0.57973699493E+01  0.51100000000E-03 0.  1.
         12    1    3    3    0    0  0.22119632605E+02  0.14020493547E+02 -0.28854016045E+02  0.38966737454E+02  0.00000000000E+00 0. -1.
</event>
<event>
 7    1  0.5935282E-013  0.5052886E+02  0.7816164E-02  0.1300439E+00
        -11   -1    0    0    0    0  0.00000000000E+00  0.00000000000E+00  0.45593999997E+02  0.45594000000E+02  0.51100000000E-03 0. -1.
         11   -1    0    0    0    0 -0.00000000000E+00 -0.00000000000E+00 -0.45593999997E+02  0.45594000000E+02  0.51100000000E-03 0.  1.
    9900012    2    1    2    0    0  0.97692120288E+01  0.10762189264E+02  0.37972398510E+02  0.50528864864E+02  0.30000015241E+02 0.  0.
        -12    1    1    2    0    0 -0.97692120288E+01 -0.10762189264E+02 -0.37972398510E+02  0.40659135136E+02  0.00000000000E+00 0.  1.
         11    1    3    3    0    0 -0.66593934162E+01 -0.30699682169E+01  0.18277147665E+01  0.75572989258E+01  0.51100000000E-03 0. -1.
        -11    1    3    3    0    0  0.15548517509E+01  0.20021027308E+01  0.50990845553E+00  0.25857274037E+01  0.51100000000E-03 0.  1.
         12    1    3    3    0    0  0.14873753694E+02  0.11830054750E+02  0.35634775288E+02  0.40385838535E+02  0.00000000000E+00 0. -1.
</event>
<event>
 7    1  0.5935282E-013  0.5052887E+02  0.7816164E-02  0.1300439E+00
        -11   -1    0    0    0    0  0.00000000000E+00  0.00000000000E+00  0.45593999997E+02  0.45594000000E+02  0.51100000000E-03 0. -1.
         11   -1    0    0    0    0 -0.00000000000E+00 -0.00000000000E+00 -0.45593999997E+02  0.45594000000E+02  0.51100000000E-03 0.  1.
    9900012    2    1    2    0    0  0.40529003740E+02  0.27522155044E+01  0.17292511282E+01  0.50528866416E+02  0.30000019959E+02 0.  0.
        -12    1    1    2    0    0 -0.40529003740E+02 -0.27522155044E+01 -0.17292511282E+01  0.40659133584E+02  0.00000000000E+00 0.  1.
         11    1    3    3    0    0  0.68640862185E+01 -0.43524872053E+01 -0.25978363294E+01  0.85327942869E+01  0.51100000000E-03 0. -1.
        -11    1    3    3    0    0  0.15816240426E+02 -0.36975129219E+01 -0.76343631873E+01  0.17947383223E+02  0.51100000000E-03 0.  1.
        -12    1    3    3    0    0  0.17848677096E+02  0.10802215632E+02  0.11961450645E+02  0.24048688907E+02  0.00000000000E+00 0.  1.
</event>
<event>
 7    1  0.5935282E-013  0.5052886E+02  0.7816164E-02  0.1300439E+00
        -11   -1    0    0    0    0  0.00000000000E+00  0.00000000000E+00  0.45593999997E+02  0.45594000000E+02  0.51100000000E-03 0. -1.
         11   -1    0    0    0    0 -0.00000000000E+00 -0.00000000000E+00 -0.45593999997E+02  0.45594000000E+02  0.51100000000E-03 0.  1.
    9900012    2    1    2    0    0  0.40338348182E+02  0.38144794558E+01 -0.33812775159E+01  0.50528860496E+02  0.30000001963E+02 0.  0.
        -12    1    1    2    0    0 -0.40338348182E+02 -0.38144794558E+01  0.33812775159E+01  0.40659139504E+02  0.00000000000E+00 0.  1.
         11    1    3    3    0    0 -0.99060087731E+00  0.75873234394E+00  0.63440925163E+00  0.13998000670E+01  0.51100000000E-03 0. -1.
        -11    1    3    3    0    0  0.12470237498E+02 -0.10237507338E+02  0.34307428689E+01  0.16494950035E+02  0.51100000000E-03 0.  1.
         12    1    3    3    0    0  0.28858711561E+02  0.13293254450E+02 -0.74464296364E+01  0.32634110394E+02  0.00000000000E+00 0. -1.
</event>
<event>
 7    1  0.5935282E-013  0.5052887E+02  0.7816164E-02  0.1300439E+00
        -11   -1    0    0    0    0  0.00000000000E+00  0.00000000000E+00  0.45593999997E+02  0.45594000000E+02  0.51100000000E-03 0.  1.
         11   -1    0    0    0    0 -0.00000000000E+00 -0.00000000000E+00 -0.45593999997E+02  0.45594000000E+02  0.51100000000E-03 0. -1.
    9900012    2    1    2    0    0 -0.29575282581E+02 -0.63874303223E+01 -0.27160054921E+02  0.50528865858E+02  0.30000018262E+02 0.  0.
        -12    1    1    2    0    0  0.29575282581E+02  0.63874303223E+01  0.27160054921E+02  0.40659134142E+02  0.00000000000E+00 0.  1.
         11    1    3    3    0    0 -0.13537426103E+02  0.14959858353E+01 -0.20429297634E+02  0.24553127727E+02  0.51100000000E-03 0. -1.
        -11    1    3    3    0    0 -0.62960568181E+01 -0.55760873733E+01 -0.12006722727E+02  0.14659279408E+02  0.51100000000E-03 0.  1.
         12    1    3    3    0    0 -0.97417996598E+01 -0.23073287843E+01  0.52759654392E+01  0.11316458724E+02  0.00000000000E+00 0. -1.
</event>
<event>
 7    1  0.5935282E-013  0.5052886E+02  0.7816164E-02  0.1300439E+00
        -11   -1    0    0    0    0  0.00000000000E+00  0.00000000000E+00  0.45593999997E+02  0.45594000000E+02  0.51100000000E-03 0.  1.
         11   -1    0    0    0    0 -0.00000000000E+00 -0.00000000000E+00 -0.45593999997E+02  0.45594000000E+02  0.51100000000E-03 0. -1.
    9900012    2    1    2    0    0  0.21428438545E+02  0.39747884459E+01 -0.34324753959E+02  0.50528860117E+02  0.30000000812E+02 0.  0.
        -12    1    1    2    0    0 -0.21428438545E+02 -0.39747884459E+01  0.34324753959E+02  0.40659139883E+02  0.00000000000E+00 0.  1.
         11    1    3    3    0    0 -0.94583110096E+00  0.70090550077E+01 -0.18139846752E+02  0.19469861042E+02  0.51100000000E-03 0. -1.
        -11    1    3    3    0    0  0.63751245653E+01  0.92971923223E+00  0.17742729092E+01  0.66824124155E+01  0.51100000000E-03 0.  1.
        -12    1    3    3    0    0  0.15999145081E+02 -0.39639857941E+01 -0.17959180117E+02  0.24376586659E+02  0.00000000000E+00 0.  1.
</event>
<event>
 7    1  0.5935282E-013  0.5052886E+02  0.7816164E-02  0.1300439E+00
        -11   -1    0    0    0    0  0.00000000000E+00  0.00000000000E+00  0.45593999997E+02  0.45594000000E+02  0.51100000000E-03 0.  1.
         11   -1    0    0    0    0 -0.00000000000E+00 -0.00000000000E+00 -0.45593999997E+02  0.45594000000E+02  0.51100000000E-03 0. -1.
    9900012    2    1    2    0    0 -0.26516250536E+02 -0.26893407587E+02 -0.15059839397E+02  0.50528859862E+02  0.30000000036E+02 0.  0.
        -12    1    1    2    0    0  0.26516250536E+02  0.26893407587E+02  0.15059839397E+02  0.40659140138E+02  0.00000000000E+00 0.  1.
         11    1    3    3    0    0 -0.12501082381E+02 -0.16641094285E+02  0.24427579869E+01  0.20956386773E+02  0.51100000000E-03 0. -1.
        -11    1    3    3    0    0 -0.28430992266E+00 -0.10405567599E+01  0.30263421375E+01  0.32128394758E+01  0.51100000000E-03 0.  1.
         12    1    3    3    0    0 -0.13730858232E+02 -0.92117565420E+01 -0.20528939521E+02  0.26359633613E+02  0.00000000000E+00 0. -1.
</event>
<event>
 7    1  0.5935282E-013  0.5052884E+02  0.7816164E-02  0.1300439E+00
        -11   -1    0    0    0    0  0.00000000000E+00  0.00000000000E+00  0.45593999997E+02  0.45594000000E+02  0.51100000000E-03 0.  1.
         11   -1    0    0    0    0 -0.00000000000E+00 -0.00000000000E+00 -0.45593999997E+02  0.45594000000E+02  0.51100000000E-03 0. -1.
    9900012    2    1    2    0    0 -0.36887404640E+02 -0.13927839789E+02 -0.99248248948E+01  0.50528837546E+02  0.29999932205E+02 0.  0.
        -12    1    1    2    0    0  0.36887404640E+02  0.13927839789E+02  0.99248248948E+01  0.40659162454E+02  0.00000000000E+00 0.  1.
         11    1    3    3    0    0 -0.24313046228E+02 -0.12070035882E+02 -0.11028639011E+02  0.29299161452E+02  0.51100000000E-03 0. -1.
        -11    1    3    3    0    0 -0.61105026513E+01 -0.76336595582E+01  0.58020338745E+01  0.11369898779E+02  0.51100000000E-03 0.  1.
        -12    1    3    3    0    0 -0.64638557603E+01  0.57758556516E+01 -0.46982197582E+01  0.98597773147E+01  0.00000000000E+00 0.  1.
</event>
<event>
 7    1  0.5935282E-013  0.5052886E+02  0.7816164E-02  0.1300439E+00
        -11   -1    0    0    0    0  0.00000000000E+00  0.00000000000E+00  0.45593999997E+02  0.45594000000E+02  0.51100000000E-03 0.  1.
         11   -1    0    0    0    0 -0.00000000000E+00 -0.00000000000E+00 -0.45593999997E+02  0.45594000000E+02  0.51100000000E-03 0. -1.
    9900012    2    1    2    0    0 -0.27626740349E+01 -0.34043371133E+02  0.22058610663E+02  0.50528858466E+02  0.29999995793E+02 0.  0.
        -12    1    1    2    0    0  0.27626740349E+01  0.34043371133E+02 -0.22058610663E+02  0.40659141534E+02  0.00000000000E+00 0.  1.
         11    1    3    3    0    0 -0.20348053859E+01 -0.18605338434E+02  0.50105333014E+01  0.19375357943E+02  0.51100000000E-03 0. -1.
        -11    1    3    3    0    0  0.52164370359E+01 -0.14420827005E+02  0.26754886764E+01  0.15566942757E+02  0.51100000000E-03 0.  1.
         12    1    3    3    0    0 -0.59443056848E+01 -0.10172056935E+01  0.14372588685E+02  0.15586557766E+02  0.00000000000E+00 0. -1.
</event>
<event>
 7    1  0.5935282E-013  0.5052886E+02  0.7816164E-02  0.1300439E+00
        -11   -1    0    0    0    0  0.00000000000E+00  0.00000000000E+00  0.45593999997E+02  0.45594000000E+02  0.51100000000E-03 0.  1.
         11   -1    0    0    0    0 -0.00000000000E+00 -0.00000000000E+00 -0.45593999997E+02  0.45594000000E+02  0.51100000000E-03 0. -1.
    9900012    2    1    2    0    0 -0.36094169562E+02  0.18669601862E+02  0.13500748007E+01  0.50528858199E+02  0.29999994981E+02 0.  0.
        -12    1    1    2    0    0  0.36094169562E+02 -0.18669601862E+02 -0.13500748007E+01  0.40659141801E+02  0.00000000000E+00 0.  1.
         11    1    3    3    0    0 -0.16191715540E+02 -0.14491925091E+01 -0.47352594771E+01  0.16932055210E+02  0.51100000000E-03 0. -1.
        -11    1    3    3    0    0 -0.74110048735E+01  0.59520382741E+01  0.10538147231E+02  0.14191627820E+02  0.51100000000E-03 0.  1.
         12    1    3    3    0    0 -0.12491449148E+02  0.14166756097E+02 -0.44528129532E+01  0.19405175169E+02  0.00000000000E+00 0. -1.
</event>
<event>
 7    1  0.5935282E-013  0.5052887E+02  0.7816164E-02  0.1300439E+00
        -11   -1    0    0    0    0  0.00000000000E+00  0.00000000000E+00  0.45593999997E+02  0.45594000000E+02  0.51100000000E-03 0.  1.
         11   -1    0    0    0    0 -0.00000000000E+00 -0.00000000000E+00 -0.45593999997E+02  0.45594000000E+02  0.51100000000E-03 0. -1.
    9900012    2    1    2    0    0  0.21022664563E+02  0.26959576308E+02 -0.22008951297E+02  0.50528866743E+02  0.30000020952E+02 0.  0.
        -12    1    1    2    0    0 -0.21022664563E+02 -0.26959576308E+02  0.22008951297E+02  0.40659133257E+02  0.00000000000E+00 0.  1.
         11    1    3    3    0    0  0.19671383495E+02  0.22130565392E+02 -0.18566533518E+02  0.34949126174E+02  0.51100000000E-03 0. -1.
        -11    1    3    3    0    0  0.59495702217E+01 -0.18351188956E+01 -0.41025605715E+01  0.74562759262E+01  0.51100000000E-03 0.  1.
         12    1    3    3    0    0 -0.45982891543E+01  0.66641298117E+01  0.66014279271E+00  0.81234646426E+01  0.00000000000E+00 0. -1.
</event>
<event>
 7    1  0.5935282E-013  0.5052887E+02  0.7816164E-02  0.1300439E+00
        -11   -1    0    0    0    0  0.00000000000E+00  0.00000000000E+00  0.45593999997E+02  0.45594000000E+02  0.51100000000E-03 0.  1.
         11   -1    0    0    0    0 -0.00000000000E+00 -0.00000000000E+00 -0.45593999997E+02  0.45594000000E+02  0.51100000000E-03 0. -1.
    9900012    2    1    2    0    0  0.18858173303E+02 -0.33897835138E+02 -0.12184858528E+02  0.50528871816E+02  0.30000036371E+02 0.  0.
        -12    1    1    2    0    0 -0.18858173303E+02  0.33897835138E+02  0.12184858528E+02  0.40659128184E+02  0.00000000000E+00 0.  1.
         11    1    3    3    0    0  0.19336110463E+01 -0.11364763552E+02  0.11154755485E+01  0.11581925066E+02  0.51100000000E-03 0. -1.
        -11    1    3    3    0    0 -0.33208220110E+01 -0.14339038440E+02 -0.43980035702E+01  0.15361585786E+02  0.51100000000E-03 0.  1.
        -12    1    3    3    0    0  0.20245384268E+02 -0.81940331460E+01 -0.89023305059E+01  0.23585360964E+02  0.00000000000E+00 0.  1.
</event>
<event>
 7    1  0.5935282E-013  0.5052882E+02  0.7816164E-02  0.1300439E+00
        -11   -1    0    0    0    0  0.00000000000E+00  0.00000000000E+00  0.45593999997E+02  0.45594000000E+02  0.51100000000E-03 0. -1.
         11   -1    0    0    0    0 -0.00000000000E+00 -0.00000000000E+00 -0.45593999997E+02  0.45594000000E+02  0.51100000000E-03 0.  1.
    9900012    2    1    2    0    0 -0.17490210372E+02 -0.36669754624E+02 -0.16096158602E+01  0.50528816213E+02  0.29999867359E+02 0.  0.
        -12    1    1    2    0    0  0.17490210372E+02  0.36669754624E+02  0.16096158602E+01  0.40659183787E+02  0.00000000000E+00 0.  1.
         11    1    3    3    0    0 -0.21150217980E+01 -0.18491177945E+02 -0.55516048145E+01  0.19422082671E+02  0.51100000000E-03 0. -1.
        -11    1    3    3    0    0 -0.14743793419E+02 -0.73062953551E+01 -0.48009623006E+01  0.17140905329E+02  0.51100000000E-03 0.  1.
        -12    1    3    3    0    0 -0.63139515418E+00 -0.10872281324E+02  0.87429512549E+01  0.13965828213E+02  0.00000000000E+00 0.  1.
</event>
<event>
 7    1  0.5935282E-013  0.5052898E+02  0.7816164E-02  0.1300438E+00
        -11   -1    0    0    0    0  0.00000000000E+00  0.00000000000E+00  0.45593999997E+02  0.45594000000E+02  0.51100000000E-03 0.  1.
         11   -1    0    0    0    0 -0.00000000000E+00 -0.00000000000E+00 -0.45593999997E+02  0.45594000000E+02  0.51100000000E-03 0. -1.
    9900012    2    1    2    0    0 -0.18578134227E+02 -0.31998092767E+02 -0.16856175626E+02  0.50528982934E+02  0.30000374124E+02 0.  0.
        -12    1    1    2    0    0  0.18578134227E+02  0.31998092767E+02  0.16856175626E+02  0.40659017066E+02  0.00000000000E+00 0.  1.
         11    1    3    3    0    0  0.73126738184E+00  0.16390017113E+01 -0.57270780476E+00  0.18838983742E+01  0.51100000000E-03 0. -1.
        -11    1    3    3    0    0  0.44882968282E+01 -0.17827900658E+01  0.15427688872E+01  0.50698407211E+01  0.51100000000E-03 0.  1.
         12    1    3    3    0    0 -0.23797698437E+02 -0.31854304412E+02 -0.17826236708E+02  0.43575243839E+02  0.00000000000E+00 0. -1.
</event>
<event>
 7    1  0.5935282E-013  0.5052883E+02  0.7816164E-02  0.1300439E+00
        -11   -1    0    0    0    0  0.00000000000E+00  0.00000000000E+00  0.45593999997E+02  0.45594000000E+02  0.51100000000E-03 0. -1.
         11   -1    0    0    0    0 -0.00000000000E+00 -0.00000000000E+00 -0.45593999997E+02  0.45594000000E+02  0.51100000000E-03 0.  1.
    9900012    2    1    2    0    0 -0.29740526121E+02 -0.17755472249E+02  0.21293481926E+02  0.50528830538E+02  0.29999910904E+02 0.  0.
        -12    1    1    2    0    0  0.29740526121E+02  0.17755472249E+02 -0.21293481926E+02  0.40659169462E+02  0.00000000000E+00 0.  1.
         11    1    3    3    0    0 -0.46801902979E+01 -0.14314939413E+02  0.65345022954E+01  0.16417106692E+02  0.51100000000E-03 0. -1.
        -11    1    3    3    0    0 -0.21752615591E+02 -0.94105375816E+01  0.13130237939E+02  0.27094974649E+02  0.51100000000E-03 0.  1.
        -12    1    3    3    0    0 -0.33077202319E+01  0.59700047455E+01  0.16287416924E+01  0.70167491971E+01  0.00000000000E+00 0.  1.
</event>
<event>
 7    1  0.5935282E-013  0.5052886E+02  0.7816164E-02  0.1300439E+00
        -11   -1    0    0    0    0  0.00000000000E+00  0.00000000000E+00  0.45593999997E+02  0.45594000000E+02  0.51100000000E-03 0.  1.
         11   -1    0    0    0    0 -0.00000000000E+00 -0.00000000000E+00 -0.45593999997E+02  0.45594000000E+02  0.51100000000E-03 0. -1.
    9900012    2    1    2    0    0 -0.37271784269E+01 -0.11508830159E+02 -0.38817786672E+02  0.50528860895E+02  0.30000003177E+02 0.  0.
        -12    1    1    2    0    0  0.37271784269E+01  0.11508830159E+02  0.38817786672E+02  0.40659139105E+02  0.00000000000E+00 0.  1.
         11    1    3    3    0    0  0.89613319134E+01  0.34014350618E+00 -0.11886499755E+02  0.14889930958E+02  0.51100000000E-03 0. -1.
        -11    1    3    3    0    0 -0.35084074066E+01  0.13743265407E+01  0.53222655119E+00  0.38053858325E+01  0.51100000000E-03 0.  1.
         12    1    3    3    0    0 -0.91801029337E+01 -0.13223300206E+02 -0.27463513468E+02  0.31833544104E+02  0.00000000000E+00 0. -1.
</event>
<event>
 7    1  0.5935282E-013  0.5052885E+02  0.7816164E-02  0.1300439E+00
        -11   -1    0    0    0    0  0.00000000000E+00  0.00000000000E+00  0.45593999997E+02  0.45594000000E+02  0.51100000000E-03 0.  1.
         11   -1    0    0    0    0 -0.00000000000E+00 -0.00000000000E+00 -0.45593999997E+02  0.45594000000E+02  0.51100000000E-03 0. -1.
    9900012    2    1    2    0    0  0.60289479846E+01  0.40155360219E+02 -0.20893859208E+01  0.50528847259E+02  0.29999961728E+02 0.  0.
        -12    1    1    2    0    0 -0.60289479846E+01 -0.40155360219E+02  0.20893859208E+01  0.40659152741E+02  0.00000000000E+00 0.  1.
         11    1    3    3    0    0 -0.57912482482E+01  0.97507124292E+01 -0.19027904593E+01  0.11499372198E+02  0.51100000000E-03 0. -1.
        -11    1    3    3    0    0 -0.35685498345E+01  0.46989891222E+01 -0.61052896642E+01  0.84905599837E+01  0.51100000000E-03 0.  1.
         12    1    3    3    0    0  0.15388746067E+02  0.25705658667E+02  0.59186942027E+01  0.30538915078E+02  0.00000000000E+00 0. -1.
</event>
<event>
 7    1  0.5935282E-013  0.5052882E+02  0.7816164E-02  0.1300439E+00
        -11   -1    0    0    0    0  0.00000000000E+00  0.00000000000E+00  0.45593999997E+02  0.45594000000E+02  0.51100000000E-03 0.  1.
         11   -1    0    0    0    0 -0.00000000000E+00 -0.00000000000E+00 -0.45593999997E+02  0.45594000000E+02  0.51100000000E-03 0. -1.
    9900012    2    1    2    0    0 -0.26159714283E+02 -0.12783840259E+02 -0.28379781208E+02  0.50528816480E+02  0.29999868171E+02 0.  0.
        -12    1    1    2    0    0  0.26159714283E+02  0.12783840259E+02  0.28379781208E+02  0.40659183520E+02  0.00000000000E+00 0.  1.
         11    1    3    3    0    0 -0.87870004080E+01 -0.13940972812E+02 -0.19276391657E+02  0.25360232150E+02  0.51100000000E-03 0. -1.
        -11    1    3    3    0    0 -0.39168025022E+01 -0.61203582331E+01 -0.62975481199E+01  0.96155727508E+01  0.51100000000E-03 0.  1.
         12    1    3    3    0    0 -0.13455911373E+02  0.72774907863E+01 -0.28058414303E+01  0.15553011578E+02  0.00000000000E+00 0. -1.
</event>
<event>
 7    1  0.5935282E-013  0.5052886E+02  0.7816164E-02  0.1300439E+00
        -11   -1    0    0    0    0  0.00000000000E+00  0.00000000000E+00  0.45593999997E+02  0.45594000000E+02  0.51100000000E-03 0. -1.
         11   -1    0    0    0    0 -0.00000000000E+00 -0.00000000000E+00 -0.45593999997E+02  0.45594000000E+02  0.51100000000E-03 0.  1.
    9900012    2    1    2    0    0 -0.71824403444E+01 -0.14424178564E+02  0.37329901482E+02  0.50528856856E+02  0.29999990900E+02 0.  0.
        -12    1    1    2    0    0  0.71824403444E+01  0.14424178564E+02 -0.37329901482E+02  0.40659143144E+02  0.00000000000E+00 0.  1.
         11    1    3    3    0    0 -0.48926976956E+01 -0.93646260785E+01  0.14069136465E+02  0.17594752441E+02  0.51100000000E-03 0. -1.
        -11    1    3    3    0    0 -0.11993158832E+02 -0.62502813819E+01  0.14076571903E+02  0.19520546943E+02  0.51100000000E-03 0.  1.
        -12    1    3    3    0    0  0.97034161832E+01  0.11907288964E+01  0.91841931138E+01  0.13413557473E+02  0.00000000000E+00 0.  1.
</event>
<event>
 7    1  0.5935282E-013  0.5052886E+02  0.7816164E-02  0.1300439E+00
        -11   -1    0    0    0    0  0.00000000000E+00  0.00000000000E+00  0.45593999997E+02  0.45594000000E+02  0.51100000000E-03 0.  1.
         11   -1    0    0    0    0 -0.00000000000E+00 -0.00000000000E+00 -0.45593999997E+02  0.45594000000E+02  0.51100000000E-03 0. -1.
    9900012    2    1    2    0    0  0.24010528050E+00 -0.34846307560E+02 -0.20948570398E+02  0.50528863231E+02  0.30000010276E+02 0.  0.
        -12    1    1    2    0    0 -0.24010528050E+00  0.34846307560E+02  0.20948570398E+02  0.40659136769E+02  0.00000000000E+00 0.  1.
         11    1    3    3    0    0  0.10096827102E+02 -0.17778233979E+02 -0.82494806710E+01  0.22046892129E+02  0.51100000000E-03 0. -1.
        -11    1    3    3    0    0  0.41098343959E+01 -0.54351378148E+01 -0.60967047313E+01  0.91433730466E+01  0.51100000000E-03 0.  1.
         12    1    3    3    0    0 -0.13966556217E+02 -0.11632935766E+02 -0.66023849956E+01  0.19338598055E+02  0.00000000000E+00 0. -1.
</event>
<event>
 7    1  0.5935282E-013  0.5052886E+02  0.7816164E-02  0.1300439E+00
        -11   -1    0    0    0    0  0.00000000000E+00  0.00000000000E+00  0.45593999997E+02  0.45594000000E+02  0.51100000000E-03 0.  1.
         11   -1    0    0    0    0 -0.00000000000E+00 -0.00000000000E+00 -0.45593999997E+02  0.45594000000E+02  0.51100000000E-03 0. -1.
    9900012    2    1    2    0    0  0.35222745512E+02  0.17524094369E+02 -0.10267900183E+02  0.50528862539E+02  0.30000008174E+02 0.  0.
        -12    1    1    2    0    0 -0.35222745512E+02 -0.17524094369E+02  0.10267900183E+02  0.40659137461E+02  0.00000000000E+00 0.  1.
         11    1    3    3    0    0  0.25767232376E+02  0.10719264830E+02 -0.65533063363E+01  0.28667032058E+02  0.51100000000E-03 0. -1.
        -11    1    3    3    0    0  0.80572380435E+01 -0.44861959749E+01 -0.48649556342E+01  0.10426544624E+02  0.51100000000E-03 0.  1.
         12    1    3    3    0    0  0.13982750930E+01  0.11291025514E+02  0.11503617877E+01  0.11435285857E+02  0.00000000000E+00 0. -1.
</event>
<event>
 7    1  0.5935282E-013  0.5052886E+02  0.7816164E-02  0.1300439E+00
        -11   -1    0    0    0    0  0.00000000000E+00  0.00000000000E+00  0.45593999997E+02  0.45594000000E+02  0.51100000000E-03 0.  1.
         11   -1    0    0    0    0 -0.00000000000E+00 -0.00000000000E+00 -0.45593999997E+02  0.45594000000E+02  0.51100000000E-03 0. -1.
    9900012    2    1    2    0    0 -0.32924355154E+02  0.23447533775E+02  0.44006568801E+01  0.50528858550E+02  0.29999996049E+02 0.  0.
        -12    1    1    2    0    0  0.32924355154E+02 -0.23447533775E+02 -0.44006568801E+01  0.40659141450E+02  0.00000000000E+00 0.  1.
         11    1    3    3    0    0 -0.12168495136E+02  0.20854132002E+02 -0.18828466127E+00  0.24145445674E+02  0.51100000000E-03 0. -1.
        -11    1    3    3    0    0 -0.99436423630E+01  0.85207197832E+01  0.50737232558E+01  0.14043552151E+02  0.51100000000E-03 0.  1.
        -12    1    3    3    0    0 -0.10812217655E+02 -0.59273180096E+01 -0.48478171445E+00  0.12339860725E+02  0.00000000000E+00 0.  1.
</event>
<event>
 7    1  0.5935282E-013  0.5052886E+02  0.7816164E-02  0.1300439E+00
        -11   -1    0    0    0    0  0.00000000000E+00  0.00000000000E+00  0.45593999997E+02  0.45594000000E+02  0.51100000000E-03 0.  1.
         11   -1    0    0    0    0 -0.00000000000E+00 -0.00000000000E+00 -0.45593999997E+02  0.45594000000E+02  0.51100000000E-03 0. -1.
    9900012    2    1    2    0    0 -0.16340755620E+02 -0.99086699021E+01 -0.35888206564E+02  0.50528863218E+02  0.30000010237E+02 0.  0.
        -12    1    1    2    0    0  0.16340755620E+02  0.99086699021E+01  0.35888206564E+02  0.40659136782E+02  0.00000000000E+00 0.  1.
         11    1    3    3    0    0 -0.86939323812E+01  0.20267363242E+01 -0.79380478359E+01  0.11945908257E+02  0.51100000000E-03 0. -1.
        -11    1    3    3    0    0 -0.11734424113E+02  0.19950302514E+01 -0.10398896196E+02  0.15805502121E+02  0.51100000000E-03 0.  1.
        -12    1    3    3    0    0  0.40876008739E+01 -0.13930436478E+02 -0.17551262533E+02  0.22777452839E+02  0.00000000000E+00 0.  1.
</event>
<event>
 7    1  0.5935282E-013  0.5052886E+02  0.7816164E-02  0.1300439E+00
        -11   -1    0    0    0    0  0.00000000000E+00  0.00000000000E+00  0.45593999997E+02  0.45594000000E+02  0.51100000000E-03 0.  1.
         11   -1    0    0    0    0 -0.00000000000E+00 -0.00000000000E+00 -0.45593999997E+02  0.45594000000E+02  0.51100000000E-03 0. -1.
    9900012    2    1    2    0    0  0.14584077016E+02  0.81321254043E+01 -0.37072082054E+02  0.50528855471E+02  0.29999986689E+02 0.  0.
        -12    1    1    2    0    0 -0.14584077016E+02 -0.81321254043E+01  0.37072082054E+02  0.40659144529E+02  0.00000000000E+00 0.  1.
         11    1    3    3    0    0 -0.50210331846E+01 -0.22822248879E+01 -0.70966246420E+01  0.89878476984E+01  0.51100000000E-03 0. -1.
        -11    1    3    3    0    0 -0.26263145129E+01  0.35950287926E+01 -0.13328345161E+01  0.46473872281E+01  0.51100000000E-03 0.  1.
         12    1    3    3    0    0  0.22231424713E+02  0.68193214996E+01 -0.28642622896E+02  0.36893620544E+02  0.00000000000E+00 0. -1.
</event>
<event>
 7    1  0.5935282E-013  0.5052887E+02  0.7816164E-02  0.1300439E+00
        -11   -1    0    0    0    0  0.00000000000E+00  0.00000000000E+00  0.45593999997E+02  0.45594000000E+02  0.51100000000E-03 0.  1.
         11   -1    0    0    0    0 -0.00000000000E+00 -0.00000000000E+00 -0.45593999997E+02  0.45594000000E+02  0.51100000000E-03 0. -1.
    9900012    2    1    2    0    0  0.94025292608E+01 -0.20890149299E+02 -0.33591055908E+02  0.50528869030E+02  0.30000027903E+02 0.  0.
        -12    1    1    2    0    0 -0.94025292608E+01  0.20890149299E+02  0.33591055908E+02  0.40659130970E+02  0.00000000000E+00 0.  1.
         11    1    3    3    0    0  0.14904959743E+01 -0.50005349347E+01  0.40707295245E+00  0.52337975250E+01  0.51100000000E-03 0. -1.
        -11    1    3    3    0    0  0.30172165737E+01  0.30514157367E+01  0.16775883148E+01  0.46074978748E+01  0.51100000000E-03 0.  1.
         12    1    3    3    0    0  0.48948167128E+01 -0.18941030101E+02 -0.35675717175E+02  0.40687573630E+02  0.00000000000E+00 0. -1.
</event>
<event>
 7    1  0.5935282E-013  0.5052886E+02  0.7816164E-02  0.1300439E+00
        -11   -1    0    0    0    0  0.00000000000E+00  0.00000000000E+00  0.45593999997E+02  0.45594000000E+02  0.51100000000E-03 0. -1.
         11   -1    0    0    0    0 -0.00000000000E+00 -0.00000000000E+00 -0.45593999997E+02  0.45594000000E+02  0.51100000000E-03 0.  1.
    9900012    2    1    2    0    0  0.68937801861E+01 -0.37300420896E+02  0.14639677309E+02  0.50528858888E+02  0.29999997075E+02 0.  0.
        -12    1    1    2    0    0 -0.68937801861E+01  0.37300420896E+02 -0.14639677309E+02  0.40659141112E+02  0.00000000000E+00 0.  1.
         11    1    3    3    0    0 -0.86643190980E+00  0.21889379509E-02  0.24775895924E+01  0.26247208414E+01  0.51100000000E-03 0. -1.
        -11    1    3    3    0    0  0.37985188018E+01 -0.26856386434E+02  0.20470329222E+02  0.33981298034E+02  0.51100000000E-03 0.  1.
        -12    1    3    3    0    0  0.39616932941E+01 -0.10446223400E+02 -0.83082415056E+01  0.13922840012E+02  0.00000000000E+00 0.  1.
</event>
<event>
 7    1  0.5935282E-013  0.5052886E+02  0.7816164E-02  0.1300439E+00
        -11   -1    0    0    0    0  0.00000000000E+00  0.00000000000E+00  0.45593999997E+02  0.45594000000E+02  0.51100000000E-03 0.  1.
         11   -1    0    0    0    0 -0.00000000000E+00 -0.00000000000E+00 -0.45593999997E+02  0.45594000000E+02  0.51100000000E-03 0. -1.
    9900012    2    1    2    0    0 -0.21169573357E+01  0.40239822897E+02 -0.54259659546E+01  0.50528856358E+02  0.29999989385E+02 0.  0.
        -12    1    1    2    0    0  0.21169573357E+01 -0.40239822897E+02  0.54259659546E+01  0.40659143642E+02  0.00000000000E+00 0.  1.
         11    1    3    3    0    0 -0.20508492041E+01  0.18444337374E+02 -0.15908276263E+01  0.18626064974E+02  0.51100000000E-03 0. -1.
        -11    1    3    3    0    0  0.90481087332E+01  0.20288669745E+02 -0.99088316016E+00  0.22236911687E+02  0.51100000000E-03 0.  1.
         12    1    3    3    0    0 -0.91142168648E+01  0.15068157780E+01 -0.28442551681E+01  0.96658796965E+01  0.00000000000E+00 0. -1.
</event>
<event>
 7    1  0.5935282E-013  0.5052887E+02  0.7816164E-02  0.1300439E+00
        -11   -1    0    0    0    0  0.00000000000E+00  0.00000000000E+00  0.45593999997E+02  0.45594000000E+02  0.51100000000E-03 0.  1.
         11   -1    0    0    0    0 -0.00000000000E+00 -0.00000000000E+00 -0.45593999997E+02  0.45594000000E+02  0.51100000000E-03 0. -1.
    9900012    2    1    2    0    0  0.19814012553E+02 -0.20568663884E+02 -0.28939586810E+02  0.50528871724E+02  0.30000036093E+02 0.  0.
        -12    1    1    2    0    0 -0.19814012553E+02  0.20568663884E+02  0.28939586810E+02  0.40659128276E+02  0.00000000000E+00 0.  1.
         11    1    3    3    0    0  0.14174275719E+02 -0.22579338189E+02 -0.10650604706E+02  0.28708395742E+02  0.51100000000E-03 0. -1.
        -11    1    3    3    0    0 -0.10814663525E+01 -0.79041433415E+00  0.67978284764E+00  0.15021415620E+01  0.51100000000E-03 0.  1.
         12    1    3    3    0    0  0.67212031862E+01  0.28010886395E+01 -0.18968764951E+02  0.20318334420E+02  0.00000000000E+00 0. -1.
</event>
<event>
 7    1  0.5935282E-013  0.5052886E+02  0.7816164E-02  0.1300439E+00
        -11   -1    0    0    0    0  0.00000000000E+00  0.00000000000E+00  0.45593999997E+02  0.45594000000E+02  0.51100000000E-03 0. -1.
         11   -1    0    0    0    0 -0.00000000000E+00 -0.00000000000E+00 -0.45593999997E+02  0.45594000000E+02  0.51100000000E-03 0.  1.
    9900012    2    1    2    0    0  0.88634845480E+01  0.27720696706E+02  0.28393087956E+02  0.50528858004E+02  0.29999994388E+02 0.  0.
        -12    1    1    2    0    0 -0.88634845480E+01 -0.27720696706E+02 -0.28393087956E+02  0.40659141996E+02  0.00000000000E+00 0.  1.
         11    1    3    3    0    0  0.28332673066E+01  0.11165929209E+02  0.13804805010E+02  0.17979933825E+02  0.51100000000E-03 0. -1.
        -11    1    3    3    0    0  0.11130709255E+01 -0.41796465176E+01  0.97942862425E+01  0.10706839644E+02  0.51100000000E-03 0.  1.
        -12    1    3    3    0    0  0.49171463159E+01  0.20734414015E+02  0.47939967032E+01  0.21842084535E+02  0.00000000000E+00 0.  1.
</event>
<event>
 7    1  0.5935282E-013  0.5052885E+02  0.7816164E-02  0.1300439E+00
        -11   -1    0    0    0    0  0.00000000000E+00  0.00000000000E+00  0.45593999997E+02  0.45594000000E+02  0.51100000000E-03 0. -1.
         11   -1    0    0    0    0 -0.00000000000E+00 -0.00000000000E+00 -0.45593999997E+02  0.45594000000E+02  0.51100000000E-03 0.  1.
    9900012    2    1    2    0    0  0.17631286891E+01  0.23871785266E+02  0.32866334805E+02  0.50528847056E+02  0.29999961112E+02 0.  0.
        -12    1    1    2    0    0 -0.17631286891E+01 -0.23871785266E+02 -0.32866334805E+02  0.40659152944E+02  0.00000000000E+00 0.  1.
         11    1    3    3    0    0  0.48621244504E+01 -0.47310322150E+01  0.46315710168E+01  0.82142784428E+01  0.51100000000E-03 0.  1.
        -11    1    3    3    0    0  0.24185676527E+00  0.12375594509E+02  0.20690026736E+02  0.24109978033E+02  0.51100000000E-03 0. -1.
        -12    1    3    3    0    0 -0.33408525266E+01  0.16227222973E+02  0.75447370523E+01  0.18204590580E+02  0.00000000000E+00 0.  1.
</event>
<event>
 7    1  0.5935282E-013  0.5052885E+02  0.7816164E-02  0.1300439E+00
        -11   -1    0    0    0    0  0.00000000000E+00  0.00000000000E+00  0.45593999997E+02  0.45594000000E+02  0.51100000000E-03 0.  1.
         11   -1    0    0    0    0 -0.00000000000E+00 -0.00000000000E+00 -0.45593999997E+02  0.45594000000E+02  0.51100000000E-03 0. -1.
    9900012    2    1    2    0    0  0.30587322300E+02  0.17082607389E+01 -0.26733198698E+02  0.50528851548E+02  0.29999974766E+02 0.  0.
        -12    1    1    2    0    0 -0.30587322300E+02 -0.17082607389E+01  0.26733198698E+02  0.40659148452E+02  0.00000000000E+00 0.  1.
         11    1    3    3    0    0  0.72682436178E+00 -0.10154079037E+01 -0.53104672971E+01  0.54553084274E+01  0.51100000000E-03 0. -1.
        -11    1    3    3    0    0 -0.20581586634E+01  0.74336879137E+00  0.37722526969E+01  0.43610210862E+01  0.51100000000E-03 0.  1.
        -12    1    3    3    0    0  0.31918656601E+02  0.19802998513E+01 -0.25194984097E+02  0.40712522035E+02  0.00000000000E+00 0.  1.
</event>
<event>
 7    1  0.6406704E-013  0.5052886E+02  0.7816164E-02  0.1300439E+00
        -11   -1    0    0    0    0  0.00000000000E+00  0.00000000000E+00  0.45593999997E+02  0.45594000000E+02  0.51100000000E-03 0.  1.
         11   -1    0    0    0    0 -0.00000000000E+00 -0.00000000000E+00 -0.45593999997E+02  0.45594000000E+02  0.51100000000E-03 0. -1.
    9900012    2    1    2    0    0  0.27256576728E+02 -0.28192563614E+02  0.10743548093E+02  0.50528862728E+02  0.30000008748E+02 0.  0.
        -12    1    1    2    0    0 -0.27256576728E+02  0.28192563614E+02 -0.10743548093E+02  0.40659137272E+02  0.00000000000E+00 0.  1.
         11    1    3    3    0    0  0.20619740124E+02 -0.17613581296E+02  0.85764192080E+01  0.28442343355E+02  0.51100000000E-03 0. -1.
        -11    1    3    3    0    0  0.62736029544E+01 -0.15149614140E+02  0.44134269619E+01  0.16980790336E+02  0.51100000000E-03 0.  1.
        -12    1    3    3    0    0  0.36323365005E+00  0.45706318226E+01 -0.22462980773E+01  0.51057290365E+01  0.00000000000E+00 0.  1.
</event>
<event>
 7    1  0.5935282E-013  0.5052885E+02  0.7816164E-02  0.1300439E+00
        -11   -1    0    0    0    0  0.00000000000E+00  0.00000000000E+00  0.45593999997E+02  0.45594000000E+02  0.51100000000E-03 0. -1.
         11   -1    0    0    0    0 -0.00000000000E+00 -0.00000000000E+00 -0.45593999997E+02  0.45594000000E+02  0.51100000000E-03 0.  1.
    9900012    2    1    2    0    0  0.40177118869E+02 -0.51615466958E+01  0.35105602259E+01  0.50528850009E+02  0.29999970088E+02 0.  0.
        -12    1    1    2    0    0 -0.40177118869E+02  0.51615466958E+01 -0.35105602259E+01  0.40659149991E+02  0.00000000000E+00 0.  1.
         11    1    3    3    0    0  0.14934026757E+02  0.20163582321E+01 -0.72522841605E+01  0.16723829750E+02  0.51100000000E-03 0. -1.
        -11    1    3    3    0    0  0.51896625937E+00 -0.15862617315E+01 -0.40956440488E+01  0.44226522240E+01  0.51100000000E-03 0.  1.
         12    1    3    3    0    0  0.24724125852E+02 -0.55916431964E+01  0.14858488435E+02  0.29382368035E+02  0.00000000000E+00 0. -1.
</event>
<event>
 7    1  0.5935282E-013  0.5052886E+02  0.7816164E-02  0.1300439E+00
        -11   -1    0    0    0    0  0.00000000000E+00  0.00000000000E+00  0.45593999997E+02  0.45594000000E+02  0.51100000000E-03 0.  1.
         11   -1    0    0    0    0 -0.00000000000E+00 -0.00000000000E+00 -0.45593999997E+02  0.45594000000E+02  0.51100000000E-03 0. -1.
    9900012    2    1    2    0    0 -0.36629509499E+02  0.16116292360E+02 -0.71909542399E+01  0.50528859964E+02  0.30000000348E+02 0.  0.
        -12    1    1    2    0    0  0.36629509499E+02 -0.16116292360E+02  0.71909542399E+01  0.40659140036E+02  0.00000000000E+00 0.  1.
         11    1    3    3    0    0 -0.14412111860E+02  0.11407437880E+02 -0.98717929206E+01  0.20863626314E+02  0.51100000000E-03 0. -1.
        -11    1    3    3    0    0 -0.88795018562E+01  0.11009904114E+02  0.44026143703E+01  0.14813728611E+02  0.51100000000E-03 0.  1.
         12    1    3    3    0    0 -0.13337895783E+02 -0.63010496341E+01 -0.17217756897E+01  0.14851505039E+02  0.00000000000E+00 0. -1.
</event>
<event>
 7    1  0.5935282E-013  0.5052886E+02  0.7816164E-02  0.1300439E+00
        -11   -1    0    0    0    0  0.00000000000E+00  0.00000000000E+00  0.45593999997E+02  0.45594000000E+02  0.51100000000E-03 0. -1.
         11   -1    0    0    0    0 -0.00000000000E+00 -0.00000000000E+00 -0.45593999997E+02  0.45594000000E+02  0.51100000000E-03 0.  1.
    9900012    2    1    2    0    0 -0.39855512619E+02 -0.76036951790E+01 -0.26244890673E+01  0.50528855772E+02  0.29999987604E+02 0.  0.
        -12    1    1    2    0    0  0.39855512619E+02  0.76036951790E+01  0.26244890673E+01  0.40659144228E+02  0.00000000000E+00 0.  1.
         11    1    3    3    0    0 -0.19546839501E+02 -0.45489547589E+01 -0.58129522802E+01  0.20894074240E+02  0.51100000000E-03 0. -1.
        -11    1    3    3    0    0 -0.52332125154E+01 -0.31846626044E+01 -0.85567518712E+01  0.10523620669E+02  0.51100000000E-03 0.  1.
         12    1    3    3    0    0 -0.15075460603E+02  0.12992218440E+00  0.11745215084E+02  0.19111160863E+02  0.00000000000E+00 0. -1.
</event>
<event>
 7    1  0.5935282E-013  0.5052887E+02  0.7816164E-02  0.1300439E+00
        -11   -1    0    0    0    0  0.00000000000E+00  0.00000000000E+00  0.45593999997E+02  0.45594000000E+02  0.51100000000E-03 0.  1.
         11   -1    0    0    0    0 -0.00000000000E+00 -0.00000000000E+00 -0.45593999997E+02  0.45594000000E+02  0.51100000000E-03 0. -1.
    9900012    2    1    2    0    0 -0.20706201958E+01 -0.37405254694E+02 -0.15802678490E+02  0.50528865796E+02  0.30000018075E+02 0.  0.
        -12    1    1    2    0    0  0.20706201958E+01  0.37405254694E+02  0.15802678490E+02  0.40659134204E+02  0.00000000000E+00 0.  1.
         11    1    3    3    0    0  0.54533398183E+01 -0.92965463615E+01 -0.10224295310E+02  0.14856005664E+02  0.51100000000E-03 0. -1.
        -11    1    3    3    0    0  0.34880732740E+01 -0.15465741489E+01 -0.57704893637E+01  0.69178822280E+01  0.51100000000E-03 0.  1.
        -12    1    3    3    0    0 -0.11012033288E+02 -0.26562134184E+02  0.19210618349E+00  0.28754977905E+02  0.00000000000E+00 0.  1.
</event>
<event>
 7    1  0.5935282E-013  0.5052886E+02  0.7816164E-02  0.1300439E+00
        -11   -1    0    0    0    0  0.00000000000E+00  0.00000000000E+00  0.45593999997E+02  0.45594000000E+02  0.51100000000E-03 0.  1.
         11   -1    0    0    0    0 -0.00000000000E+00 -0.00000000000E+00 -0.45593999997E+02  0.45594000000E+02  0.51100000000E-03 0. -1.
    9900012    2    1    2    0    0 -0.22313154596E+02 -0.12037091582E+02 -0.31786748054E+02  0.50528858424E+02  0.29999995667E+02 0.  0.
        -12    1    1    2    0    0  0.22313154596E+02  0.12037091582E+02  0.31786748054E+02  0.40659141576E+02  0.00000000000E+00 0.  1.
         11    1    3    3    0    0  0.65249594736E+00 -0.19648896005E+01 -0.23233171086E+00  0.20833915591E+01  0.51100000000E-03 0. -1.
        -11    1    3    3    0    0 -0.99434806441E+01 -0.13142586642E+01  0.30211669176E+01  0.10475091072E+02  0.51100000000E-03 0.  1.
         12    1    3    3    0    0 -0.13022169899E+02 -0.87579433176E+01 -0.34575583261E+02  0.37970375793E+02  0.00000000000E+00 0. -1.
</event>
<event>
 7    1  0.5935282E-013  0.5052886E+02  0.7816164E-02  0.1300439E+00
        -11   -1    0    0    0    0  0.00000000000E+00  0.00000000000E+00  0.45593999997E+02  0.45594000000E+02  0.51100000000E-03 0.  1.
         11   -1    0    0    0    0 -0.00000000000E+00 -0.00000000000E+00 -0.45593999997E+02  0.45594000000E+02  0.51100000000E-03 0. -1.
    9900012    2    1    2    0    0  0.30393920508E+02  0.17579443569E+02 -0.20502158848E+02  0.50528858869E+02  0.29999997019E+02 0.  0.
        -12    1    1    2    0    0 -0.30393920508E+02 -0.17579443569E+02  0.20502158848E+02  0.40659141131E+02  0.00000000000E+00 0.  1.
         11    1    3    3    0    0  0.13101592353E+01  0.47677119184E+01 -0.14178100533E+02  0.15015529600E+02  0.51100000000E-03 0.  1.
        -11    1    3    3    0    0  0.14824805589E+02  0.14255543370E+02 -0.28196384419E+01  0.20759232614E+02  0.51100000000E-03 0. -1.
        -12    1    3    3    0    0  0.14258955684E+02 -0.14438117198E+01 -0.35044198728E+01  0.14754096655E+02  0.00000000000E+00 0.  1.
</event>
<event>
 7    1  0.5935282E-013  0.5052884E+02  0.7816164E-02  0.1300439E+00
        -11   -1    0    0    0    0  0.00000000000E+00  0.00000000000E+00  0.45593999997E+02  0.45594000000E+02  0.51100000000E-03 0.  1.
         11   -1    0    0    0    0 -0.00000000000E+00 -0.00000000000E+00 -0.45593999997E+02  0.45594000000E+02  0.51100000000E-03 0. -1.
    9900012    2    1    2    0    0  0.66604167266E+01 -0.40103669728E+02  0.70852096283E+00  0.50528837704E+02  0.29999932685E+02 0.  0.
        -12    1    1    2    0    0 -0.66604167266E+01  0.40103669728E+02 -0.70852096283E+00  0.40659162296E+02  0.00000000000E+00 0.  1.
         11    1    3    3    0    0 -0.13630208353E+01 -0.14099930824E+02 -0.47931714385E+01  0.14954610250E+02  0.51100000000E-03 0. -1.
        -11    1    3    3    0    0 -0.58208713186E+01 -0.18366703188E+02  0.41225919059E+01  0.19703149321E+02  0.51100000000E-03 0.  1.
         12    1    3    3    0    0  0.13844308880E+02 -0.76370357165E+01  0.13791004954E+01  0.15871078133E+02  0.00000000000E+00 0. -1.
</event>
<event>
 7    1  0.5935282E-013  0.5052887E+02  0.7816164E-02  0.1300439E+00
        -11   -1    0    0    0    0  0.00000000000E+00  0.00000000000E+00  0.45593999997E+02  0.45594000000E+02  0.51100000000E-03 0. -1.
         11   -1    0    0    0    0 -0.00000000000E+00 -0.00000000000E+00 -0.45593999997E+02  0.45594000000E+02  0.51100000000E-03 0.  1.
    9900012    2    1    2    0    0  0.16025302512E+01 -0.39159837733E+02  0.10821468045E+02  0.50528866154E+02  0.30000019161E+02 0.  0.
        -12    1    1    2    0    0 -0.16025302512E+01  0.39159837733E+02 -0.10821468045E+02  0.40659133846E+02  0.00000000000E+00 0.  1.
         11    1    3    3    0    0  0.65026356396E+01 -0.16153728313E+02  0.79921523302E+00  0.17431751315E+02  0.51100000000E-03 0. -1.
        -11    1    3    3    0    0 -0.88449000040E+01 -0.15511573064E+01 -0.25353350013E+00  0.89834639514E+01  0.51100000000E-03 0.  1.
         12    1    3    3    0    0  0.39447946156E+01 -0.21454952114E+02  0.10275786312E+02  0.24113650887E+02  0.00000000000E+00 0. -1.
</event>
<event>
 7    1  0.5935282E-013  0.5052884E+02  0.7816164E-02  0.1300439E+00
        -11   -1    0    0    0    0  0.00000000000E+00  0.00000000000E+00  0.45593999997E+02  0.45594000000E+02  0.51100000000E-03 0.  1.
         11   -1    0    0    0    0 -0.00000000000E+00 -0.00000000000E+00 -0.45593999997E+02  0.45594000000E+02  0.51100000000E-03 0. -1.
    9900012    2    1    2    0    0 -0.30901526194E+02  0.18574617124E+02 -0.18794857058E+02  0.50528838987E+02  0.29999936585E+02 0.  0.
        -12    1    1    2    0    0  0.30901526194E+02 -0.18574617124E+02  0.18794857058E+02  0.40659161013E+02  0.00000000000E+00 0.  1.
         11    1    3    3    0    0 -0.20644696860E+02  0.89508731524E+01 -0.92814879087E+01  0.24340658510E+02  0.51100000000E-03 0. -1.
        -11    1    3    3    0    0 -0.11153270808E+02  0.77003508288E+01 -0.15053332366E+02  0.20255707052E+02  0.51100000000E-03 0.  1.
        -12    1    3    3    0    0  0.89644147346E+00  0.19233931428E+01  0.55399632168E+01  0.59324734252E+01  0.00000000000E+00 0.  1.
</event>
<event>
 7    1  0.5935282E-013  0.5052885E+02  0.7816164E-02  0.1300439E+00
        -11   -1    0    0    0    0  0.00000000000E+00  0.00000000000E+00  0.45593999997E+02  0.45594000000E+02  0.51100000000E-03 0. -1.
         11   -1    0    0    0    0 -0.00000000000E+00 -0.00000000000E+00 -0.45593999997E+02  0.45594000000E+02  0.51100000000E-03 0.  1.
    9900012    2    1    2    0    0  0.36891590112E+02  0.15306133304E+02  0.76091421394E+01  0.50528853652E+02  0.29999981160E+02 0.  0.
        -12    1    1    2    0    0 -0.36891590112E+02 -0.15306133304E+02 -0.76091421394E+01  0.40659146348E+02  0.00000000000E+00 0.  1.
         11    1    3    3    0    0  0.27984920567E+02  0.17970725453E+02  0.20431797577E+01  0.33320824363E+02  0.51100000000E-03 0. -1.
        -11    1    3    3    0    0  0.13477137552E+01  0.51934152162E+01  0.15008387950E+01  0.55713922249E+01  0.51100000000E-03 0.  1.
        -12    1    3    3    0    0  0.75589557890E+01 -0.78580073653E+01  0.40651235868E+01  0.11636637064E+02  0.00000000000E+00 0.  1.
</event>
<event>
 7    1  0.5935282E-013  0.5052885E+02  0.7816164E-02  0.1300439E+00
        -11   -1    0    0    0    0  0.00000000000E+00  0.00000000000E+00  0.45593999997E+02  0.45594000000E+02  0.51100000000E-03 0.  1.
         11   -1    0    0    0    0 -0.00000000000E+00 -0.00000000000E+00 -0.45593999997E+02  0.45594000000E+02  0.51100000000E-03 0. -1.
    9900012    2    1    2    0    0  0.26257709960E+02 -0.28442060982E+02 -0.12439775137E+02  0.50528853788E+02  0.29999981575E+02 0.  0.
        -12    1    1    2    0    0 -0.26257709960E+02  0.28442060982E+02  0.12439775137E+02  0.40659146212E+02  0.00000000000E+00 0.  1.
         11    1    3    3    0    0  0.99246807235E+01 -0.19778576623E+01 -0.12693756808E+02  0.16233997368E+02  0.51100000000E-03 0. -1.
        -11    1    3    3    0    0  0.47585411029E+01 -0.49095853366E+01  0.60749834492E+01  0.91462104598E+01  0.51100000000E-03 0.  1.
        -12    1    3    3    0    0  0.11574488133E+02 -0.21554617983E+02 -0.58210017787E+01  0.25148645960E+02  0.00000000000E+00 0.  1.
</event>
<event>
 7    1  0.5935282E-013  0.5052887E+02  0.7816164E-02  0.1300439E+00
        -11   -1    0    0    0    0  0.00000000000E+00  0.00000000000E+00  0.45593999997E+02  0.45594000000E+02  0.51100000000E-03 0.  1.
         11   -1    0    0    0    0 -0.00000000000E+00 -0.00000000000E+00 -0.45593999997E+02  0.45594000000E+02  0.51100000000E-03 0. -1.
    9900012    2    1    2    0    0 -0.27586393285E+02  0.21873436302E+02 -0.20339818715E+02  0.50528873896E+02  0.30000042695E+02 0.  0.
        -12    1    1    2    0    0  0.27586393285E+02 -0.21873436302E+02  0.20339818715E+02  0.40659126104E+02  0.00000000000E+00 0.  1.
         11    1    3    3    0    0 -0.65056824284E+01 -0.28550717577E+01 -0.11323541769E+02  0.13367794771E+02  0.51100000000E-03 0.  1.
        -11    1    3    3    0    0 -0.74820933144E+01  0.21009252834E+01  0.27696095772E+01  0.82502330199E+01  0.51100000000E-03 0. -1.
         12    1    3    3    0    0 -0.13598617543E+02  0.22627582776E+02 -0.11785886524E+02  0.28910846105E+02  0.00000000000E+00 0. -1.
</event>
<event>
 7    1  0.5935282E-013  0.5052885E+02  0.7816164E-02  0.1300439E+00
        -11   -1    0    0    0    0  0.00000000000E+00  0.00000000000E+00  0.45593999997E+02  0.45594000000E+02  0.51100000000E-03 0.  1.
         11   -1    0    0    0    0 -0.00000000000E+00 -0.00000000000E+00 -0.45593999997E+02  0.45594000000E+02  0.51100000000E-03 0. -1.
    9900012    2    1    2    0    0  0.12550503003E+02 -0.24452684026E+02 -0.29961936928E+02  0.50528849170E+02  0.29999967538E+02 0.  0.
        -12    1    1    2    0    0 -0.12550503003E+02  0.24452684026E+02  0.29961936928E+02  0.40659150830E+02  0.00000000000E+00 0.  1.
         11    1    3    3    0    0  0.12458843695E+02 -0.16534961732E+02 -0.27275282388E+01  0.20882221056E+02  0.51100000000E-03 0. -1.
        -11    1    3    3    0    0  0.33140303824E+01 -0.15250994233E+01 -0.43963886858E+01  0.57128766278E+01  0.51100000000E-03 0.  1.
         12    1    3    3    0    0 -0.32223710744E+01 -0.63926228708E+01 -0.22838020004E+02  0.23933751486E+02  0.00000000000E+00 0. -1.
</event>
<event>
 7    1  0.5935282E-013  0.5052885E+02  0.7816164E-02  0.1300439E+00
        -11   -1    0    0    0    0  0.00000000000E+00  0.00000000000E+00  0.45593999997E+02  0.45594000000E+02  0.51100000000E-03 0.  1.
         11   -1    0    0    0    0 -0.00000000000E+00 -0.00000000000E+00 -0.45593999997E+02  0.45594000000E+02  0.51100000000E-03 0. -1.
    9900012    2    1    2    0    0  0.13864746601E+02  0.13022863389E+02 -0.35935218732E+02  0.50528854479E+02  0.29999983675E+02 0.  0.
        -12    1    1    2    0    0 -0.13864746601E+02 -0.13022863389E+02  0.35935218732E+02  0.40659145521E+02  0.00000000000E+00 0.  1.
         11    1    3    3    0    0  0.74449456744E+01  0.11882416092E+02 -0.83902463159E+01  0.16340601635E+02  0.51100000000E-03 0. -1.
        -11    1    3    3    0    0  0.22688073642E+01  0.88043235641E+01 -0.22135992112E+02  0.23930435585E+02  0.51100000000E-03 0.  1.
        -12    1    3    3    0    0  0.41509935626E+01 -0.76638762669E+01 -0.54089803042E+01  0.10257817259E+02  0.00000000000E+00 0.  1.
</event>
<event>
 7    1  0.5935282E-013  0.5052886E+02  0.7816164E-02  0.1300439E+00
        -11   -1    0    0    0    0  0.00000000000E+00  0.00000000000E+00  0.45593999997E+02  0.45594000000E+02  0.51100000000E-03 0.  1.
         11   -1    0    0    0    0 -0.00000000000E+00 -0.00000000000E+00 -0.45593999997E+02  0.45594000000E+02  0.51100000000E-03 0. -1.
    9900012    2    1    2    0    0 -0.31387589970E+02 -0.25837300023E+02 -0.64712973634E+00  0.50528860148E+02  0.30000000907E+02 0.  0.
        -12    1    1    2    0    0  0.31387589970E+02  0.25837300023E+02  0.64712973634E+00  0.40659139852E+02  0.00000000000E+00 0.  1.
         11    1    3    3    0    0 -0.11375551618E+02 -0.12918154444E+02  0.43541263725E+01  0.17755007902E+02  0.51100000000E-03 0. -1.
        -11    1    3    3    0    0 -0.18800170854E+02 -0.10349836847E+02  0.52854744882E+01  0.22102076548E+02  0.51100000000E-03 0.  1.
        -12    1    3    3    0    0 -0.12118674980E+01 -0.25693087312E+01 -0.10286730597E+02  0.10671775699E+02  0.00000000000E+00 0.  1.
</event>
<event>
 7    1  0.5935282E-013  0.5052886E+02  0.7816164E-02  0.1300439E+00
        -11   -1    0    0    0    0  0.00000000000E+00  0.00000000000E+00  0.45593999997E+02  0.45594000000E+02  0.51100000000E-03 0.  1.
         11   -1    0    0    0    0 -0.00000000000E+00 -0.00000000000E+00 -0.45593999997E+02  0.45594000000E+02  0.51100000000E-03 0. -1.
    9900012    2    1    2    0    0 -0.24132073858E+02  0.40527006519E+00 -0.32720702993E+02  0.50528860352E+02  0.30000001527E+02 0.  0.
        -12    1    1    2    0    0  0.24132073858E+02 -0.40527006519E+00  0.32720702993E+02  0.40659139648E+02  0.00000000000E+00 0.  1.
         11    1    3    3    0    0  0.22689156857E+01 -0.29111452932E+01 -0.59361055612E+01  0.69899996282E+01  0.51100000000E-03 0. -1.
        -11    1    3    3    0    0 -0.98363978158E+01 -0.27357595842E+01  0.13859788149E+01  0.10303399440E+02  0.51100000000E-03 0.  1.
        -12    1    3    3    0    0 -0.16564591728E+02  0.60521749426E+01 -0.28170576247E+02  0.33235461284E+02  0.00000000000E+00 0.  1.
</event>
<event>
 7    1  0.5935282E-013  0.5052886E+02  0.7816164E-02  0.1300439E+00
        -11   -1    0    0    0    0  0.00000000000E+00  0.00000000000E+00  0.45593999997E+02  0.45594000000E+02  0.51100000000E-03 0.  1.
         11   -1    0    0    0    0 -0.00000000000E+00 -0.00000000000E+00 -0.45593999997E+02  0.45594000000E+02  0.51100000000E-03 0. -1.
    9900012    2    1    2    0    0 -0.18591926141E+01 -0.19369892443E+01 -0.40570392790E+02  0.50528864549E+02  0.30000014284E+02 0.  0.
        -12    1    1    2    0    0  0.18591926141E+01  0.19369892443E+01  0.40570392790E+02  0.40659135451E+02  0.00000000000E+00 0.  1.
         11    1    3    3    0    0  0.92563378042E+00  0.61918470349E+01 -0.20608373091E+02  0.21538356700E+02  0.51100000000E-03 0. -1.
        -11    1    3    3    0    0 -0.44780776280E+01 -0.85411955883E+01 -0.23304424261E+02  0.25221050567E+02  0.51100000000E-03 0.  1.
         12    1    3    3    0    0  0.16932512335E+01  0.41235930907E+00  0.33424045628E+01  0.37694572820E+01  0.00000000000E+00 0. -1.
</event>
<event>
 7    1  0.5935282E-013  0.5052885E+02  0.7816164E-02  0.1300439E+00
        -11   -1    0    0    0    0  0.00000000000E+00  0.00000000000E+00  0.45593999997E+02  0.45594000000E+02  0.51100000000E-03 0.  1.
         11   -1    0    0    0    0 -0.00000000000E+00 -0.00000000000E+00 -0.45593999997E+02  0.45594000000E+02  0.51100000000E-03 0. -1.
    9900012    2    1    2    0    0 -0.29726562534E+02 -0.70174558293E+01 -0.26837528050E+02  0.50528854434E+02  0.29999983536E+02 0.  0.
        -12    1    1    2    0    0  0.29726562534E+02  0.70174558293E+01  0.26837528050E+02  0.40659145566E+02  0.00000000000E+00 0.  1.
         11    1    3    3    0    0 -0.71648381312E+00 -0.33341701987E+01 -0.87477113603E+01  0.93889559735E+01  0.51100000000E-03 0. -1.
        -11    1    3    3    0    0 -0.29749090764E+01 -0.12739337125E+01  0.52000714254E+01  0.61248456476E+01  0.51100000000E-03 0.  1.
         12    1    3    3    0    0 -0.26035169644E+02 -0.24093519180E+01 -0.23289888115E+02  0.35015052812E+02  0.00000000000E+00 0. -1.
</event>
<event>
 7    1  0.5935282E-013  0.5052886E+02  0.7816164E-02  0.1300439E+00
        -11   -1    0    0    0    0  0.00000000000E+00  0.00000000000E+00  0.45593999997E+02  0.45594000000E+02  0.51100000000E-03 0. -1.
         11   -1    0    0    0    0 -0.00000000000E+00 -0.00000000000E+00 -0.45593999997E+02  0.45594000000E+02  0.51100000000E-03 0.  1.
    9900012    2    1    2    0    0  0.19625905800E+02 -0.26150321727E+02  0.24169199012E+02  0.50528859751E+02  0.29999999701E+02 0.  0.
        -12    1    1    2    0    0 -0.19625905800E+02  0.26150321727E+02 -0.24169199012E+02  0.40659140249E+02  0.00000000000E+00 0.  1.
         11    1    3    3    0    0  0.15620733769E+02 -0.11354364314E+02  0.28097727338E+02  0.34094151908E+02  0.51100000000E-03 0. -1.
        -11    1    3    3    0    0  0.16027406288E+01 -0.53397389787E+01  0.73052726110E+00  0.56227449012E+01  0.51100000000E-03 0.  1.
        -12    1    3    3    0    0  0.24024314019E+01 -0.94562184336E+01 -0.46590555874E+01  0.10811962943E+02  0.00000000000E+00 0.  1.
</event>
<event>
 7    1  0.5935282E-013  0.5052885E+02  0.7816164E-02  0.1300439E+00
        -11   -1    0    0    0    0  0.00000000000E+00  0.00000000000E+00  0.45593999997E+02  0.45594000000E+02  0.51100000000E-03 0.  1.
         11   -1    0    0    0    0 -0.00000000000E+00 -0.00000000000E+00 -0.45593999997E+02  0.45594000000E+02  0.51100000000E-03 0. -1.
    9900012    2    1    2    0    0  0.54502045193E+01  0.34514395175E+02 -0.20789852310E+02  0.50528853887E+02  0.29999981875E+02 0.  0.
        -12    1    1    2    0    0 -0.54502045193E+01 -0.34514395175E+02  0.20789852310E+02  0.40659146113E+02  0.00000000000E+00 0.  1.
         11    1    3    3    0    0  0.67541781208E+00  0.35100343906E+02 -0.13503367487E+02  0.37614242852E+02  0.51100000000E-03 0. -1.
        -11    1    3    3    0    0  0.68972675375E+01  0.13061831957E+01 -0.27060517228E+01  0.75233722633E+01  0.51100000000E-03 0.  1.
        -12    1    3    3    0    0 -0.21224808303E+01 -0.18921319276E+01 -0.45804331004E+01  0.53912387717E+01  0.00000000000E+00 0.  1.
</event>
<event>
 7    1  0.5935282E-013  0.5052886E+02  0.7816164E-02  0.1300439E+00
        -11   -1    0    0    0    0  0.00000000000E+00  0.00000000000E+00  0.45593999997E+02  0.45594000000E+02  0.51100000000E-03 0.  1.
         11   -1    0    0    0    0 -0.00000000000E+00 -0.00000000000E+00 -0.45593999997E+02  0.45594000000E+02  0.51100000000E-03 0. -1.
    9900012    2    1    2    0    0  0.21208314673E+01  0.40118396910E+02 -0.62595645888E+01  0.50528857786E+02  0.29999993726E+02 0.  0.
        -12    1    1    2    0    0 -0.21208314673E+01 -0.40118396910E+02  0.62595645888E+01  0.40659142214E+02  0.00000000000E+00 0.  1.
         11    1    3    3    0    0 -0.30183608753E+01  0.13400430459E+02  0.50209390652E+00  0.13745331477E+02  0.51100000000E-03 0. -1.
        -11    1    3    3    0    0 -0.88745098365E+01  0.48013891764E+01 -0.10023786314E+01  0.10139774457E+02  0.51100000000E-03 0.  1.
        -12    1    3    3    0    0  0.14013702179E+02  0.21916577275E+02 -0.57592798639E+01  0.26643751852E+02  0.00000000000E+00 0.  1.
</event>
<event>
 7    1  0.5935282E-013  0.5052886E+02  0.7816164E-02  0.1300439E+00
        -11   -1    0    0    0    0  0.00000000000E+00  0.00000000000E+00  0.45593999997E+02  0.45594000000E+02  0.51100000000E-03 0.  1.
         11   -1    0    0    0    0 -0.00000000000E+00 -0.00000000000E+00 -0.45593999997E+02  0.45594000000E+02  0.51100000000E-03 0. -1.
    9900012    2    1    2    0    0 -0.36201743748E+02  0.92634677585E+00 -0.18486237808E+02  0.50528863794E+02  0.30000011987E+02 0.  0.
        -12    1    1    2    0    0  0.36201743748E+02 -0.92634677585E+00  0.18486237808E+02  0.40659136206E+02  0.00000000000E+00 0.  1.
         11    1    3    3    0    0 -0.12873813354E+02  0.10895959637E+02 -0.49962972889E+01  0.17590338073E+02  0.51100000000E-03 0. -1.
        -11    1    3    3    0    0 -0.14467542844E+02 -0.58976384811E+01  0.79386443368E+00  0.15643597943E+02  0.51100000000E-03 0.  1.
         12    1    3    3    0    0 -0.88603875500E+01 -0.40719743798E+01 -0.14283804953E+02  0.17294927777E+02  0.00000000000E+00 0. -1.
</event>
<event>
 7    1  0.5935282E-013  0.5052884E+02  0.7816164E-02  0.1300439E+00
        -11   -1    0    0    0    0  0.00000000000E+00  0.00000000000E+00  0.45593999997E+02  0.45594000000E+02  0.51100000000E-03 0. -1.
         11   -1    0    0    0    0 -0.00000000000E+00 -0.00000000000E+00 -0.45593999997E+02  0.45594000000E+02  0.51100000000E-03 0.  1.
    9900012    2    1    2    0    0 -0.34629764831E+02  0.20513860874E+02  0.57556800129E+01  0.50528844172E+02  0.29999952346E+02 0.  0.
        -12    1    1    2    0    0  0.34629764831E+02 -0.20513860874E+02 -0.57556800129E+01  0.40659155828E+02  0.00000000000E+00 0.  1.
         11    1    3    3    0    0 -0.18723974372E+02 -0.25264299596E+01 -0.38346252013E+01  0.19278859285E+02  0.51100000000E-03 0. -1.
        -11    1    3    3    0    0 -0.38324049448E+01  0.38646032828E+00  0.25923758854E+01  0.46429615806E+01  0.51100000000E-03 0.  1.
         12    1    3    3    0    0 -0.12073385514E+02  0.22653830506E+02  0.69979293289E+01  0.26607023307E+02  0.00000000000E+00 0. -1.
</event>
<event>
 7    1  0.5935282E-013  0.5052886E+02  0.7816164E-02  0.1300439E+00
        -11   -1    0    0    0    0  0.00000000000E+00  0.00000000000E+00  0.45593999997E+02  0.45594000000E+02  0.51100000000E-03 0.  1.
         11   -1    0    0    0    0 -0.00000000000E+00 -0.00000000000E+00 -0.45593999997E+02  0.45594000000E+02  0.51100000000E-03 0. -1.
    9900012    2    1    2    0    0  0.10763318034E+02 -0.25721194975E+02 -0.29592844673E+02  0.50528863980E+02  0.30000012553E+02 0.  0.
        -12    1    1    2    0    0 -0.10763318034E+02  0.25721194975E+02  0.29592844673E+02  0.40659136020E+02  0.00000000000E+00 0.  1.
         11    1    3    3    0    0  0.84522012117E+01 -0.10958247441E+02  0.16863913446E+01  0.13941549711E+02  0.51100000000E-03 0. -1.
        -11    1    3    3    0    0  0.62880086857E+01 -0.54994239913E+01 -0.18592574074E+02  0.20382996061E+02  0.51100000000E-03 0.  1.
        -12    1    3    3    0    0 -0.39768918633E+01 -0.92635235425E+01 -0.12686661944E+02  0.16204318208E+02  0.00000000000E+00 0.  1.
</event>
<event>
 7    1  0.5935282E-013  0.5052886E+02  0.7816164E-02  0.1300439E+00
        -11   -1    0    0    0    0  0.00000000000E+00  0.00000000000E+00  0.45593999997E+02  0.45594000000E+02  0.51100000000E-03 0.  1.
         11   -1    0    0    0    0 -0.00000000000E+00 -0.00000000000E+00 -0.45593999997E+02  0.45594000000E+02  0.51100000000E-03 0. -1.
    9900012    2    1    2    0    0 -0.39786099378E+02 -0.50406367156E+01  0.66950627184E+01  0.50528860965E+02  0.30000003390E+02 0.  0.
        -12    1    1    2    0    0  0.39786099378E+02  0.50406367156E+01 -0.66950627184E+01  0.40659139035E+02  0.00000000000E+00 0.  1.
         11    1    3    3    0    0 -0.84029205053E+01 -0.67074765118E+01  0.78571068120E+01  0.13316660313E+02  0.51100000000E-03 0. -1.
        -11    1    3    3    0    0 -0.90702920228E+01  0.15887535408E+01  0.88356153139E+01  0.12761756675E+02  0.51100000000E-03 0.  1.
         12    1    3    3    0    0 -0.22312886850E+02  0.78086255381E-01 -0.99976594074E+01  0.24450443977E+02  0.00000000000E+00 0. -1.
</event>
<event>
 7    1  0.5935282E-013  0.5052888E+02  0.7816164E-02  0.1300439E+00
        -11   -1    0    0    0    0  0.00000000000E+00  0.00000000000E+00  0.45593999997E+02  0.45594000000E+02  0.51100000000E-03 0.  1.
         11   -1    0    0    0    0 -0.00000000000E+00 -0.00000000000E+00 -0.45593999997E+02  0.45594000000E+02  0.51100000000E-03 0. -1.
    9900012    2    1    2    0    0 -0.24134886709E+02 -0.32658301138E+02  0.20264049336E+01  0.50528884090E+02  0.30000073679E+02 0.  0.
        -12    1    1    2    0    0  0.24134886709E+02  0.32658301138E+02 -0.20264049336E+01  0.40659115910E+02  0.00000000000E+00 0.  1.
         11    1    3    3    0    0 -0.25731824913E+02 -0.23661394323E+02  0.10356199364E+01  0.34972287652E+02  0.51100000000E-03 0.  1.
        -11    1    3    3    0    0  0.37675303163E+01 -0.10717399378E+02 -0.19392359577E+01  0.11524650558E+02  0.51100000000E-03 0. -1.
        -12    1    3    3    0    0 -0.21705921126E+01  0.17204925643E+01  0.29300209549E+01  0.40319458800E+01  0.00000000000E+00 0.  1.
</event>
<event>
 7    1  0.5935282E-013  0.5052887E+02  0.7816164E-02  0.1300439E+00
        -11   -1    0    0    0    0  0.00000000000E+00  0.00000000000E+00  0.45593999997E+02  0.45594000000E+02  0.51100000000E-03 0.  1.
         11   -1    0    0    0    0 -0.00000000000E+00 -0.00000000000E+00 -0.45593999997E+02  0.45594000000E+02  0.51100000000E-03 0. -1.
    9900012    2    1    2    0    0 -0.17290833322E+02 -0.36174820605E+02 -0.67508524653E+01  0.50528873450E+02  0.30000041340E+02 0.  0.
        -12    1    1    2    0    0  0.17290833322E+02  0.36174820605E+02  0.67508524653E+01  0.40659126550E+02  0.00000000000E+00 0.  1.
         11    1    3    3    0    0 -0.15650309953E+02 -0.17859168601E+02 -0.75049738467E+01  0.24903950238E+02  0.51100000000E-03 0. -1.
        -11    1    3    3    0    0 -0.41613259672E+01 -0.13592354853E+02  0.82330641165E+01  0.16427175329E+02  0.51100000000E-03 0.  1.
         12    1    3    3    0    0  0.25208025979E+01 -0.47232971504E+01 -0.74789427351E+01  0.91977478843E+01  0.00000000000E+00 0. -1.
</event>
<event>
 7    1  0.5935282E-013  0.5052887E+02  0.7816164E-02  0.1300439E+00
        -11   -1    0    0    0    0  0.00000000000E+00  0.00000000000E+00  0.45593999997E+02  0.45594000000E+02  0.51100000000E-03 0.  1.
         11   -1    0    0    0    0 -0.00000000000E+00 -0.00000000000E+00 -0.45593999997E+02  0.45594000000E+02  0.51100000000E-03 0. -1.
    9900012    2    1    2    0    0  0.29508556298E+02 -0.14297908206E+02  0.24041209331E+02  0.50528870398E+02  0.30000032062E+02 0.  0.
        -12    1    1    2    0    0 -0.29508556298E+02  0.14297908206E+02 -0.24041209331E+02  0.40659129602E+02  0.00000000000E+00 0.  1.
         11    1    3    3    0    0  0.67196464214E+01  0.21624751825E+00  0.50340780482E+01  0.83989495220E+01  0.51100000000E-03 0. -1.
        -11    1    3    3    0    0  0.21756884291E+02 -0.75915149522E-01  0.16798305638E+02  0.27487285238E+02  0.51100000000E-03 0.  1.
        -12    1    3    3    0    0  0.10320255860E+01 -0.14438240575E+02  0.22088256446E+01  0.14642635638E+02  0.00000000000E+00 0.  1.
</event>
<event>
 7    1  0.5935282E-013  0.5052885E+02  0.7816164E-02  0.1300439E+00
        -11   -1    0    0    0    0  0.00000000000E+00  0.00000000000E+00  0.45593999997E+02  0.45594000000E+02  0.51100000000E-03 0.  1.
         11   -1    0    0    0    0 -0.00000000000E+00 -0.00000000000E+00 -0.45593999997E+02  0.45594000000E+02  0.51100000000E-03 0. -1.
    9900012    2    1    2    0    0 -0.12090282512E+01 -0.15801304812E+02 -0.37443604820E+02  0.50528849431E+02  0.29999968331E+02 0.  0.
        -12    1    1    2    0    0  0.12090282512E+01  0.15801304812E+02  0.37443604820E+02  0.40659150569E+02  0.00000000000E+00 0.  1.
         11    1    3    3    0    0  0.55599466930E+01 -0.91358860495E+01 -0.10386932212E+02  0.14908580823E+02  0.51100000000E-03 0. -1.
        -11    1    3    3    0    0 -0.52609067788E+01 -0.85387805069E+01 -0.17273315599E+01  0.10177012688E+02  0.51100000000E-03 0.  1.
         12    1    3    3    0    0 -0.15080681653E+01  0.18733617447E+01 -0.25329341049E+02  0.25443255919E+02  0.00000000000E+00 0. -1.
</event>
<event>
 7    1  0.5935282E-013  0.5052885E+02  0.7816164E-02  0.1300439E+00
        -11   -1    0    0    0    0  0.00000000000E+00  0.00000000000E+00  0.45593999997E+02  0.45594000000E+02  0.51100000000E-03 0. -1.
         11   -1    0    0    0    0 -0.00000000000E+00 -0.00000000000E+00 -0.45593999997E+02  0.45594000000E+02  0.51100000000E-03 0.  1.
    9900012    2    1    2    0    0 -0.18515509650E+02 -0.28761889336E+02  0.21979443391E+02  0.50528852105E+02  0.29999976459E+02 0.  0.
        -12    1    1    2    0    0  0.18515509650E+02  0.28761889336E+02 -0.21979443391E+02  0.40659147895E+02  0.00000000000E+00 0.  1.
         11    1    3    3    0    0 -0.64921005873E+01 -0.12081728787E+02  0.32864939658E+00  0.13719458853E+02  0.51100000000E-03 0. -1.
        -11    1    3    3    0    0  0.34325659597E+01 -0.96664721896E+01  0.13471913470E+01  0.10345922793E+02  0.51100000000E-03 0.  1.
         12    1    3    3    0    0 -0.15455975023E+02 -0.70136883587E+01  0.20303602647E+02  0.26463470459E+02  0.00000000000E+00 0. -1.
</event>
<event>
 7    1  0.5935282E-013  0.5052885E+02  0.7816164E-02  0.1300439E+00
        -11   -1    0    0    0    0  0.00000000000E+00  0.00000000000E+00  0.45593999997E+02  0.45594000000E+02  0.51100000000E-03 0. -1.
         11   -1    0    0    0    0 -0.00000000000E+00 -0.00000000000E+00 -0.45593999997E+02  0.45594000000E+02  0.51100000000E-03 0.  1.
    9900012    2    1    2    0    0  0.38585978507E+02  0.81290907697E+01 -0.99099084615E+01  0.50528854168E+02  0.29999982728E+02 0.  0.
        -12    1    1    2    0    0 -0.38585978507E+02 -0.81290907697E+01  0.99099084615E+01  0.40659145832E+02  0.00000000000E+00 0.  1.
         11    1    3    3    0    0  0.18726639309E+02  0.69151519034E+01 -0.33966597368E+00  0.19965513239E+02  0.51100000000E-03 0. -1.
        -11    1    3    3    0    0  0.68870920117E+01  0.46205835537E+01  0.58329357726E+01  0.10139278512E+02  0.51100000000E-03 0.  1.
         12    1    3    3    0    0  0.12972247186E+02 -0.34066446873E+01 -0.15403178260E+02  0.20424062417E+02  0.00000000000E+00 0. -1.
</event>
<event>
 7    1  0.5935282E-013  0.5052887E+02  0.7816164E-02  0.1300439E+00
        -11   -1    0    0    0    0  0.00000000000E+00  0.00000000000E+00  0.45593999997E+02  0.45594000000E+02  0.51100000000E-03 0.  1.
         11   -1    0    0    0    0 -0.00000000000E+00 -0.00000000000E+00 -0.45593999997E+02  0.45594000000E+02  0.51100000000E-03 0. -1.
    9900012    2    1    2    0    0  0.33554061939E+01  0.11593063910E+01 -0.40503857371E+02  0.50528865676E+02  0.30000017709E+02 0.  0.
        -12    1    1    2    0    0 -0.33554061939E+01 -0.11593063910E+01  0.40503857371E+02  0.40659134324E+02  0.00000000000E+00 0.  1.
         11    1    3    3    0    0  0.50952462470E+01 -0.51621104118E+01 -0.29850737746E+02  0.30719301139E+02  0.51100000000E-03 0. -1.
        -11    1    3    3    0    0  0.44862596307E+01  0.83135377081E+01 -0.90425502418E+01  0.13077046679E+02  0.51100000000E-03 0.  1.
        -12    1    3    3    0    0 -0.62260996838E+01 -0.19921209053E+01 -0.16105693829E+01  0.67325178582E+01  0.00000000000E+00 0.  1.
</event>
<event>
 7    1  0.5935282E-013  0.5052886E+02  0.7816164E-02  0.1300439E+00
        -11   -1    0    0    0    0  0.00000000000E+00  0.00000000000E+00  0.45593999997E+02  0.45594000000E+02  0.51100000000E-03 0. -1.
         11   -1    0    0    0    0 -0.00000000000E+00 -0.00000000000E+00 -0.45593999997E+02  0.45594000000E+02  0.51100000000E-03 0.  1.
    9900012    2    1    2    0    0 -0.36106162286E+02  0.79193618954E+01 -0.16935004754E+02  0.50528860389E+02  0.30000001639E+02 0.  0.
        -12    1    1    2    0    0  0.36106162286E+02 -0.79193618954E+01  0.16935004754E+02  0.40659139611E+02  0.00000000000E+00 0.  1.
         11    1    3    3    0    0 -0.66525252949E+01  0.38771490048E+01 -0.10471108772E+02  0.12997403448E+02  0.51100000000E-03 0. -1.
        -11    1    3    3    0    0  0.11193624971E+01  0.24990582472E+01 -0.63544491576E+01  0.69193416508E+01  0.51100000000E-03 0.  1.
        -12    1    3    3    0    0 -0.30572999488E+02  0.15431546434E+01 -0.10944682480E+00  0.30612115291E+02  0.00000000000E+00 0.  1.
</event>
<event>
 7    1  0.5935282E-013  0.5052884E+02  0.7816164E-02  0.1300439E+00
        -11   -1    0    0    0    0  0.00000000000E+00  0.00000000000E+00  0.45593999997E+02  0.45594000000E+02  0.51100000000E-03 0.  1.
         11   -1    0    0    0    0 -0.00000000000E+00 -0.00000000000E+00 -0.45593999997E+02  0.45594000000E+02  0.51100000000E-03 0. -1.
    9900012    2    1    2    0    0  0.19438085347E+02  0.29501680413E+02 -0.20124087889E+02  0.50528840854E+02  0.29999942259E+02 0.  0.
        -12    1    1    2    0    0 -0.19438085347E+02 -0.29501680413E+02  0.20124087889E+02  0.40659159146E+02  0.00000000000E+00 0.  1.
         11    1    3    3    0    0  0.91777500783E+01  0.50404099983E+01 -0.39223699521E+01  0.11181315475E+02  0.51100000000E-03 0. -1.
        -11    1    3    3    0    0 -0.23192138883E+01  0.62960575699E+01  0.52743549805E+01  0.85345131498E+01  0.51100000000E-03 0.  1.
         12    1    3    3    0    0  0.12579549157E+02  0.18165212844E+02 -0.21476072917E+02  0.30813012229E+02  0.00000000000E+00 0. -1.
</event>
<event>
 7    1  0.5935282E-013  0.5052885E+02  0.7816164E-02  0.1300439E+00
        -11   -1    0    0    0    0  0.00000000000E+00  0.00000000000E+00  0.45593999997E+02  0.45594000000E+02  0.51100000000E-03 0. -1.
         11   -1    0    0    0    0 -0.00000000000E+00 -0.00000000000E+00 -0.45593999997E+02  0.45594000000E+02  0.51100000000E-03 0.  1.
    9900012    2    1    2    0    0  0.31366963244E+02 -0.22138117172E+02  0.13385951188E+02  0.50528852146E+02  0.29999976582E+02 0.  0.
        -12    1    1    2    0    0 -0.31366963244E+02  0.22138117172E+02 -0.13385951188E+02  0.40659147854E+02  0.00000000000E+00 0.  1.
         11    1    3    3    0    0  0.27361673995E+01  0.99653215425E+00 -0.85498423634E+00  0.30349113130E+01  0.51100000000E-03 0. -1.
        -11    1    3    3    0    0  0.75370784118E+01 -0.15607269843E+02 -0.49229579511E+01  0.18017489786E+02  0.51100000000E-03 0.  1.
        -12    1    3    3    0    0  0.21093717432E+02 -0.75273794832E+01  0.19163893375E+02  0.29476451046E+02  0.00000000000E+00 0.  1.
</event>
<event>
 7    1  0.5935282E-013  0.5052885E+02  0.7816164E-02  0.1300439E+00
        -11   -1    0    0    0    0  0.00000000000E+00  0.00000000000E+00  0.45593999997E+02  0.45594000000E+02  0.51100000000E-03 0.  1.
         11   -1    0    0    0    0 -0.00000000000E+00 -0.00000000000E+00 -0.45593999997E+02  0.45594000000E+02  0.51100000000E-03 0. -1.
    9900012    2    1    2    0    0  0.33324009653E+02 -0.43142978861E+00 -0.23291434733E+02  0.50528847489E+02  0.29999962428E+02 0.  0.
        -12    1    1    2    0    0 -0.33324009653E+02  0.43142978861E+00  0.23291434733E+02  0.40659152511E+02  0.00000000000E+00 0.  1.
         11    1    3    3    0    0 -0.15643760598E-02 -0.19482380517E+01 -0.70655484234E+01  0.73292297506E+01  0.51100000000E-03 0. -1.
        -11    1    3    3    0    0  0.36430287363E+01 -0.80463631488E+01 -0.41358455592E+01  0.97529911846E+01  0.51100000000E-03 0.  1.
        -12    1    3    3    0    0  0.29682545293E+02  0.95631714118E+01 -0.12090040750E+02  0.33446626554E+02  0.00000000000E+00 0.  1.
</event>
<event>
 7    1  0.5935282E-013  0.5052886E+02  0.7816164E-02  0.1300439E+00
        -11   -1    0    0    0    0  0.00000000000E+00  0.00000000000E+00  0.45593999997E+02  0.45594000000E+02  0.51100000000E-03 0. -1.
         11   -1    0    0    0    0 -0.00000000000E+00 -0.00000000000E+00 -0.45593999997E+02  0.45594000000E+02  0.51100000000E-03 0.  1.
    9900012    2    1    2    0    0 -0.92641511514E+01  0.29821930013E+02  0.26038318222E+02  0.50528855616E+02  0.29999987129E+02 0.  0.
        -12    1    1    2    0    0  0.92641511514E+01 -0.29821930013E+02 -0.26038318222E+02  0.40659144384E+02  0.00000000000E+00 0.  1.
         11    1    3    3    0    0  0.79948481383E+00  0.23253819248E+01  0.11258479937E+02  0.11523885968E+02  0.51100000000E-03 0. -1.
        -11    1    3    3    0    0  0.25036566559E+01 -0.20156590164E+01  0.40733214925E+01  0.51887499616E+01  0.51100000000E-03 0.  1.
        -12    1    3    3    0    0 -0.12567292621E+02  0.29512207104E+02  0.10706516793E+02  0.33816219686E+02  0.00000000000E+00 0.  1.
</event>
<event>
 7    1  0.5935282E-013  0.5052886E+02  0.7816164E-02  0.1300439E+00
        -11   -1    0    0    0    0  0.00000000000E+00  0.00000000000E+00  0.45593999997E+02  0.45594000000E+02  0.51100000000E-03 0.  1.
         11   -1    0    0    0    0 -0.00000000000E+00 -0.00000000000E+00 -0.45593999997E+02  0.45594000000E+02  0.51100000000E-03 0. -1.
    9900012    2    1    2    0    0 -0.47478087644E+01 -0.12793694183E+02 -0.38300724818E+02  0.50528858094E+02  0.29999994663E+02 0.  0.
        -12    1    1    2    0    0  0.47478087644E+01  0.12793694183E+02  0.38300724818E+02  0.40659141906E+02  0.00000000000E+00 0.  1.
         11    1    3    3    0    0  0.18633071101E+01  0.20581135940E-01 -0.15437776897E+02  0.15549832564E+02  0.51100000000E-03 0. -1.
        -11    1    3    3    0    0  0.17352617654E+01 -0.15665396843E+02 -0.20480279879E+02  0.25842942089E+02  0.51100000000E-03 0.  1.
        -12    1    3    3    0    0 -0.83463776399E+01  0.28511215241E+01 -0.23826680425E+01  0.91360834417E+01  0.00000000000E+00 0.  1.
</event>
<event>
 7    1  0.5935282E-013  0.5052886E+02  0.7816164E-02  0.1300439E+00
        -11   -1    0    0    0    0  0.00000000000E+00  0.00000000000E+00  0.45593999997E+02  0.45594000000E+02  0.51100000000E-03 0. -1.
         11   -1    0    0    0    0 -0.00000000000E+00 -0.00000000000E+00 -0.45593999997E+02  0.45594000000E+02  0.51100000000E-03 0.  1.
    9900012    2    1    2    0    0  0.69089815096E+01 -0.13480456972E+02  0.37732065501E+02  0.50528861880E+02  0.30000006170E+02 0.  0.
        -12    1    1    2    0    0 -0.69089815096E+01  0.13480456972E+02 -0.37732065501E+02  0.40659138120E+02  0.00000000000E+00 0.  1.
         11    1    3    3    0    0 -0.46734026938E+01 -0.63621316634E+01  0.57137069998E+01  0.97449402246E+01  0.51100000000E-03 0. -1.
        -11    1    3    3    0    0  0.12621393272E+02 -0.82724106496E+01  0.87102574107E+01  0.17424147913E+02  0.51100000000E-03 0.  1.
         12    1    3    3    0    0 -0.10390090682E+01  0.11540853409E+01  0.23308101091E+02  0.23359773742E+02  0.00000000000E+00 0. -1.
</event>
<event>
 7    1  0.5935282E-013  0.5052886E+02  0.7816164E-02  0.1300439E+00
        -11   -1    0    0    0    0  0.00000000000E+00  0.00000000000E+00  0.45593999997E+02  0.45594000000E+02  0.51100000000E-03 0.  1.
         11   -1    0    0    0    0 -0.00000000000E+00 -0.00000000000E+00 -0.45593999997E+02  0.45594000000E+02  0.51100000000E-03 0. -1.
    9900012    2    1    2    0    0  0.38114028415E+02  0.19229596404E+01 -0.14028144967E+02  0.50528858506E+02  0.29999995915E+02 0.  0.
        -12    1    1    2    0    0 -0.38114028415E+02 -0.19229596404E+01  0.14028144967E+02  0.40659141494E+02  0.00000000000E+00 0.  1.
         11    1    3    3    0    0  0.98698625347E+01 -0.31192423536E+01 -0.11188372895E+02  0.15242163482E+02  0.51100000000E-03 0. -1.
        -11    1    3    3    0    0  0.19714836823E+02 -0.64723685619E+01 -0.42019422229E+00  0.20754346754E+02  0.51100000000E-03 0.  1.
         12    1    3    3    0    0  0.85293290577E+01  0.11514570556E+02 -0.24195778499E+01  0.14532348270E+02  0.00000000000E+00 0. -1.
</event>
<event>
 7    1  0.5935282E-013  0.5052885E+02  0.7816164E-02  0.1300439E+00
        -11   -1    0    0    0    0  0.00000000000E+00  0.00000000000E+00  0.45593999997E+02  0.45594000000E+02  0.51100000000E-03 0. -1.
         11   -1    0    0    0    0 -0.00000000000E+00 -0.00000000000E+00 -0.45593999997E+02  0.45594000000E+02  0.51100000000E-03 0.  1.
    9900012    2    1    2    0    0  0.39134993440E+02 -0.45432034334E+00  0.11018719145E+02  0.50528852320E+02  0.29999977111E+02 0.  0.
        -12    1    1    2    0    0 -0.39134993440E+02  0.45432034334E+00 -0.11018719145E+02  0.40659147680E+02  0.00000000000E+00 0.  1.
         11    1    3    3    0    0  0.11843327305E+02 -0.94349897142E-01  0.68855878379E+01  0.13699803783E+02  0.51100000000E-03 0. -1.
        -11    1    3    3    0    0  0.10411754373E+02  0.96687848302E+01 -0.51466683104E+01  0.15112187935E+02  0.51100000000E-03 0.  1.
         12    1    3    3    0    0  0.16879911762E+02 -0.10028755276E+02  0.92797996173E+01  0.21716860603E+02  0.00000000000E+00 0. -1.
</event>
<event>
 7    1  0.5935282E-013  0.5052886E+02  0.7816164E-02  0.1300439E+00
        -11   -1    0    0    0    0  0.00000000000E+00  0.00000000000E+00  0.45593999997E+02  0.45594000000E+02  0.51100000000E-03 0. -1.
         11   -1    0    0    0    0 -0.00000000000E+00 -0.00000000000E+00 -0.45593999997E+02  0.45594000000E+02  0.51100000000E-03 0.  1.
    9900012    2    1    2    0    0  0.16600953302E+02  0.31499331865E+02  0.19630742087E+02  0.50528860888E+02  0.30000003156E+02 0.  0.
        -12    1    1    2    0    0 -0.16600953302E+02 -0.31499331865E+02 -0.19630742087E+02  0.40659139112E+02  0.00000000000E+00 0.  1.
         11    1    3    3    0    0  0.12053820926E+01  0.17389000804E+02  0.10989163543E+02  0.20605630556E+02  0.51100000000E-03 0. -1.
        -11    1    3    3    0    0 -0.37594086324E+01  0.41621992443E+01  0.59418249139E+01  0.81708224423E+01  0.51100000000E-03 0.  1.
        -12    1    3    3    0    0  0.19154979841E+02  0.99481318158E+01  0.26997536296E+01  0.21752407890E+02  0.00000000000E+00 0.  1.
</event>
<event>
 7    1  0.5935282E-013  0.5052886E+02  0.7816164E-02  0.1300439E+00
        -11   -1    0    0    0    0  0.00000000000E+00  0.00000000000E+00  0.45593999997E+02  0.45594000000E+02  0.51100000000E-03 0.  1.
         11   -1    0    0    0    0 -0.00000000000E+00 -0.00000000000E+00 -0.45593999997E+02  0.45594000000E+02  0.51100000000E-03 0. -1.
    9900012    2    1    2    0    0  0.27526536873E+01  0.23423038857E+02 -0.33120232511E+02  0.50528860152E+02  0.30000000917E+02 0.  0.
        -12    1    1    2    0    0 -0.27526536873E+01 -0.23423038857E+02  0.33120232511E+02  0.40659139848E+02  0.00000000000E+00 0.  1.
         11    1    3    3    0    0  0.30369944141E+01  0.15525162725E+02 -0.84807474470E+01  0.17949292193E+02  0.51100000000E-03 0. -1.
        -11    1    3    3    0    0  0.37229871566E+01 -0.55369273897E+01 -0.11866965773E+02  0.13614076363E+02  0.51100000000E-03 0.  1.
         12    1    3    3    0    0 -0.40073278834E+01  0.13434803522E+02 -0.12772519291E+02  0.18965491596E+02  0.00000000000E+00 0. -1.
</event>
<event>
 7    1  0.5935282E-013  0.5052887E+02  0.7816164E-02  0.1300439E+00
        -11   -1    0    0    0    0  0.00000000000E+00  0.00000000000E+00  0.45593999997E+02  0.45594000000E+02  0.51100000000E-03 0.  1.
         11   -1    0    0    0    0 -0.00000000000E+00 -0.00000000000E+00 -0.45593999997E+02  0.45594000000E+02  0.51100000000E-03 0. -1.
    9900012    2    1    2    0    0  0.81552458864E+01  0.14486370651E+02 -0.37105285986E+02  0.50528865501E+02  0.30000017176E+02 0.  0.
        -12    1    1    2    0    0 -0.81552458864E+01 -0.14486370651E+02  0.37105285986E+02  0.40659134499E+02  0.00000000000E+00 0.  1.
         11    1    3    3    0    0  0.13717191193E+01  0.45584121333E+01 -0.22199800712E+02  0.22704446403E+02  0.51100000000E-03 0. -1.
        -11    1    3    3    0    0 -0.27844193467E+01  0.11443076245E+02 -0.13694250584E+02  0.18061823949E+02  0.51100000000E-03 0.  1.
        -12    1    3    3    0    0  0.95679461138E+01 -0.15151177280E+01 -0.12112346899E+01  0.97625951488E+01  0.00000000000E+00 0.  1.
</event>
<event>
 7    1  0.5935282E-013  0.5052886E+02  0.7816164E-02  0.1300439E+00
        -11   -1    0    0    0    0  0.00000000000E+00  0.00000000000E+00  0.45593999997E+02  0.45594000000E+02  0.51100000000E-03 0. -1.
         11   -1    0    0    0    0 -0.00000000000E+00 -0.00000000000E+00 -0.45593999997E+02  0.45594000000E+02  0.51100000000E-03 0.  1.
    9900012    2    1    2    0    0 -0.36480351860E+02 -0.17831696950E+02 -0.20928512540E+01  0.50528861860E+02  0.30000006109E+02 0.  0.
        -12    1    1    2    0    0  0.36480351860E+02  0.17831696950E+02  0.20928512540E+01  0.40659138140E+02  0.00000000000E+00 0.  1.
         11    1    3    3    0    0  0.47795756701E+00 -0.94754350992E+01  0.62629427230E+01  0.11368234936E+02  0.51100000000E-03 0. -1.
        -11    1    3    3    0    0 -0.58846488845E+01 -0.27920223035E+01 -0.30953299372E-01  0.65134813583E+01  0.51100000000E-03 0.  1.
        -12    1    3    3    0    0 -0.31073660542E+02 -0.55642395473E+01 -0.83248406777E+01  0.32647145565E+02  0.00000000000E+00 0.  1.
</event>
<event>
 7    1  0.5935282E-013  0.5052885E+02  0.7816164E-02  0.1300439E+00
        -11   -1    0    0    0    0  0.00000000000E+00  0.00000000000E+00  0.45593999997E+02  0.45594000000E+02  0.51100000000E-03 0. -1.
         11   -1    0    0    0    0 -0.00000000000E+00 -0.00000000000E+00 -0.45593999997E+02  0.45594000000E+02  0.51100000000E-03 0.  1.
    9900012    2    1    2    0    0  0.25480377779E+02 -0.26965564382E+02 -0.16636559079E+02  0.50528850818E+02  0.29999972547E+02 0.  0.
        -12    1    1    2    0    0 -0.25480377779E+02  0.26965564382E+02  0.16636559079E+02  0.40659149182E+02  0.00000000000E+00 0.  1.
         11    1    3    3    0    0  0.28404053597E+00 -0.58245935862E+01 -0.93835173644E+01  0.11047939530E+02  0.51100000000E-03 0. -1.
        -11    1    3    3    0    0  0.13820356373E+02 -0.17029530127E+02 -0.13614495270E+02  0.25813981258E+02  0.51100000000E-03 0.  1.
         12    1    3    3    0    0  0.11375980869E+02 -0.41114406692E+01  0.63614535560E+01  0.13666930031E+02  0.00000000000E+00 0. -1.
</event>
<event>
 7    1  0.5935282E-013  0.5052885E+02  0.7816164E-02  0.1300439E+00
        -11   -1    0    0    0    0  0.00000000000E+00  0.00000000000E+00  0.45593999997E+02  0.45594000000E+02  0.51100000000E-03 0.  1.
         11   -1    0    0    0    0 -0.00000000000E+00 -0.00000000000E+00 -0.45593999997E+02  0.45594000000E+02  0.51100000000E-03 0. -1.
    9900012    2    1    2    0    0 -0.16063746167E+02 -0.15380829725E+02 -0.34037520460E+02  0.50528847733E+02  0.29999963170E+02 0.  0.
        -12    1    1    2    0    0  0.16063746167E+02  0.15380829725E+02  0.34037520460E+02  0.40659152267E+02  0.00000000000E+00 0.  1.
         11    1    3    3    0    0 -0.25411065563E+01  0.54664566319E+01 -0.12681810922E+02  0.14041641612E+02  0.51100000000E-03 0. -1.
        -11    1    3    3    0    0 -0.13884385002E+02 -0.10368874683E+02 -0.69514054893E+01  0.18671147464E+02  0.51100000000E-03 0.  1.
         12    1    3    3    0    0  0.36174539144E+00 -0.10478411674E+02 -0.14404304049E+02  0.17816058657E+02  0.00000000000E+00 0. -1.
</event>
<event>
 7    1  0.5935282E-013  0.5052886E+02  0.7816164E-02  0.1300439E+00
        -11   -1    0    0    0    0  0.00000000000E+00  0.00000000000E+00  0.45593999997E+02  0.45594000000E+02  0.51100000000E-03 0.  1.
         11   -1    0    0    0    0 -0.00000000000E+00 -0.00000000000E+00 -0.45593999997E+02  0.45594000000E+02  0.51100000000E-03 0. -1.
    9900012    2    1    2    0    0 -0.36408013959E+02 -0.14310536136E+02 -0.11082908213E+02  0.50528858600E+02  0.29999996201E+02 0.  0.
        -12    1    1    2    0    0  0.36408013959E+02  0.14310536136E+02  0.11082908213E+02  0.40659141400E+02  0.00000000000E+00 0.  1.
         11    1    3    3    0    0 -0.79808971518E+01 -0.58178421034E+01  0.11735484908E+01  0.99458143160E+01  0.51100000000E-03 0. -1.
        -11    1    3    3    0    0 -0.38208339024E+01 -0.12164358372E+02  0.21780931564E+00  0.12752169520E+02  0.51100000000E-03 0.  1.
        -12    1    3    3    0    0 -0.24606282904E+02  0.36716643393E+01 -0.12474266019E+02  0.27830874764E+02  0.00000000000E+00 0.  1.
</event>
<event>
 7    1  0.5935282E-013  0.5052886E+02  0.7816164E-02  0.1300439E+00
        -11   -1    0    0    0    0  0.00000000000E+00  0.00000000000E+00  0.45593999997E+02  0.45594000000E+02  0.51100000000E-03 0. -1.
         11   -1    0    0    0    0 -0.00000000000E+00 -0.00000000000E+00 -0.45593999997E+02  0.45594000000E+02  0.51100000000E-03 0.  1.
    9900012    2    1    2    0    0  0.21654867368E+02  0.24119567358E+02  0.24545438802E+02  0.50528863558E+02  0.30000011270E+02 0.  0.
        -12    1    1    2    0    0 -0.21654867368E+02 -0.24119567358E+02 -0.24545438802E+02  0.40659136442E+02  0.00000000000E+00 0.  1.
         11    1    3    3    0    0 -0.29731237120E+01  0.20502940284E+01  0.53193562447E+00  0.36504966758E+01  0.51100000000E-03 0.  1.
        -11    1    3    3    0    0  0.32807797891E+01 -0.23552281009E+01 -0.26983657672E+01  0.48571384071E+01  0.51100000000E-03 0. -1.
         12    1    3    3    0    0  0.21347211291E+02  0.24424501430E+02  0.26711868945E+02  0.42021228475E+02  0.00000000000E+00 0. -1.
</event>
<event>
 7    1  0.5935282E-013  0.5052886E+02  0.7816164E-02  0.1300439E+00
        -11   -1    0    0    0    0  0.00000000000E+00  0.00000000000E+00  0.45593999997E+02  0.45594000000E+02  0.51100000000E-03 0.  1.
         11   -1    0    0    0    0 -0.00000000000E+00 -0.00000000000E+00 -0.45593999997E+02  0.45594000000E+02  0.51100000000E-03 0. -1.
    9900012    2    1    2    0    0 -0.67231126466E+01 -0.30965185183E+01 -0.39979705699E+02  0.50528861563E+02  0.30000005208E+02 0.  0.
        -12    1    1    2    0    0  0.67231126466E+01  0.30965185183E+01  0.39979705699E+02  0.40659138437E+02  0.00000000000E+00 0.  1.
         11    1    3    3    0    0 -0.10285148344E+02 -0.10099702080E+02 -0.37328006304E+02  0.40014601253E+02  0.51100000000E-03 0. -1.
        -11    1    3    3    0    0 -0.83992274289E+00 -0.69322389144E+00  0.36528470977E+00  0.11486787009E+01  0.51100000000E-03 0.  1.
         12    1    3    3    0    0  0.44019584407E+01  0.76964074526E+01 -0.30169841055E+01  0.93655816094E+01  0.00000000000E+00 0. -1.
</event>
<event>
 7    1  0.5935282E-013  0.5052886E+02  0.7816164E-02  0.1300439E+00
        -11   -1    0    0    0    0  0.00000000000E+00  0.00000000000E+00  0.45593999997E+02  0.45594000000E+02  0.51100000000E-03 0. -1.
         11   -1    0    0    0    0 -0.00000000000E+00 -0.00000000000E+00 -0.45593999997E+02  0.45594000000E+02  0.51100000000E-03 0.  1.
    9900012    2    1    2    0    0 -0.31324927119E+02  0.10861774764E+02  0.23535856992E+02  0.50528858662E+02  0.29999996388E+02 0.  0.
        -12    1    1    2    0    0  0.31324927119E+02 -0.10861774764E+02 -0.23535856992E+02  0.40659141338E+02  0.00000000000E+00 0.  1.
         11    1    3    3    0    0 -0.75666064280E+01  0.49832376173E+01  0.18963436183E+02  0.21016614906E+02  0.51100000000E-03 0. -1.
        -11    1    3    3    0    0 -0.44637310072E+01  0.74884510510E+01  0.51806560666E+01  0.10141054738E+02  0.51100000000E-03 0.  1.
        -12    1    3    3    0    0 -0.19294589684E+02 -0.16099139040E+01 -0.60823525794E+00  0.19371189018E+02  0.00000000000E+00 0.  1.
</event>
<event>
 7    1  0.5935282E-013  0.5052886E+02  0.7816164E-02  0.1300439E+00
        -11   -1    0    0    0    0  0.00000000000E+00  0.00000000000E+00  0.45593999997E+02  0.45594000000E+02  0.51100000000E-03 0.  1.
         11   -1    0    0    0    0 -0.00000000000E+00 -0.00000000000E+00 -0.45593999997E+02  0.45594000000E+02  0.51100000000E-03 0. -1.
    9900012    2    1    2    0    0 -0.38723851837E+02  0.12306627023E+02 -0.14752001622E+01  0.50528856068E+02  0.29999988503E+02 0.  0.
        -12    1    1    2    0    0  0.38723851837E+02 -0.12306627023E+02  0.14752001622E+01  0.40659143932E+02  0.00000000000E+00 0.  1.
         11    1    3    3    0    0 -0.59369017290E+00  0.19216124834E+01 -0.70889837075E+01  0.73687687454E+01  0.51100000000E-03 0. -1.
        -11    1    3    3    0    0 -0.13268786586E+02 -0.27901399352E+01 -0.26909179800E+01  0.13823408341E+02  0.51100000000E-03 0.  1.
         12    1    3    3    0    0 -0.24861375079E+02  0.13175154474E+02  0.83047015253E+01  0.29336678981E+02  0.00000000000E+00 0. -1.
</event>
<event>
 7    1  0.5935282E-013  0.5052886E+02  0.7816164E-02  0.1300439E+00
        -11   -1    0    0    0    0  0.00000000000E+00  0.00000000000E+00  0.45593999997E+02  0.45594000000E+02  0.51100000000E-03 0.  1.
         11   -1    0    0    0    0 -0.00000000000E+00 -0.00000000000E+00 -0.45593999997E+02  0.45594000000E+02  0.51100000000E-03 0. -1.
    9900012    2    1    2    0    0  0.35697493271E+02 -0.16962528438E+02  0.95460801036E+01  0.50528855368E+02  0.29999986377E+02 0.  0.
        -12    1    1    2    0    0 -0.35697493271E+02  0.16962528438E+02 -0.95460801036E+01  0.40659144632E+02  0.00000000000E+00 0.  1.
         11    1    3    3    0    0  0.77692798433E+01 -0.95456637442E+01 -0.69161494877E+00  0.12327195022E+02  0.51100000000E-03 0. -1.
        -11    1    3    3    0    0  0.72736674600E+01 -0.13419030810E+02  0.34692908677E+01  0.15652878508E+02  0.51100000000E-03 0.  1.
         12    1    3    3    0    0  0.20654545968E+02  0.60021661160E+01  0.67684041846E+01  0.22548781839E+02  0.00000000000E+00 0. -1.
</event>
<event>
 7    1  0.5935282E-013  0.5052885E+02  0.7816164E-02  0.1300439E+00
        -11   -1    0    0    0    0  0.00000000000E+00  0.00000000000E+00  0.45593999997E+02  0.45594000000E+02  0.51100000000E-03 0.  1.
         11   -1    0    0    0    0 -0.00000000000E+00 -0.00000000000E+00 -0.45593999997E+02  0.45594000000E+02  0.51100000000E-03 0. -1.
    9900012    2    1    2    0    0 -0.85239491892E+01 -0.75693929119E+01 -0.39028364135E+02  0.50528848191E+02  0.29999964560E+02 0.  0.
        -12    1    1    2    0    0  0.85239491892E+01  0.75693929119E+01  0.39028364135E+02  0.40659151809E+02  0.00000000000E+00 0.  1.
         11    1    3    3    0    0 -0.81394882166E+01  0.41949625970E+01 -0.36908706090E+01  0.98727658603E+01  0.51100000000E-03 0. -1.
        -11    1    3    3    0    0 -0.40708117084E+01 -0.41688482112E+01 -0.18390369827E+01  0.61100622467E+01  0.51100000000E-03 0.  1.
         12    1    3    3    0    0  0.36863507359E+01 -0.75955072976E+01 -0.33498456543E+02  0.34546020084E+02  0.00000000000E+00 0. -1.
</event>
<event>
 7    1  0.5935282E-013  0.5052886E+02  0.7816164E-02  0.1300439E+00
        -11   -1    0    0    0    0  0.00000000000E+00  0.00000000000E+00  0.45593999997E+02  0.45594000000E+02  0.51100000000E-03 0. -1.
         11   -1    0    0    0    0 -0.00000000000E+00 -0.00000000000E+00 -0.45593999997E+02  0.45594000000E+02  0.51100000000E-03 0.  1.
    9900012    2    1    2    0    0  0.35501094164E+02 -0.15976986381E+02  0.11729173895E+02  0.50528864484E+02  0.30000014084E+02 0.  0.
        -12    1    1    2    0    0 -0.35501094164E+02  0.15976986381E+02 -0.11729173895E+02  0.40659135516E+02  0.00000000000E+00 0.  1.
         11    1    3    3    0    0  0.25136835049E+02 -0.14679616401E+02  0.19607171503E+02  0.35096905683E+02  0.51100000000E-03 0. -1.
        -11    1    3    3    0    0  0.11878879984E+01  0.14124423152E+01  0.12332689090E+01  0.22196899904E+01  0.51100000000E-03 0.  1.
         12    1    3    3    0    0  0.91763711174E+01 -0.27098122952E+01 -0.91112665169E+01  0.13212268810E+02  0.00000000000E+00 0. -1.
</event>
<event>
 7    1  0.5935282E-013  0.5052883E+02  0.7816164E-02  0.1300439E+00
        -11   -1    0    0    0    0  0.00000000000E+00  0.00000000000E+00  0.45593999997E+02  0.45594000000E+02  0.51100000000E-03 0. -1.
         11   -1    0    0    0    0 -0.00000000000E+00 -0.00000000000E+00 -0.45593999997E+02  0.45594000000E+02  0.51100000000E-03 0.  1.
    9900012    2    1    2    0    0 -0.13728527850E+01  0.40590563522E+02 -0.19208797920E+01  0.50528826976E+02  0.29999900077E+02 0.  0.
        -12    1    1    2    0    0  0.13728527850E+01 -0.40590563522E+02  0.19208797920E+01  0.40659173024E+02  0.00000000000E+00 0.  1.
         11    1    3    3    0    0 -0.71529343899E-01  0.18563229708E+02 -0.87071065890E+01  0.20503958619E+02  0.51100000000E-03 0. -1.
        -11    1    3    3    0    0 -0.35567395541E+01  0.40948658030E+01 -0.58456777650E+01  0.79743508196E+01  0.51100000000E-03 0.  1.
         12    1    3    3    0    0  0.22554161131E+01  0.17932468011E+02  0.12631904562E+02  0.22050517537E+02  0.00000000000E+00 0. -1.
</event>
<event>
 7    1  0.5935282E-013  0.5052887E+02  0.7816164E-02  0.1300439E+00
        -11   -1    0    0    0    0  0.00000000000E+00  0.00000000000E+00  0.45593999997E+02  0.45594000000E+02  0.51100000000E-03 0.  1.
         11   -1    0    0    0    0 -0.00000000000E+00 -0.00000000000E+00 -0.45593999997E+02  0.45594000000E+02  0.51100000000E-03 0. -1.
    9900012    2    1    2    0    0  0.62797987677E+01  0.36633047099E+02 -0.16484795674E+02  0.50528874324E+02  0.30000043995E+02 0.  0.
        -12    1    1    2    0    0 -0.62797987677E+01 -0.36633047099E+02  0.16484795674E+02  0.40659125676E+02  0.00000000000E+00 0.  1.
         11    1    3    3    0    0  0.14951648379E+01  0.60203595331E+01  0.64918660682E+01  0.89791186711E+01  0.51100000000E-03 0. -1.
        -11    1    3    3    0    0  0.57851609135E+01  0.10449751618E+02 -0.14400352200E+01  0.12030756309E+02  0.51100000000E-03 0.  1.
         12    1    3    3    0    0 -0.10005269837E+01  0.20162935948E+02 -0.21536626522E+02  0.29518999344E+02  0.00000000000E+00 0. -1.
</event>
<event>
 7    1  0.5935282E-013  0.5052886E+02  0.7816164E-02  0.1300439E+00
        -11   -1    0    0    0    0  0.00000000000E+00  0.00000000000E+00  0.45593999997E+02  0.45594000000E+02  0.51100000000E-03 0. -1.
         11   -1    0    0    0    0 -0.00000000000E+00 -0.00000000000E+00 -0.45593999997E+02  0.45594000000E+02  0.51100000000E-03 0.  1.
    9900012    2    1    2    0    0 -0.16246322439E+02  0.23516981671E+02  0.28916674351E+02  0.50528862340E+02  0.30000007569E+02 0.  0.
        -12    1    1    2    0    0  0.16246322439E+02 -0.23516981671E+02 -0.28916674351E+02  0.40659137660E+02  0.00000000000E+00 0.  1.
         11    1    3    3    0    0  0.15278389733E+00  0.88413590725E+01  0.30398483516E+01  0.93505963142E+01  0.51100000000E-03 0. -1.
        -11    1    3    3    0    0 -0.95225468794E+01  0.17204239218E+02  0.27369576190E+02  0.33701015522E+02  0.51100000000E-03 0.  1.
        -12    1    3    3    0    0 -0.68765594570E+01 -0.25286166189E+01 -0.14927501907E+01  0.74772505042E+01  0.00000000000E+00 0.  1.
</event>
<event>
 7    1  0.5935282E-013  0.5052887E+02  0.7816164E-02  0.1300439E+00
        -11   -1    0    0    0    0  0.00000000000E+00  0.00000000000E+00  0.45593999997E+02  0.45594000000E+02  0.51100000000E-03 0. -1.
         11   -1    0    0    0    0 -0.00000000000E+00 -0.00000000000E+00 -0.45593999997E+02  0.45594000000E+02  0.51100000000E-03 0.  1.
    9900012    2    1    2    0    0 -0.33324935283E+02  0.19174497044E+02  0.13226938052E+02  0.50528873857E+02  0.30000042574E+02 0.  0.
        -12    1    1    2    0    0  0.33324935283E+02 -0.19174497044E+02 -0.13226938052E+02  0.40659126143E+02  0.00000000000E+00 0.  1.
         11    1    3    3    0    0 -0.22071482788E+02  0.19635980386E+02  0.30961611944E+01  0.29703674731E+02  0.51100000000E-03 0. -1.
        -11    1    3    3    0    0  0.29642140977E+01  0.22455981551E+01  0.22266947653E+01  0.43344487689E+01  0.51100000000E-03 0.  1.
         12    1    3    3    0    0 -0.14217666593E+02 -0.27070814966E+01  0.79040820927E+01  0.16490750356E+02  0.00000000000E+00 0. -1.
</event>
<event>
 7    1  0.5935282E-013  0.5052887E+02  0.7816164E-02  0.1300439E+00
        -11   -1    0    0    0    0  0.00000000000E+00  0.00000000000E+00  0.45593999997E+02  0.45594000000E+02  0.51100000000E-03 0. -1.
         11   -1    0    0    0    0 -0.00000000000E+00 -0.00000000000E+00 -0.45593999997E+02  0.45594000000E+02  0.51100000000E-03 0.  1.
    9900012    2    1    2    0    0  0.40216218459E+02  0.59750814508E+01 -0.34509835484E+00  0.50528869188E+02  0.30000028385E+02 0.  0.
        -12    1    1    2    0    0 -0.40216218459E+02 -0.59750814508E+01  0.34509835484E+00  0.40659130812E+02  0.00000000000E+00 0.  1.
         11    1    3    3    0    0  0.45875891473E+01 -0.47113725025E+01  0.57134014729E+01  0.87112548863E+01  0.51100000000E-03 0. -1.
        -11    1    3    3    0    0  0.15712341274E+02  0.11882613379E+02 -0.89851176092E+01  0.21651940046E+02  0.51100000000E-03 0.  1.
         12    1    3    3    0    0  0.19916288038E+02 -0.11961594260E+01  0.29266177815E+01  0.20165674256E+02  0.00000000000E+00 0. -1.
</event>
<event>
 7    1  0.5935282E-013  0.5052886E+02  0.7816164E-02  0.1300439E+00
        -11   -1    0    0    0    0  0.00000000000E+00  0.00000000000E+00  0.45593999997E+02  0.45594000000E+02  0.51100000000E-03 0. -1.
         11   -1    0    0    0    0 -0.00000000000E+00 -0.00000000000E+00 -0.45593999997E+02  0.45594000000E+02  0.51100000000E-03 0.  1.
    9900012    2    1    2    0    0 -0.29255273450E+02 -0.12827149440E+02  0.25154691674E+02  0.50528864488E+02  0.30000014097E+02 0.  0.
        -12    1    1    2    0    0  0.29255273450E+02  0.12827149440E+02 -0.25154691674E+02  0.40659135512E+02  0.00000000000E+00 0.  1.
         11    1    3    3    0    0 -0.34439251415E+02 -0.11776476051E+02  0.19939027081E+02  0.41500749721E+02  0.51100000000E-03 0. -1.
        -11    1    3    3    0    0  0.15209482998E+01  0.20475493923E+01  0.21383925955E+01  0.33284328743E+01  0.51100000000E-03 0.  1.
        -12    1    3    3    0    0  0.36630296650E+01 -0.30982227813E+01  0.30772719981E+01  0.56996818928E+01  0.00000000000E+00 0.  1.
</event>
<event>
 7    1  0.5935282E-013  0.5052886E+02  0.7816164E-02  0.1300439E+00
        -11   -1    0    0    0    0  0.00000000000E+00  0.00000000000E+00  0.45593999997E+02  0.45594000000E+02  0.51100000000E-03 0.  1.
         11   -1    0    0    0    0 -0.00000000000E+00 -0.00000000000E+00 -0.45593999997E+02  0.45594000000E+02  0.51100000000E-03 0. -1.
    9900012    2    1    2    0    0 -0.44913173379E+01 -0.36911902870E+02 -0.16447047559E+02  0.50528857384E+02  0.29999992504E+02 0.  0.
        -12    1    1    2    0    0  0.44913173379E+01  0.36911902870E+02  0.16447047559E+02  0.40659142616E+02  0.00000000000E+00 0.  1.
         11    1    3    3    0    0 -0.99331833830E+01 -0.22548480939E+02 -0.20632469384E+02  0.32137220133E+02  0.51100000000E-03 0. -1.
        -11    1    3    3    0    0 -0.18237798191E+01 -0.75657915876E+01  0.56243070690E+00  0.78028010186E+01  0.51100000000E-03 0.  1.
        -12    1    3    3    0    0  0.72656458641E+01 -0.67976303432E+01  0.36229911179E+01  0.10588836232E+02  0.00000000000E+00 0.  1.
</event>
<event>
 7    1  0.5935282E-013  0.5052886E+02  0.7816164E-02  0.1300439E+00
        -11   -1    0    0    0    0  0.00000000000E+00  0.00000000000E+00  0.45593999997E+02  0.45594000000E+02  0.51100000000E-03 0.  1.
         11   -1    0    0    0    0 -0.00000000000E+00 -0.00000000000E+00 -0.45593999997E+02  0.45594000000E+02  0.51100000000E-03 0. -1.
    9900012    2    1    2    0    0 -0.30638256147E+02  0.22554316615E+02 -0.14344533987E+02  0.50528860892E+02  0.30000003166E+02 0.  0.
        -12    1    1    2    0    0  0.30638256147E+02 -0.22554316615E+02  0.14344533987E+02  0.40659139108E+02  0.00000000000E+00 0.  1.
         11    1    3    3    0    0 -0.10347631889E+02  0.39453495244E+01  0.50482454984E+01  0.12170622476E+02  0.51100000000E-03 0. -1.
        -11    1    3    3    0    0 -0.64656016874E+00  0.39931948119E+01  0.31106714729E+01  0.51029326990E+01  0.51100000000E-03 0.  1.
         12    1    3    3    0    0 -0.19644064090E+02  0.14615772279E+02 -0.22503450959E+02  0.33255305717E+02  0.00000000000E+00 0. -1.
</event>
<event>
 7    1  0.5935282E-013  0.5052886E+02  0.7816164E-02  0.1300439E+00
        -11   -1    0    0    0    0  0.00000000000E+00  0.00000000000E+00  0.45593999997E+02  0.45594000000E+02  0.51100000000E-03 0. -1.
         11   -1    0    0    0    0 -0.00000000000E+00 -0.00000000000E+00 -0.45593999997E+02  0.45594000000E+02  0.51100000000E-03 0.  1.
    9900012    2    1    2    0    0  0.11835786697E+02 -0.38813210857E+02  0.25719416546E+01  0.50528855055E+02  0.29999985426E+02 0.  0.
        -12    1    1    2    0    0 -0.11835786697E+02  0.38813210857E+02 -0.25719416546E+01  0.40659144945E+02  0.00000000000E+00 0.  1.
         11    1    3    3    0    0  0.45446454324E+01  0.14765120540E+01  0.29723850229E+01  0.56275183640E+01  0.51100000000E-03 0. -1.
        -11    1    3    3    0    0  0.97091427000E+01 -0.32288350428E+02 -0.67734770589E+01  0.34390187802E+02  0.51100000000E-03 0.  1.
         12    1    3    3    0    0 -0.24180014353E+01 -0.80013724834E+01  0.63730336906E+01  0.10511148890E+02  0.00000000000E+00 0. -1.
</event>
<event>
 7    1  0.5935282E-013  0.5052886E+02  0.7816164E-02  0.1300439E+00
        -11   -1    0    0    0    0  0.00000000000E+00  0.00000000000E+00  0.45593999997E+02  0.45594000000E+02  0.51100000000E-03 0.  1.
         11   -1    0    0    0    0 -0.00000000000E+00 -0.00000000000E+00 -0.45593999997E+02  0.45594000000E+02  0.51100000000E-03 0. -1.
    9900012    2    1    2    0    0  0.96211988416E+01  0.10368883887E-01 -0.39504409726E+02  0.50528856349E+02  0.29999989358E+02 0.  0.
        -12    1    1    2    0    0 -0.96211988416E+01 -0.10368883887E-01  0.39504409726E+02  0.40659143651E+02  0.00000000000E+00 0.  1.
         11    1    3    3    0    0  0.79553189668E+01 -0.16738287798E+01 -0.16460011559E+02  0.18358125815E+02  0.51100000000E-03 0. -1.
        -11    1    3    3    0    0  0.22408775005E+01  0.46095442146E+01 -0.26850890104E+02  0.27335686007E+02  0.51100000000E-03 0.  1.
         12    1    3    3    0    0 -0.57499762565E+00 -0.29253465509E+01  0.38064919373E+01  0.48350445273E+01  0.00000000000E+00 0. -1.
</event>
<event>
 7    1  0.5935282E-013  0.5052886E+02  0.7816164E-02  0.1300439E+00
        -11   -1    0    0    0    0  0.00000000000E+00  0.00000000000E+00  0.45593999997E+02  0.45594000000E+02  0.51100000000E-03 0. -1.
         11   -1    0    0    0    0 -0.00000000000E+00 -0.00000000000E+00 -0.45593999997E+02  0.45594000000E+02  0.51100000000E-03 0.  1.
    9900012    2    1    2    0    0 -0.26004545677E+01 -0.28629872832E+02  0.28752976297E+02  0.50528860458E+02  0.30000001847E+02 0.  0.
        -12    1    1    2    0    0  0.26004545677E+01  0.28629872832E+02 -0.28752976297E+02  0.40659139542E+02  0.00000000000E+00 0.  1.
         11    1    3    3    0    0  0.43079869565E+01 -0.24306095082E+02  0.13615421309E+02  0.28190862127E+02  0.51100000000E-03 0. -1.
        -11    1    3    3    0    0 -0.95437412951E+00 -0.87584732230E+01  0.98983369306E+01  0.13251368134E+02  0.51100000000E-03 0.  1.
        -12    1    3    3    0    0 -0.59540673947E+01  0.44346954727E+01  0.52392180576E+01  0.90866301967E+01  0.00000000000E+00 0.  1.
</event>
<event>
 7    1  0.5935282E-013  0.5052883E+02  0.7816164E-02  0.1300439E+00
        -11   -1    0    0    0    0  0.00000000000E+00  0.00000000000E+00  0.45593999997E+02  0.45594000000E+02  0.51100000000E-03 0. -1.
         11   -1    0    0    0    0 -0.00000000000E+00 -0.00000000000E+00 -0.45593999997E+02  0.45594000000E+02  0.51100000000E-03 0.  1.
    9900012    2    1    2    0    0  0.19342755358E+02 -0.18140558836E+02  0.30821191536E+02  0.50528832431E+02  0.29999916656E+02 0.  0.
        -12    1    1    2    0    0 -0.19342755358E+02  0.18140558836E+02 -0.30821191536E+02  0.40659167569E+02  0.00000000000E+00 0.  1.
         11    1    3    3    0    0  0.99586159759E+00 -0.83176125826E+01  0.21965651475E+02  0.23508812484E+02  0.51100000000E-03 0. -1.
        -11    1    3    3    0    0  0.22279879206E+01  0.31306463973E+01 -0.12005344406E+01  0.40256875492E+01  0.51100000000E-03 0.  1.
        -12    1    3    3    0    0  0.16118905840E+02 -0.12953592651E+02  0.10056074501E+02  0.22994332398E+02  0.00000000000E+00 0.  1.
</event>
<event>
 7    1  0.5935282E-013  0.5052885E+02  0.7816164E-02  0.1300439E+00
        -11   -1    0    0    0    0  0.00000000000E+00  0.00000000000E+00  0.45593999997E+02  0.45594000000E+02  0.51100000000E-03 0.  1.
         11   -1    0    0    0    0 -0.00000000000E+00 -0.00000000000E+00 -0.45593999997E+02  0.45594000000E+02  0.51100000000E-03 0. -1.
    9900012    2    1    2    0    0 -0.75361414631E+01 -0.18200466201E+02 -0.35568473393E+02  0.50528847308E+02  0.29999961878E+02 0.  0.
        -12    1    1    2    0    0  0.75361414631E+01  0.18200466201E+02  0.35568473393E+02  0.40659152692E+02  0.00000000000E+00 0.  1.
         11    1    3    3    0    0  0.55499563113E+01 -0.10641067074E+02 -0.13597352461E+02  0.18136215640E+02  0.51100000000E-03 0. -1.
        -11    1    3    3    0    0 -0.11847584815E+02 -0.88069550044E+01 -0.53854083988E+01  0.15714017509E+02  0.51100000000E-03 0.  1.
         12    1    3    3    0    0 -0.12385129592E+01  0.12475558770E+01 -0.16585712533E+02  0.16678614159E+02  0.00000000000E+00 0. -1.
</event>
<event>
 7    1  0.5935282E-013  0.5052886E+02  0.7816164E-02  0.1300439E+00
        -11   -1    0    0    0    0  0.00000000000E+00  0.00000000000E+00  0.45593999997E+02  0.45594000000E+02  0.51100000000E-03 0.  1.
         11   -1    0    0    0    0 -0.00000000000E+00 -0.00000000000E+00 -0.45593999997E+02  0.45594000000E+02  0.51100000000E-03 0. -1.
    9900012    2    1    2    0    0 -0.21265328460E+02  0.18320572439E+02 -0.29416113972E+02  0.50528864123E+02  0.30000012989E+02 0.  0.
        -12    1    1    2    0    0  0.21265328460E+02 -0.18320572439E+02  0.29416113972E+02  0.40659135877E+02  0.00000000000E+00 0.  1.
         11    1    3    3    0    0 -0.11956118457E+02  0.10801212366E+02 -0.24921757354E+02  0.29676740843E+02  0.51100000000E-03 0. -1.
        -11    1    3    3    0    0 -0.81542654946E+01  0.10002080327E+02 -0.88920003850E+01  0.15671672781E+02  0.51100000000E-03 0.  1.
        -12    1    3    3    0    0 -0.11549445084E+01 -0.24827202548E+01  0.43976437670E+01  0.51804505000E+01  0.00000000000E+00 0.  1.
</event>
<event>
 7    1  0.5935282E-013  0.5052886E+02  0.7816164E-02  0.1300439E+00
        -11   -1    0    0    0    0  0.00000000000E+00  0.00000000000E+00  0.45593999997E+02  0.45594000000E+02  0.51100000000E-03 0.  1.
         11   -1    0    0    0    0 -0.00000000000E+00 -0.00000000000E+00 -0.45593999997E+02  0.45594000000E+02  0.51100000000E-03 0. -1.
    9900012    2    1    2    0    0 -0.52685034900E+00  0.12596778924E+02 -0.38655003039E+02  0.50528859939E+02  0.30000000270E+02 0.  0.
        -12    1    1    2    0    0  0.52685034900E+00 -0.12596778924E+02  0.38655003039E+02  0.40659140061E+02  0.00000000000E+00 0.  1.
         11    1    3    3    0    0 -0.73805027858E+01  0.10268470602E+01 -0.15751606597E+02  0.17425250268E+02  0.51100000000E-03 0. -1.
        -11    1    3    3    0    0 -0.58631004239E+01  0.57025101935E+01 -0.28856357046E+01  0.86730307718E+01  0.51100000000E-03 0.  1.
        -12    1    3    3    0    0  0.12716752861E+02  0.58674216699E+01 -0.20017760738E+02  0.24430578899E+02  0.00000000000E+00 0.  1.
</event>
<event>
 7    1  0.5935282E-013  0.5052878E+02  0.7816164E-02  0.1300439E+00
        -11   -1    0    0    0    0  0.00000000000E+00  0.00000000000E+00  0.45593999997E+02  0.45594000000E+02  0.51100000000E-03 0. -1.
         11   -1    0    0    0    0 -0.00000000000E+00 -0.00000000000E+00 -0.45593999997E+02  0.45594000000E+02  0.51100000000E-03 0.  1.
    9900012    2    1    2    0    0  0.38389419569E+02 -0.12234688904E+02  0.54531795865E+01  0.50528778229E+02  0.29999751904E+02 0.  0.
        -12    1    1    2    0    0 -0.38389419569E+02  0.12234688904E+02 -0.54531795865E+01  0.40659221771E+02  0.00000000000E+00 0.  1.
         11    1    3    3    0    0  0.11428328503E+01 -0.31942995892E+01 -0.27737568665E+01  0.43821620469E+01  0.51100000000E-03 0. -1.
        -11    1    3    3    0    0  0.10824974122E+01 -0.61399036854E+01 -0.45108021260E+01  0.76952942760E+01  0.51100000000E-03 0.  1.
         12    1    3    3    0    0  0.36164089306E+02 -0.29004856298E+01  0.12737738579E+02  0.38451321906E+02  0.00000000000E+00 0. -1.
</event>
<event>
 7    1  0.5935282E-013  0.5052885E+02  0.7816164E-02  0.1300439E+00
        -11   -1    0    0    0    0  0.00000000000E+00  0.00000000000E+00  0.45593999997E+02  0.45594000000E+02  0.51100000000E-03 0.  1.
         11   -1    0    0    0    0 -0.00000000000E+00 -0.00000000000E+00 -0.45593999997E+02  0.45594000000E+02  0.51100000000E-03 0. -1.
    9900012    2    1    2    0    0  0.28697310063E+02  0.34767161280E+01 -0.28592712075E+02  0.50528851661E+02  0.29999975107E+02 0.  0.
        -12    1    1    2    0    0 -0.28697310063E+02 -0.34767161280E+01  0.28592712075E+02  0.40659148339E+02  0.00000000000E+00 0.  1.
         11    1    3    3    0    0  0.12070110161E+02  0.27362659680E+01 -0.26402005725E+02  0.29158885735E+02  0.51100000000E-03 0. -1.
        -11    1    3    3    0    0 -0.18030508314E+01  0.13203750270E+01  0.13255019251E+01  0.25983337213E+01  0.51100000000E-03 0.  1.
         12    1    3    3    0    0  0.18430250734E+02 -0.57992486695E+00 -0.35162082744E+01  0.18771632204E+02  0.00000000000E+00 0. -1.
</event>
<event>
 7    1  0.5935282E-013  0.5052883E+02  0.7816164E-02  0.1300439E+00
        -11   -1    0    0    0    0  0.00000000000E+00  0.00000000000E+00  0.45593999997E+02  0.45594000000E+02  0.51100000000E-03 0. -1.
         11   -1    0    0    0    0 -0.00000000000E+00 -0.00000000000E+00 -0.45593999997E+02  0.45594000000E+02  0.51100000000E-03 0.  1.
    9900012    2    1    2    0    0  0.16212232802E+02 -0.22359999514E+02  0.29838939739E+02  0.50528826429E+02  0.29999898414E+02 0.  0.
        -12    1    1    2    0    0 -0.16212232802E+02  0.22359999514E+02 -0.29838939739E+02  0.40659173571E+02  0.00000000000E+00 0.  1.
         11    1    3    3    0    0  0.15303207924E+02 -0.17469511333E+02  0.14343841671E+02  0.27296845846E+02  0.51100000000E-03 0. -1.
        -11    1    3    3    0    0  0.63322166426E+01  0.29057101404E+01  0.10218536440E+02  0.12367643521E+02  0.51100000000E-03 0.  1.
        -12    1    3    3    0    0 -0.54231917651E+01 -0.77961983217E+01  0.52765616289E+01  0.10864337063E+02  0.00000000000E+00 0.  1.
</event>
<event>
 7    1  0.5935282E-013  0.5052884E+02  0.7816164E-02  0.1300439E+00
        -11   -1    0    0    0    0  0.00000000000E+00  0.00000000000E+00  0.45593999997E+02  0.45594000000E+02  0.51100000000E-03 0.  1.
         11   -1    0    0    0    0 -0.00000000000E+00 -0.00000000000E+00 -0.45593999997E+02  0.45594000000E+02  0.51100000000E-03 0. -1.
    9900012    2    1    2    0    0  0.28056307947E+02  0.18847296032E+02 -0.22600666722E+02  0.50528842119E+02  0.29999946104E+02 0.  0.
        -12    1    1    2    0    0 -0.28056307947E+02 -0.18847296032E+02  0.22600666722E+02  0.40659157881E+02  0.00000000000E+00 0.  1.
         11    1    3    3    0    0 -0.28096705584E+01  0.22994861167E+01 -0.25522527361E+00  0.36396463082E+01  0.51100000000E-03 0. -1.
        -11    1    3    3    0    0  0.10544515335E+01  0.10400593114E+02 -0.32113190244E+01  0.10936031058E+02  0.51100000000E-03 0.  1.
         12    1    3    3    0    0  0.29811526972E+02  0.61472168015E+01 -0.19134122423E+02  0.35953164753E+02  0.00000000000E+00 0. -1.
</event>
<event>
 7    1  0.5935282E-013  0.5052889E+02  0.7816164E-02  0.1300439E+00
        -11   -1    0    0    0    0  0.00000000000E+00  0.00000000000E+00  0.45593999997E+02  0.45594000000E+02  0.51100000000E-03 0. -1.
         11   -1    0    0    0    0 -0.00000000000E+00 -0.00000000000E+00 -0.45593999997E+02  0.45594000000E+02  0.51100000000E-03 0.  1.
    9900012    2    1    2    0    0  0.16979930347E+02 -0.36930356914E+02  0.99708972333E+00  0.50528886824E+02  0.30000081989E+02 0.  0.
        -12    1    1    2    0    0 -0.16979930347E+02  0.36930356914E+02 -0.99708972333E+00  0.40659113176E+02  0.00000000000E+00 0.  1.
         11    1    3    3    0    0 -0.46696765609E+01 -0.80127476343E-01 -0.25804903067E+00  0.46774874836E+01  0.51100000000E-03 0. -1.
        -11    1    3    3    0    0 -0.17836685007E+01 -0.98824044518E+01 -0.73950284465E+00  0.10069272853E+02  0.51100000000E-03 0.  1.
         12    1    3    3    0    0  0.23433275409E+02 -0.26967824985E+02  0.19946415986E+01  0.35782126487E+02  0.00000000000E+00 0. -1.
</event>
<event>
 7    1  0.5935282E-013  0.5052880E+02  0.7816164E-02  0.1300439E+00
        -11   -1    0    0    0    0  0.00000000000E+00  0.00000000000E+00  0.45593999997E+02  0.45594000000E+02  0.51100000000E-03 0.  1.
         11   -1    0    0    0    0 -0.00000000000E+00 -0.00000000000E+00 -0.45593999997E+02  0.45594000000E+02  0.51100000000E-03 0. -1.
    9900012    2    1    2    0    0  0.22763430419E+02 -0.11558612454E+02 -0.31644823695E+02  0.50528804816E+02  0.29999832719E+02 0.  0.
        -12    1    1    2    0    0 -0.22763430419E+02  0.11558612454E+02  0.31644823695E+02  0.40659195184E+02  0.00000000000E+00 0.  1.
         11    1    3    3    0    0  0.25376351460E+01  0.24145034510E+01 -0.12020853402E+02  0.12520796133E+02  0.51100000000E-03 0. -1.
        -11    1    3    3    0    0  0.54515987369E+01  0.55503188299E+01 -0.26608457391E+01  0.82222909344E+01  0.51100000000E-03 0.  1.
         12    1    3    3    0    0  0.14774196536E+02 -0.19523434735E+02 -0.16963124555E+02  0.29785717748E+02  0.00000000000E+00 0. -1.
</event>
<event>
 7    1  0.5935282E-013  0.5052885E+02  0.7816164E-02  0.1300439E+00
        -11   -1    0    0    0    0  0.00000000000E+00  0.00000000000E+00  0.45593999997E+02  0.45594000000E+02  0.51100000000E-03 0.  1.
         11   -1    0    0    0    0 -0.00000000000E+00 -0.00000000000E+00 -0.45593999997E+02  0.45594000000E+02  0.51100000000E-03 0. -1.
    9900012    2    1    2    0    0  0.32314174679E+02 -0.58011071354E+00 -0.24670302491E+02  0.50528852952E+02  0.29999979034E+02 0.  0.
        -12    1    1    2    0    0 -0.32314174679E+02  0.58011071354E+00  0.24670302491E+02  0.40659147048E+02  0.00000000000E+00 0.  1.
         11    1    3    3    0    0 -0.91764676407E+00 -0.70419874272E+00 -0.38185617421E+01  0.39899104617E+01  0.51100000000E-03 0. -1.
        -11    1    3    3    0    0  0.54006651815E+01  0.25657661094E+01 -0.17387617776E+02  0.18386940809E+02  0.51100000000E-03 0.  1.
         12    1    3    3    0    0  0.27831156262E+02 -0.24416780802E+01 -0.34641229729E+01  0.28152001682E+02  0.00000000000E+00 0. -1.
</event>
<event>
 7    1  0.5935282E-013  0.5052882E+02  0.7816164E-02  0.1300439E+00
        -11   -1    0    0    0    0  0.00000000000E+00  0.00000000000E+00  0.45593999997E+02  0.45594000000E+02  0.51100000000E-03 0.  1.
         11   -1    0    0    0    0 -0.00000000000E+00 -0.00000000000E+00 -0.45593999997E+02  0.45594000000E+02  0.51100000000E-03 0. -1.
    9900012    2    1    2    0    0 -0.31151143885E+02  0.20030501000E+02  0.16779567570E+02  0.50528823625E+02  0.29999889889E+02 0.  0.
        -12    1    1    2    0    0  0.31151143885E+02 -0.20030501000E+02 -0.16779567570E+02  0.40659176375E+02  0.00000000000E+00 0.  1.
         11    1    3    3    0    0 -0.10245190513E+02  0.70575524695E+01  0.15065254336E+01  0.12531663683E+02  0.51100000000E-03 0. -1.
        -11    1    3    3    0    0 -0.10809796110E+02  0.13594538193E+02 -0.24997742231E+01  0.17547422376E+02  0.51100000000E-03 0.  1.
         12    1    3    3    0    0 -0.10096157262E+02 -0.62158966231E+00  0.17772816359E+02  0.20449737566E+02  0.00000000000E+00 0. -1.
</event>
<event>
 7    1  0.5935282E-013  0.5052886E+02  0.7816164E-02  0.1300439E+00
        -11   -1    0    0    0    0  0.00000000000E+00  0.00000000000E+00  0.45593999997E+02  0.45594000000E+02  0.51100000000E-03 0.  1.
         11   -1    0    0    0    0 -0.00000000000E+00 -0.00000000000E+00 -0.45593999997E+02  0.45594000000E+02  0.51100000000E-03 0. -1.
    9900012    2    1    2    0    0 -0.23290776146E+02 -0.20896197567E+02 -0.25962549262E+02  0.50528864613E+02  0.30000014478E+02 0.  0.
        -12    1    1    2    0    0  0.23290776146E+02  0.20896197567E+02  0.25962549262E+02  0.40659135387E+02  0.00000000000E+00 0.  1.
         11    1    3    3    0    0 -0.10835071471E+01 -0.93032998273E+01 -0.97920813905E+01  0.13550285371E+02  0.51100000000E-03 0. -1.
        -11    1    3    3    0    0  0.38351914944E+01 -0.51615966132E+01 -0.30690628278E+01  0.71253014181E+01  0.51100000000E-03 0.  1.
         12    1    3    3    0    0 -0.26042460493E+02 -0.64313011264E+01 -0.13101405044E+02  0.29853277824E+02  0.00000000000E+00 0. -1.
</event>
<event>
 7    1  0.5935282E-013  0.5052886E+02  0.7816164E-02  0.1300439E+00
        -11   -1    0    0    0    0  0.00000000000E+00  0.00000000000E+00  0.45593999997E+02  0.45594000000E+02  0.51100000000E-03 0.  1.
         11   -1    0    0    0    0 -0.00000000000E+00 -0.00000000000E+00 -0.45593999997E+02  0.45594000000E+02  0.51100000000E-03 0. -1.
    9900012    2    1    2    0    0  0.31342018378E+02 -0.12298342171E+02 -0.22794604594E+02  0.50528864067E+02  0.30000012819E+02 0.  0.
        -12    1    1    2    0    0 -0.31342018378E+02  0.12298342171E+02  0.22794604594E+02  0.40659135933E+02  0.00000000000E+00 0.  1.
         11    1    3    3    0    0  0.60507767595E+01 -0.81092210784E+01 -0.44955383992E+01  0.11071640874E+02  0.51100000000E-03 0. -1.
        -11    1    3    3    0    0  0.14401820634E+02 -0.13839700583E+02 -0.74924368428E+01  0.21332753219E+02  0.51100000000E-03 0.  1.
        -12    1    3    3    0    0  0.10889420985E+02  0.96505794904E+01 -0.10806629352E+02  0.18124469974E+02  0.00000000000E+00 0.  1.
</event>
<event>
 7    1  0.5935282E-013  0.5052887E+02  0.7816164E-02  0.1300439E+00
        -11   -1    0    0    0    0  0.00000000000E+00  0.00000000000E+00  0.45593999997E+02  0.45594000000E+02  0.51100000000E-03 0. -1.
         11   -1    0    0    0    0 -0.00000000000E+00 -0.00000000000E+00 -0.45593999997E+02  0.45594000000E+02  0.51100000000E-03 0.  1.
    9900012    2    1    2    0    0 -0.25878669559E+02 -0.29379621930E+02 -0.10968022916E+02  0.50528865115E+02  0.30000016004E+02 0.  0.
        -12    1    1    2    0    0  0.25878669559E+02  0.29379621930E+02  0.10968022916E+02  0.40659134885E+02  0.00000000000E+00 0.  1.
         11    1    3    3    0    0 -0.18557964181E+02 -0.77853272267E+01  0.35103253954E+01  0.20428698911E+02  0.51100000000E-03 0. -1.
        -11    1    3    3    0    0 -0.45785995507E+00 -0.90750564440E+01  0.88219400488E+00  0.91293237277E+01  0.51100000000E-03 0.  1.
         12    1    3    3    0    0 -0.68628454226E+01 -0.12519238259E+02 -0.15360542317E+02  0.20970842476E+02  0.00000000000E+00 0. -1.
</event>
<event>
 7    1  0.5935282E-013  0.5052886E+02  0.7816164E-02  0.1300439E+00
        -11   -1    0    0    0    0  0.00000000000E+00  0.00000000000E+00  0.45593999997E+02  0.45594000000E+02  0.51100000000E-03 0.  1.
         11   -1    0    0    0    0 -0.00000000000E+00 -0.00000000000E+00 -0.45593999997E+02  0.45594000000E+02  0.51100000000E-03 0. -1.
    9900012    2    1    2    0    0 -0.35765555008E+02  0.15436907361E+02 -0.11648718725E+02  0.50528859800E+02  0.29999999847E+02 0.  0.
        -12    1    1    2    0    0  0.35765555008E+02 -0.15436907361E+02  0.11648718725E+02  0.40659140200E+02  0.00000000000E+00 0.  1.
         11    1    3    3    0    0 -0.15264384760E+02 -0.59089562274E+01 -0.25259442439E-01  0.16368196116E+02  0.51100000000E-03 0. -1.
        -11    1    3    3    0    0 -0.22043709285E+01 -0.70957463946E+00  0.13754397624E+01  0.26934331550E+01  0.51100000000E-03 0.  1.
         12    1    3    3    0    0 -0.18296799320E+02  0.22055438228E+02 -0.12998899045E+02  0.31467230528E+02  0.00000000000E+00 0. -1.
</event>
<event>
 7    1  0.5935282E-013  0.5052887E+02  0.7816164E-02  0.1300439E+00
        -11   -1    0    0    0    0  0.00000000000E+00  0.00000000000E+00  0.45593999997E+02  0.45594000000E+02  0.51100000000E-03 0.  1.
         11   -1    0    0    0    0 -0.00000000000E+00 -0.00000000000E+00 -0.45593999997E+02  0.45594000000E+02  0.51100000000E-03 0. -1.
    9900012    2    1    2    0    0  0.57878827182E+01  0.30277039781E+02 -0.26513515924E+02  0.50528865099E+02  0.30000015954E+02 0.  0.
        -12    1    1    2    0    0 -0.57878827182E+01 -0.30277039781E+02  0.26513515924E+02  0.40659134901E+02  0.00000000000E+00 0.  1.
         11    1    3    3    0    0  0.66265578006E+01  0.25729624756E+02 -0.13363035239E+02  0.29740470229E+02  0.51100000000E-03 0.  1.
        -11    1    3    3    0    0  0.14994411821E+01  0.63467220069E+01  0.76265970938E+00  0.65658856360E+01  0.51100000000E-03 0. -1.
         12    1    3    3    0    0 -0.23381162646E+01 -0.17993069818E+01 -0.13913140394E+02  0.14222509233E+02  0.00000000000E+00 0. -1.
</event>
<event>
 7    1  0.5935282E-013  0.5052884E+02  0.7816164E-02  0.1300439E+00
        -11   -1    0    0    0    0  0.00000000000E+00  0.00000000000E+00  0.45593999997E+02  0.45594000000E+02  0.51100000000E-03 0.  1.
         11   -1    0    0    0    0 -0.00000000000E+00 -0.00000000000E+00 -0.45593999997E+02  0.45594000000E+02  0.51100000000E-03 0. -1.
    9900012    2    1    2    0    0 -0.17392345810E+02  0.29459853299E+02 -0.21972498595E+02  0.50528839364E+02  0.29999937730E+02 0.  0.
        -12    1    1    2    0    0  0.17392345810E+02 -0.29459853299E+02  0.21972498595E+02  0.40659160636E+02  0.00000000000E+00 0.  1.
         11    1    3    3    0    0 -0.73130766729E+01  0.12742101340E+01 -0.93557387320E+01  0.11942970710E+02  0.51100000000E-03 0. -1.
        -11    1    3    3    0    0 -0.15273186184E+01 -0.33297834020E+01 -0.23604095157E+01  0.43579459622E+01  0.51100000000E-03 0.  1.
         12    1    3    3    0    0 -0.85519505182E+01  0.31515426567E+02 -0.10256350347E+02  0.34227922692E+02  0.00000000000E+00 0. -1.
</event>
<event>
 7    1  0.5935282E-013  0.5052889E+02  0.7816164E-02  0.1300439E+00
        -11   -1    0    0    0    0  0.00000000000E+00  0.00000000000E+00  0.45593999997E+02  0.45594000000E+02  0.51100000000E-03 0.  1.
         11   -1    0    0    0    0 -0.00000000000E+00 -0.00000000000E+00 -0.45593999997E+02  0.45594000000E+02  0.51100000000E-03 0. -1.
    9900012    2    1    2    0    0 -0.12462184984E+02 -0.20440211562E+02 -0.32864192059E+02  0.50528887578E+02  0.30000084282E+02 0.  0.
        -12    1    1    2    0    0  0.12462184984E+02  0.20440211562E+02  0.32864192059E+02  0.40659112422E+02  0.00000000000E+00 0.  1.
         11    1    3    3    0    0  0.14079253812E+01 -0.88420976146E+01 -0.65371433545E+01  0.11085990601E+02  0.51100000000E-03 0. -1.
        -11    1    3    3    0    0 -0.16686860707E+02 -0.14959335380E+02 -0.14158945874E+02  0.26508654885E+02  0.51100000000E-03 0.  1.
        -12    1    3    3    0    0  0.28167503424E+01  0.33612214329E+01 -0.12168102830E+02  0.12934242092E+02  0.00000000000E+00 0.  1.
</event>
<event>
 7    1  0.5935282E-013  0.5052884E+02  0.7816164E-02  0.1300439E+00
        -11   -1    0    0    0    0  0.00000000000E+00  0.00000000000E+00  0.45593999997E+02  0.45594000000E+02  0.51100000000E-03 0.  1.
         11   -1    0    0    0    0 -0.00000000000E+00 -0.00000000000E+00 -0.45593999997E+02  0.45594000000E+02  0.51100000000E-03 0. -1.
    9900012    2    1    2    0    0 -0.75719885403E+01  0.15701965757E+02 -0.36732553001E+02  0.50528841265E+02  0.29999943509E+02 0.  0.
        -12    1    1    2    0    0  0.75719885403E+01 -0.15701965757E+02  0.36732553001E+02  0.40659158735E+02  0.00000000000E+00 0.  1.
         11    1    3    3    0    0 -0.95257875699E+01  0.81982429749E+01 -0.19009509095E+02  0.22788445603E+02  0.51100000000E-03 0. -1.
        -11    1    3    3    0    0 -0.63131474284E+01  0.10434207337E+02 -0.77059208494E+01  0.14426008790E+02  0.51100000000E-03 0.  1.
         12    1    3    3    0    0  0.82669464581E+01 -0.29304845543E+01 -0.10017123056E+02  0.13314386872E+02  0.00000000000E+00 0. -1.
</event>
<event>
 7    1  0.5935282E-013  0.5052884E+02  0.7816164E-02  0.1300439E+00
        -11   -1    0    0    0    0  0.00000000000E+00  0.00000000000E+00  0.45593999997E+02  0.45594000000E+02  0.51100000000E-03 0.  1.
         11   -1    0    0    0    0 -0.00000000000E+00 -0.00000000000E+00 -0.45593999997E+02  0.45594000000E+02  0.51100000000E-03 0. -1.
    9900012    2    1    2    0    0  0.98296283631E+00 -0.35460365254E+02 -0.19868668141E+02  0.50528835061E+02  0.29999924651E+02 0.  0.
        -12    1    1    2    0    0 -0.98296283631E+00  0.35460365254E+02  0.19868668141E+02  0.40659164939E+02  0.00000000000E+00 0.  1.
         11    1    3    3    0    0  0.75488044091E+01 -0.26138469426E+02 -0.32234697638E+01  0.27396985045E+02  0.51100000000E-03 0. -1.
        -11    1    3    3    0    0 -0.28086182950E+01 -0.57217886901E+01 -0.76362960595E+00  0.64195274731E+01  0.51100000000E-03 0.  1.
        -12    1    3    3    0    0 -0.37572232777E+01 -0.36001071375E+01 -0.15881568771E+02  0.16712322543E+02  0.00000000000E+00 0.  1.
</event>
<event>
 7    1  0.5935282E-013  0.5052879E+02  0.7816164E-02  0.1300439E+00
        -11   -1    0    0    0    0  0.00000000000E+00  0.00000000000E+00  0.45593999997E+02  0.45594000000E+02  0.51100000000E-03 0. -1.
         11   -1    0    0    0    0 -0.00000000000E+00 -0.00000000000E+00 -0.45593999997E+02  0.45594000000E+02  0.51100000000E-03 0.  1.
    9900012    2    1    2    0    0 -0.69457037999E+01 -0.38502233173E+02  0.11068271707E+02  0.50528789491E+02  0.29999786137E+02 0.  0.
        -12    1    1    2    0    0  0.69457037999E+01  0.38502233173E+02 -0.11068271707E+02  0.40659210509E+02  0.00000000000E+00 0.  1.
         11    1    3    3    0    0  0.51872697898E+00  0.53685296922E+00 -0.91979899737E+00  0.11846177637E+01  0.51100000000E-03 0. -1.
        -11    1    3    3    0    0  0.28903896372E+01 -0.17964693988E+01 -0.58528304384E+01  0.67703234012E+01  0.51100000000E-03 0.  1.
         12    1    3    3    0    0 -0.10354820416E+02 -0.37242616744E+02  0.17840901142E+02  0.42573848327E+02  0.00000000000E+00 0. -1.
</event>
<event>
 7    1  0.5935282E-013  0.5052884E+02  0.7816164E-02  0.1300439E+00
        -11   -1    0    0    0    0  0.00000000000E+00  0.00000000000E+00  0.45593999997E+02  0.45594000000E+02  0.51100000000E-03 0. -1.
         11   -1    0    0    0    0 -0.00000000000E+00 -0.00000000000E+00 -0.45593999997E+02  0.45594000000E+02  0.51100000000E-03 0.  1.
    9900012    2    1    2    0    0 -0.13496535804E+01 -0.12668899238E+02  0.38611456392E+02  0.50528841900E+02  0.29999945438E+02 0.  0.
        -12    1    1    2    0    0  0.13496535804E+01  0.12668899238E+02 -0.38611456392E+02  0.40659158100E+02  0.00000000000E+00 0.  1.
         11    1    3    3    0    0 -0.11009736763E+01 -0.13600478906E+02  0.15167304929E+02  0.20401772192E+02  0.51100000000E-03 0. -1.
        -11    1    3    3    0    0 -0.61249341942E+01 -0.64483739176E+01  0.15141022613E+02  0.17559809540E+02  0.51100000000E-03 0.  1.
        -12    1    3    3    0    0  0.58762542901E+01  0.73799535858E+01  0.83031288505E+01  0.12567260168E+02  0.00000000000E+00 0.  1.
</event>
<event>
 7    1  0.5935282E-013  0.5052886E+02  0.7816164E-02  0.1300439E+00
        -11   -1    0    0    0    0  0.00000000000E+00  0.00000000000E+00  0.45593999997E+02  0.45594000000E+02  0.51100000000E-03 0. -1.
         11   -1    0    0    0    0 -0.00000000000E+00 -0.00000000000E+00 -0.45593999997E+02  0.45594000000E+02  0.51100000000E-03 0.  1.
    9900012    2    1    2    0    0 -0.30874464907E+02 -0.63857669554E+01  0.25674013288E+02  0.50528861283E+02  0.30000004356E+02 0.  0.
        -12    1    1    2    0    0  0.30874464907E+02  0.63857669554E+01 -0.25674013288E+02  0.40659138717E+02  0.00000000000E+00 0.  1.
         11    1    3    3    0    0 -0.13126852376E+02  0.13925721340E+01  0.13243323257E+02  0.18698639566E+02  0.51100000000E-03 0. -1.
        -11    1    3    3    0    0  0.74717031811E+00 -0.54397885090E+01  0.11984904075E+02  0.13182848268E+02  0.51100000000E-03 0.  1.
         12    1    3    3    0    0 -0.18494782848E+02 -0.23385505804E+01  0.44578595576E+00  0.18647373449E+02  0.00000000000E+00 0. -1.
</event>
<event>
 7    1  0.5935282E-013  0.5052884E+02  0.7816164E-02  0.1300439E+00
        -11   -1    0    0    0    0  0.00000000000E+00  0.00000000000E+00  0.45593999997E+02  0.45594000000E+02  0.51100000000E-03 0.  1.
         11   -1    0    0    0    0 -0.00000000000E+00 -0.00000000000E+00 -0.45593999997E+02  0.45594000000E+02  0.51100000000E-03 0. -1.
    9900012    2    1    2    0    0  0.32990367808E+02 -0.13674652789E+02 -0.19437263217E+02  0.50528835001E+02  0.29999924470E+02 0.  0.
        -12    1    1    2    0    0 -0.32990367808E+02  0.13674652789E+02  0.19437263217E+02  0.40659164999E+02  0.00000000000E+00 0.  1.
         11    1    3    3    0    0  0.72906960448E+01 -0.39313179566E+01  0.45212305325E+01  0.94366856196E+01  0.51100000000E-03 0. -1.
        -11    1    3    3    0    0  0.12316748086E+02  0.24930065889E+00 -0.54413764466E+00  0.12331282183E+02  0.51100000000E-03 0.  1.
         12    1    3    3    0    0  0.13382923677E+02 -0.99926354912E+01 -0.23414356105E+02  0.28760867199E+02  0.00000000000E+00 0. -1.
</event>
<event>
 7    1  0.5935282E-013  0.5052887E+02  0.7816164E-02  0.1300439E+00
        -11   -1    0    0    0    0  0.00000000000E+00  0.00000000000E+00  0.45593999997E+02  0.45594000000E+02  0.51100000000E-03 0.  1.
         11   -1    0    0    0    0 -0.00000000000E+00 -0.00000000000E+00 -0.45593999997E+02  0.45594000000E+02  0.51100000000E-03 0. -1.
    9900012    2    1    2    0    0 -0.12032929972E+02 -0.38651181739E+02  0.38025626198E+01  0.50528871430E+02  0.30000035200E+02 0.  0.
        -12    1    1    2    0    0  0.12032929972E+02  0.38651181739E+02 -0.38025626198E+01  0.40659128570E+02  0.00000000000E+00 0.  1.
         11    1    3    3    0    0 -0.66251423746E+01 -0.22893732564E+01 -0.89168879702E+00  0.70660349959E+01  0.51100000000E-03 0. -1.
        -11    1    3    3    0    0 -0.12172792218E+02 -0.11069190077E+02 -0.16135037763E+01  0.16532006353E+02  0.51100000000E-03 0.  1.
        -12    1    3    3    0    0  0.67650046206E+01 -0.25292618406E+02  0.63077551931E+01  0.26930830082E+02  0.00000000000E+00 0.  1.
</event>
<event>
 7    1  0.5935282E-013  0.5052881E+02  0.7816164E-02  0.1300439E+00
        -11   -1    0    0    0    0  0.00000000000E+00  0.00000000000E+00  0.45593999997E+02  0.45594000000E+02  0.51100000000E-03 0.  1.
         11   -1    0    0    0    0 -0.00000000000E+00 -0.00000000000E+00 -0.45593999997E+02  0.45594000000E+02  0.51100000000E-03 0. -1.
    9900012    2    1    2    0    0  0.32991880522E+02 -0.14191373956E+02 -0.19060715123E+02  0.50528805024E+02  0.29999833350E+02 0.  0.
        -12    1    1    2    0    0 -0.32991880522E+02  0.14191373956E+02  0.19060715123E+02  0.40659194976E+02  0.00000000000E+00 0.  1.
         11    1    3    3    0    0  0.60403608237E+01  0.16761467050E+00  0.34157083503E+01  0.69412619425E+01  0.51100000000E-03 0. -1.
        -11    1    3    3    0    0  0.14255027216E+00 -0.69044684500E+01  0.12514255816E+01  0.70184094640E+01  0.51100000000E-03 0.  1.
         12    1    3    3    0    0  0.26808969426E+02 -0.74545201765E+01 -0.23727849055E+02  0.36569133617E+02  0.00000000000E+00 0. -1.
</event>
<event>
 7    1  0.5935282E-013  0.5052886E+02  0.7816164E-02  0.1300439E+00
        -11   -1    0    0    0    0  0.00000000000E+00  0.00000000000E+00  0.45593999997E+02  0.45594000000E+02  0.51100000000E-03 0.  1.
         11   -1    0    0    0    0 -0.00000000000E+00 -0.00000000000E+00 -0.45593999997E+02  0.45594000000E+02  0.51100000000E-03 0. -1.
    9900012    2    1    2    0    0 -0.59507975207E+01 -0.11373924583E+01 -0.40205218998E+02  0.50528864650E+02  0.30000014590E+02 0.  0.
        -12    1    1    2    0    0  0.59507975207E+01  0.11373924583E+01  0.40205218998E+02  0.40659135350E+02  0.00000000000E+00 0.  1.
         11    1    3    3    0    0  0.45652218698E+01 -0.61944011098E+01 -0.25523826672E+02  0.26658536796E+02  0.51100000000E-03 0. -1.
        -11    1    3    3    0    0  0.22643794646E+01  0.45316069454E+01 -0.10428504264E+01  0.51720801560E+01  0.51100000000E-03 0.  1.
        -12    1    3    3    0    0 -0.12780398855E+02  0.52540170613E+00 -0.13638541899E+02  0.18698247698E+02  0.00000000000E+00 0.  1.
</event>
<event>
 7    1  0.5935282E-013  0.5052886E+02  0.7816164E-02  0.1300439E+00
        -11   -1    0    0    0    0  0.00000000000E+00  0.00000000000E+00  0.45593999997E+02  0.45594000000E+02  0.51100000000E-03 0.  1.
         11   -1    0    0    0    0 -0.00000000000E+00 -0.00000000000E+00 -0.45593999997E+02  0.45594000000E+02  0.51100000000E-03 0. -1.
    9900012    2    1    2    0    0 -0.37915051555E+02 -0.82003776903E+01  0.12180657734E+02  0.50528858942E+02  0.29999997241E+02 0.  0.
        -12    1    1    2    0    0  0.37915051555E+02  0.82003776903E+01 -0.12180657734E+02  0.40659141058E+02  0.00000000000E+00 0.  1.
         11    1    3    3    0    0 -0.97364234739E+01 -0.84822940489E+01 -0.11368756221E+01  0.12963014342E+02  0.51100000000E-03 0. -1.
        -11    1    3    3    0    0 -0.94371983059E+01 -0.11427855962E+01 -0.54891080178E+01  0.10977111545E+02  0.51100000000E-03 0.  1.
        -12    1    3    3    0    0 -0.18741429776E+02  0.14247019549E+01  0.18806641374E+02  0.26588733055E+02  0.00000000000E+00 0.  1.
</event>
<event>
 7    1  0.5935282E-013  0.5052886E+02  0.7816164E-02  0.1300439E+00
        -11   -1    0    0    0    0  0.00000000000E+00  0.00000000000E+00  0.45593999997E+02  0.45594000000E+02  0.51100000000E-03 0.  1.
         11   -1    0    0    0    0 -0.00000000000E+00 -0.00000000000E+00 -0.45593999997E+02  0.45594000000E+02  0.51100000000E-03 0. -1.
    9900012    2    1    2    0    0  0.18918999356E+02  0.16903915230E+01 -0.35949678039E+02  0.50528864357E+02  0.30000013699E+02 0.  0.
        -12    1    1    2    0    0 -0.18918999356E+02 -0.16903915230E+01  0.35949678039E+02  0.40659135643E+02  0.00000000000E+00 0.  1.
         11    1    3    3    0    0 -0.67206495094E+01  0.31576318462E+01 -0.12377660060E+02  0.14434134457E+02  0.51100000000E-03 0. -1.
        -11    1    3    3    0    0 -0.54839910115E+00 -0.18876410831E+00  0.28488952863E+00  0.64617007620E+00  0.51100000000E-03 0.  1.
        -12    1    3    3    0    0  0.26188047967E+02 -0.12784762149E+01 -0.23856907508E+02  0.35448559824E+02  0.00000000000E+00 0.  1.
</event>
<event>
 7    1  0.5935282E-013  0.5052886E+02  0.7816164E-02  0.1300439E+00
        -11   -1    0    0    0    0  0.00000000000E+00  0.00000000000E+00  0.45593999997E+02  0.45594000000E+02  0.51100000000E-03 0.  1.
         11   -1    0    0    0    0 -0.00000000000E+00 -0.00000000000E+00 -0.45593999997E+02  0.45594000000E+02  0.51100000000E-03 0. -1.
    9900012    2    1    2    0    0  0.99544572638E+01  0.69323282914E+01 -0.38807440464E+02  0.50528857973E+02  0.29999994295E+02 0.  0.
        -12    1    1    2    0    0 -0.99544572638E+01 -0.69323282914E+01  0.38807440464E+02  0.40659142027E+02  0.00000000000E+00 0.  1.
         11    1    3    3    0    0 -0.99785759850E+00 -0.25087120211E+01 -0.11794946805E+01  0.29462796463E+01  0.51100000000E-03 0. -1.
        -11    1    3    3    0    0 -0.76063841394E+01 -0.37705311000E+00 -0.14272196954E+02  0.16176985346E+02  0.51100000000E-03 0.  1.
         12    1    3    3    0    0  0.18558699002E+02  0.98180934225E+01 -0.23355748830E+02  0.31405592981E+02  0.00000000000E+00 0. -1.
</event>
<event>
 7    1  0.5935282E-013  0.5052886E+02  0.7816164E-02  0.1300439E+00
        -11   -1    0    0    0    0  0.00000000000E+00  0.00000000000E+00  0.45593999997E+02  0.45594000000E+02  0.51100000000E-03 0. -1.
         11   -1    0    0    0    0 -0.00000000000E+00 -0.00000000000E+00 -0.45593999997E+02  0.45594000000E+02  0.51100000000E-03 0.  1.
    9900012    2    1    2    0    0  0.31143462401E+02 -0.14066405748E+02  0.22031489615E+02  0.50528861352E+02  0.30000004565E+02 0.  0.
        -12    1    1    2    0    0 -0.31143462401E+02  0.14066405748E+02 -0.22031489615E+02  0.40659138648E+02  0.00000000000E+00 0.  1.
         11    1    3    3    0    0  0.40739020458E+01  0.17268162846E+01  0.29126749954E+01  0.52973812634E+01  0.51100000000E-03 0. -1.
        -11    1    3    3    0    0  0.60328181349E+01  0.52287223234E+01  0.12390802156E+02  0.14739959637E+02  0.51100000000E-03 0.  1.
         12    1    3    3    0    0  0.21036742220E+02 -0.21021944356E+02  0.67280124634E+01  0.30491520451E+02  0.00000000000E+00 0. -1.
</event>
<event>
 7    1  0.5935282E-013  0.5052885E+02  0.7816164E-02  0.1300439E+00
        -11   -1    0    0    0    0  0.00000000000E+00  0.00000000000E+00  0.45593999997E+02  0.45594000000E+02  0.51100000000E-03 0.  1.
         11   -1    0    0    0    0 -0.00000000000E+00 -0.00000000000E+00 -0.45593999997E+02  0.45594000000E+02  0.51100000000E-03 0. -1.
    9900012    2    1    2    0    0 -0.43017269591E+01 -0.19371249868E+02 -0.35488252086E+02  0.50528853275E+02  0.29999980014E+02 0.  0.
        -12    1    1    2    0    0  0.43017269591E+01  0.19371249868E+02  0.35488252086E+02  0.40659146725E+02  0.00000000000E+00 0.  1.
         11    1    3    3    0    0 -0.21076367439E+01 -0.13236916937E+02 -0.62652410689E+01  0.14795653029E+02  0.51100000000E-03 0. -1.
        -11    1    3    3    0    0 -0.95306058664E+01 -0.78908851037E+01 -0.22256535165E+02  0.25464718214E+02  0.51100000000E-03 0.  1.
        -12    1    3    3    0    0  0.73365156511E+01  0.17565521728E+01 -0.69664758522E+01  0.10268482032E+02  0.00000000000E+00 0.  1.
</event>
<event>
 7    1  0.5935282E-013  0.5052885E+02  0.7816164E-02  0.1300439E+00
        -11   -1    0    0    0    0  0.00000000000E+00  0.00000000000E+00  0.45593999997E+02  0.45594000000E+02  0.51100000000E-03 0. -1.
         11   -1    0    0    0    0 -0.00000000000E+00 -0.00000000000E+00 -0.45593999997E+02  0.45594000000E+02  0.51100000000E-03 0.  1.
    9900012    2    1    2    0    0  0.26790926460E+02 -0.29498530036E+02 -0.80776926125E+01  0.50528854254E+02  0.29999982989E+02 0.  0.
        -12    1    1    2    0    0 -0.26790926460E+02  0.29498530036E+02  0.80776926125E+01  0.40659145746E+02  0.00000000000E+00 0.  1.
         11    1    3    3    0    0  0.23398075917E+02 -0.15196053717E+02  0.23583515714E+01  0.27999139765E+02  0.51100000000E-03 0. -1.
        -11    1    3    3    0    0  0.52157696065E+01 -0.17110135532E+01  0.81050409216E+00  0.55487599617E+01  0.51100000000E-03 0.  1.
        -12    1    3    3    0    0 -0.18229190640E+01 -0.12591462766E+02 -0.11246548276E+02  0.16980954527E+02  0.00000000000E+00 0.  1.
</event>
<event>
 7    1  0.5935282E-013  0.5052882E+02  0.7816164E-02  0.1300439E+00
        -11   -1    0    0    0    0  0.00000000000E+00  0.00000000000E+00  0.45593999997E+02  0.45594000000E+02  0.51100000000E-03 0. -1.
         11   -1    0    0    0    0 -0.00000000000E+00 -0.00000000000E+00 -0.45593999997E+02  0.45594000000E+02  0.51100000000E-03 0.  1.
    9900012    2    1    2    0    0 -0.50602407229E+01 -0.36602384982E+02 -0.16965511601E+02  0.50528816456E+02  0.29999868101E+02 0.  0.
        -12    1    1    2    0    0  0.50602407229E+01  0.36602384982E+02  0.16965511601E+02  0.40659183544E+02  0.00000000000E+00 0.  1.
         11    1    3    3    0    0 -0.25133517990E+01  0.15959234841E+01 -0.10425898360E+01  0.31545051688E+01  0.51100000000E-03 0. -1.
        -11    1    3    3    0    0 -0.80814560500E+01 -0.25097178923E+01 -0.38269581823E+01  0.92873152729E+01  0.51100000000E-03 0.  1.
         12    1    3    3    0    0  0.55345671262E+01 -0.35688590574E+02 -0.12095963582E+02  0.38086996015E+02  0.00000000000E+00 0. -1.
</event>
<event>
 7    1  0.5935282E-013  0.5052886E+02  0.7816164E-02  0.1300439E+00
        -11   -1    0    0    0    0  0.00000000000E+00  0.00000000000E+00  0.45593999997E+02  0.45594000000E+02  0.51100000000E-03 0.  1.
         11   -1    0    0    0    0 -0.00000000000E+00 -0.00000000000E+00 -0.45593999997E+02  0.45594000000E+02  0.51100000000E-03 0. -1.
    9900012    2    1    2    0    0  0.60807162247E+01  0.23349744580E+02  0.32725831288E+02  0.50528859389E+02  0.29999998598E+02 0.  0.
        -12    1    1    2    0    0 -0.60807162247E+01 -0.23349744580E+02 -0.32725831288E+02  0.40659140611E+02  0.00000000000E+00 0.  1.
         11    1    3    3    0    0  0.13753465801E+02  0.11914329420E+02  0.23943706155E+02  0.30073412373E+02  0.51100000000E-03 0. -1.
        -11    1    3    3    0    0  0.61606749815E+00 -0.16768138051E+01  0.37390285518E+01  0.41438603344E+01  0.51100000000E-03 0.  1.
         12    1    3    3    0    0 -0.82888170743E+01  0.13112228965E+02  0.50430965816E+01  0.16311586681E+02  0.00000000000E+00 0. -1.
</event>
<event>
 7    1  0.5935282E-013  0.5052885E+02  0.7816164E-02  0.1300439E+00
        -11   -1    0    0    0    0  0.00000000000E+00  0.00000000000E+00  0.45593999997E+02  0.45594000000E+02  0.51100000000E-03 0.  1.
         11   -1    0    0    0    0 -0.00000000000E+00 -0.00000000000E+00 -0.45593999997E+02  0.45594000000E+02  0.51100000000E-03 0. -1.
    9900012    2    1    2    0    0 -0.24045019055E+02 -0.27382882843E+02 -0.18032777168E+02  0.50528852609E+02  0.29999977991E+02 0.  0.
        -12    1    1    2    0    0  0.24045019055E+02  0.27382882843E+02  0.18032777168E+02  0.40659147391E+02  0.00000000000E+00 0.  1.
         11    1    3    3    0    0 -0.80908963494E+01 -0.23637460143E+02 -0.17272054466E+02  0.30372948350E+02  0.51100000000E-03 0. -1.
        -11    1    3    3    0    0 -0.15548451465E+01 -0.15416270597E+01 -0.45973983466E+01  0.50921733317E+01  0.51100000000E-03 0.  1.
        -12    1    3    3    0    0 -0.14399277559E+02 -0.22037956405E+01  0.38366756443E+01  0.15063730927E+02  0.00000000000E+00 0.  1.
</event>
<event>
 7    1  0.5935282E-013  0.5052885E+02  0.7816164E-02  0.1300439E+00
        -11   -1    0    0    0    0  0.00000000000E+00  0.00000000000E+00  0.45593999997E+02  0.45594000000E+02  0.51100000000E-03 0.  1.
         11   -1    0    0    0    0 -0.00000000000E+00 -0.00000000000E+00 -0.45593999997E+02  0.45594000000E+02  0.51100000000E-03 0. -1.
    9900012    2    1    2    0    0 -0.75710225181E+01  0.17370857892E+01 -0.39910259562E+02  0.50528847681E+02  0.29999963011E+02 0.  0.
        -12    1    1    2    0    0  0.75710225181E+01 -0.17370857892E+01  0.39910259562E+02  0.40659152319E+02  0.00000000000E+00 0.  1.
         11    1    3    3    0    0 -0.68246173297E+01  0.14929424429E+01 -0.19760102882E+02  0.20958672310E+02  0.51100000000E-03 0. -1.
        -11    1    3    3    0    0 -0.11111253248E+02 -0.80291491131E+00 -0.91098998572E+01  0.14390792083E+02  0.51100000000E-03 0.  1.
        -12    1    3    3    0    0  0.10364848060E+02  0.10470582576E+01 -0.11040256822E+02  0.15179383288E+02  0.00000000000E+00 0.  1.
</event>
<event>
 7    1  0.5935282E-013  0.5052886E+02  0.7816164E-02  0.1300439E+00
        -11   -1    0    0    0    0  0.00000000000E+00  0.00000000000E+00  0.45593999997E+02  0.45594000000E+02  0.51100000000E-03 0. -1.
         11   -1    0    0    0    0 -0.00000000000E+00 -0.00000000000E+00 -0.45593999997E+02  0.45594000000E+02  0.51100000000E-03 0.  1.
    9900012    2    1    2    0    0 -0.29239085511E+02 -0.13364066074E+02  0.24892636920E+02  0.50528858883E+02  0.29999997059E+02 0.  0.
        -12    1    1    2    0    0  0.29239085511E+02  0.13364066074E+02 -0.24892636920E+02  0.40659141117E+02  0.00000000000E+00 0.  1.
         11    1    3    3    0    0  0.43837584522E-01  0.19667313269E+01  0.27986125980E+01  0.34208458868E+01  0.51100000000E-03 0. -1.
        -11    1    3    3    0    0 -0.87760137639E+01  0.51921109753E+01  0.13365265849E+02  0.16810912094E+02  0.51100000000E-03 0.  1.
        -12    1    3    3    0    0 -0.20506909332E+02 -0.20522908376E+02  0.87287584735E+01  0.30297100902E+02  0.00000000000E+00 0.  1.
</event>
<event>
 7    1  0.5935282E-013  0.5052885E+02  0.7816164E-02  0.1300439E+00
        -11   -1    0    0    0    0  0.00000000000E+00  0.00000000000E+00  0.45593999997E+02  0.45594000000E+02  0.51100000000E-03 0.  1.
         11   -1    0    0    0    0 -0.00000000000E+00 -0.00000000000E+00 -0.45593999997E+02  0.45594000000E+02  0.51100000000E-03 0. -1.
    9900012    2    1    2    0    0  0.27940250211E+02 -0.23674813913E+02 -0.17663871972E+02  0.50528846434E+02  0.29999959222E+02 0.  0.
        -12    1    1    2    0    0 -0.27940250211E+02  0.23674813913E+02  0.17663871972E+02  0.40659153566E+02  0.00000000000E+00 0.  1.
         11    1    3    3    0    0  0.14616369485E+02 -0.31372226265E+01 -0.64890514483E+01  0.16296877360E+02  0.51100000000E-03 0. -1.
        -11    1    3    3    0    0  0.44494678124E+01  0.20690685361E+01 -0.84791717546E+01  0.97966913969E+01  0.51100000000E-03 0.  1.
        -12    1    3    3    0    0  0.88744129135E+01 -0.22606659823E+02 -0.26956487690E+01  0.24435277678E+02  0.00000000000E+00 0.  1.
</event>
<event>
 7    1  0.5935282E-013  0.5052886E+02  0.7816164E-02  0.1300439E+00
        -11   -1    0    0    0    0  0.00000000000E+00  0.00000000000E+00  0.45593999997E+02  0.45594000000E+02  0.51100000000E-03 0. -1.
         11   -1    0    0    0    0 -0.00000000000E+00 -0.00000000000E+00 -0.45593999997E+02  0.45594000000E+02  0.51100000000E-03 0.  1.
    9900012    2    1    2    0    0  0.21059273652E+02 -0.32105339711E+02 -0.13376085377E+02  0.50528861978E+02  0.30000006468E+02 0.  0.
        -12    1    1    2    0    0 -0.21059273652E+02  0.32105339711E+02  0.13376085377E+02  0.40659138022E+02  0.00000000000E+00 0.  1.
         11    1    3    3    0    0 -0.71253074183E+00  0.23215106282E+01  0.11551557514E+01  0.26891442367E+01  0.51100000000E-03 0. -1.
        -11    1    3    3    0    0  0.14503625561E+02 -0.24012961289E+02 -0.19540714735E+02  0.34187965673E+02  0.51100000000E-03 0.  1.
         12    1    3    3    0    0  0.72681788330E+01 -0.10413889050E+02  0.50094736067E+01  0.13651752068E+02  0.00000000000E+00 0. -1.
</event>
<event>
 7    1  0.5935282E-013  0.5052888E+02  0.7816164E-02  0.1300439E+00
        -11   -1    0    0    0    0  0.00000000000E+00  0.00000000000E+00  0.45593999997E+02  0.45594000000E+02  0.51100000000E-03 0.  1.
         11   -1    0    0    0    0 -0.00000000000E+00 -0.00000000000E+00 -0.45593999997E+02  0.45594000000E+02  0.51100000000E-03 0. -1.
    9900012    2    1    2    0    0 -0.29941569035E+02 -0.32647191611E+01 -0.27313150449E+02  0.50528878823E+02  0.30000057669E+02 0.  0.
        -12    1    1    2    0    0  0.29941569035E+02  0.32647191611E+01  0.27313150449E+02  0.40659121177E+02  0.00000000000E+00 0.  1.
         11    1    3    3    0    0 -0.14228910887E+02  0.23355400943E+01 -0.99972486477E+01  0.17545986246E+02  0.51100000000E-03 0. -1.
        -11    1    3    3    0    0 -0.20997966114E+02 -0.19064847032E+01 -0.15830781351E+02  0.26365942109E+02  0.51100000000E-03 0.  1.
        -12    1    3    3    0    0  0.52853079662E+01 -0.36937745521E+01 -0.14851204503E+01  0.66169504677E+01  0.00000000000E+00 0.  1.
</event>
<event>
 7    1  0.5935282E-013  0.5052889E+02  0.7816164E-02  0.1300439E+00
        -11   -1    0    0    0    0  0.00000000000E+00  0.00000000000E+00  0.45593999997E+02  0.45594000000E+02  0.51100000000E-03 0. -1.
         11   -1    0    0    0    0 -0.00000000000E+00 -0.00000000000E+00 -0.45593999997E+02  0.45594000000E+02  0.51100000000E-03 0.  1.
    9900012    2    1    2    0    0  0.32687024262E+02  0.20344922373E+02 -0.13069259012E+02  0.50528893362E+02  0.30000101864E+02 0.  0.
        -12    1    1    2    0    0 -0.32687024262E+02 -0.20344922373E+02  0.13069259012E+02  0.40659106638E+02  0.00000000000E+00 0.  1.
         11    1    3    3    0    0  0.11096419632E+02 -0.96720954826E+00  0.40093261499E+01  0.11838104553E+02  0.51100000000E-03 0. -1.
        -11    1    3    3    0    0 -0.19353891762E+01 -0.57174330708E-02 -0.38266040350E+01  0.42882003981E+01  0.51100000000E-03 0.  1.
        -12    1    3    3    0    0  0.23525993806E+02  0.21317849354E+02 -0.13251981127E+02  0.34402588412E+02  0.00000000000E+00 0.  1.
</event>
<event>
 7    1  0.5935282E-013  0.5052886E+02  0.7816164E-02  0.1300439E+00
        -11   -1    0    0    0    0  0.00000000000E+00  0.00000000000E+00  0.45593999997E+02  0.45594000000E+02  0.51100000000E-03 0.  1.
         11   -1    0    0    0    0 -0.00000000000E+00 -0.00000000000E+00 -0.45593999997E+02  0.45594000000E+02  0.51100000000E-03 0. -1.
    9900012    2    1    2    0    0 -0.29532970277E+02 -0.17891642627E+02 -0.21467610189E+02  0.50528862079E+02  0.30000006775E+02 0.  0.
        -12    1    1    2    0    0  0.29532970277E+02  0.17891642627E+02  0.21467610189E+02  0.40659137921E+02  0.00000000000E+00 0.  1.
         11    1    3    3    0    0 -0.23651691160E+02 -0.91155145678E+00 -0.43452501652E+01  0.24064800436E+02  0.51100000000E-03 0. -1.
        -11    1    3    3    0    0 -0.82130789773E+01 -0.13089403087E+02 -0.11626536254E+02  0.19338135510E+02  0.51100000000E-03 0.  1.
        -12    1    3    3    0    0  0.23317998598E+01 -0.38906880823E+01 -0.54958237692E+01  0.71259261322E+01  0.00000000000E+00 0.  1.
</event>
<event>
 7    1  0.5935282E-013  0.5052886E+02  0.7816164E-02  0.1300439E+00
        -11   -1    0    0    0    0  0.00000000000E+00  0.00000000000E+00  0.45593999997E+02  0.45594000000E+02  0.51100000000E-03 0.  1.
         11   -1    0    0    0    0 -0.00000000000E+00 -0.00000000000E+00 -0.45593999997E+02  0.45594000000E+02  0.51100000000E-03 0. -1.
    9900012    2    1    2    0    0 -0.11204543977E+02 -0.30259397184E+02 -0.24738494149E+02  0.50528855684E+02  0.29999987338E+02 0.  0.
        -12    1    1    2    0    0  0.11204543977E+02  0.30259397184E+02  0.24738494149E+02  0.40659144316E+02  0.00000000000E+00 0.  1.
         11    1    3    3    0    0  0.55097100827E+00 -0.85469831084E+00 -0.13357449995E-01  0.10169842364E+01  0.51100000000E-03 0. -1.
        -11    1    3    3    0    0  0.22874456645E+01 -0.28031386046E+02 -0.12245173228E+02  0.30674668360E+02  0.51100000000E-03 0.  1.
         12    1    3    3    0    0 -0.14042960650E+02 -0.13733128273E+01 -0.12479963472E+02  0.18837203088E+02  0.00000000000E+00 0. -1.
</event>
<event>
 7    1  0.5935282E-013  0.5052885E+02  0.7816164E-02  0.1300439E+00
        -11   -1    0    0    0    0  0.00000000000E+00  0.00000000000E+00  0.45593999997E+02  0.45594000000E+02  0.51100000000E-03 0.  1.
         11   -1    0    0    0    0 -0.00000000000E+00 -0.00000000000E+00 -0.45593999997E+02  0.45594000000E+02  0.51100000000E-03 0. -1.
    9900012    2    1    2    0    0 -0.33722721941E+01 -0.17374128542E+02 -0.36605105314E+02  0.50528852229E+02  0.29999976836E+02 0.  0.
        -12    1    1    2    0    0  0.33722721941E+01  0.17374128542E+02  0.36605105314E+02  0.40659147771E+02  0.00000000000E+00 0.  1.
         11    1    3    3    0    0 -0.30510595031E+00 -0.86039394614E+01 -0.81241310316E+00  0.86475938392E+01  0.51100000000E-03 0. -1.
        -11    1    3    3    0    0  0.60183657088E+00 -0.85786089075E+01 -0.33467587852E+01  0.92279755458E+01  0.51100000000E-03 0.  1.
        -12    1    3    3    0    0 -0.36690028147E+01 -0.19158017348E+00 -0.32445933426E+02  0.32653282844E+02  0.00000000000E+00 0.  1.
</event>
<event>
 7    1  0.5935282E-013  0.5052887E+02  0.7816164E-02  0.1300439E+00
        -11   -1    0    0    0    0  0.00000000000E+00  0.00000000000E+00  0.45593999997E+02  0.45594000000E+02  0.51100000000E-03 0. -1.
         11   -1    0    0    0    0 -0.00000000000E+00 -0.00000000000E+00 -0.45593999997E+02  0.45594000000E+02  0.51100000000E-03 0.  1.
    9900012    2    1    2    0    0  0.14828401972E+02 -0.37005076381E+02 -0.79942326909E+01  0.50528868931E+02  0.30000027602E+02 0.  0.
        -12    1    1    2    0    0 -0.14828401972E+02  0.37005076381E+02  0.79942326909E+01  0.40659131069E+02  0.00000000000E+00 0.  1.
         11    1    3    3    0    0 -0.11087119726E+01 -0.24537986381E+02 -0.91396786265E+01  0.26208314397E+02  0.51100000000E-03 0. -1.
        -11    1    3    3    0    0  0.15677383415E+02 -0.11504631673E+02 -0.33357812646E+01  0.19729783009E+02  0.51100000000E-03 0.  1.
        -12    1    3    3    0    0  0.25973052934E+00 -0.96245832778E+00  0.44812272003E+01  0.45907715257E+01  0.00000000000E+00 0.  1.
</event>
<event>
 7    1  0.5935282E-013  0.5052885E+02  0.7816164E-02  0.1300439E+00
        -11   -1    0    0    0    0  0.00000000000E+00  0.00000000000E+00  0.45593999997E+02  0.45594000000E+02  0.51100000000E-03 0. -1.
         11   -1    0    0    0    0 -0.00000000000E+00 -0.00000000000E+00 -0.45593999997E+02  0.45594000000E+02  0.51100000000E-03 0.  1.
    9900012    2    1    2    0    0 -0.13822816918E+02 -0.34585434799E+02 -0.16307790709E+02  0.50528848440E+02  0.29999965317E+02 0.  0.
        -12    1    1    2    0    0  0.13822816918E+02  0.34585434799E+02  0.16307790709E+02  0.40659151560E+02  0.00000000000E+00 0.  1.
         11    1    3    3    0    0 -0.16320876565E+02 -0.10771965111E+02 -0.32396370140E+01  0.19821742921E+02  0.51100000000E-03 0. -1.
        -11    1    3    3    0    0 -0.27998671702E+01 -0.15121523634E+02 -0.13578193627E+02  0.20515045103E+02  0.51100000000E-03 0.  1.
        -12    1    3    3    0    0  0.52979268167E+01 -0.86919460546E+01  0.51003993119E+00  0.10192060415E+02  0.00000000000E+00 0.  1.
</event>
<event>
 7    1  0.5935282E-013  0.5052886E+02  0.7816164E-02  0.1300439E+00
        -11   -1    0    0    0    0  0.00000000000E+00  0.00000000000E+00  0.45593999997E+02  0.45594000000E+02  0.51100000000E-03 0.  1.
         11   -1    0    0    0    0 -0.00000000000E+00 -0.00000000000E+00 -0.45593999997E+02  0.45594000000E+02  0.51100000000E-03 0. -1.
    9900012    2    1    2    0    0 -0.15012241198E+02 -0.28262029078E+02 -0.25080988849E+02  0.50528859883E+02  0.30000000102E+02 0.  0.
        -12    1    1    2    0    0  0.15012241198E+02  0.28262029078E+02  0.25080988849E+02  0.40659140117E+02  0.00000000000E+00 0.  1.
         11    1    3    3    0    0  0.58639433942E+00 -0.13989034756E+02 -0.74371797131E+01  0.15853977232E+02  0.51100000000E-03 0. -1.
        -11    1    3    3    0    0  0.49987125282E+01 -0.57707890499E+00 -0.20429909763E+01  0.54308341341E+01  0.51100000000E-03 0.  1.
         12    1    3    3    0    0 -0.20597348065E+02 -0.13695915417E+02 -0.15600818159E+02  0.29244048517E+02  0.00000000000E+00 0. -1.
</event>
<event>
 7    1  0.5935282E-013  0.5052887E+02  0.7816164E-02  0.1300439E+00
        -11   -1    0    0    0    0  0.00000000000E+00  0.00000000000E+00  0.45593999997E+02  0.45594000000E+02  0.51100000000E-03 0.  1.
         11   -1    0    0    0    0 -0.00000000000E+00 -0.00000000000E+00 -0.45593999997E+02  0.45594000000E+02  0.51100000000E-03 0. -1.
    9900012    2    1    2    0    0 -0.18659425076E+02  0.33630258125E+02 -0.13190777739E+02  0.50528867901E+02  0.30000024471E+02 0.  0.
        -12    1    1    2    0    0  0.18659425076E+02 -0.33630258125E+02  0.13190777739E+02  0.40659132099E+02  0.00000000000E+00 0.  1.
         11    1    3    3    0    0  0.42216789361E+01  0.31587730061E+01 -0.13276349863E+01  0.54371899785E+01  0.51100000000E-03 0. -1.
        -11    1    3    3    0    0 -0.17277424238E+02  0.19171985602E+02  0.25559701721E+01  0.25934675707E+02  0.51100000000E-03 0.  1.
         12    1    3    3    0    0 -0.56036797741E+01  0.11299499516E+02 -0.14419112925E+02  0.19157002215E+02  0.00000000000E+00 0. -1.
</event>
<event>
 7    1  0.5935282E-013  0.5052886E+02  0.7816164E-02  0.1300439E+00
        -11   -1    0    0    0    0  0.00000000000E+00  0.00000000000E+00  0.45593999997E+02  0.45594000000E+02  0.51100000000E-03 0. -1.
         11   -1    0    0    0    0 -0.00000000000E+00 -0.00000000000E+00 -0.45593999997E+02  0.45594000000E+02  0.51100000000E-03 0.  1.
    9900012    2    1    2    0    0 -0.36170147417E+02 -0.16005164847E+02  0.94191796624E+01  0.50528858206E+02  0.29999995003E+02 0.  0.
        -12    1    1    2    0    0  0.36170147417E+02  0.16005164847E+02 -0.94191796624E+01  0.40659141794E+02  0.00000000000E+00 0.  1.
         11    1    3    3    0    0 -0.80076595665E+01 -0.84329452994E+01 -0.51880812202E+01  0.12733945389E+02  0.51100000000E-03 0. -1.
        -11    1    3    3    0    0 -0.24961325532E+02 -0.87141961738E+00  0.47024462817E+01  0.25415352560E+02  0.51100000000E-03 0.  1.
         12    1    3    3    0    0 -0.32011623183E+01 -0.67007999298E+01  0.99048146008E+01  0.12379560257E+02  0.00000000000E+00 0. -1.
</event>
<event>
 7    1  0.5935282E-013  0.5052885E+02  0.7816164E-02  0.1300439E+00
        -11   -1    0    0    0    0  0.00000000000E+00  0.00000000000E+00  0.45593999997E+02  0.45594000000E+02  0.51100000000E-03 0.  1.
         11   -1    0    0    0    0 -0.00000000000E+00 -0.00000000000E+00 -0.45593999997E+02  0.45594000000E+02  0.51100000000E-03 0. -1.
    9900012    2    1    2    0    0 -0.75305575905E+01  0.13461117559E+02 -0.37619882061E+02  0.50528849617E+02  0.29999968896E+02 0.  0.
        -12    1    1    2    0    0  0.75305575905E+01 -0.13461117559E+02  0.37619882061E+02  0.40659150383E+02  0.00000000000E+00 0.  1.
         11    1    3    3    0    0 -0.29312115556E+01  0.14237153395E+01 -0.34664604090E+01  0.47576585186E+01  0.51100000000E-03 0. -1.
        -11    1    3    3    0    0  0.51724136889E+01  0.17306593190E+02 -0.14354684625E+02  0.23072256114E+02  0.51100000000E-03 0.  1.
        -12    1    3    3    0    0 -0.97717597238E+01 -0.52691909703E+01 -0.19798737027E+02  0.22698934985E+02  0.00000000000E+00 0.  1.
</event>
<event>
 7    1  0.5935282E-013  0.5052887E+02  0.7816164E-02  0.1300439E+00
        -11   -1    0    0    0    0  0.00000000000E+00  0.00000000000E+00  0.45593999997E+02  0.45594000000E+02  0.51100000000E-03 0. -1.
         11   -1    0    0    0    0 -0.00000000000E+00 -0.00000000000E+00 -0.45593999997E+02  0.45594000000E+02  0.51100000000E-03 0.  1.
    9900012    2    1    2    0    0 -0.19918680588E+02 -0.35351900932E+02  0.25795949686E+01  0.50528867618E+02  0.30000023611E+02 0.  0.
        -12    1    1    2    0    0  0.19918680588E+02  0.35351900932E+02 -0.25795949686E+01  0.40659132382E+02  0.00000000000E+00 0.  1.
         11    1    3    3    0    0 -0.95790958779E+01 -0.34425379271E+02 -0.14898775571E+00  0.35733569838E+02  0.51100000000E-03 0. -1.
        -11    1    3    3    0    0 -0.31280239151E+00 -0.34721881256E+01  0.27661475868E+01  0.44503380151E+01  0.51100000000E-03 0.  1.
        -12    1    3    3    0    0 -0.10026782318E+02  0.25456664642E+01 -0.37564862414E-01  0.10344959764E+02  0.00000000000E+00 0.  1.
</event>
<event>
 7    1  0.5935282E-013  0.5052886E+02  0.7816164E-02  0.1300439E+00
        -11   -1    0    0    0    0  0.00000000000E+00  0.00000000000E+00  0.45593999997E+02  0.45594000000E+02  0.51100000000E-03 0. -1.
         11   -1    0    0    0    0 -0.00000000000E+00 -0.00000000000E+00 -0.45593999997E+02  0.45594000000E+02  0.51100000000E-03 0.  1.
    9900012    2    1    2    0    0  0.37886490328E+02 -0.60681921758E+01 -0.13452016256E+02  0.50528857768E+02  0.29999993672E+02 0.  0.
        -12    1    1    2    0    0 -0.37886490328E+02  0.60681921758E+01  0.13452016256E+02  0.40659142232E+02  0.00000000000E+00 0.  1.
         11    1    3    3    0    0  0.13244365834E+02 -0.55010359262E+01 -0.15266280290E+02  0.20945976625E+02  0.51100000000E-03 0. -1.
        -11    1    3    3    0    0  0.43523481848E+01  0.64057335950E+01  0.24385330040E+01  0.81192857497E+01  0.51100000000E-03 0.  1.
        -12    1    3    3    0    0  0.20289776309E+02 -0.69728898446E+01 -0.62426896920E+00  0.21463595393E+02  0.00000000000E+00 0.  1.
</event>
<event>
 7    1  0.5935282E-013  0.5052883E+02  0.7816164E-02  0.1300439E+00
        -11   -1    0    0    0    0  0.00000000000E+00  0.00000000000E+00  0.45593999997E+02  0.45594000000E+02  0.51100000000E-03 0.  1.
         11   -1    0    0    0    0 -0.00000000000E+00 -0.00000000000E+00 -0.45593999997E+02  0.45594000000E+02  0.51100000000E-03 0. -1.
    9900012    2    1    2    0    0 -0.20448148201E+02 -0.74601113624E+01 -0.34342216973E+02  0.50528832608E+02  0.29999917196E+02 0.  0.
        -12    1    1    2    0    0  0.20448148201E+02  0.74601113624E+01  0.34342216973E+02  0.40659167392E+02  0.00000000000E+00 0.  1.
         11    1    3    3    0    0 -0.47507836605E+00 -0.69434269466E+01 -0.47135153846E+01  0.84055996073E+01  0.51100000000E-03 0. -1.
        -11    1    3    3    0    0 -0.43407883435E+01 -0.46944906547E+01  0.19124919285E+01  0.66737029892E+01  0.51100000000E-03 0.  1.
         12    1    3    3    0    0 -0.15632281491E+02  0.41778062389E+01 -0.31541193517E+02  0.35449530012E+02  0.00000000000E+00 0. -1.
</event>
<event>
 7    1  0.5935282E-013  0.5052885E+02  0.7816164E-02  0.1300439E+00
        -11   -1    0    0    0    0  0.00000000000E+00  0.00000000000E+00  0.45593999997E+02  0.45594000000E+02  0.51100000000E-03 0.  1.
         11   -1    0    0    0    0 -0.00000000000E+00 -0.00000000000E+00 -0.45593999997E+02  0.45594000000E+02  0.51100000000E-03 0. -1.
    9900012    2    1    2    0    0 -0.31354681014E+02  0.19916286725E+02 -0.16534558361E+02  0.50528854429E+02  0.29999983521E+02 0.  0.
        -12    1    1    2    0    0  0.31354681014E+02 -0.19916286725E+02  0.16534558361E+02  0.40659145571E+02  0.00000000000E+00 0.  1.
         11    1    3    3    0    0 -0.13182100360E+02  0.10872770310E+01 -0.95579134420E+01  0.16318812790E+02  0.51100000000E-03 0.  1.
        -11    1    3    3    0    0 -0.17650525470E+02  0.11683344121E+02 -0.13008131384E+02  0.24844578113E+02  0.51100000000E-03 0. -1.
        -12    1    3    3    0    0 -0.52205518384E+00  0.71456655722E+01  0.60314864647E+01  0.93654635261E+01  0.00000000000E+00 0.  1.
</event>
<event>
 7    1  0.5935282E-013  0.5052886E+02  0.7816164E-02  0.1300439E+00
        -11   -1    0    0    0    0  0.00000000000E+00  0.00000000000E+00  0.45593999997E+02  0.45594000000E+02  0.51100000000E-03 0. -1.
         11   -1    0    0    0    0 -0.00000000000E+00 -0.00000000000E+00 -0.45593999997E+02  0.45594000000E+02  0.51100000000E-03 0.  1.
    9900012    2    1    2    0    0  0.64356568363E+01 -0.26464008763E+02  0.30189476959E+02  0.50528856406E+02  0.29999989532E+02 0.  0.
        -12    1    1    2    0    0 -0.64356568363E+01  0.26464008763E+02 -0.30189476959E+02  0.40659143594E+02  0.00000000000E+00 0.  1.
         11    1    3    3    0    0  0.14081221538E+01 -0.10589163451E+02  0.17857208835E+02  0.20808486207E+02  0.51100000000E-03 0. -1.
        -11    1    3    3    0    0 -0.32541273283E+01 -0.24067914767E+01  0.13278341850E+02  0.13881511173E+02  0.51100000000E-03 0.  1.
         12    1    3    3    0    0  0.82816620109E+01 -0.13468053835E+02 -0.94607372619E+00  0.15838859026E+02  0.00000000000E+00 0. -1.
</event>
<event>
 7    1  0.5935282E-013  0.5052886E+02  0.7816164E-02  0.1300439E+00
        -11   -1    0    0    0    0  0.00000000000E+00  0.00000000000E+00  0.45593999997E+02  0.45594000000E+02  0.51100000000E-03 0. -1.
         11   -1    0    0    0    0 -0.00000000000E+00 -0.00000000000E+00 -0.45593999997E+02  0.45594000000E+02  0.51100000000E-03 0.  1.
    9900012    2    1    2    0    0  0.21922582790E+02  0.88743159707E+01  0.33072840918E+02  0.50528856791E+02  0.29999990702E+02 0.  0.
        -12    1    1    2    0    0 -0.21922582790E+02 -0.88743159707E+01 -0.33072840918E+02  0.40659143209E+02  0.00000000000E+00 0.  1.
         11    1    3    3    0    0 -0.15394767362E+01 -0.25696158650E+01  0.94774173051E+00  0.31418352859E+01  0.51100000000E-03 0. -1.
        -11    1    3    3    0    0  0.77018005778E+01 -0.60927438105E+01  0.37928921686E+01  0.10527359144E+02  0.51100000000E-03 0.  1.
         12    1    3    3    0    0  0.15760258948E+02  0.17536675646E+02  0.28332207018E+02  0.36859662361E+02  0.00000000000E+00 0. -1.
</event>
<event>
 7    1  0.5935282E-013  0.5052886E+02  0.7816164E-02  0.1300439E+00
        -11   -1    0    0    0    0  0.00000000000E+00  0.00000000000E+00  0.45593999997E+02  0.45594000000E+02  0.51100000000E-03 0.  1.
         11   -1    0    0    0    0 -0.00000000000E+00 -0.00000000000E+00 -0.45593999997E+02  0.45594000000E+02  0.51100000000E-03 0. -1.
    9900012    2    1    2    0    0  0.83049027264E+01  0.39625645457E+02 -0.37419570381E+01  0.50528862901E+02  0.30000009274E+02 0.  0.
        -12    1    1    2    0    0 -0.83049027264E+01 -0.39625645457E+02  0.37419570381E+01  0.40659137099E+02  0.00000000000E+00 0.  1.
         11    1    3    3    0    0  0.11439547971E-01  0.56362946973E+01 -0.29321646929E+01  0.63533879801E+01  0.51100000000E-03 0.  1.
        -11    1    3    3    0    0  0.16873187558E+02  0.30554343398E+02 -0.12136311038E+01  0.34924851604E+02  0.51100000000E-03 0. -1.
        -12    1    3    3    0    0 -0.85797243798E+01  0.34350073612E+01  0.40383875856E+00  0.92506233167E+01  0.00000000000E+00 0.  1.
</event>
<event>
 7    1  0.5935282E-013  0.5052886E+02  0.7816164E-02  0.1300439E+00
        -11   -1    0    0    0    0  0.00000000000E+00  0.00000000000E+00  0.45593999997E+02  0.45594000000E+02  0.51100000000E-03 0.  1.
         11   -1    0    0    0    0 -0.00000000000E+00 -0.00000000000E+00 -0.45593999997E+02  0.45594000000E+02  0.51100000000E-03 0. -1.
    9900012    2    1    2    0    0 -0.16760765625E+02  0.13204743509E+02 -0.34610365575E+02  0.50528856862E+02  0.29999990918E+02 0.  0.
        -12    1    1    2    0    0  0.16760765625E+02 -0.13204743509E+02  0.34610365575E+02  0.40659143138E+02  0.00000000000E+00 0.  1.
         11    1    3    3    0    0 -0.86993522014E+00 -0.47410798346E+01 -0.23123106998E+00  0.48257738607E+01  0.51100000000E-03 0. -1.
        -11    1    3    3    0    0  0.11532135241E+01 -0.59549491000E+00  0.14256478053E+01  0.19279490516E+01  0.51100000000E-03 0.  1.
         12    1    3    3    0    0 -0.17044043929E+02  0.18541318254E+02 -0.35804782310E+02  0.43775133950E+02  0.00000000000E+00 0. -1.
</event>
<event>
 7    1  0.5935282E-013  0.5052895E+02  0.7816164E-02  0.1300438E+00
        -11   -1    0    0    0    0  0.00000000000E+00  0.00000000000E+00  0.45593999997E+02  0.45594000000E+02  0.51100000000E-03 0. -1.
         11   -1    0    0    0    0 -0.00000000000E+00 -0.00000000000E+00 -0.45593999997E+02  0.45594000000E+02  0.51100000000E-03 0.  1.
    9900012    2    1    2    0    0  0.23339877056E+02  0.55093946725E+01  0.32833754798E+02  0.50528945107E+02  0.30000259147E+02 0.  0.
        -12    1    1    2    0    0 -0.23339877056E+02 -0.55093946725E+01 -0.32833754798E+02  0.40659054893E+02  0.00000000000E+00 0.  1.
         11    1    3    3    0    0  0.19248250122E+01  0.40597220038E+01 -0.14471346155E+01  0.47202217037E+01  0.51100000000E-03 0. -1.
        -11    1    3    3    0    0 -0.42832993568E-01  0.73679754962E+01  0.45182299049E+01  0.86431070405E+01  0.51100000000E-03 0.  1.
         12    1    3    3    0    0  0.21457885038E+02 -0.59183028276E+01  0.29762659508E+02  0.37165616363E+02  0.00000000000E+00 0. -1.
</event>
<event>
 7    1  0.5935282E-013  0.5052886E+02  0.7816164E-02  0.1300439E+00
        -11   -1    0    0    0    0  0.00000000000E+00  0.00000000000E+00  0.45593999997E+02  0.45594000000E+02  0.51100000000E-03 0.  1.
         11   -1    0    0    0    0 -0.00000000000E+00 -0.00000000000E+00 -0.45593999997E+02  0.45594000000E+02  0.51100000000E-03 0. -1.
    9900012    2    1    2    0    0  0.12558580887E+02  0.42197014441E+01 -0.38440107772E+02  0.50528859334E+02  0.29999998432E+02 0.  0.
        -12    1    1    2    0    0 -0.12558580887E+02 -0.42197014441E+01  0.38440107772E+02  0.40659140666E+02  0.00000000000E+00 0.  1.
         11    1    3    3    0    0 -0.22829537782E+01 -0.63698967376E+01 -0.14571865845E+02  0.16066323066E+02  0.51100000000E-03 0. -1.
        -11    1    3    3    0    0 -0.88581315377E+00 -0.32225667439E+01 -0.63161014129E+01  0.71458196647E+01  0.51100000000E-03 0.  1.
        -12    1    3    3    0    0  0.15727347819E+02  0.13812164926E+02 -0.17552140514E+02  0.27316716603E+02  0.00000000000E+00 0.  1.
</event>
<event>
 7    1  0.5935282E-013  0.5052884E+02  0.7816164E-02  0.1300439E+00
        -11   -1    0    0    0    0  0.00000000000E+00  0.00000000000E+00  0.45593999997E+02  0.45594000000E+02  0.51100000000E-03 0.  1.
         11   -1    0    0    0    0 -0.00000000000E+00 -0.00000000000E+00 -0.45593999997E+02  0.45594000000E+02  0.51100000000E-03 0. -1.
    9900012    2    1    2    0    0 -0.33523910064E+01  0.16609458962E+02 -0.36960171553E+02  0.50528844405E+02  0.29999953054E+02 0.  0.
        -12    1    1    2    0    0  0.33523910064E+01 -0.16609458962E+02  0.36960171553E+02  0.40659155595E+02  0.00000000000E+00 0.  1.
         11    1    3    3    0    0  0.50622284111E+01  0.90122555674E+01 -0.10717498352E+02  0.14889985833E+02  0.51100000000E-03 0. -1.
        -11    1    3    3    0    0 -0.34660839603E+01  0.66144240867E+01  0.13501159239E+01  0.75886202493E+01  0.51100000000E-03 0.  1.
         12    1    3    3    0    0 -0.49485354572E+01  0.98277930795E+00 -0.27592789124E+02  0.28050238323E+02  0.00000000000E+00 0. -1.
</event>
<event>
 7    1  0.5935282E-013  0.5052884E+02  0.7816164E-02  0.1300439E+00
        -11   -1    0    0    0    0  0.00000000000E+00  0.00000000000E+00  0.45593999997E+02  0.45594000000E+02  0.51100000000E-03 0.  1.
         11   -1    0    0    0    0 -0.00000000000E+00 -0.00000000000E+00 -0.45593999997E+02  0.45594000000E+02  0.51100000000E-03 0. -1.
    9900012    2    1    2    0    0 -0.34641436934E+02  0.83570256931E+01 -0.19577996569E+02  0.50528843824E+02  0.29999951287E+02 0.  0.
        -12    1    1    2    0    0  0.34641436934E+02 -0.83570256931E+01  0.19577996569E+02  0.40659156176E+02  0.00000000000E+00 0.  1.
         11    1    3    3    0    0 -0.27942719587E+02 -0.10614342850E+01 -0.15618181342E+02  0.32028890229E+02  0.51100000000E-03 0. -1.
        -11    1    3    3    0    0 -0.84847984485E+01  0.13861652572E-02 -0.19760534627E+01  0.87118651380E+01  0.51100000000E-03 0.  1.
        -12    1    3    3    0    0  0.17860811010E+01  0.94170738128E+01 -0.19837617643E+01  0.97880884565E+01  0.00000000000E+00 0.  1.
</event>
<event>
 7    1  0.5935282E-013  0.5052886E+02  0.7816164E-02  0.1300439E+00
        -11   -1    0    0    0    0  0.00000000000E+00  0.00000000000E+00  0.45593999997E+02  0.45594000000E+02  0.51100000000E-03 0.  1.
         11   -1    0    0    0    0 -0.00000000000E+00 -0.00000000000E+00 -0.45593999997E+02  0.45594000000E+02  0.51100000000E-03 0. -1.
    9900012    2    1    2    0    0 -0.39255610833E+02 -0.10105471240E+02 -0.31688708833E+01  0.50528864821E+02  0.30000015110E+02 0.  0.
        -12    1    1    2    0    0  0.39255610833E+02  0.10105471240E+02  0.31688708833E+01  0.40659135179E+02  0.00000000000E+00 0.  1.
         11    1    3    3    0    0 -0.57722809869E+01 -0.15021769967E+01  0.39163382459E+01  0.71353674774E+01  0.51100000000E-03 0. -1.
        -11    1    3    3    0    0 -0.25298415484E+02 -0.15334235582E+02  0.16952109336E+01  0.29631441869E+02  0.51100000000E-03 0.  1.
        -12    1    3    3    0    0 -0.81849143616E+01  0.67309413379E+01 -0.87804200627E+01  0.13762055474E+02  0.00000000000E+00 0.  1.
</event>
<event>
 7    1  0.5935282E-013  0.5052886E+02  0.7816164E-02  0.1300439E+00
        -11   -1    0    0    0    0  0.00000000000E+00  0.00000000000E+00  0.45593999997E+02  0.45594000000E+02  0.51100000000E-03 0.  1.
         11   -1    0    0    0    0 -0.00000000000E+00 -0.00000000000E+00 -0.45593999997E+02  0.45594000000E+02  0.51100000000E-03 0. -1.
    9900012    2    1    2    0    0  0.13039431396E+01 -0.26111077202E+02 -0.31139641347E+02  0.50528857318E+02  0.29999992305E+02 0.  0.
        -12    1    1    2    0    0 -0.13039431396E+01  0.26111077202E+02  0.31139641347E+02  0.40659142682E+02  0.00000000000E+00 0.  1.
         11    1    3    3    0    0  0.75037896222E+01 -0.63869725872E+01 -0.26140165012E+01  0.10194771211E+02  0.51100000000E-03 0. -1.
        -11    1    3    3    0    0  0.17883538152E+01 -0.53600326577E+01  0.17240217212E+01  0.59076569481E+01  0.51100000000E-03 0.  1.
        -12    1    3    3    0    0 -0.79882002978E+01 -0.14364071957E+02 -0.30249646567E+02  0.34426429159E+02  0.00000000000E+00 0.  1.
</event>
<event>
 7    1  0.5935282E-013  0.5052885E+02  0.7816164E-02  0.1300439E+00
        -11   -1    0    0    0    0  0.00000000000E+00  0.00000000000E+00  0.45593999997E+02  0.45594000000E+02  0.51100000000E-03 0.  1.
         11   -1    0    0    0    0 -0.00000000000E+00 -0.00000000000E+00 -0.45593999997E+02  0.45594000000E+02  0.51100000000E-03 0. -1.
    9900012    2    1    2    0    0  0.13109942213E+02  0.34358455577E+02 -0.17343359416E+02  0.50528853793E+02  0.29999981590E+02 0.  0.
        -12    1    1    2    0    0 -0.13109942213E+02 -0.34358455577E+02  0.17343359416E+02  0.40659146207E+02  0.00000000000E+00 0.  1.
         11    1    3    3    0    0 -0.79290845676E+00  0.11955354196E+02 -0.11477195478E+02  0.16591721251E+02  0.51100000000E-03 0. -1.
        -11    1    3    3    0    0 -0.28935075814E+01  0.13944609327E+02 -0.50602509261E+01  0.15113922559E+02  0.51100000000E-03 0.  1.
        -12    1    3    3    0    0  0.16796358251E+02  0.84584920536E+01 -0.80591301206E+00  0.18823209984E+02  0.00000000000E+00 0.  1.
</event>
<event>
 7    1  0.5935282E-013  0.5052885E+02  0.7816164E-02  0.1300439E+00
        -11   -1    0    0    0    0  0.00000000000E+00  0.00000000000E+00  0.45593999997E+02  0.45594000000E+02  0.51100000000E-03 0.  1.
         11   -1    0    0    0    0 -0.00000000000E+00 -0.00000000000E+00 -0.45593999997E+02  0.45594000000E+02  0.51100000000E-03 0. -1.
    9900012    2    1    2    0    0  0.37017098775E+02 -0.10179652513E+02 -0.13389387986E+02  0.50528848046E+02  0.29999964119E+02 0.  0.
        -12    1    1    2    0    0 -0.37017098775E+02  0.10179652513E+02  0.13389387986E+02  0.40659151954E+02  0.00000000000E+00 0.  1.
         11    1    3    3    0    0  0.27483163409E+02 -0.96572692210E+01 -0.98194734519E+01  0.30741001593E+02  0.51100000000E-03 0. -1.
        -11    1    3    3    0    0  0.11359778850E+02  0.11503494569E+01  0.37837216537E+01  0.12028484078E+02  0.51100000000E-03 0.  1.
         12    1    3    3    0    0 -0.18258434846E+01 -0.16727327484E+01 -0.73536361879E+01  0.77593623747E+01  0.00000000000E+00 0. -1.
</event>
<event>
 7    1  0.5935282E-013  0.5052886E+02  0.7816164E-02  0.1300439E+00
        -11   -1    0    0    0    0  0.00000000000E+00  0.00000000000E+00  0.45593999997E+02  0.45594000000E+02  0.51100000000E-03 0. -1.
         11   -1    0    0    0    0 -0.00000000000E+00 -0.00000000000E+00 -0.45593999997E+02  0.45594000000E+02  0.51100000000E-03 0.  1.
    9900012    2    1    2    0    0  0.18654113787E+02 -0.35558055282E+02 -0.63886165047E+01  0.50528859853E+02  0.30000000009E+02 0.  0.
        -12    1    1    2    0    0 -0.18654113787E+02  0.35558055282E+02  0.63886165047E+01  0.40659140147E+02  0.00000000000E+00 0.  1.
         11    1    3    3    0    0  0.15261659754E+02 -0.24312568575E+02 -0.99187358980E+01  0.30371048240E+02  0.51100000000E-03 0. -1.
        -11    1    3    3    0    0  0.74254606573E+01 -0.13327688384E+02  0.21088505212E+01  0.15401688038E+02  0.51100000000E-03 0.  1.
        -12    1    3    3    0    0 -0.40330066239E+01  0.20822016767E+01  0.14212688721E+01  0.47561235747E+01  0.00000000000E+00 0.  1.
</event>
<event>
 7    1  0.5935282E-013  0.5052886E+02  0.7816164E-02  0.1300439E+00
        -11   -1    0    0    0    0  0.00000000000E+00  0.00000000000E+00  0.45593999997E+02  0.45594000000E+02  0.51100000000E-03 0.  1.
         11   -1    0    0    0    0 -0.00000000000E+00 -0.00000000000E+00 -0.45593999997E+02  0.45594000000E+02  0.51100000000E-03 0. -1.
    9900012    2    1    2    0    0  0.17506015006E+02 -0.77227731393E+01 -0.35875669358E+02  0.50528862795E+02  0.30000008952E+02 0.  0.
        -12    1    1    2    0    0 -0.17506015006E+02  0.77227731393E+01  0.35875669358E+02  0.40659137205E+02  0.00000000000E+00 0.  1.
         11    1    3    3    0    0  0.62086104766E+01 -0.54312638332E+01 -0.39551759916E+01  0.91481631087E+01  0.51100000000E-03 0. -1.
        -11    1    3    3    0    0  0.13391258203E+02 -0.97726872333E+00 -0.49701893884E+01  0.14317249499E+02  0.51100000000E-03 0.  1.
         12    1    3    3    0    0 -0.20938536735E+01 -0.13142405828E+01 -0.26950303978E+02  0.27063450187E+02  0.00000000000E+00 0. -1.
</event>
<event>
 7    1  0.5935282E-013  0.5052886E+02  0.7816164E-02  0.1300439E+00
        -11   -1    0    0    0    0  0.00000000000E+00  0.00000000000E+00  0.45593999997E+02  0.45594000000E+02  0.51100000000E-03 0.  1.
         11   -1    0    0    0    0 -0.00000000000E+00 -0.00000000000E+00 -0.45593999997E+02  0.45594000000E+02  0.51100000000E-03 0. -1.
    9900012    2    1    2    0    0 -0.15361193029E+02 -0.12808218320E+02 -0.35399841498E+02  0.50528862209E+02  0.30000007171E+02 0.  0.
        -12    1    1    2    0    0  0.15361193029E+02  0.12808218320E+02  0.35399841498E+02  0.40659137791E+02  0.00000000000E+00 0.  1.
         11    1    3    3    0    0  0.22685923959E-01 -0.44008432908E-01 -0.75309946261E+00  0.75472541697E+00  0.51100000000E-03 0. -1.
        -11    1    3    3    0    0 -0.19614302449E+02  0.78691415051E+00 -0.11882993572E+02  0.22946582119E+02  0.51100000000E-03 0.  1.
         12    1    3    3    0    0  0.42304234965E+01 -0.13551124037E+02 -0.22763748464E+02  0.26827554673E+02  0.00000000000E+00 0. -1.
</event>
<event>
 7    1  0.5935282E-013  0.5052885E+02  0.7816164E-02  0.1300439E+00
        -11   -1    0    0    0    0  0.00000000000E+00  0.00000000000E+00  0.45593999997E+02  0.45594000000E+02  0.51100000000E-03 0. -1.
         11   -1    0    0    0    0 -0.00000000000E+00 -0.00000000000E+00 -0.45593999997E+02  0.45594000000E+02  0.51100000000E-03 0.  1.
    9900012    2    1    2    0    0 -0.37227073207E+02  0.16320349407E+02  0.97844472328E+00  0.50528854185E+02  0.29999982781E+02 0.  0.
        -12    1    1    2    0    0  0.37227073207E+02 -0.16320349407E+02 -0.97844472328E+00  0.40659145815E+02  0.00000000000E+00 0.  1.
         11    1    3    3    0    0 -0.80220495537E+01  0.22350394682E+01 -0.23123290208E+01  0.86426585163E+01  0.51100000000E-03 0. -1.
        -11    1    3    3    0    0 -0.29812965183E+02  0.12104963175E+02  0.10921146956E+02  0.33979618561E+02  0.51100000000E-03 0.  1.
        -12    1    3    3    0    0  0.60794152979E+00  0.19803467636E+01 -0.76303732120E+01  0.79065771078E+01  0.00000000000E+00 0.  1.
</event>
<event>
 7    1  0.5935282E-013  0.5052886E+02  0.7816164E-02  0.1300439E+00
        -11   -1    0    0    0    0  0.00000000000E+00  0.00000000000E+00  0.45593999997E+02  0.45594000000E+02  0.51100000000E-03 0.  1.
         11   -1    0    0    0    0 -0.00000000000E+00 -0.00000000000E+00 -0.45593999997E+02  0.45594000000E+02  0.51100000000E-03 0. -1.
    9900012    2    1    2    0    0  0.19137083408E+01  0.10402477748E+02 -0.39259286543E+02  0.50528863231E+02  0.30000010278E+02 0.  0.
        -12    1    1    2    0    0 -0.19137083408E+01 -0.10402477748E+02  0.39259286543E+02  0.40659136769E+02  0.00000000000E+00 0.  1.
         11    1    3    3    0    0  0.52111199085E+01  0.10880864576E+02 -0.19884334626E+02  0.23258025462E+02  0.51100000000E-03 0. -1.
        -11    1    3    3    0    0  0.17741528083E+01  0.73168815972E+01 -0.23771250648E+01  0.78952579647E+01  0.51100000000E-03 0.  1.
         12    1    3    3    0    0 -0.50715643759E+01 -0.77952684258E+01 -0.16997826853E+02  0.19375579805E+02  0.00000000000E+00 0. -1.
</event>
<event>
 7    1  0.5935282E-013  0.5052887E+02  0.7816164E-02  0.1300439E+00
        -11   -1    0    0    0    0  0.00000000000E+00  0.00000000000E+00  0.45593999997E+02  0.45594000000E+02  0.51100000000E-03 0.  1.
         11   -1    0    0    0    0 -0.00000000000E+00 -0.00000000000E+00 -0.45593999997E+02  0.45594000000E+02  0.51100000000E-03 0. -1.
    9900012    2    1    2    0    0  0.10129740779E+01 -0.36348277481E+01 -0.40483661343E+02  0.50528869107E+02  0.30000028138E+02 0.  0.
        -12    1    1    2    0    0 -0.10129740779E+01  0.36348277481E+01  0.40483661343E+02  0.40659130893E+02  0.00000000000E+00 0.  1.
         11    1    3    3    0    0 -0.18445616876E+01 -0.54118696032E+00 -0.29521440646E+02  0.29583961013E+02  0.51100000000E-03 0. -1.
        -11    1    3    3    0    0  0.17907104655E+01  0.44081114350E+01 -0.12356119552E+02  0.13240535527E+02  0.51100000000E-03 0.  1.
        -12    1    3    3    0    0  0.10668253000E+01 -0.75017522228E+01  0.13938988553E+01  0.77043725671E+01  0.00000000000E+00 0.  1.
</event>
<event>
 7    1  0.5935282E-013  0.5052886E+02  0.7816164E-02  0.1300439E+00
        -11   -1    0    0    0    0  0.00000000000E+00  0.00000000000E+00  0.45593999997E+02  0.45594000000E+02  0.51100000000E-03 0. -1.
         11   -1    0    0    0    0 -0.00000000000E+00 -0.00000000000E+00 -0.45593999997E+02  0.45594000000E+02  0.51100000000E-03 0.  1.
    9900012    2    1    2    0    0  0.40351557012E+02 -0.49530338596E+01 -0.62053207555E+00  0.50528858866E+02  0.29999997010E+02 0.  0.
        -12    1    1    2    0    0 -0.40351557012E+02  0.49530338596E+01  0.62053207555E+00  0.40659141134E+02  0.00000000000E+00 0.  1.
         11    1    3    3    0    0  0.12447469098E+01  0.48068634792E+01  0.29541243698E+01  0.57777315991E+01  0.51100000000E-03 0. -1.
        -11    1    3    3    0    0 -0.13070131112E+01 -0.29959715374E+01 -0.18119611907E+01  0.37372894380E+01  0.51100000000E-03 0.  1.
         12    1    3    3    0    0  0.40413823213E+02 -0.67639258014E+01 -0.17626952547E+01  0.41013837829E+02  0.00000000000E+00 0. -1.
</event>
<event>
 7    1  0.5935282E-013  0.5052886E+02  0.7816164E-02  0.1300439E+00
        -11   -1    0    0    0    0  0.00000000000E+00  0.00000000000E+00  0.45593999997E+02  0.45594000000E+02  0.51100000000E-03 0. -1.
         11   -1    0    0    0    0 -0.00000000000E+00 -0.00000000000E+00 -0.45593999997E+02  0.45594000000E+02  0.51100000000E-03 0.  1.
    9900012    2    1    2    0    0 -0.72924895474E+01 -0.11382574292E+02  0.38346086523E+02  0.50528858925E+02  0.29999997190E+02 0.  0.
        -12    1    1    2    0    0  0.72924895474E+01  0.11382574292E+02 -0.38346086523E+02  0.40659141075E+02  0.00000000000E+00 0.  1.
         11    1    3    3    0    0 -0.69143773513E+01 -0.11173937949E+02  0.25665752742E+02  0.28833944710E+02  0.51100000000E-03 0. -1.
        -11    1    3    3    0    0 -0.22287641808E+01 -0.86443825465E+01  0.71746992925E+01  0.11452905727E+02  0.51100000000E-03 0.  1.
        -12    1    3    3    0    0  0.18506519847E+01  0.84357462032E+01  0.55056344878E+01  0.10242008489E+02  0.00000000000E+00 0.  1.
</event>
<event>
 7    1  0.5935282E-013  0.5052886E+02  0.7816164E-02  0.1300439E+00
        -11   -1    0    0    0    0  0.00000000000E+00  0.00000000000E+00  0.45593999997E+02  0.45594000000E+02  0.51100000000E-03 0. -1.
         11   -1    0    0    0    0 -0.00000000000E+00 -0.00000000000E+00 -0.45593999997E+02  0.45594000000E+02  0.51100000000E-03 0.  1.
    9900012    2    1    2    0    0  0.21297674043E+02 -0.29549010719E+02 -0.18067398890E+02  0.50528857649E+02  0.29999993309E+02 0.  0.
        -12    1    1    2    0    0 -0.21297674043E+02  0.29549010719E+02  0.18067398890E+02  0.40659142351E+02  0.00000000000E+00 0.  1.
         11    1    3    3    0    0  0.70276791443E+01 -0.64877785120E+01 -0.96541571768E+01  0.13589786431E+02  0.51100000000E-03 0. -1.
        -11    1    3    3    0    0  0.10362298658E+02 -0.24415239727E+02 -0.13997480667E+02  0.29990175553E+02  0.51100000000E-03 0.  1.
        -12    1    3    3    0    0  0.39076962411E+01  0.13540075207E+01  0.55842389536E+01  0.69488956654E+01  0.00000000000E+00 0.  1.
</event>
<event>
 7    1  0.5935282E-013  0.5052886E+02  0.7816164E-02  0.1300439E+00
        -11   -1    0    0    0    0  0.00000000000E+00  0.00000000000E+00  0.45593999997E+02  0.45594000000E+02  0.51100000000E-03 0.  1.
         11   -1    0    0    0    0 -0.00000000000E+00 -0.00000000000E+00 -0.45593999997E+02  0.45594000000E+02  0.51100000000E-03 0. -1.
    9900012    2    1    2    0    0  0.12611313420E+02  0.31219350055E+01 -0.38527572583E+02  0.50528861378E+02  0.30000004643E+02 0.  0.
        -12    1    1    2    0    0 -0.12611313420E+02 -0.31219350055E+01  0.38527572583E+02  0.40659138622E+02  0.00000000000E+00 0.  1.
         11    1    3    3    0    0  0.87439730521E+01  0.87005686085E+01 -0.15298477005E+02  0.19651981014E+02  0.51100000000E-03 0. -1.
        -11    1    3    3    0    0  0.79329894564E+01 -0.81080573474E+01 -0.56795293135E+01  0.12685817638E+02  0.51100000000E-03 0.  1.
        -12    1    3    3    0    0 -0.40656490886E+01  0.25294237444E+01 -0.17549566264E+02  0.18191062725E+02  0.00000000000E+00 0.  1.
</event>
<event>
 7    1  0.5935282E-013  0.5052886E+02  0.7816164E-02  0.1300439E+00
        -11   -1    0    0    0    0  0.00000000000E+00  0.00000000000E+00  0.45593999997E+02  0.45594000000E+02  0.51100000000E-03 0. -1.
         11   -1    0    0    0    0 -0.00000000000E+00 -0.00000000000E+00 -0.45593999997E+02  0.45594000000E+02  0.51100000000E-03 0.  1.
    9900012    2    1    2    0    0 -0.27446730143E+02  0.23716352839E+02  0.18367832812E+02  0.50528859948E+02  0.30000000298E+02 0.  0.
        -12    1    1    2    0    0  0.27446730143E+02 -0.23716352839E+02 -0.18367832812E+02  0.40659140052E+02  0.00000000000E+00 0.  1.
         11    1    3    3    0    0 -0.19030613854E+02  0.12451252527E+02  0.16731763981E+02  0.28233842801E+02  0.51100000000E-03 0. -1.
        -11    1    3    3    0    0 -0.85006181783E+01  0.11068118618E+01  0.67601762800E+01  0.10917212351E+02  0.51100000000E-03 0.  1.
        -12    1    3    3    0    0  0.84501888978E-01  0.10158288451E+02 -0.51241074493E+01  0.11377804796E+02  0.00000000000E+00 0.  1.
</event>
<event>
 7    1  0.5935282E-013  0.5052893E+02  0.7816164E-02  0.1300439E+00
        -11   -1    0    0    0    0  0.00000000000E+00  0.00000000000E+00  0.45593999997E+02  0.45594000000E+02  0.51100000000E-03 0. -1.
         11   -1    0    0    0    0 -0.00000000000E+00 -0.00000000000E+00 -0.45593999997E+02  0.45594000000E+02  0.51100000000E-03 0.  1.
    9900012    2    1    2    0    0  0.74531922958E+01 -0.60807410366E+01  0.39504870152E+02  0.50528926564E+02  0.30000202782E+02 0.  0.
        -12    1    1    2    0    0 -0.74531922958E+01  0.60807410366E+01 -0.39504870152E+02  0.40659073436E+02  0.00000000000E+00 0.  1.
         11    1    3    3    0    0 -0.42558567086E+00  0.68171813388E+01  0.95754514204E+01  0.11761987703E+02  0.51100000000E-03 0. -1.
        -11    1    3    3    0    0  0.15622777216E+01  0.12266422753E+01  0.20607848364E+02  0.20703351840E+02  0.51100000000E-03 0.  1.
        -12    1    3    3    0    0  0.63165002450E+01 -0.14124564651E+02  0.93215703677E+01  0.18063587020E+02  0.00000000000E+00 0.  1.
</event>
<event>
 7    1  0.5935282E-013  0.5052886E+02  0.7816164E-02  0.1300439E+00
        -11   -1    0    0    0    0  0.00000000000E+00  0.00000000000E+00  0.45593999997E+02  0.45594000000E+02  0.51100000000E-03 0.  1.
         11   -1    0    0    0    0 -0.00000000000E+00 -0.00000000000E+00 -0.45593999997E+02  0.45594000000E+02  0.51100000000E-03 0. -1.
    9900012    2    1    2    0    0 -0.98646836797E+01  0.93070849509E+01 -0.38330562706E+02  0.50528857710E+02  0.29999993497E+02 0.  0.
        -12    1    1    2    0    0  0.98646836797E+01 -0.93070849509E+01  0.38330562706E+02  0.40659142290E+02  0.00000000000E+00 0.  1.
         11    1    3    3    0    0 -0.13509072321E+02  0.34112738956E+01 -0.14762117938E+02  0.20299062807E+02  0.51100000000E-03 0. -1.
        -11    1    3    3    0    0 -0.52162234453E+01  0.40648282952E+01 -0.21093539813E+01  0.69412672172E+01  0.51100000000E-03 0.  1.
        -12    1    3    3    0    0  0.88606120866E+01  0.18309827601E+01 -0.21459090786E+02  0.23288527686E+02  0.00000000000E+00 0.  1.
</event>
<event>
 7    1  0.5935282E-013  0.5052886E+02  0.7816164E-02  0.1300439E+00
        -11   -1    0    0    0    0  0.00000000000E+00  0.00000000000E+00  0.45593999997E+02  0.45594000000E+02  0.51100000000E-03 0.  1.
         11   -1    0    0    0    0 -0.00000000000E+00 -0.00000000000E+00 -0.45593999997E+02  0.45594000000E+02  0.51100000000E-03 0. -1.
    9900012    2    1    2    0    0  0.17284681368E+02  0.23291474763E+02 -0.28494074903E+02  0.50528864358E+02  0.30000013701E+02 0.  0.
        -12    1    1    2    0    0 -0.17284681368E+02 -0.23291474763E+02  0.28494074903E+02  0.40659135642E+02  0.00000000000E+00 0.  1.
         11    1    3    3    0    0  0.73614135785E+01  0.66367179533E+01  0.13688656761E+01  0.10005509910E+02  0.51100000000E-03 0. -1.
        -11    1    3    3    0    0 -0.70635433712E+00 -0.17886058735E+01  0.16231699310E+01  0.25164912688E+01  0.51100000000E-03 0.  1.
         12    1    3    3    0    0  0.10629622127E+02  0.18443362683E+02 -0.31486110510E+02  0.38006863178E+02  0.00000000000E+00 0. -1.
</event>
<event>
 7    1  0.5935282E-013  0.5052886E+02  0.7816164E-02  0.1300439E+00
        -11   -1    0    0    0    0  0.00000000000E+00  0.00000000000E+00  0.45593999997E+02  0.45594000000E+02  0.51100000000E-03 0.  1.
         11   -1    0    0    0    0 -0.00000000000E+00 -0.00000000000E+00 -0.45593999997E+02  0.45594000000E+02  0.51100000000E-03 0. -1.
    9900012    2    1    2    0    0 -0.16818278149E+02  0.21000979250E+02 -0.30483929699E+02  0.50528861062E+02  0.30000003683E+02 0.  0.
        -12    1    1    2    0    0  0.16818278149E+02 -0.21000979250E+02  0.30483929699E+02  0.40659138938E+02  0.00000000000E+00 0.  1.
         11    1    3    3    0    0  0.48982818299E+01  0.63082250392E+00 -0.55616695924E+01  0.74379614702E+01  0.51100000000E-03 0. -1.
        -11    1    3    3    0    0  0.19674771946E+01  0.95209787199E+00  0.14924920422E+01  0.26466940938E+01  0.51100000000E-03 0.  1.
         12    1    3    3    0    0 -0.23684037173E+02  0.19418058874E+02 -0.26414752149E+02  0.40444205498E+02  0.00000000000E+00 0. -1.
</event>
<event>
 7    1  0.5935282E-013  0.5052889E+02  0.7816164E-02  0.1300439E+00
        -11   -1    0    0    0    0  0.00000000000E+00  0.00000000000E+00  0.45593999997E+02  0.45594000000E+02  0.51100000000E-03 0.  1.
         11   -1    0    0    0    0 -0.00000000000E+00 -0.00000000000E+00 -0.45593999997E+02  0.45594000000E+02  0.51100000000E-03 0. -1.
    9900012    2    1    2    0    0  0.27547890550E+02  0.26399961090E-01 -0.29904458540E+02  0.50528885262E+02  0.30000077242E+02 0.  0.
        -12    1    1    2    0    0 -0.27547890550E+02 -0.26399961090E-01  0.29904458540E+02  0.40659114738E+02  0.00000000000E+00 0.  1.
         11    1    3    3    0    0  0.98886832836E+01 -0.14703535146E+01 -0.19737867512E+02  0.22125356737E+02  0.51100000000E-03 0. -1.
        -11    1    3    3    0    0 -0.37280449576E+01 -0.67527574742E+00  0.13421928918E+01  0.40194276409E+01  0.51100000000E-03 0.  1.
        -12    1    3    3    0    0  0.21387252224E+02  0.21720292231E+01 -0.11508783920E+02  0.24384100884E+02  0.00000000000E+00 0.  1.
</event>
<event>
 7    1  0.5935282E-013  0.5052886E+02  0.7816164E-02  0.1300439E+00
        -11   -1    0    0    0    0  0.00000000000E+00  0.00000000000E+00  0.45593999997E+02  0.45594000000E+02  0.51100000000E-03 0.  1.
         11   -1    0    0    0    0 -0.00000000000E+00 -0.00000000000E+00 -0.45593999997E+02  0.45594000000E+02  0.51100000000E-03 0. -1.
    9900012    2    1    2    0    0  0.25057236869E+02 -0.30588741771E+02 -0.94673009811E+01  0.50528855512E+02  0.29999986813E+02 0.  0.
        -12    1    1    2    0    0 -0.25057236869E+02  0.30588741771E+02  0.94673009811E+01  0.40659144488E+02  0.00000000000E+00 0.  1.
         11    1    3    3    0    0  0.15360455375E+02 -0.76071592638E+01 -0.27551634836E+01  0.17360973114E+02  0.51100000000E-03 0. -1.
        -11    1    3    3    0    0  0.13548210566E+02 -0.55980227489E+01 -0.24921290229E+01  0.14869518336E+02  0.51100000000E-03 0.  1.
        -12    1    3    3    0    0 -0.38514290718E+01 -0.17383559759E+02 -0.42200084746E+01  0.18298364061E+02  0.00000000000E+00 0.  1.
</event>
<event>
 7    1  0.5935282E-013  0.5052886E+02  0.7816164E-02  0.1300439E+00
        -11   -1    0    0    0    0  0.00000000000E+00  0.00000000000E+00  0.45593999997E+02  0.45594000000E+02  0.51100000000E-03 0.  1.
         11   -1    0    0    0    0 -0.00000000000E+00 -0.00000000000E+00 -0.45593999997E+02  0.45594000000E+02  0.51100000000E-03 0. -1.
    9900012    2    1    2    0    0  0.31173410561E+02  0.17535612077E+02 -0.19336152129E+02  0.50528855935E+02  0.29999988101E+02 0.  0.
        -12    1    1    2    0    0 -0.31173410561E+02 -0.17535612077E+02  0.19336152129E+02  0.40659144065E+02  0.00000000000E+00 0.  1.
         11    1    3    3    0    0  0.85679390220E+01  0.17307937174E+01  0.44299447491E+01  0.97994712469E+01  0.51100000000E-03 0.  1.
        -11    1    3    3    0    0  0.16213376667E+02  0.66532984372E+01 -0.39187175659E+01  0.17958182276E+02  0.51100000000E-03 0. -1.
        -12    1    3    3    0    0  0.63920948725E+01  0.91515199220E+01 -0.19847379312E+02  0.22771202412E+02  0.00000000000E+00 0.  1.
</event>
<event>
 7    1  0.5935282E-013  0.5052888E+02  0.7816164E-02  0.1300439E+00
        -11   -1    0    0    0    0  0.00000000000E+00  0.00000000000E+00  0.45593999997E+02  0.45594000000E+02  0.51100000000E-03 0. -1.
         11   -1    0    0    0    0 -0.00000000000E+00 -0.00000000000E+00 -0.45593999997E+02  0.45594000000E+02  0.51100000000E-03 0.  1.
    9900012    2    1    2    0    0  0.11169518788E+02 -0.37243346117E+02 -0.11888619878E+02  0.50528877253E+02  0.30000052897E+02 0.  0.
        -12    1    1    2    0    0 -0.11169518788E+02  0.37243346117E+02  0.11888619878E+02  0.40659122747E+02  0.00000000000E+00 0.  1.
         11    1    3    3    0    0  0.51762196656E+01 -0.54267969823E+01 -0.46876976897E+01  0.88440875959E+01  0.51100000000E-03 0. -1.
        -11    1    3    3    0    0  0.17582805663E+01 -0.27855019857E+02 -0.15218445161E+02  0.31789853022E+02  0.51100000000E-03 0.  1.
         12    1    3    3    0    0  0.42350185560E+01 -0.39615292777E+01  0.80175229724E+01  0.98949366345E+01  0.00000000000E+00 0. -1.
</event>
<event>
 7    1  0.5935282E-013  0.5052886E+02  0.7816164E-02  0.1300439E+00
        -11   -1    0    0    0    0  0.00000000000E+00  0.00000000000E+00  0.45593999997E+02  0.45594000000E+02  0.51100000000E-03 0.  1.
         11   -1    0    0    0    0 -0.00000000000E+00 -0.00000000000E+00 -0.45593999997E+02  0.45594000000E+02  0.51100000000E-03 0. -1.
    9900012    2    1    2    0    0 -0.15198583771E+02  0.60208525467E+01 -0.37227916207E+02  0.50528863768E+02  0.30000011909E+02 0.  0.
        -12    1    1    2    0    0  0.15198583771E+02 -0.60208525467E+01  0.37227916207E+02  0.40659136232E+02  0.00000000000E+00 0.  1.
         11    1    3    3    0    0 -0.12431274731E+02  0.86416785776E+01 -0.19822445388E+02  0.24942825451E+02  0.51100000000E-03 0. -1.
        -11    1    3    3    0    0 -0.89718482052E+00  0.59119653448E+01 -0.15544115466E+02  0.16654602989E+02  0.51100000000E-03 0.  1.
        -12    1    3    3    0    0 -0.18701242193E+01 -0.85327913758E+01 -0.18613553532E+01  0.89314353275E+01  0.00000000000E+00 0.  1.
</event>
<event>
 7    1  0.5935282E-013  0.5052896E+02  0.7816164E-02  0.1300438E+00
        -11   -1    0    0    0    0  0.00000000000E+00  0.00000000000E+00  0.45593999997E+02  0.45594000000E+02  0.51100000000E-03 0.  1.
         11   -1    0    0    0    0 -0.00000000000E+00 -0.00000000000E+00 -0.45593999997E+02  0.45594000000E+02  0.51100000000E-03 0. -1.
    9900012    2    1    2    0    0 -0.93733551353E+01  0.26441498061E+02 -0.29430334869E+02  0.50528963898E+02  0.30000316264E+02 0.  0.
        -12    1    1    2    0    0  0.93733551353E+01 -0.26441498061E+02  0.29430334869E+02  0.40659036102E+02  0.00000000000E+00 0.  1.
         11    1    3    3    0    0  0.23875718856E+01 -0.10095347253E+01  0.21521984228E+01  0.33692162564E+01  0.51100000000E-03 0. -1.
        -11    1    3    3    0    0 -0.63778852764E+01  0.49172686388E+01 -0.78079413364E-01  0.80537598748E+01  0.51100000000E-03 0.  1.
         12    1    3    3    0    0 -0.53830417445E+01  0.22533764148E+02 -0.31504453878E+02  0.39105987767E+02  0.00000000000E+00 0. -1.
</event>
<event>
 7    1  0.5935282E-013  0.5052888E+02  0.7816164E-02  0.1300439E+00
        -11   -1    0    0    0    0  0.00000000000E+00  0.00000000000E+00  0.45593999997E+02  0.45594000000E+02  0.51100000000E-03 0. -1.
         11   -1    0    0    0    0 -0.00000000000E+00 -0.00000000000E+00 -0.45593999997E+02  0.45594000000E+02  0.51100000000E-03 0.  1.
    9900012    2    1    2    0    0  0.19405924757E+01  0.34739587608E+02  0.21037100455E+02  0.50528875047E+02  0.30000046194E+02 0.  0.
        -12    1    1    2    0    0 -0.19405924757E+01 -0.34739587608E+02 -0.21037100455E+02  0.40659124953E+02  0.00000000000E+00 0.  1.
         11    1    3    3    0    0  0.51648242175E+00  0.14068340081E+02  0.76012675647E+00  0.14098324003E+02  0.51100000000E-03 0.  1.
        -11    1    3    3    0    0  0.28728908525E+00  0.23156681399E+02  0.22952621051E+02  0.32605785404E+02  0.51100000000E-03 0. -1.
         12    1    3    3    0    0  0.11368209687E+01 -0.24854338726E+01 -0.26756473523E+01  0.38247656404E+01  0.00000000000E+00 0. -1.
</event>
<event>
 7    1  0.5935282E-013  0.5052886E+02  0.7816164E-02  0.1300439E+00
        -11   -1    0    0    0    0  0.00000000000E+00  0.00000000000E+00  0.45593999997E+02  0.45594000000E+02  0.51100000000E-03 0. -1.
         11   -1    0    0    0    0 -0.00000000000E+00 -0.00000000000E+00 -0.45593999997E+02  0.45594000000E+02  0.51100000000E-03 0.  1.
    9900012    2    1    2    0    0 -0.39714542397E+02  0.50939123637E+01  0.70691527798E+01  0.50528859060E+02  0.29999997598E+02 0.  0.
        -12    1    1    2    0    0  0.39714542397E+02 -0.50939123637E+01 -0.70691527798E+01  0.40659140940E+02  0.00000000000E+00 0.  1.
         11    1    3    3    0    0 -0.29383106087E+01  0.43209719780E+01  0.12209208300E+01  0.53661080870E+01  0.51100000000E-03 0.  1.
        -11    1    3    3    0    0 -0.14300117718E+02 -0.11669765341E+02  0.61970528090E+01  0.19469983401E+02  0.51100000000E-03 0. -1.
         12    1    3    3    0    0 -0.22476114070E+02  0.12442705726E+02 -0.34882085918E+00  0.25692767571E+02  0.00000000000E+00 0. -1.
</event>
<event>
 7    1  0.5935282E-013  0.5052886E+02  0.7816164E-02  0.1300439E+00
        -11   -1    0    0    0    0  0.00000000000E+00  0.00000000000E+00  0.45593999997E+02  0.45594000000E+02  0.51100000000E-03 0. -1.
         11   -1    0    0    0    0 -0.00000000000E+00 -0.00000000000E+00 -0.45593999997E+02  0.45594000000E+02  0.51100000000E-03 0.  1.
    9900012    2    1    2    0    0 -0.11546401921E+02 -0.36592551650E+02  0.13447358435E+02  0.50528859792E+02  0.29999999824E+02 0.  0.
        -12    1    1    2    0    0  0.11546401921E+02  0.36592551650E+02 -0.13447358435E+02  0.40659140208E+02  0.00000000000E+00 0.  1.
         11    1    3    3    0    0 -0.43843972249E+01 -0.14948122340E+01 -0.38863622826E+01  0.60465870285E+01  0.51100000000E-03 0. -1.
        -11    1    3    3    0    0  0.48813506899E+01 -0.45722897396E+01 -0.11995734117E+01  0.67950272002E+01  0.51100000000E-03 0.  1.
         12    1    3    3    0    0 -0.12043355386E+02 -0.30525449676E+02  0.18533294129E+02  0.37687245563E+02  0.00000000000E+00 0. -1.
</event>
<event>
 7    1  0.5935282E-013  0.5052886E+02  0.7816164E-02  0.1300439E+00
        -11   -1    0    0    0    0  0.00000000000E+00  0.00000000000E+00  0.45593999997E+02  0.45594000000E+02  0.51100000000E-03 0. -1.
         11   -1    0    0    0    0 -0.00000000000E+00 -0.00000000000E+00 -0.45593999997E+02  0.45594000000E+02  0.51100000000E-03 0.  1.
    9900012    2    1    2    0    0  0.69137961297E+01 -0.31590021903E+02  0.24646203800E+02  0.50528862989E+02  0.30000009542E+02 0.  0.
        -12    1    1    2    0    0 -0.69137961297E+01  0.31590021903E+02 -0.24646203800E+02  0.40659137011E+02  0.00000000000E+00 0.  1.
         11    1    3    3    0    0 -0.40397631399E+01 -0.11587301829E+02  0.14321947531E+02  0.18860101570E+02  0.51100000000E-03 0. -1.
        -11    1    3    3    0    0 -0.43818188587E+01 -0.45237090424E+01  0.73471325467E+01  0.96770159105E+01  0.51100000000E-03 0.  1.
         12    1    3    3    0    0  0.15335378128E+02 -0.15479011031E+02  0.29771237221E+01  0.21991745508E+02  0.00000000000E+00 0. -1.
</event>
<event>
 7    1  0.5935282E-013  0.5052886E+02  0.7816164E-02  0.1300439E+00
        -11   -1    0    0    0    0  0.00000000000E+00  0.00000000000E+00  0.45593999997E+02  0.45594000000E+02  0.51100000000E-03 0. -1.
         11   -1    0    0    0    0 -0.00000000000E+00 -0.00000000000E+00 -0.45593999997E+02  0.45594000000E+02  0.51100000000E-03 0.  1.
    9900012    2    1    2    0    0  0.38153239947E+02  0.39536331257E+00  0.14047770150E+02  0.50528857403E+02  0.29999992561E+02 0.  0.
        -12    1    1    2    0    0 -0.38153239947E+02 -0.39536331257E+00 -0.14047770150E+02  0.40659142597E+02  0.00000000000E+00 0.  1.
         11    1    3    3    0    0  0.36375217335E+01 -0.65995353269E+01  0.93120060081E+00  0.75929286651E+01  0.51100000000E-03 0. -1.
        -11    1    3    3    0    0  0.39399176604E+01  0.74978497143E+01  0.85176284434E+01  0.12012106230E+02  0.51100000000E-03 0.  1.
         12    1    3    3    0    0  0.30575800553E+02 -0.50295107482E+00  0.45989411053E+01  0.30923822508E+02  0.00000000000E+00 0. -1.
</event>
<event>
 7    1  0.5935282E-013  0.5052887E+02  0.7816164E-02  0.1300439E+00
        -11   -1    0    0    0    0  0.00000000000E+00  0.00000000000E+00  0.45593999997E+02  0.45594000000E+02  0.51100000000E-03 0.  1.
         11   -1    0    0    0    0 -0.00000000000E+00 -0.00000000000E+00 -0.45593999997E+02  0.45594000000E+02  0.51100000000E-03 0. -1.
    9900012    2    1    2    0    0  0.16712369000E+02 -0.35403592797E+02 -0.10974860405E+02  0.50528865461E+02  0.30000017057E+02 0.  0.
        -12    1    1    2    0    0 -0.16712369000E+02  0.35403592797E+02  0.10974860405E+02  0.40659134539E+02  0.00000000000E+00 0.  1.
         11    1    3    3    0    0  0.10776128118E+02 -0.90078975928E+01  0.33370390516E+01  0.14436169373E+02  0.51100000000E-03 0. -1.
        -11    1    3    3    0    0  0.34670133212E+01 -0.20568325655E+01  0.38886500810E+01  0.56011017921E+01  0.51100000000E-03 0.  1.
        -12    1    3    3    0    0  0.24692275606E+01 -0.24338862638E+02 -0.18200549538E+02  0.30491594297E+02  0.00000000000E+00 0.  1.
</event>
<event>
 7    1  0.5935282E-013  0.5052886E+02  0.7816164E-02  0.1300439E+00
        -11   -1    0    0    0    0  0.00000000000E+00  0.00000000000E+00  0.45593999997E+02  0.45594000000E+02  0.51100000000E-03 0. -1.
         11   -1    0    0    0    0 -0.00000000000E+00 -0.00000000000E+00 -0.45593999997E+02  0.45594000000E+02  0.51100000000E-03 0.  1.
    9900012    2    1    2    0    0 -0.62246737175E+00  0.19476993833E+02  0.35685080398E+02  0.50528859362E+02  0.29999998517E+02 0.  0.
        -12    1    1    2    0    0  0.62246737175E+00 -0.19476993833E+02 -0.35685080398E+02  0.40659140638E+02  0.00000000000E+00 0.  1.
         11    1    3    3    0    0  0.87527439113E+00  0.32501254001E+01 -0.97014317591E+00  0.35029413954E+01  0.51100000000E-03 0. -1.
        -11    1    3    3    0    0 -0.71707009949E+01 -0.23866786383E+01  0.20112723859E+02  0.21485735942E+02  0.51100000000E-03 0.  1.
         12    1    3    3    0    0  0.56729592321E+01  0.18613547071E+02  0.16542499715E+02  0.25540182024E+02  0.00000000000E+00 0. -1.
</event>
<event>
 7    1  0.5935282E-013  0.5052886E+02  0.7816164E-02  0.1300439E+00
        -11   -1    0    0    0    0  0.00000000000E+00  0.00000000000E+00  0.45593999997E+02  0.45594000000E+02  0.51100000000E-03 0. -1.
         11   -1    0    0    0    0 -0.00000000000E+00 -0.00000000000E+00 -0.45593999997E+02  0.45594000000E+02  0.51100000000E-03 0.  1.
    9900012    2    1    2    0    0  0.17249025697E+02 -0.28007368442E+02  0.23900289381E+02  0.50528863180E+02  0.30000010121E+02 0.  0.
        -12    1    1    2    0    0 -0.17249025697E+02  0.28007368442E+02 -0.23900289381E+02  0.40659136820E+02  0.00000000000E+00 0.  1.
         11    1    3    3    0    0  0.52292339648E+01 -0.24591214827E+01  0.79470796554E+01  0.98258964800E+01  0.51100000000E-03 0. -1.
        -11    1    3    3    0    0  0.12269489026E+02 -0.79176838248E+01  0.17743939245E+02  0.22979935995E+02  0.51100000000E-03 0.  1.
        -12    1    3    3    0    0 -0.24969729389E+00 -0.17630563134E+02 -0.17907295203E+01  0.17723030705E+02  0.00000000000E+00 0.  1.
</event>
<event>
 7    1  0.5935282E-013  0.5052885E+02  0.7816164E-02  0.1300439E+00
        -11   -1    0    0    0    0  0.00000000000E+00  0.00000000000E+00  0.45593999997E+02  0.45594000000E+02  0.51100000000E-03 0.  1.
         11   -1    0    0    0    0 -0.00000000000E+00 -0.00000000000E+00 -0.45593999997E+02  0.45594000000E+02  0.51100000000E-03 0. -1.
    9900012    2    1    2    0    0 -0.40221944307E+02  0.59189743672E+01  0.57245939028E+00  0.50528846404E+02  0.29999959129E+02 0.  0.
        -12    1    1    2    0    0  0.40221944307E+02 -0.59189743672E+01 -0.57245939028E+00  0.40659153596E+02  0.00000000000E+00 0.  1.
         11    1    3    3    0    0 -0.12387264727E+02  0.85334352253E+01  0.74314408203E+01  0.16777668404E+02  0.51100000000E-03 0. -1.
        -11    1    3    3    0    0 -0.18669245112E+02  0.66622696864E+01 -0.58683623412E+01  0.20672789538E+02  0.51100000000E-03 0.  1.
        -12    1    3    3    0    0 -0.91654344678E+01 -0.92767305444E+01 -0.99061908887E+00  0.13078388462E+02  0.00000000000E+00 0.  1.
</event>
<event>
 7    1  0.5935282E-013  0.5052885E+02  0.7816164E-02  0.1300439E+00
        -11   -1    0    0    0    0  0.00000000000E+00  0.00000000000E+00  0.45593999997E+02  0.45594000000E+02  0.51100000000E-03 0.  1.
         11   -1    0    0    0    0 -0.00000000000E+00 -0.00000000000E+00 -0.45593999997E+02  0.45594000000E+02  0.51100000000E-03 0. -1.
    9900012    2    1    2    0    0  0.24634335971E+02 -0.23404139801E+02 -0.22328506000E+02  0.50528850369E+02  0.29999971180E+02 0.  0.
        -12    1    1    2    0    0 -0.24634335971E+02  0.23404139801E+02  0.22328506000E+02  0.40659149631E+02  0.00000000000E+00 0.  1.
         11    1    3    3    0    0  0.11519589979E+01  0.18792125271E+01 -0.65260703702E+00  0.22987704237E+01  0.51100000000E-03 0. -1.
        -11    1    3    3    0    0  0.20019119324E+02 -0.70854195185E+01 -0.20737389035E+02  0.29681772395E+02  0.51100000000E-03 0.  1.
        -12    1    3    3    0    0  0.34632576499E+01 -0.18197932810E+02 -0.93850992780E+00  0.18548307550E+02  0.00000000000E+00 0.  1.
</event>
<event>
 7    1  0.5935282E-013  0.5052884E+02  0.7816164E-02  0.1300439E+00
        -11   -1    0    0    0    0  0.00000000000E+00  0.00000000000E+00  0.45593999997E+02  0.45594000000E+02  0.51100000000E-03 0.  1.
         11   -1    0    0    0    0 -0.00000000000E+00 -0.00000000000E+00 -0.45593999997E+02  0.45594000000E+02  0.51100000000E-03 0. -1.
    9900012    2    1    2    0    0  0.15129387105E+00 -0.29736099099E+01 -0.40549990199E+02  0.50528844194E+02  0.29999952413E+02 0.  0.
        -12    1    1    2    0    0 -0.15129387105E+00  0.29736099099E+01  0.40549990199E+02  0.40659155806E+02  0.00000000000E+00 0.  1.
         11    1    3    3    0    0 -0.51945536565E+01  0.53971650126E+01 -0.66084739577E+01  0.99892295085E+01  0.51100000000E-03 0. -1.
        -11    1    3    3    0    0 -0.74423911465E+01 -0.28495186461E+01 -0.94268061754E+01  0.12343970894E+02  0.51100000000E-03 0.  1.
         12    1    3    3    0    0  0.12788238674E+02 -0.55212562765E+01 -0.24514710066E+02  0.28195643792E+02  0.00000000000E+00 0. -1.
</event>
<event>
 7    1  0.5935282E-013  0.5052887E+02  0.7816164E-02  0.1300439E+00
        -11   -1    0    0    0    0  0.00000000000E+00  0.00000000000E+00  0.45593999997E+02  0.45594000000E+02  0.51100000000E-03 0.  1.
         11   -1    0    0    0    0 -0.00000000000E+00 -0.00000000000E+00 -0.45593999997E+02  0.45594000000E+02  0.51100000000E-03 0. -1.
    9900012    2    1    2    0    0 -0.40605489854E+02 -0.18287785547E+01 -0.10074012461E+01  0.50528867021E+02  0.30000021798E+02 0.  0.
        -12    1    1    2    0    0  0.40605489854E+02  0.18287785547E+01  0.10074012461E+01  0.40659132979E+02  0.00000000000E+00 0.  1.
         11    1    3    3    0    0 -0.84872001484E+01 -0.61856504414E+01 -0.60821187495E+01  0.12136185829E+02  0.51100000000E-03 0. -1.
        -11    1    3    3    0    0  0.15813357210E+01 -0.95660535927E+00  0.38316598982E+01  0.42540961805E+01  0.51100000000E-03 0.  1.
         12    1    3    3    0    0 -0.33699625427E+02  0.53134772460E+01  0.12430576052E+01  0.34138585011E+02  0.00000000000E+00 0. -1.
</event>
<event>
 7    1  0.5935282E-013  0.5052890E+02  0.7816164E-02  0.1300439E+00
        -11   -1    0    0    0    0  0.00000000000E+00  0.00000000000E+00  0.45593999997E+02  0.45594000000E+02  0.51100000000E-03 0.  1.
         11   -1    0    0    0    0 -0.00000000000E+00 -0.00000000000E+00 -0.45593999997E+02  0.45594000000E+02  0.51100000000E-03 0. -1.
    9900012    2    1    2    0    0  0.28290395329E+02  0.11261710372E+02 -0.26944202580E+02  0.50528897194E+02  0.30000113509E+02 0.  0.
        -12    1    1    2    0    0 -0.28290395329E+02 -0.11261710372E+02  0.26944202580E+02  0.40659102806E+02  0.00000000000E+00 0.  1.
         11    1    3    3    0    0 -0.21006436399E+01  0.11505763797E+01 -0.31428795395E+01  0.39514834896E+01  0.51100000000E-03 0. -1.
        -11    1    3    3    0    0 -0.27340291245E+01  0.44368037727E+01  0.30150888800E+00  0.52202539058E+01  0.51100000000E-03 0.  1.
         12    1    3    3    0    0  0.33125068093E+02  0.56743302199E+01 -0.24102831928E+02  0.41357159798E+02  0.00000000000E+00 0. -1.
</event>
<event>
 7    1  0.5935282E-013  0.5052889E+02  0.7816164E-02  0.1300439E+00
        -11   -1    0    0    0    0  0.00000000000E+00  0.00000000000E+00  0.45593999997E+02  0.45594000000E+02  0.51100000000E-03 0.  1.
         11   -1    0    0    0    0 -0.00000000000E+00 -0.00000000000E+00 -0.45593999997E+02  0.45594000000E+02  0.51100000000E-03 0. -1.
    9900012    2    1    2    0    0 -0.13238690623E+02 -0.13037632366E-01 -0.38443469945E+02  0.50528886867E+02  0.30000082120E+02 0.  0.
        -12    1    1    2    0    0  0.13238690623E+02  0.13037632366E-01  0.38443469945E+02  0.40659113133E+02  0.00000000000E+00 0.  1.
         11    1    3    3    0    0 -0.39088216457E+01  0.46583285513E+01 -0.36895200953E+02  0.37392977485E+02  0.51100000000E-03 0. -1.
        -11    1    3    3    0    0  0.13544345215E+01 -0.76574009994E+00 -0.76337865531E+00  0.17330891512E+01  0.51100000000E-03 0.  1.
         12    1    3    3    0    0 -0.10684303499E+02 -0.39056260837E+01 -0.78489033626E+00  0.11402820230E+02  0.00000000000E+00 0. -1.
</event>
<event>
 7    1  0.5935282E-013  0.5052886E+02  0.7816164E-02  0.1300439E+00
        -11   -1    0    0    0    0  0.00000000000E+00  0.00000000000E+00  0.45593999997E+02  0.45594000000E+02  0.51100000000E-03 0.  1.
         11   -1    0    0    0    0 -0.00000000000E+00 -0.00000000000E+00 -0.45593999997E+02  0.45594000000E+02  0.51100000000E-03 0. -1.
    9900012    2    1    2    0    0 -0.30248300099E+01  0.83233464170E+01 -0.39682964351E+02  0.50528863858E+02  0.30000012182E+02 0.  0.
        -12    1    1    2    0    0  0.30248300099E+01 -0.83233464170E+01  0.39682964351E+02  0.40659136142E+02  0.00000000000E+00 0.  1.
         11    1    3    3    0    0  0.88235949526E+01  0.11647432904E+00 -0.12595136196E+02  0.15378779217E+02  0.51100000000E-03 0. -1.
        -11    1    3    3    0    0  0.29230719944E+01  0.61811986099E+01 -0.12735539462E+02  0.14454948350E+02  0.51100000000E-03 0.  1.
         12    1    3    3    0    0 -0.14771496957E+02  0.20256734780E+01 -0.14352288693E+02  0.20695136291E+02  0.00000000000E+00 0. -1.
</event>
<event>
 7    1  0.5935282E-013  0.5052886E+02  0.7816164E-02  0.1300439E+00
        -11   -1    0    0    0    0  0.00000000000E+00  0.00000000000E+00  0.45593999997E+02  0.45594000000E+02  0.51100000000E-03 0. -1.
         11   -1    0    0    0    0 -0.00000000000E+00 -0.00000000000E+00 -0.45593999997E+02  0.45594000000E+02  0.51100000000E-03 0.  1.
    9900012    2    1    2    0    0 -0.60425745714E+00  0.77914898763E+01  0.39901045373E+02  0.50528857566E+02  0.29999993058E+02 0.  0.
        -12    1    1    2    0    0  0.60425745714E+00 -0.77914898763E+01 -0.39901045373E+02  0.40659142434E+02  0.00000000000E+00 0.  1.
         11    1    3    3    0    0 -0.81428944710E+01  0.94646779224E+01  0.16350166112E+02  0.20572184879E+02  0.51100000000E-03 0.  1.
        -11    1    3    3    0    0  0.53121804469E+01  0.35990997887E+01  0.23365502886E+02  0.24230549019E+02  0.51100000000E-03 0. -1.
        -12    1    3    3    0    0  0.22264565669E+01 -0.52722878348E+01  0.18537637471E+00  0.57261236677E+01  0.00000000000E+00 0.  1.
</event>
<event>
 7    1  0.5935282E-013  0.5052886E+02  0.7816164E-02  0.1300439E+00
        -11   -1    0    0    0    0  0.00000000000E+00  0.00000000000E+00  0.45593999997E+02  0.45594000000E+02  0.51100000000E-03 0.  1.
         11   -1    0    0    0    0 -0.00000000000E+00 -0.00000000000E+00 -0.45593999997E+02  0.45594000000E+02  0.51100000000E-03 0. -1.
    9900012    2    1    2    0    0  0.14538267224E+02 -0.20210563763E+02 -0.32145567770E+02  0.50528860452E+02  0.30000001831E+02 0.  0.
        -12    1    1    2    0    0 -0.14538267224E+02  0.20210563763E+02  0.32145567770E+02  0.40659139548E+02  0.00000000000E+00 0.  1.
         11    1    3    3    0    0 -0.61719512981E+00 -0.38697521553E+01 -0.35844739741E+01  0.53107782390E+01  0.51100000000E-03 0. -1.
        -11    1    3    3    0    0  0.11570182902E+02 -0.23003215807E+02 -0.15303427735E+02  0.29953496800E+02  0.51100000000E-03 0.  1.
        -12    1    3    3    0    0  0.35852794520E+01  0.66624041992E+01 -0.13257666061E+02  0.15264585413E+02  0.00000000000E+00 0.  1.
</event>
<event>
 7    1  0.5935282E-013  0.5052883E+02  0.7816164E-02  0.1300439E+00
        -11   -1    0    0    0    0  0.00000000000E+00  0.00000000000E+00  0.45593999997E+02  0.45594000000E+02  0.51100000000E-03 0. -1.
         11   -1    0    0    0    0 -0.00000000000E+00 -0.00000000000E+00 -0.45593999997E+02  0.45594000000E+02  0.51100000000E-03 0.  1.
    9900012    2    1    2    0    0 -0.15218055797E+02 -0.13749979097E+02  0.35107218381E+02  0.50528832155E+02  0.29999915819E+02 0.  0.
        -12    1    1    2    0    0  0.15218055797E+02  0.13749979097E+02 -0.35107218381E+02  0.40659167845E+02  0.00000000000E+00 0.  1.
         11    1    3    3    0    0  0.22935633461E+01 -0.15939447064E+01 -0.22798563666E+00  0.28023330032E+01  0.51100000000E-03 0. -1.
        -11    1    3    3    0    0  0.53209047416E+01 -0.21437499161E+01  0.13176859715E+02  0.14371406444E+02  0.51100000000E-03 0.  1.
         12    1    3    3    0    0 -0.22832523884E+02 -0.10012284474E+02  0.22158344302E+02  0.33355092708E+02  0.00000000000E+00 0. -1.
</event>
<event>
 7    1  0.5935282E-013  0.5052887E+02  0.7816164E-02  0.1300439E+00
        -11   -1    0    0    0    0  0.00000000000E+00  0.00000000000E+00  0.45593999997E+02  0.45594000000E+02  0.51100000000E-03 0. -1.
         11   -1    0    0    0    0 -0.00000000000E+00 -0.00000000000E+00 -0.45593999997E+02  0.45594000000E+02  0.51100000000E-03 0.  1.
    9900012    2    1    2    0    0 -0.22712812123E+02  0.11640181242E+02  0.31651206187E+02  0.50528874247E+02  0.30000043762E+02 0.  0.
        -12    1    1    2    0    0  0.22712812123E+02 -0.11640181242E+02 -0.31651206187E+02  0.40659125753E+02  0.00000000000E+00 0.  1.
         11    1    3    3    0    0 -0.42096768927E+01  0.22119444359E+01 -0.18543573193E+01  0.51041864246E+01  0.51100000000E-03 0. -1.
        -11    1    3    3    0    0 -0.64255811596E+01  0.56199161260E+01 -0.10696904655E+01  0.86032429034E+01  0.51100000000E-03 0.  1.
         12    1    3    3    0    0 -0.12077554071E+02  0.38083206799E+01  0.34575253972E+02  0.36821444919E+02  0.00000000000E+00 0. -1.
</event>
<event>
 7    1  0.5935282E-013  0.5052886E+02  0.7816164E-02  0.1300439E+00
        -11   -1    0    0    0    0  0.00000000000E+00  0.00000000000E+00  0.45593999997E+02  0.45594000000E+02  0.51100000000E-03 0. -1.
         11   -1    0    0    0    0 -0.00000000000E+00 -0.00000000000E+00 -0.45593999997E+02  0.45594000000E+02  0.51100000000E-03 0.  1.
    9900012    2    1    2    0    0  0.10064062396E+02 -0.31900439828E+02  0.23113677778E+02  0.50528861869E+02  0.30000006138E+02 0.  0.
        -12    1    1    2    0    0 -0.10064062396E+02  0.31900439828E+02 -0.23113677778E+02  0.40659138131E+02  0.00000000000E+00 0.  1.
         11    1    3    3    0    0 -0.24777136006E+01  0.20442261626E+01 -0.22305902437E+01  0.39106851557E+01  0.51100000000E-03 0. -1.
        -11    1    3    3    0    0  0.46554773781E+01 -0.42236501711E+01 -0.69544725814E+00  0.63242657705E+01  0.51100000000E-03 0.  1.
         12    1    3    3    0    0  0.78862986184E+01 -0.29721015819E+02  0.26039715280E+02  0.40293910943E+02  0.00000000000E+00 0. -1.
</event>
<event>
 7    1  0.5935282E-013  0.5052887E+02  0.7816164E-02  0.1300439E+00
        -11   -1    0    0    0    0  0.00000000000E+00  0.00000000000E+00  0.45593999997E+02  0.45594000000E+02  0.51100000000E-03 0.  1.
         11   -1    0    0    0    0 -0.00000000000E+00 -0.00000000000E+00 -0.45593999997E+02  0.45594000000E+02  0.51100000000E-03 0. -1.
    9900012    2    1    2    0    0 -0.17258988773E+02 -0.36367200904E+02  0.57200292867E+01  0.50528871504E+02  0.30000035422E+02 0.  0.
        -12    1    1    2    0    0  0.17258988773E+02  0.36367200904E+02 -0.57200292867E+01  0.40659128496E+02  0.00000000000E+00 0.  1.
         11    1    3    3    0    0 -0.16040200769E+02 -0.25715150718E+02  0.99430885206E+01  0.31897053574E+02  0.51100000000E-03 0.  1.
        -11    1    3    3    0    0  0.18903971947E+01 -0.13550206007E+02 -0.44174871509E+01  0.14376921693E+02  0.51100000000E-03 0. -1.
        -12    1    3    3    0    0 -0.31091851994E+01  0.28981558209E+01  0.19442791706E+00  0.42548962362E+01  0.00000000000E+00 0.  1.
</event>
<event>
 7    1  0.5935282E-013  0.5052888E+02  0.7816164E-02  0.1300439E+00
        -11   -1    0    0    0    0  0.00000000000E+00  0.00000000000E+00  0.45593999997E+02  0.45594000000E+02  0.51100000000E-03 0.  1.
         11   -1    0    0    0    0 -0.00000000000E+00 -0.00000000000E+00 -0.45593999997E+02  0.45594000000E+02  0.51100000000E-03 0. -1.
    9900012    2    1    2    0    0  0.26660717880E+02  0.58661924307E+01 -0.30132337510E+02  0.50528882261E+02  0.30000068120E+02 0.  0.
        -12    1    1    2    0    0 -0.26660717880E+02 -0.58661924307E+01  0.30132337510E+02  0.40659117739E+02  0.00000000000E+00 0.  1.
         11    1    3    3    0    0  0.76599689132E+01  0.85366183080E+01 -0.21512351363E+02  0.24378889173E+02  0.51100000000E-03 0. -1.
        -11    1    3    3    0    0  0.48348660165E+01 -0.61243571342E+01 -0.85414251809E+01  0.11568907644E+02  0.51100000000E-03 0.  1.
        -12    1    3    3    0    0  0.14165882950E+02  0.34539312570E+01 -0.78560966570E-01  0.14581085443E+02  0.00000000000E+00 0.  1.
</event>
<event>
 7    1  0.5935282E-013  0.5052886E+02  0.7816164E-02  0.1300439E+00
        -11   -1    0    0    0    0  0.00000000000E+00  0.00000000000E+00  0.45593999997E+02  0.45594000000E+02  0.51100000000E-03 0.  1.
         11   -1    0    0    0    0 -0.00000000000E+00 -0.00000000000E+00 -0.45593999997E+02  0.45594000000E+02  0.51100000000E-03 0. -1.
    9900012    2    1    2    0    0 -0.14272765295E+02 -0.10816187642E+02 -0.36502929034E+02  0.50528861147E+02  0.30000003941E+02 0.  0.
        -12    1    1    2    0    0  0.14272765295E+02  0.10816187642E+02  0.36502929034E+02  0.40659138853E+02  0.00000000000E+00 0.  1.
         11    1    3    3    0    0 -0.12610083762E+02 -0.46595110678E+01 -0.10852139737E+02  0.17276984488E+02  0.51100000000E-03 0. -1.
        -11    1    3    3    0    0  0.88884662544E+00 -0.99711003165E+01 -0.34602861588E+01  0.10591811479E+02  0.51100000000E-03 0.  1.
         12    1    3    3    0    0 -0.25515281581E+01  0.38144237423E+01 -0.22190503138E+02  0.22660065179E+02  0.00000000000E+00 0. -1.
</event>
<event>
 7    1  0.5935282E-013  0.5052900E+02  0.7816164E-02  0.1300438E+00
        -11   -1    0    0    0    0  0.00000000000E+00  0.00000000000E+00  0.45593999997E+02  0.45594000000E+02  0.51100000000E-03 0. -1.
         11   -1    0    0    0    0 -0.00000000000E+00 -0.00000000000E+00 -0.45593999997E+02  0.45594000000E+02  0.51100000000E-03 0.  1.
    9900012    2    1    2    0    0 -0.27626028631E+02 -0.29782063753E+02  0.17277998812E+01  0.50529002573E+02  0.30000433819E+02 0.  0.
        -12    1    1    2    0    0  0.27626028631E+02  0.29782063753E+02 -0.17277998812E+01  0.40658997427E+02  0.00000000000E+00 0.  1.
         11    1    3    3    0    0 -0.98809041217E+01 -0.13146090401E+00 -0.27698930518E+01  0.10262643715E+02  0.51100000000E-03 0. -1.
        -11    1    3    3    0    0 -0.15289623215E+02 -0.98161147048E+01 -0.39076334425E+01  0.18584894009E+02  0.51100000000E-03 0.  1.
        -12    1    3    3    0    0 -0.24555012944E+01 -0.19834488144E+02  0.84053263756E+01  0.21681464850E+02  0.00000000000E+00 0.  1.
</event>
<event>
 7    1  0.5935282E-013  0.5052886E+02  0.7816164E-02  0.1300439E+00
        -11   -1    0    0    0    0  0.00000000000E+00  0.00000000000E+00  0.45593999997E+02  0.45594000000E+02  0.51100000000E-03 0.  1.
         11   -1    0    0    0    0 -0.00000000000E+00 -0.00000000000E+00 -0.45593999997E+02  0.45594000000E+02  0.51100000000E-03 0. -1.
    9900012    2    1    2    0    0  0.89471376473E+01 -0.20368664276E+02 -0.34032803647E+02  0.50528862275E+02  0.30000007372E+02 0.  0.
        -12    1    1    2    0    0 -0.89471376473E+01  0.20368664276E+02  0.34032803647E+02  0.40659137725E+02  0.00000000000E+00 0.  1.
         11    1    3    3    0    0  0.72428245253E+01 -0.71885299421E+01 -0.45025801030E+01  0.11153775042E+02  0.51100000000E-03 0. -1.
        -11    1    3    3    0    0 -0.74569452385E+01 -0.13966337150E+02 -0.23651470791E+02  0.28461494629E+02  0.51100000000E-03 0.  1.
         12    1    3    3    0    0  0.91612583604E+01  0.78620281681E+00 -0.58787527531E+01  0.10913592605E+02  0.00000000000E+00 0. -1.
</event>
<event>
 7    1  0.5935282E-013  0.5052887E+02  0.7816164E-02  0.1300439E+00
        -11   -1    0    0    0    0  0.00000000000E+00  0.00000000000E+00  0.45593999997E+02  0.45594000000E+02  0.51100000000E-03 0.  1.
         11   -1    0    0    0    0 -0.00000000000E+00 -0.00000000000E+00 -0.45593999997E+02  0.45594000000E+02  0.51100000000E-03 0. -1.
    9900012    2    1    2    0    0 -0.10242095583E+02 -0.17421671624E+02 -0.35281014747E+02  0.50528866147E+02  0.30000019140E+02 0.  0.
        -12    1    1    2    0    0  0.10242095583E+02  0.17421671624E+02  0.35281014747E+02  0.40659133853E+02  0.00000000000E+00 0.  1.
         11    1    3    3    0    0 -0.57411808204E+01 -0.10663755536E+02 -0.15746162837E+02  0.19865006511E+02  0.51100000000E-03 0. -1.
        -11    1    3    3    0    0 -0.36157949508E+01 -0.71878894206E+01 -0.24404035298E+02  0.25696238373E+02  0.51100000000E-03 0.  1.
        -12    1    3    3    0    0 -0.88511981152E+00  0.42997333307E+00  0.48691833874E+01  0.49676212626E+01  0.00000000000E+00 0.  1.
</event>
<event>
 7    1  0.5935282E-013  0.5052886E+02  0.7816164E-02  0.1300439E+00
        -11   -1    0    0    0    0  0.00000000000E+00  0.00000000000E+00  0.45593999997E+02  0.45594000000E+02  0.51100000000E-03 0.  1.
         11   -1    0    0    0    0 -0.00000000000E+00 -0.00000000000E+00 -0.45593999997E+02  0.45594000000E+02  0.51100000000E-03 0. -1.
    9900012    2    1    2    0    0 -0.17524899379E+02  0.33944504318E+02  0.13921720517E+02  0.50528858669E+02  0.29999996409E+02 0.  0.
        -12    1    1    2    0    0  0.17524899379E+02 -0.33944504318E+02 -0.13921720517E+02  0.40659141331E+02  0.00000000000E+00 0.  1.
         11    1    3    3    0    0 -0.10857635899E+02  0.16700325909E+02  0.50757489133E+01  0.20556078665E+02  0.51100000000E-03 0. -1.
        -11    1    3    3    0    0 -0.73397259447E+01  0.22193187023E+02  0.56673776447E+01  0.24052615176E+02  0.51100000000E-03 0.  1.
        -12    1    3    3    0    0  0.67246246502E+00 -0.49490086140E+01  0.31785939590E+01  0.59201648275E+01  0.00000000000E+00 0.  1.
</event>
<event>
 7    1  0.5935282E-013  0.5052886E+02  0.7816164E-02  0.1300439E+00
        -11   -1    0    0    0    0  0.00000000000E+00  0.00000000000E+00  0.45593999997E+02  0.45594000000E+02  0.51100000000E-03 0. -1.
         11   -1    0    0    0    0 -0.00000000000E+00 -0.00000000000E+00 -0.45593999997E+02  0.45594000000E+02  0.51100000000E-03 0.  1.
    9900012    2    1    2    0    0 -0.13994117165E+02 -0.35704738361E+02 -0.13509324196E+02  0.50528862074E+02  0.30000006760E+02 0.  0.
        -12    1    1    2    0    0  0.13994117165E+02  0.35704738361E+02  0.13509324196E+02  0.40659137926E+02  0.00000000000E+00 0.  1.
         11    1    3    3    0    0  0.17813011066E+01 -0.75537168739E+01 -0.16883513950E+01  0.79424305435E+01  0.51100000000E-03 0.  1.
        -11    1    3    3    0    0 -0.39368506737E+01 -0.16565536581E+02  0.61895148411E+01  0.18117005539E+02  0.51100000000E-03 0. -1.
        -12    1    3    3    0    0 -0.11838567598E+02 -0.11585484906E+02 -0.18010487642E+02  0.24469425992E+02  0.00000000000E+00 0.  1.
</event>
<event>
 7    1  0.5935282E-013  0.5052887E+02  0.7816164E-02  0.1300439E+00
        -11   -1    0    0    0    0  0.00000000000E+00  0.00000000000E+00  0.45593999997E+02  0.45594000000E+02  0.51100000000E-03 0.  1.
         11   -1    0    0    0    0 -0.00000000000E+00 -0.00000000000E+00 -0.45593999997E+02  0.45594000000E+02  0.51100000000E-03 0. -1.
    9900012    2    1    2    0    0  0.30965155467E+02  0.21607538078E+02 -0.15081045087E+02  0.50528874631E+02  0.30000044928E+02 0.  0.
        -12    1    1    2    0    0 -0.30965155467E+02 -0.21607538078E+02  0.15081045087E+02  0.40659125369E+02  0.00000000000E+00 0.  1.
         11    1    3    3    0    0  0.12407354705E+01 -0.56069777370E+01 -0.22762385103E+01  0.61772879055E+01  0.51100000000E-03 0. -1.
        -11    1    3    3    0    0  0.12557911608E+01 -0.61897168721E+00 -0.30557657462E+01  0.33612262563E+01  0.51100000000E-03 0.  1.
         12    1    3    3    0    0  0.28468628835E+02  0.27833487502E+02 -0.97490408304E+01  0.40990360469E+02  0.00000000000E+00 0. -1.
</event>
<event>
 7    1  0.5935282E-013  0.5052886E+02  0.7816164E-02  0.1300439E+00
        -11   -1    0    0    0    0  0.00000000000E+00  0.00000000000E+00  0.45593999997E+02  0.45594000000E+02  0.51100000000E-03 0. -1.
         11   -1    0    0    0    0 -0.00000000000E+00 -0.00000000000E+00 -0.45593999997E+02  0.45594000000E+02  0.51100000000E-03 0.  1.
    9900012    2    1    2    0    0  0.34870982378E+02  0.13490878431E+01  0.20865294796E+02  0.50528856170E+02  0.29999988815E+02 0.  0.
        -12    1    1    2    0    0 -0.34870982378E+02 -0.13490878431E+01 -0.20865294796E+02  0.40659143830E+02  0.00000000000E+00 0.  1.
         11    1    3    3    0    0  0.22317932961E+02 -0.13026715861E+01  0.18833967797E+02  0.29231924811E+02  0.51100000000E-03 0. -1.
        -11    1    3    3    0    0  0.85137522702E+01  0.89138818134E+01  0.49644481073E+01  0.13288604591E+02  0.51100000000E-03 0.  1.
        -12    1    3    3    0    0  0.40392971472E+01 -0.62621223842E+01 -0.29331211078E+01  0.80083267685E+01  0.00000000000E+00 0.  1.
</event>
<event>
 7    1  0.5935282E-013  0.5052886E+02  0.7816164E-02  0.1300439E+00
        -11   -1    0    0    0    0  0.00000000000E+00  0.00000000000E+00  0.45593999997E+02  0.45594000000E+02  0.51100000000E-03 0.  1.
         11   -1    0    0    0    0 -0.00000000000E+00 -0.00000000000E+00 -0.45593999997E+02  0.45594000000E+02  0.51100000000E-03 0. -1.
    9900012    2    1    2    0    0 -0.29208372688E+02  0.27065070706E+02 -0.82169646351E+01  0.50528860865E+02  0.30000003085E+02 0.  0.
        -12    1    1    2    0    0  0.29208372688E+02 -0.27065070706E+02  0.82169646351E+01  0.40659139135E+02  0.00000000000E+00 0.  1.
         11    1    3    3    0    0  0.35260431377E+00 -0.10306866157E+01 -0.51664716460E+01  0.52800638473E+01  0.51100000000E-03 0. -1.
        -11    1    3    3    0    0  0.28488416283E+01  0.29667597209E+01  0.12983157529E+00  0.41151449991E+01  0.51100000000E-03 0.  1.
         12    1    3    3    0    0 -0.32409818630E+02  0.25128997601E+02 -0.31803245643E+01  0.41133652018E+02  0.00000000000E+00 0. -1.
</event>
<event>
 7    1  0.5935282E-013  0.5052873E+02  0.7816164E-02  0.1300439E+00
        -11   -1    0    0    0    0  0.00000000000E+00  0.00000000000E+00  0.45593999997E+02  0.45594000000E+02  0.51100000000E-03 0.  1.
         11   -1    0    0    0    0 -0.00000000000E+00 -0.00000000000E+00 -0.45593999997E+02  0.45594000000E+02  0.51100000000E-03 0. -1.
    9900012    2    1    2    0    0  0.33003688260E+02  0.13511474833E+02 -0.19528763452E+02  0.50528733001E+02  0.29999614428E+02 0.  0.
        -12    1    1    2    0    0 -0.33003688260E+02 -0.13511474833E+02  0.19528763452E+02  0.40659266999E+02  0.00000000000E+00 0.  1.
         11    1    3    3    0    0  0.20890805176E+02 -0.16219296232E+01 -0.17230166906E+01  0.21024394959E+02  0.51100000000E-03 0. -1.
        -11    1    3    3    0    0  0.19550607744E+01  0.13149572899E+01  0.21513273348E+01  0.31905461708E+01  0.51100000000E-03 0.  1.
         12    1    3    3    0    0  0.10157822309E+02  0.13818447167E+02 -0.19957074096E+02  0.26313791871E+02  0.00000000000E+00 0. -1.
</event>
<event>
 7    1  0.5935282E-013  0.5052886E+02  0.7816164E-02  0.1300439E+00
        -11   -1    0    0    0    0  0.00000000000E+00  0.00000000000E+00  0.45593999997E+02  0.45594000000E+02  0.51100000000E-03 0. -1.
         11   -1    0    0    0    0 -0.00000000000E+00 -0.00000000000E+00 -0.45593999997E+02  0.45594000000E+02  0.51100000000E-03 0.  1.
    9900012    2    1    2    0    0 -0.33252050168E+02 -0.16717408858E+02 -0.16370557248E+02  0.50528859036E+02  0.29999997525E+02 0.  0.
        -12    1    1    2    0    0  0.33252050168E+02  0.16717408858E+02  0.16370557248E+02  0.40659140964E+02  0.00000000000E+00 0.  1.
         11    1    3    3    0    0 -0.26855985395E+02 -0.16048954307E+02 -0.83688059019E+01  0.32385950633E+02  0.51100000000E-03 0. -1.
        -11    1    3    3    0    0 -0.10741525012E+02 -0.32563667830E+01 -0.54201386827E+01  0.12464436923E+02  0.51100000000E-03 0.  1.
        -12    1    3    3    0    0  0.43454602383E+01  0.25879122322E+01 -0.25816126637E+01  0.56784714801E+01  0.00000000000E+00 0.  1.
</event>
<event>
 7    1  0.5935282E-013  0.5052886E+02  0.7816164E-02  0.1300439E+00
        -11   -1    0    0    0    0  0.00000000000E+00  0.00000000000E+00  0.45593999997E+02  0.45594000000E+02  0.51100000000E-03 0.  1.
         11   -1    0    0    0    0 -0.00000000000E+00 -0.00000000000E+00 -0.45593999997E+02  0.45594000000E+02  0.51100000000E-03 0. -1.
    9900012    2    1    2    0    0 -0.32956316895E+02 -0.16226286320E+02 -0.17428556434E+02  0.50528858710E+02  0.29999996535E+02 0.  0.
        -12    1    1    2    0    0  0.32956316895E+02  0.16226286320E+02  0.17428556434E+02  0.40659141290E+02  0.00000000000E+00 0.  1.
         11    1    3    3    0    0  0.11307402975E+01 -0.50245184401E+00  0.10182971006E+01  0.16024857947E+01  0.51100000000E-03 0. -1.
        -11    1    3    3    0    0 -0.98162329388E+01  0.50442476719E+01  0.16907036952E+01  0.11165184411E+02  0.51100000000E-03 0.  1.
        -12    1    3    3    0    0 -0.24270824254E+02 -0.20768082148E+02 -0.20137557230E+02  0.37761188504E+02  0.00000000000E+00 0.  1.
</event>
<event>
 7    1  0.5935282E-013  0.5052887E+02  0.7816164E-02  0.1300439E+00
        -11   -1    0    0    0    0  0.00000000000E+00  0.00000000000E+00  0.45593999997E+02  0.45594000000E+02  0.51100000000E-03 0.  1.
         11   -1    0    0    0    0 -0.00000000000E+00 -0.00000000000E+00 -0.45593999997E+02  0.45594000000E+02  0.51100000000E-03 0. -1.
    9900012    2    1    2    0    0  0.11064763062E+02  0.33232498399E+02 -0.20647926092E+02  0.50528870848E+02  0.30000033431E+02 0.  0.
        -12    1    1    2    0    0 -0.11064763062E+02 -0.33232498399E+02  0.20647926092E+02  0.40659129152E+02  0.00000000000E+00 0.  1.
         11    1    3    3    0    0 -0.34213652439E+00 -0.11285583794E+01  0.29669433609E+01  0.31927189956E+01  0.51100000000E-03 0. -1.
        -11    1    3    3    0    0 -0.42543207344E+01  0.17462542034E+02 -0.97851110488E+01  0.20464310829E+02  0.51100000000E-03 0.  1.
         12    1    3    3    0    0  0.15661220321E+02  0.16898514745E+02 -0.13829758404E+02  0.26871841024E+02  0.00000000000E+00 0. -1.
</event>
<event>
 7    1  0.5935282E-013  0.5052885E+02  0.7816164E-02  0.1300439E+00
        -11   -1    0    0    0    0  0.00000000000E+00  0.00000000000E+00  0.45593999997E+02  0.45594000000E+02  0.51100000000E-03 0.  1.
         11   -1    0    0    0    0 -0.00000000000E+00 -0.00000000000E+00 -0.45593999997E+02  0.45594000000E+02  0.51100000000E-03 0. -1.
    9900012    2    1    2    0    0  0.21473823164E+02 -0.34499342027E+02  0.13554073433E+01  0.50528845918E+02  0.29999957653E+02 0.  0.
        -12    1    1    2    0    0 -0.21473823164E+02  0.34499342027E+02 -0.13554073433E+01  0.40659154082E+02  0.00000000000E+00 0.  1.
         11    1    3    3    0    0  0.19436268078E+01  0.26495562977E+01 -0.87845917980E+00  0.34014003784E+01  0.51100000000E-03 0. -1.
        -11    1    3    3    0    0  0.13154420029E+02 -0.27584993454E+02  0.11201169782E+02  0.32548991304E+02  0.51100000000E-03 0.  1.
         12    1    3    3    0    0  0.63757763268E+01 -0.95639048707E+01 -0.89673032594E+01  0.14578454235E+02  0.00000000000E+00 0. -1.
</event>
<event>
 7    1  0.5935282E-013  0.5052887E+02  0.7816164E-02  0.1300439E+00
        -11   -1    0    0    0    0  0.00000000000E+00  0.00000000000E+00  0.45593999997E+02  0.45594000000E+02  0.51100000000E-03 0.  1.
         11   -1    0    0    0    0 -0.00000000000E+00 -0.00000000000E+00 -0.45593999997E+02  0.45594000000E+02  0.51100000000E-03 0. -1.
    9900012    2    1    2    0    0 -0.11137966951E+02  0.26774551966E+02 -0.28499716637E+02  0.50528870776E+02  0.30000033212E+02 0.  0.
        -12    1    1    2    0    0  0.11137966951E+02 -0.26774551966E+02  0.28499716637E+02  0.40659129224E+02  0.00000000000E+00 0.  1.
         11    1    3    3    0    0  0.87946677064E+00  0.90001583612E+01 -0.11736716068E+02  0.14816437381E+02  0.51100000000E-03 0. -1.
        -11    1    3    3    0    0  0.48426090251E+01  0.40916380014E+01  0.23736711819E+01  0.67695405195E+01  0.51100000000E-03 0.  1.
         12    1    3    3    0    0 -0.16860042747E+02  0.13682755604E+02 -0.19136671751E+02  0.28942892876E+02  0.00000000000E+00 0. -1.
</event>
<event>
 7    1  0.5935282E-013  0.5052887E+02  0.7816164E-02  0.1300439E+00
        -11   -1    0    0    0    0  0.00000000000E+00  0.00000000000E+00  0.45593999997E+02  0.45594000000E+02  0.51100000000E-03 0. -1.
         11   -1    0    0    0    0 -0.00000000000E+00 -0.00000000000E+00 -0.45593999997E+02  0.45594000000E+02  0.51100000000E-03 0.  1.
    9900012    2    1    2    0    0  0.21279614674E+02  0.32908918067E+02  0.10832627284E+02  0.50528871838E+02  0.30000036438E+02 0.  0.
        -12    1    1    2    0    0 -0.21279614674E+02 -0.32908918067E+02 -0.10832627284E+02  0.40659128162E+02  0.00000000000E+00 0.  1.
         11    1    3    3    0    0  0.48112965218E+01  0.61691458609E+01  0.30310287456E+01  0.83901174242E+01  0.51100000000E-03 0. -1.
        -11    1    3    3    0    0  0.92877458030E+01  0.90709590990E+00  0.11785047299E+02  0.15032377896E+02  0.51100000000E-03 0.  1.
         12    1    3    3    0    0  0.71805723493E+01  0.25832676296E+02 -0.39834487612E+01  0.27106376518E+02  0.00000000000E+00 0. -1.
</event>
<event>
 7    1  0.5935282E-013  0.5052888E+02  0.7816164E-02  0.1300439E+00
        -11   -1    0    0    0    0  0.00000000000E+00  0.00000000000E+00  0.45593999997E+02  0.45594000000E+02  0.51100000000E-03 0. -1.
         11   -1    0    0    0    0 -0.00000000000E+00 -0.00000000000E+00 -0.45593999997E+02  0.45594000000E+02  0.51100000000E-03 0.  1.
    9900012    2    1    2    0    0 -0.16325037726E+01  0.94137406236E+01  0.39520635583E+02  0.50528877801E+02  0.30000054565E+02 0.  0.
        -12    1    1    2    0    0  0.16325037726E+01 -0.94137406236E+01 -0.39520635583E+02  0.40659122199E+02  0.00000000000E+00 0.  1.
         11    1    3    3    0    0  0.45961714853E+01 -0.51108441312E+01  0.83728385999E+01  0.10832818033E+02  0.51100000000E-03 0. -1.
        -11    1    3    3    0    0  0.54874007273E+01 -0.46091901741E+00  0.57107361700E+01  0.79332541209E+01  0.51100000000E-03 0.  1.
        -12    1    3    3    0    0 -0.11716075985E+02  0.14985503772E+02  0.25437060813E+02  0.31762805647E+02  0.00000000000E+00 0.  1.
</event>
<event>
 7    1  0.5935282E-013  0.5052895E+02  0.7816164E-02  0.1300438E+00
        -11   -1    0    0    0    0  0.00000000000E+00  0.00000000000E+00  0.45593999997E+02  0.45594000000E+02  0.51100000000E-03 0.  1.
         11   -1    0    0    0    0 -0.00000000000E+00 -0.00000000000E+00 -0.45593999997E+02  0.45594000000E+02  0.51100000000E-03 0. -1.
    9900012    2    1    2    0    0  0.15277532297E+02 -0.24293134684E+02 -0.28802758070E+02  0.50528951089E+02  0.30000277330E+02 0.  0.
        -12    1    1    2    0    0 -0.15277532297E+02  0.24293134684E+02  0.28802758070E+02  0.40659048911E+02  0.00000000000E+00 0.  1.
         11    1    3    3    0    0  0.60887003095E+01  0.44839544880E+00 -0.52583441218E+01  0.80575128360E+01  0.51100000000E-03 0. -1.
        -11    1    3    3    0    0  0.87480438461E+01 -0.68815826432E+00  0.49586922022E-01  0.87752089465E+01  0.51100000000E-03 0.  1.
         12    1    3    3    0    0  0.44078814148E+00 -0.24053371869E+02 -0.23594000870E+02  0.33696229307E+02  0.00000000000E+00 0. -1.
</event>
<event>
 7    1  0.5935282E-013  0.5052885E+02  0.7816164E-02  0.1300439E+00
        -11   -1    0    0    0    0  0.00000000000E+00  0.00000000000E+00  0.45593999997E+02  0.45594000000E+02  0.51100000000E-03 0.  1.
         11   -1    0    0    0    0 -0.00000000000E+00 -0.00000000000E+00 -0.45593999997E+02  0.45594000000E+02  0.51100000000E-03 0. -1.
    9900012    2    1    2    0    0  0.10219160283E+02  0.38547259481E+02 -0.79274286345E+01  0.50528848814E+02  0.29999966455E+02 0.  0.
        -12    1    1    2    0    0 -0.10219160283E+02 -0.38547259481E+02  0.79274286345E+01  0.40659151186E+02  0.00000000000E+00 0.  1.
         11    1    3    3    0    0  0.64104270960E+00 -0.17615187880E+01 -0.21886455848E+01  0.28816755461E+01  0.51100000000E-03 0. -1.
        -11    1    3    3    0    0  0.98048651904E+01  0.25801724292E+02  0.68489423242E+01  0.28438923487E+02  0.51100000000E-03 0.  1.
         12    1    3    3    0    0 -0.22674761681E+00  0.14507053977E+02 -0.12587725374E+02  0.19208249781E+02  0.00000000000E+00 0. -1.
</event>
<event>
 7    1  0.5935282E-013  0.5052885E+02  0.7816164E-02  0.1300439E+00
        -11   -1    0    0    0    0  0.00000000000E+00  0.00000000000E+00  0.45593999997E+02  0.45594000000E+02  0.51100000000E-03 0.  1.
         11   -1    0    0    0    0 -0.00000000000E+00 -0.00000000000E+00 -0.45593999997E+02  0.45594000000E+02  0.51100000000E-03 0. -1.
    9900012    2    1    2    0    0  0.45390350359E+01  0.36257458960E+02 -0.17831437585E+02  0.50528851759E+02  0.29999975407E+02 0.  0.
        -12    1    1    2    0    0 -0.45390350359E+01 -0.36257458960E+02  0.17831437585E+02  0.40659148241E+02  0.00000000000E+00 0.  1.
         11    1    3    3    0    0  0.78249859714E+01  0.78511128904E+01 -0.89453420705E+01  0.14243929377E+02  0.51100000000E-03 0. -1.
        -11    1    3    3    0    0  0.65360568341E+01  0.21664866581E+02 -0.90471774105E+01  0.24370841230E+02  0.51100000000E-03 0.  1.
        -12    1    3    3    0    0 -0.98220077696E+01  0.67414794892E+01  0.16108189638E+00  0.11914081152E+02  0.00000000000E+00 0.  1.
</event>
<event>
 7    1  0.5935282E-013  0.5052895E+02  0.7816164E-02  0.1300438E+00
        -11   -1    0    0    0    0  0.00000000000E+00  0.00000000000E+00  0.45593999997E+02  0.45594000000E+02  0.51100000000E-03 0. -1.
         11   -1    0    0    0    0 -0.00000000000E+00 -0.00000000000E+00 -0.45593999997E+02  0.45594000000E+02  0.51100000000E-03 0.  1.
    9900012    2    1    2    0    0  0.18290086704E+02 -0.28780659654E+02  0.22142833696E+02  0.50528945340E+02  0.30000259854E+02 0.  0.
        -12    1    1    2    0    0 -0.18290086704E+02  0.28780659654E+02 -0.22142833696E+02  0.40659054660E+02  0.00000000000E+00 0.  1.
         11    1    3    3    0    0  0.44672108235E+00 -0.66126291192E+01 -0.85848173944E+00  0.66830692614E+01  0.51100000000E-03 0.  1.
        -11    1    3    3    0    0  0.14195392516E+02 -0.12326575969E+02  0.26316371748E+00  0.18802204636E+02  0.51100000000E-03 0. -1.
         12    1    3    3    0    0  0.36479731063E+01 -0.98414545659E+01  0.22738151718E+02  0.25043671442E+02  0.00000000000E+00 0. -1.
</event>
<event>
 7    1  0.5935282E-013  0.5052886E+02  0.7816164E-02  0.1300439E+00
        -11   -1    0    0    0    0  0.00000000000E+00  0.00000000000E+00  0.45593999997E+02  0.45594000000E+02  0.51100000000E-03 0.  1.
         11   -1    0    0    0    0 -0.00000000000E+00 -0.00000000000E+00 -0.45593999997E+02  0.45594000000E+02  0.51100000000E-03 0. -1.
    9900012    2    1    2    0    0 -0.64349990891E+01 -0.27553467304E+02 -0.29198674032E+02  0.50528864016E+02  0.30000012662E+02 0.  0.
        -12    1    1    2    0    0  0.64349990891E+01  0.27553467304E+02  0.29198674032E+02  0.40659135984E+02  0.00000000000E+00 0.  1.
         11    1    3    3    0    0  0.14721908196E+01 -0.12999345340E+02 -0.72914498834E+01  0.14977168181E+02  0.51100000000E-03 0. -1.
        -11    1    3    3    0    0  0.27068042140E+01 -0.14331971485E+02 -0.46832786314E+01  0.15318788944E+02  0.51100000000E-03 0.  1.
         12    1    3    3    0    0 -0.10613994123E+02 -0.22215047971E+00 -0.17223945517E+02  0.20232906891E+02  0.00000000000E+00 0. -1.
</event>
<event>
 7    1  0.5935282E-013  0.5052887E+02  0.7816164E-02  0.1300439E+00
        -11   -1    0    0    0    0  0.00000000000E+00  0.00000000000E+00  0.45593999997E+02  0.45594000000E+02  0.51100000000E-03 0.  1.
         11   -1    0    0    0    0 -0.00000000000E+00 -0.00000000000E+00 -0.45593999997E+02  0.45594000000E+02  0.51100000000E-03 0. -1.
    9900012    2    1    2    0    0 -0.37302469338E+02 -0.30959050116E+01 -0.15877857991E+02  0.50528865468E+02  0.30000017075E+02 0.  0.
        -12    1    1    2    0    0  0.37302469338E+02  0.30959050116E+01  0.15877857991E+02  0.40659134532E+02  0.00000000000E+00 0.  1.
         11    1    3    3    0    0 -0.18341880844E+02  0.26835765768E+01  0.40649066386E+01  0.18977608975E+02  0.51100000000E-03 0. -1.
        -11    1    3    3    0    0 -0.15955044466E+02  0.20218511965E+01 -0.13462076973E+02  0.20973288795E+02  0.51100000000E-03 0.  1.
         12    1    3    3    0    0 -0.30055440273E+01 -0.78013327849E+01 -0.64806876565E+01  0.10577967698E+02  0.00000000000E+00 0. -1.
</event>
<event>
 7    1  0.5935282E-013  0.5052892E+02  0.7816164E-02  0.1300439E+00
        -11   -1    0    0    0    0  0.00000000000E+00  0.00000000000E+00  0.45593999997E+02  0.45594000000E+02  0.51100000000E-03 0.  1.
         11   -1    0    0    0    0 -0.00000000000E+00 -0.00000000000E+00 -0.45593999997E+02  0.45594000000E+02  0.51100000000E-03 0. -1.
    9900012    2    1    2    0    0 -0.37840152453E+02  0.13933959256E+02 -0.52085327945E+01  0.50528915258E+02  0.30000168417E+02 0.  0.
        -12    1    1    2    0    0  0.37840152453E+02 -0.13933959256E+02  0.52085327945E+01  0.40659084742E+02  0.00000000000E+00 0.  1.
         11    1    3    3    0    0  0.65381532230E+00 -0.90468787031E+00  0.58514253690E+01  0.59569382847E+01  0.51100000000E-03 0. -1.
        -11    1    3    3    0    0  0.56347022922E+00  0.70516950480E+00  0.97390245132E+00  0.13278738553E+01  0.51100000000E-03 0.  1.
         12    1    3    3    0    0 -0.39057438005E+02  0.14133477621E+02 -0.12033860615E+02  0.43244103118E+02  0.00000000000E+00 0. -1.
</event>
<event>
 7    1  0.5935282E-013  0.5052886E+02  0.7816164E-02  0.1300439E+00
        -11   -1    0    0    0    0  0.00000000000E+00  0.00000000000E+00  0.45593999997E+02  0.45594000000E+02  0.51100000000E-03 0.  1.
         11   -1    0    0    0    0 -0.00000000000E+00 -0.00000000000E+00 -0.45593999997E+02  0.45594000000E+02  0.51100000000E-03 0. -1.
    9900012    2    1    2    0    0  0.24534233579E+02 -0.22302419145E+02 -0.23533793280E+02  0.50528856586E+02  0.29999990079E+02 0.  0.
        -12    1    1    2    0    0 -0.24534233579E+02  0.22302419145E+02  0.23533793280E+02  0.40659143414E+02  0.00000000000E+00 0.  1.
         11    1    3    3    0    0  0.88698064275E+01 -0.82076548699E+01  0.93109438846E+00  0.12120478602E+02  0.51100000000E-03 0. -1.
        -11    1    3    3    0    0  0.35318185758E+01 -0.87234204167E+01  0.12286214481E+01  0.94911178026E+01  0.51100000000E-03 0.  1.
        -12    1    3    3    0    0  0.12132608575E+02 -0.53713438585E+01 -0.25693509116E+02  0.28917260181E+02  0.00000000000E+00 0.  1.
</event>
<event>
 7    1  0.5935282E-013  0.5052888E+02  0.7816164E-02  0.1300439E+00
        -11   -1    0    0    0    0  0.00000000000E+00  0.00000000000E+00  0.45593999997E+02  0.45594000000E+02  0.51100000000E-03 0. -1.
         11   -1    0    0    0    0 -0.00000000000E+00 -0.00000000000E+00 -0.45593999997E+02  0.45594000000E+02  0.51100000000E-03 0.  1.
    9900012    2    1    2    0    0 -0.12170052238E+02 -0.18003428407E+02  0.34364673981E+02  0.50528875271E+02  0.30000046874E+02 0.  0.
        -12    1    1    2    0    0  0.12170052238E+02  0.18003428407E+02 -0.34364673981E+02  0.40659124729E+02  0.00000000000E+00 0.  1.
         11    1    3    3    0    0 -0.41466267717E+00 -0.96539179267E+01  0.41185535425E+01  0.10503930694E+02  0.51100000000E-03 0. -1.
        -11    1    3    3    0    0  0.56703513941E+01 -0.65723350158E+01  0.10715717434E+02  0.13790397851E+02  0.51100000000E-03 0.  1.
        -12    1    3    3    0    0 -0.17425740954E+02 -0.17771754643E+01  0.19530403005E+02  0.26234546727E+02  0.00000000000E+00 0.  1.
</event>
<event>
 7    1  0.5935282E-013  0.5052884E+02  0.7816164E-02  0.1300439E+00
        -11   -1    0    0    0    0  0.00000000000E+00  0.00000000000E+00  0.45593999997E+02  0.45594000000E+02  0.51100000000E-03 0. -1.
         11   -1    0    0    0    0 -0.00000000000E+00 -0.00000000000E+00 -0.45593999997E+02  0.45594000000E+02  0.51100000000E-03 0.  1.
    9900012    2    1    2    0    0 -0.26084961685E+02 -0.16565490102E+02  0.26425866522E+02  0.50528842238E+02  0.29999946468E+02 0.  0.
        -12    1    1    2    0    0  0.26084961685E+02  0.16565490102E+02 -0.26425866522E+02  0.40659157762E+02  0.00000000000E+00 0.  1.
         11    1    3    3    0    0 -0.15051228752E+02 -0.59780001213E+01  0.23008033890E+02  0.28136197258E+02  0.51100000000E-03 0. -1.
        -11    1    3    3    0    0 -0.33663870620E+01 -0.43663166118E+01  0.93640915150E+01  0.10866622878E+02  0.51100000000E-03 0.  1.
        -12    1    3    3    0    0 -0.76673458712E+01 -0.62211733691E+01 -0.59462588835E+01  0.11526022102E+02  0.00000000000E+00 0.  1.
</event>
<event>
 7    1  0.5935282E-013  0.5052886E+02  0.7816164E-02  0.1300439E+00
        -11   -1    0    0    0    0  0.00000000000E+00  0.00000000000E+00  0.45593999997E+02  0.45594000000E+02  0.51100000000E-03 0.  1.
         11   -1    0    0    0    0 -0.00000000000E+00 -0.00000000000E+00 -0.45593999997E+02  0.45594000000E+02  0.51100000000E-03 0. -1.
    9900012    2    1    2    0    0  0.90956764114E+01  0.23890341147E+02 -0.31617807480E+02  0.50528862290E+02  0.30000007417E+02 0.  0.
        -12    1    1    2    0    0 -0.90956764114E+01 -0.23890341147E+02  0.31617807480E+02  0.40659137710E+02  0.00000000000E+00 0.  1.
         11    1    3    3    0    0  0.13295617445E+02  0.16026256486E+02 -0.18814371284E+02  0.28064121353E+02  0.51100000000E-03 0. -1.
        -11    1    3    3    0    0  0.61082119105E+01  0.44630988865E+01 -0.59843213675E+01  0.96458077373E+01  0.51100000000E-03 0.  1.
        -12    1    3    3    0    0 -0.10308152944E+02  0.34009857744E+01 -0.68191148278E+01  0.12818933200E+02  0.00000000000E+00 0.  1.
</event>
<event>
 7    1  0.5935282E-013  0.5052883E+02  0.7816164E-02  0.1300439E+00
        -11   -1    0    0    0    0  0.00000000000E+00  0.00000000000E+00  0.45593999997E+02  0.45594000000E+02  0.51100000000E-03 0. -1.
         11   -1    0    0    0    0 -0.00000000000E+00 -0.00000000000E+00 -0.45593999997E+02  0.45594000000E+02  0.51100000000E-03 0.  1.
    9900012    2    1    2    0    0  0.17844716438E+02 -0.33013027489E+02  0.15648454306E+02  0.50528831158E+02  0.29999912787E+02 0.  0.
        -12    1    1    2    0    0 -0.17844716438E+02  0.33013027489E+02 -0.15648454306E+02  0.40659168842E+02  0.00000000000E+00 0.  1.
         11    1    3    3    0    0  0.69762231179E+01 -0.74118259172E+01  0.33392942561E+01  0.10712317154E+02  0.51100000000E-03 0. -1.
        -11    1    3    3    0    0  0.92096871602E+01 -0.18177672700E+02 -0.49372127198E+01  0.20967169386E+02  0.51100000000E-03 0.  1.
         12    1    3    3    0    0  0.16588061603E+01 -0.74235288727E+01  0.17246372770E+02  0.18849344618E+02  0.00000000000E+00 0. -1.
</event>
<event>
 7    1  0.5935282E-013  0.5052885E+02  0.7816164E-02  0.1300439E+00
        -11   -1    0    0    0    0  0.00000000000E+00  0.00000000000E+00  0.45593999997E+02  0.45594000000E+02  0.51100000000E-03 0. -1.
         11   -1    0    0    0    0 -0.00000000000E+00 -0.00000000000E+00 -0.45593999997E+02  0.45594000000E+02  0.51100000000E-03 0.  1.
    9900012    2    1    2    0    0  0.12776742334E+02 -0.29368646165E+02  0.25048028363E+02  0.50528852848E+02  0.29999978718E+02 0.  0.
        -12    1    1    2    0    0 -0.12776742334E+02  0.29368646165E+02 -0.25048028363E+02  0.40659147152E+02  0.00000000000E+00 0.  1.
         11    1    3    3    0    0 -0.45684479952E+01 -0.94404709955E+01  0.10066367249E+02  0.14537020312E+02  0.51100000000E-03 0. -1.
        -11    1    3    3    0    0  0.11107048291E+02 -0.25129782753E+01  0.13160808528E+02  0.17403691072E+02  0.51100000000E-03 0.  1.
        -12    1    3    3    0    0  0.62381420379E+01 -0.17415196894E+02  0.18208525858E+01  0.18588141464E+02  0.00000000000E+00 0.  1.
</event>
<event>
 7    1  0.5935282E-013  0.5052886E+02  0.7816164E-02  0.1300439E+00
        -11   -1    0    0    0    0  0.00000000000E+00  0.00000000000E+00  0.45593999997E+02  0.45594000000E+02  0.51100000000E-03 0.  1.
         11   -1    0    0    0    0 -0.00000000000E+00 -0.00000000000E+00 -0.45593999997E+02  0.45594000000E+02  0.51100000000E-03 0. -1.
    9900012    2    1    2    0    0 -0.35384463376E+02 -0.94808704440E+01 -0.17641378302E+02  0.50528863497E+02  0.30000011085E+02 0.  0.
        -12    1    1    2    0    0  0.35384463376E+02  0.94808704440E+01  0.17641378302E+02  0.40659136503E+02  0.00000000000E+00 0.  1.
         11    1    3    3    0    0 -0.18863565752E+02  0.19913151123E+01 -0.29592322222E+01  0.19197825512E+02  0.51100000000E-03 0. -1.
        -11    1    3    3    0    0  0.27445759174E+01  0.18159811836E+01  0.64699859051E+00  0.33539666162E+01  0.51100000000E-03 0.  1.
         12    1    3    3    0    0 -0.19265473541E+02 -0.13288166740E+02 -0.15329144671E+02  0.27977071369E+02  0.00000000000E+00 0. -1.
</event>
<event>
 7    1  0.5935282E-013  0.5052886E+02  0.7816164E-02  0.1300439E+00
        -11   -1    0    0    0    0  0.00000000000E+00  0.00000000000E+00  0.45593999997E+02  0.45594000000E+02  0.51100000000E-03 0.  1.
         11   -1    0    0    0    0 -0.00000000000E+00 -0.00000000000E+00 -0.45593999997E+02  0.45594000000E+02  0.51100000000E-03 0. -1.
    9900012    2    1    2    0    0 -0.39786061732E+01  0.88155156839E+01 -0.39492064385E+02  0.50528858676E+02  0.29999996431E+02 0.  0.
        -12    1    1    2    0    0  0.39786061732E+01 -0.88155156839E+01  0.39492064385E+02  0.40659141324E+02  0.00000000000E+00 0.  1.
         11    1    3    3    0    0 -0.69172451450E+01  0.76433916395E+01 -0.28775008106E+02  0.30565843812E+02  0.51100000000E-03 0. -1.
        -11    1    3    3    0    0  0.80742861341E+00  0.68814587830E+01 -0.11885757774E+02  0.13757821560E+02  0.51100000000E-03 0.  1.
         12    1    3    3    0    0  0.21312103584E+01 -0.57093347386E+01  0.11687014961E+01  0.62051933037E+01  0.00000000000E+00 0. -1.
</event>
<event>
 7    1  0.5935282E-013  0.5052886E+02  0.7816164E-02  0.1300439E+00
        -11   -1    0    0    0    0  0.00000000000E+00  0.00000000000E+00  0.45593999997E+02  0.45594000000E+02  0.51100000000E-03 0.  1.
         11   -1    0    0    0    0 -0.00000000000E+00 -0.00000000000E+00 -0.45593999997E+02  0.45594000000E+02  0.51100000000E-03 0. -1.
    9900012    2    1    2    0    0 -0.33733083762E+02 -0.43453532334E+01 -0.22279193512E+02  0.50528862056E+02  0.30000006706E+02 0.  0.
        -12    1    1    2    0    0  0.33733083762E+02  0.43453532334E+01  0.22279193512E+02  0.40659137944E+02  0.00000000000E+00 0.  1.
         11    1    3    3    0    0 -0.18722427185E+02 -0.17421237527E+01 -0.15905500762E+02  0.24628220188E+02  0.51100000000E-03 0. -1.
        -11    1    3    3    0    0 -0.15494403100E+02  0.16019049814E+01 -0.11419539854E+02  0.19314463952E+02  0.51100000000E-03 0.  1.
        -12    1    3    3    0    0  0.48374652279E+00 -0.42051344621E+01  0.50458471052E+01  0.65861779168E+01  0.00000000000E+00 0.  1.
</event>
<event>
 7    1  0.5935282E-013  0.5052879E+02  0.7816164E-02  0.1300439E+00
        -11   -1    0    0    0    0  0.00000000000E+00  0.00000000000E+00  0.45593999997E+02  0.45594000000E+02  0.51100000000E-03 0. -1.
         11   -1    0    0    0    0 -0.00000000000E+00 -0.00000000000E+00 -0.45593999997E+02  0.45594000000E+02  0.51100000000E-03 0.  1.
    9900012    2    1    2    0    0 -0.13329626583E+02  0.28156792963E+02  0.26128280955E+02  0.50528794395E+02  0.29999801042E+02 0.  0.
        -12    1    1    2    0    0  0.13329626583E+02 -0.28156792963E+02 -0.26128280955E+02  0.40659205605E+02  0.00000000000E+00 0.  1.
         11    1    3    3    0    0 -0.10265439687E+02  0.66587980546E+01  0.26373586586E+01  0.12516968661E+02  0.51100000000E-03 0. -1.
        -11    1    3    3    0    0 -0.30029922166E+01  0.26059016716E+01  0.17861595327E+02  0.18298777929E+02  0.51100000000E-03 0.  1.
         12    1    3    3    0    0 -0.61194679234E-01  0.18892093237E+02  0.56293269687E+01  0.19713047805E+02  0.00000000000E+00 0. -1.
</event>
<event>
 7    1  0.5935282E-013  0.5052887E+02  0.7816164E-02  0.1300439E+00
        -11   -1    0    0    0    0  0.00000000000E+00  0.00000000000E+00  0.45593999997E+02  0.45594000000E+02  0.51100000000E-03 0. -1.
         11   -1    0    0    0    0 -0.00000000000E+00 -0.00000000000E+00 -0.45593999997E+02  0.45594000000E+02  0.51100000000E-03 0.  1.
    9900012    2    1    2    0    0  0.27492222464E+02  0.29625119080E+02  0.44379275344E+01  0.50528866004E+02  0.30000018707E+02 0.  0.
        -12    1    1    2    0    0 -0.27492222464E+02 -0.29625119080E+02 -0.44379275344E+01  0.40659133996E+02  0.00000000000E+00 0.  1.
         11    1    3    3    0    0 -0.15232722992E+01  0.64490746615E+01 -0.36517474497E+01  0.75661206827E+01  0.51100000000E-03 0. -1.
        -11    1    3    3    0    0  0.10092342997E+01  0.16847672033E+01 -0.49532667509E+01  0.53283999631E+01  0.51100000000E-03 0.  1.
         12    1    3    3    0    0  0.28006260463E+02  0.21491277215E+02  0.13042941735E+02  0.37634345359E+02  0.00000000000E+00 0. -1.
</event>
<event>
 7    1  0.5935282E-013  0.5052887E+02  0.7816164E-02  0.1300439E+00
        -11   -1    0    0    0    0  0.00000000000E+00  0.00000000000E+00  0.45593999997E+02  0.45594000000E+02  0.51100000000E-03 0. -1.
         11   -1    0    0    0    0 -0.00000000000E+00 -0.00000000000E+00 -0.45593999997E+02  0.45594000000E+02  0.51100000000E-03 0.  1.
    9900012    2    1    2    0    0  0.23783012812E+02 -0.26566704163E+02  0.19538264027E+02  0.50528865360E+02  0.30000016748E+02 0.  0.
        -12    1    1    2    0    0 -0.23783012812E+02  0.26566704163E+02 -0.19538264027E+02  0.40659134640E+02  0.00000000000E+00 0.  1.
         11    1    3    3    0    0 -0.24953668503E+00  0.17767196478E+01 -0.72744260098E+00  0.19360202124E+01  0.51100000000E-03 0. -1.
        -11    1    3    3    0    0 -0.16346445060E+01  0.28617899936E+01  0.36137636089E+01  0.48909295957E+01  0.51100000000E-03 0.  1.
         12    1    3    3    0    0  0.25667194003E+02 -0.31205213805E+02  0.16651943019E+02  0.43701915552E+02  0.00000000000E+00 0. -1.
</event>
<event>
 7    1  0.5935282E-013  0.5052889E+02  0.7816164E-02  0.1300439E+00
        -11   -1    0    0    0    0  0.00000000000E+00  0.00000000000E+00  0.45593999997E+02  0.45594000000E+02  0.51100000000E-03 0.  1.
         11   -1    0    0    0    0 -0.00000000000E+00 -0.00000000000E+00 -0.45593999997E+02  0.45594000000E+02  0.51100000000E-03 0. -1.
    9900012    2    1    2    0    0 -0.84607381544E+01 -0.11578009834E+02 -0.38046406644E+02  0.50528887118E+02  0.30000082884E+02 0.  0.
        -12    1    1    2    0    0  0.84607381544E+01  0.11578009834E+02  0.38046406644E+02  0.40659112882E+02  0.00000000000E+00 0.  1.
         11    1    3    3    0    0 -0.75536841059E+01  0.18013734375E+01 -0.10180899924E+02  0.12804445063E+02  0.51100000000E-03 0. -1.
        -11    1    3    3    0    0  0.72837220857E+01  0.22335007423E+01 -0.64273800060E+01  0.99675647473E+01  0.51100000000E-03 0.  1.
         12    1    3    3    0    0 -0.81907761343E+01 -0.15612884014E+02 -0.21438126713E+02  0.27756877308E+02  0.00000000000E+00 0. -1.
</event>
<event>
 7    1  0.5935282E-013  0.5052886E+02  0.7816164E-02  0.1300439E+00
        -11   -1    0    0    0    0  0.00000000000E+00  0.00000000000E+00  0.45593999997E+02  0.45594000000E+02  0.51100000000E-03 0. -1.
         11   -1    0    0    0    0 -0.00000000000E+00 -0.00000000000E+00 -0.45593999997E+02  0.45594000000E+02  0.51100000000E-03 0.  1.
    9900012    2    1    2    0    0 -0.24136709890E+02  0.24306413638E+02  0.21903961723E+02  0.50528855304E+02  0.29999986182E+02 0.  0.
        -12    1    1    2    0    0  0.24136709890E+02 -0.24306413638E+02 -0.21903961723E+02  0.40659144696E+02  0.00000000000E+00 0.  1.
         11    1    3    3    0    0  0.16991662766E+01  0.18672552788E+01  0.20546207110E+01  0.32550383775E+01  0.51100000000E-03 0.  1.
        -11    1    3    3    0    0  0.30911126885E+00  0.67897439968E+01  0.14935664888E+02  0.16409456397E+02  0.51100000000E-03 0. -1.
        -12    1    3    3    0    0 -0.26144987435E+02  0.15649414362E+02  0.49136761239E+01  0.30864360530E+02  0.00000000000E+00 0.  1.
</event>
<event>
 7    1  0.5935282E-013  0.5052885E+02  0.7816164E-02  0.1300439E+00
        -11   -1    0    0    0    0  0.00000000000E+00  0.00000000000E+00  0.45593999997E+02  0.45594000000E+02  0.51100000000E-03 0. -1.
         11   -1    0    0    0    0 -0.00000000000E+00 -0.00000000000E+00 -0.45593999997E+02  0.45594000000E+02  0.51100000000E-03 0.  1.
    9900012    2    1    2    0    0  0.27672354263E+02  0.17472447712E+02  0.24127186168E+02  0.50528846887E+02  0.29999960597E+02 0.  0.
        -12    1    1    2    0    0 -0.27672354263E+02 -0.17472447712E+02 -0.24127186168E+02  0.40659153113E+02  0.00000000000E+00 0.  1.
         11    1    3    3    0    0  0.19926602945E+01  0.12606877668E+02  0.53343737022E+01  0.13833278811E+02  0.51100000000E-03 0. -1.
        -11    1    3    3    0    0  0.32003963448E-01  0.21688048038E+01  0.87585699290E+01  0.90231527746E+01  0.51100000000E-03 0.  1.
         12    1    3    3    0    0  0.25647690005E+02  0.26967652396E+01  0.10034242537E+02  0.27672415302E+02  0.00000000000E+00 0. -1.
</event>
<event>
 7    1  0.5935282E-013  0.5052886E+02  0.7816164E-02  0.1300439E+00
        -11   -1    0    0    0    0  0.00000000000E+00  0.00000000000E+00  0.45593999997E+02  0.45594000000E+02  0.51100000000E-03 0.  1.
         11   -1    0    0    0    0 -0.00000000000E+00 -0.00000000000E+00 -0.45593999997E+02  0.45594000000E+02  0.51100000000E-03 0. -1.
    9900012    2    1    2    0    0 -0.13640277266E+02 -0.66155920668E+01 -0.37727210453E+02  0.50528860426E+02  0.30000001752E+02 0.  0.
        -12    1    1    2    0    0  0.13640277266E+02  0.66155920668E+01  0.37727210453E+02  0.40659139574E+02  0.00000000000E+00 0.  1.
         11    1    3    3    0    0 -0.18760448493E+01 -0.37000383688E+01 -0.92911397923E+00  0.42512446712E+01  0.51100000000E-03 0. -1.
        -11    1    3    3    0    0 -0.12110706413E+02 -0.13114927912E+02 -0.23876901874E+02  0.29812362994E+02  0.51100000000E-03 0.  1.
         12    1    3    3    0    0  0.34647399627E+00  0.10199374214E+02 -0.12921194600E+02  0.16465252761E+02  0.00000000000E+00 0. -1.
</event>
<event>
 7    1  0.5935282E-013  0.5052886E+02  0.7816164E-02  0.1300439E+00
        -11   -1    0    0    0    0  0.00000000000E+00  0.00000000000E+00  0.45593999997E+02  0.45594000000E+02  0.51100000000E-03 0.  1.
         11   -1    0    0    0    0 -0.00000000000E+00 -0.00000000000E+00 -0.45593999997E+02  0.45594000000E+02  0.51100000000E-03 0. -1.
    9900012    2    1    2    0    0  0.16303779661E+02  0.16448729501E+02 -0.33418430305E+02  0.50528863050E+02  0.30000009727E+02 0.  0.
        -12    1    1    2    0    0 -0.16303779661E+02 -0.16448729501E+02  0.33418430305E+02  0.40659136950E+02  0.00000000000E+00 0.  1.
         11    1    3    3    0    0  0.92098739515E+01  0.48938547623E+01 -0.25883138028E+02  0.27905347643E+02  0.51100000000E-03 0. -1.
        -11    1    3    3    0    0 -0.45934657544E+01  0.73620809264E+01 -0.47717086685E+01  0.99029978835E+01  0.51100000000E-03 0.  1.
         12    1    3    3    0    0  0.11687371464E+02  0.41927938123E+01 -0.27635836089E+01  0.12720517523E+02  0.00000000000E+00 0. -1.
</event>
<event>
 7    1  0.5935282E-013  0.5052891E+02  0.7816164E-02  0.1300439E+00
        -11   -1    0    0    0    0  0.00000000000E+00  0.00000000000E+00  0.45593999997E+02  0.45594000000E+02  0.51100000000E-03 0. -1.
         11   -1    0    0    0    0 -0.00000000000E+00 -0.00000000000E+00 -0.45593999997E+02  0.45594000000E+02  0.51100000000E-03 0.  1.
    9900012    2    1    2    0    0  0.36802696461E+02  0.16966968851E+02  0.32932349408E+01  0.50528906366E+02  0.30000141389E+02 0.  0.
        -12    1    1    2    0    0 -0.36802696461E+02 -0.16966968851E+02 -0.32932349408E+01  0.40659093634E+02  0.00000000000E+00 0.  1.
         11    1    3    3    0    0  0.19648677238E+02 -0.17512693441E+01 -0.19479684430E+01  0.19822513535E+02  0.51100000000E-03 0. -1.
        -11    1    3    3    0    0 -0.32612260579E+01  0.34224918290E+01  0.12134634111E+01  0.48807314443E+01  0.51100000000E-03 0.  1.
        -12    1    3    3    0    0  0.20415245281E+02  0.15295746366E+02  0.40277399727E+01  0.25825661386E+02  0.00000000000E+00 0.  1.
</event>
<event>
 7    1  0.5935282E-013  0.5052886E+02  0.7816164E-02  0.1300439E+00
        -11   -1    0    0    0    0  0.00000000000E+00  0.00000000000E+00  0.45593999997E+02  0.45594000000E+02  0.51100000000E-03 0.  1.
         11   -1    0    0    0    0 -0.00000000000E+00 -0.00000000000E+00 -0.45593999997E+02  0.45594000000E+02  0.51100000000E-03 0. -1.
    9900012    2    1    2    0    0  0.20401854818E+02  0.10285810227E+02 -0.33632312541E+02  0.50528855654E+02  0.29999987247E+02 0.  0.
        -12    1    1    2    0    0 -0.20401854818E+02 -0.10285810227E+02  0.33632312541E+02  0.40659144346E+02  0.00000000000E+00 0.  1.
         11    1    3    3    0    0 -0.42387758997E+01 -0.26982420791E+01 -0.14086826045E+00  0.50266863413E+01  0.51100000000E-03 0. -1.
        -11    1    3    3    0    0  0.15100214157E+01 -0.22271846931E+01 -0.11394145363E+01  0.29221194500E+01  0.51100000000E-03 0.  1.
        -12    1    3    3    0    0  0.23130609302E+02  0.15211236999E+02 -0.32352029745E+02  0.42580049863E+02  0.00000000000E+00 0.  1.
</event>
<event>
 7    1  0.5935282E-013  0.5052887E+02  0.7816164E-02  0.1300439E+00
        -11   -1    0    0    0    0  0.00000000000E+00  0.00000000000E+00  0.45593999997E+02  0.45594000000E+02  0.51100000000E-03 0.  1.
         11   -1    0    0    0    0 -0.00000000000E+00 -0.00000000000E+00 -0.45593999997E+02  0.45594000000E+02  0.51100000000E-03 0. -1.
    9900012    2    1    2    0    0  0.15707272697E+02 -0.52153646582E+00 -0.37498996643E+02  0.50528866154E+02  0.30000019161E+02 0.  0.
        -12    1    1    2    0    0 -0.15707272697E+02  0.52153646582E+00  0.37498996643E+02  0.40659133846E+02  0.00000000000E+00 0.  1.
         11    1    3    3    0    0  0.15839005043E+02  0.46958155443E+01 -0.22425358270E+02  0.27853571731E+02  0.51100000000E-03 0. -1.
        -11    1    3    3    0    0  0.58876156945E+01 -0.15808167622E+01 -0.14367574484E+02  0.15607376366E+02  0.51100000000E-03 0.  1.
        -12    1    3    3    0    0 -0.60193480401E+01 -0.36365352479E+01 -0.70606388846E+00  0.70679180564E+01  0.00000000000E+00 0.  1.
</event>
<event>
 7    1  0.5935282E-013  0.5052886E+02  0.7816164E-02  0.1300439E+00
        -11   -1    0    0    0    0  0.00000000000E+00  0.00000000000E+00  0.45593999997E+02  0.45594000000E+02  0.51100000000E-03 0.  1.
         11   -1    0    0    0    0 -0.00000000000E+00 -0.00000000000E+00 -0.45593999997E+02  0.45594000000E+02  0.51100000000E-03 0. -1.
    9900012    2    1    2    0    0  0.37899925047E+02  0.14303940506E+02 -0.34869687279E+01  0.50528856090E+02  0.29999988571E+02 0.  0.
        -12    1    1    2    0    0 -0.37899925047E+02 -0.14303940506E+02  0.34869687279E+01  0.40659143910E+02  0.00000000000E+00 0.  1.
         11    1    3    3    0    0  0.13493978387E+02  0.10558432504E+02 -0.66194620066E+01  0.18368049084E+02  0.51100000000E-03 0. -1.
        -11    1    3    3    0    0  0.27462709659E+01 -0.68522609295E+01 -0.16824948226E+01  0.75714115694E+01  0.51100000000E-03 0.  1.
         12    1    3    3    0    0  0.21659675694E+02  0.10597768932E+02  0.48149881014E+01  0.24589395436E+02  0.00000000000E+00 0. -1.
</event>
<event>
 7    1  0.5935282E-013  0.5052887E+02  0.7816164E-02  0.1300439E+00
        -11   -1    0    0    0    0  0.00000000000E+00  0.00000000000E+00  0.45593999997E+02  0.45594000000E+02  0.51100000000E-03 0. -1.
         11   -1    0    0    0    0 -0.00000000000E+00 -0.00000000000E+00 -0.45593999997E+02  0.45594000000E+02  0.51100000000E-03 0.  1.
    9900012    2    1    2    0    0  0.28738199068E+02 -0.24267761299E+02  0.15438796252E+02  0.50528871212E+02  0.30000034535E+02 0.  0.
        -12    1    1    2    0    0 -0.28738199068E+02  0.24267761299E+02 -0.15438796252E+02  0.40659128788E+02  0.00000000000E+00 0.  1.
         11    1    3    3    0    0  0.24583075370E+02 -0.23342247608E+02  0.99676941985E+01  0.35334728610E+02  0.51100000000E-03 0. -1.
        -11    1    3    3    0    0  0.88483977096E+01 -0.21233315291E+01  0.48481247371E+01  0.10310528238E+02  0.51100000000E-03 0.  1.
        -12    1    3    3    0    0 -0.46932740119E+01  0.11978178375E+01  0.62297731609E+00  0.48836143643E+01  0.00000000000E+00 0.  1.
</event>
<event>
 7    1  0.5935282E-013  0.5052885E+02  0.7816164E-02  0.1300439E+00
        -11   -1    0    0    0    0  0.00000000000E+00  0.00000000000E+00  0.45593999997E+02  0.45594000000E+02  0.51100000000E-03 0. -1.
         11   -1    0    0    0    0 -0.00000000000E+00 -0.00000000000E+00 -0.45593999997E+02  0.45594000000E+02  0.51100000000E-03 0.  1.
    9900012    2    1    2    0    0  0.11586304617E+02  0.28659366587E+02  0.26411443604E+02  0.50528854644E+02  0.29999984175E+02 0.  0.
        -12    1    1    2    0    0 -0.11586304617E+02 -0.28659366587E+02 -0.26411443604E+02  0.40659145356E+02  0.00000000000E+00 0.  1.
         11    1    3    3    0    0  0.71396752913E+01  0.40873721079E+01 -0.38669820935E+01  0.90903863936E+01  0.51100000000E-03 0. -1.
        -11    1    3    3    0    0  0.53860937091E+01  0.24294185432E+01  0.86174411533E+01  0.10448558379E+02  0.51100000000E-03 0.  1.
         12    1    3    3    0    0 -0.93946438368E+00  0.22142575936E+02  0.21660984544E+02  0.30989909871E+02  0.00000000000E+00 0. -1.
</event>
<event>
 7    1  0.5935282E-013  0.5052879E+02  0.7816164E-02  0.1300439E+00
        -11   -1    0    0    0    0  0.00000000000E+00  0.00000000000E+00  0.45593999997E+02  0.45594000000E+02  0.51100000000E-03 0. -1.
         11   -1    0    0    0    0 -0.00000000000E+00 -0.00000000000E+00 -0.45593999997E+02  0.45594000000E+02  0.51100000000E-03 0.  1.
    9900012    2    1    2    0    0  0.38434377421E+02  0.95497506514E+01  0.92071758569E+01  0.50528792033E+02  0.29999793864E+02 0.  0.
        -12    1    1    2    0    0 -0.38434377421E+02 -0.95497506514E+01 -0.92071758569E+01  0.40659207967E+02  0.00000000000E+00 0.  1.
         11    1    3    3    0    0  0.25436084151E+02  0.81403346374E+01 -0.36999061349E+00  0.26709479933E+02  0.51100000000E-03 0. -1.
        -11    1    3    3    0    0  0.10124970814E+02  0.89465382206E+01  0.42953563382E+01  0.14177646718E+02  0.51100000000E-03 0.  1.
         12    1    3    3    0    0  0.28733224556E+01 -0.75371222066E+01  0.52818101322E+01  0.96416653833E+01  0.00000000000E+00 0. -1.
</event>
<event>
 7    1  0.5935282E-013  0.5052887E+02  0.7816164E-02  0.1300439E+00
        -11   -1    0    0    0    0  0.00000000000E+00  0.00000000000E+00  0.45593999997E+02  0.45594000000E+02  0.51100000000E-03 0.  1.
         11   -1    0    0    0    0 -0.00000000000E+00 -0.00000000000E+00 -0.45593999997E+02  0.45594000000E+02  0.51100000000E-03 0. -1.
    9900012    2    1    2    0    0 -0.21430663801E+02 -0.32613794490E+02  0.11411920725E+02  0.50528869702E+02  0.30000029945E+02 0.  0.
        -12    1    1    2    0    0  0.21430663801E+02  0.32613794490E+02 -0.11411920725E+02  0.40659130298E+02  0.00000000000E+00 0.  1.
         11    1    3    3    0    0 -0.12080554389E+02 -0.11417055114E+02 -0.41267319098E+01  0.17126554188E+02  0.51100000000E-03 0. -1.
        -11    1    3    3    0    0 -0.69575990128E+01 -0.63166501831E+01 -0.26665176657E+01  0.97682429475E+01  0.51100000000E-03 0.  1.
         12    1    3    3    0    0 -0.23925103989E+01 -0.14880089193E+02  0.18205170300E+02  0.23634072566E+02  0.00000000000E+00 0. -1.
</event>
<event>
 7    1  0.5935282E-013  0.5052887E+02  0.7816164E-02  0.1300439E+00
        -11   -1    0    0    0    0  0.00000000000E+00  0.00000000000E+00  0.45593999997E+02  0.45594000000E+02  0.51100000000E-03 0.  1.
         11   -1    0    0    0    0 -0.00000000000E+00 -0.00000000000E+00 -0.45593999997E+02  0.45594000000E+02  0.51100000000E-03 0. -1.
    9900012    2    1    2    0    0 -0.13267710392E+02 -0.21680990208E+02 -0.31734327406E+02  0.50528868045E+02  0.30000024908E+02 0.  0.
        -12    1    1    2    0    0  0.13267710392E+02  0.21680990208E+02  0.31734327406E+02  0.40659131955E+02  0.00000000000E+00 0.  1.
         11    1    3    3    0    0 -0.89050279556E+01 -0.71167150548E+01 -0.39136715227E+01  0.12052550813E+02  0.51100000000E-03 0. -1.
        -11    1    3    3    0    0  0.35403694818E+01 -0.23267733568E+01  0.24420225062E+01  0.48899452455E+01  0.51100000000E-03 0.  1.
         12    1    3    3    0    0 -0.79030519182E+01 -0.12237501796E+02 -0.30262678390E+02  0.33586371986E+02  0.00000000000E+00 0. -1.
</event>
<event>
 7    1  0.5935282E-013  0.5052887E+02  0.7816164E-02  0.1300439E+00
        -11   -1    0    0    0    0  0.00000000000E+00  0.00000000000E+00  0.45593999997E+02  0.45594000000E+02  0.51100000000E-03 0.  1.
         11   -1    0    0    0    0 -0.00000000000E+00 -0.00000000000E+00 -0.45593999997E+02  0.45594000000E+02  0.51100000000E-03 0. -1.
    9900012    2    1    2    0    0  0.40037781336E+02  0.48616573767E+01  0.51483203548E+01  0.50528870039E+02  0.30000030969E+02 0.  0.
        -12    1    1    2    0    0 -0.40037781336E+02 -0.48616573767E+01 -0.51483203548E+01  0.40659129961E+02  0.00000000000E+00 0.  1.
         11    1    3    3    0    0 -0.21533126837E+01  0.21900154027E+01 -0.22598475929E+01  0.38131134762E+01  0.51100000000E-03 0. -1.
        -11    1    3    3    0    0  0.11364555695E+02  0.48409589315E+01  0.97319462139E+01  0.15725736450E+02  0.51100000000E-03 0.  1.
        -12    1    3    3    0    0  0.30826538325E+02 -0.21693169575E+01 -0.23237782662E+01  0.30990020113E+02  0.00000000000E+00 0.  1.
</event>
<event>
 7    1  0.5935282E-013  0.5052886E+02  0.7816164E-02  0.1300439E+00
        -11   -1    0    0    0    0  0.00000000000E+00  0.00000000000E+00  0.45593999997E+02  0.45594000000E+02  0.51100000000E-03 0.  1.
         11   -1    0    0    0    0 -0.00000000000E+00 -0.00000000000E+00 -0.45593999997E+02  0.45594000000E+02  0.51100000000E-03 0. -1.
    9900012    2    1    2    0    0 -0.39926614139E+02 -0.74584894032E+01  0.18444623573E+01  0.50528860534E+02  0.30000002079E+02 0.  0.
        -12    1    1    2    0    0  0.39926614139E+02  0.74584894032E+01 -0.18444623573E+01  0.40659139466E+02  0.00000000000E+00 0.  1.
         11    1    3    3    0    0 -0.72513777587E+01  0.32561794495E+01  0.49118149726E+01  0.93440414486E+01  0.51100000000E-03 0. -1.
        -11    1    3    3    0    0 -0.12779221860E+02  0.36675665589E+01  0.65466463284E+01  0.14819518691E+02  0.51100000000E-03 0.  1.
         12    1    3    3    0    0 -0.19896014519E+02 -0.14382235412E+02 -0.96139989437E+01  0.26365300394E+02  0.00000000000E+00 0. -1.
</event>
<event>
 7    1  0.5935282E-013  0.5052881E+02  0.7816164E-02  0.1300439E+00
        -11   -1    0    0    0    0  0.00000000000E+00  0.00000000000E+00  0.45593999997E+02  0.45594000000E+02  0.51100000000E-03 0.  1.
         11   -1    0    0    0    0 -0.00000000000E+00 -0.00000000000E+00 -0.45593999997E+02  0.45594000000E+02  0.51100000000E-03 0. -1.
    9900012    2    1    2    0    0 -0.24959594782E+02  0.30454618461E+02 -0.10134326908E+02  0.50528809905E+02  0.29999848188E+02 0.  0.
        -12    1    1    2    0    0  0.24959594782E+02 -0.30454618461E+02  0.10134326908E+02  0.40659190095E+02  0.00000000000E+00 0.  1.
         11    1    3    3    0    0 -0.39218801675E+01  0.11149752892E+02 -0.43835771522E+00  0.11827522621E+02  0.51100000000E-03 0. -1.
        -11    1    3    3    0    0 -0.21391378050E+02  0.19675440298E+02 -0.72359704343E-01  0.29064054121E+02  0.51100000000E-03 0.  1.
        -12    1    3    3    0    0  0.35366343597E+00 -0.37057472860E+00 -0.96236094885E+01  0.96372331632E+01  0.00000000000E+00 0.  1.
</event>
<event>
 7    1  0.5935282E-013  0.5052886E+02  0.7816164E-02  0.1300439E+00
        -11   -1    0    0    0    0  0.00000000000E+00  0.00000000000E+00  0.45593999997E+02  0.45594000000E+02  0.51100000000E-03 0. -1.
         11   -1    0    0    0    0 -0.00000000000E+00 -0.00000000000E+00 -0.45593999997E+02  0.45594000000E+02  0.51100000000E-03 0.  1.
    9900012    2    1    2    0    0  0.28688216214E+01  0.23304658464E+02  0.33193800500E+02  0.50528860372E+02  0.30000001588E+02 0.  0.
        -12    1    1    2    0    0 -0.28688216214E+01 -0.23304658464E+02 -0.33193800500E+02  0.40659139628E+02  0.00000000000E+00 0.  1.
         11    1    3    3    0    0  0.15595826151E+01  0.11111514805E+02  0.96234650236E-02  0.11220434576E+02  0.51100000000E-03 0. -1.
        -11    1    3    3    0    0 -0.63854103673E+01  0.15328013910E+00  0.13995771543E+02  0.15384361595E+02  0.51100000000E-03 0.  1.
         12    1    3    3    0    0  0.76946493736E+01  0.12039863519E+02  0.19188405492E+02  0.23924064201E+02  0.00000000000E+00 0. -1.
</event>
<event>
 7    1  0.5935282E-013  0.5052886E+02  0.7816164E-02  0.1300439E+00
        -11   -1    0    0    0    0  0.00000000000E+00  0.00000000000E+00  0.45593999997E+02  0.45594000000E+02  0.51100000000E-03 0.  1.
         11   -1    0    0    0    0 -0.00000000000E+00 -0.00000000000E+00 -0.45593999997E+02  0.45594000000E+02  0.51100000000E-03 0. -1.
    9900012    2    1    2    0    0  0.86726597388E+01 -0.20430915282E+02 -0.34066529463E+02  0.50528858890E+02  0.29999997081E+02 0.  0.
        -12    1    1    2    0    0 -0.86726597388E+01  0.20430915282E+02  0.34066529463E+02  0.40659141110E+02  0.00000000000E+00 0.  1.
         11    1    3    3    0    0  0.70029767514E+01  0.14421390389E+01 -0.63524987555E+01  0.95642923987E+01  0.51100000000E-03 0. -1.
        -11    1    3    3    0    0  0.52353786005E+01  0.79891615834E+00 -0.12094067668E+02  0.13202800049E+02  0.51100000000E-03 0.  1.
         12    1    3    3    0    0 -0.35656956131E+01 -0.22671970479E+02 -0.15619963039E+02  0.27761766442E+02  0.00000000000E+00 0. -1.
</event>
<event>
 7    1  0.5935282E-013  0.5052886E+02  0.7816164E-02  0.1300439E+00
        -11   -1    0    0    0    0  0.00000000000E+00  0.00000000000E+00  0.45593999997E+02  0.45594000000E+02  0.51100000000E-03 0.  1.
         11   -1    0    0    0    0 -0.00000000000E+00 -0.00000000000E+00 -0.45593999997E+02  0.45594000000E+02  0.51100000000E-03 0. -1.
    9900012    2    1    2    0    0  0.33404002458E+02  0.61808056989E+01 -0.22341357298E+02  0.50528856069E+02  0.29999988508E+02 0.  0.
        -12    1    1    2    0    0 -0.33404002458E+02 -0.61808056989E+01  0.22341357298E+02  0.40659143931E+02  0.00000000000E+00 0.  1.
         11    1    3    3    0    0  0.87289440742E+01  0.17225305877E+01  0.46448341525E+01  0.10036735567E+02  0.51100000000E-03 0.  1.
        -11    1    3    3    0    0  0.11473926936E+02 -0.29957294817E+01 -0.31952902761E+01  0.12281501320E+02  0.51100000000E-03 0. -1.
         12    1    3    3    0    0  0.13201131447E+02  0.74540045929E+01 -0.23790901174E+02  0.28210619182E+02  0.00000000000E+00 0. -1.
</event>
<event>
 7    1  0.5935282E-013  0.5052885E+02  0.7816164E-02  0.1300439E+00
        -11   -1    0    0    0    0  0.00000000000E+00  0.00000000000E+00  0.45593999997E+02  0.45594000000E+02  0.51100000000E-03 0.  1.
         11   -1    0    0    0    0 -0.00000000000E+00 -0.00000000000E+00 -0.45593999997E+02  0.45594000000E+02  0.51100000000E-03 0. -1.
    9900012    2    1    2    0    0 -0.74538501399E+01 -0.26234317810E+02 -0.30155712969E+02  0.50528851736E+02  0.29999975336E+02 0.  0.
        -12    1    1    2    0    0  0.74538501399E+01  0.26234317810E+02  0.30155712969E+02  0.40659148264E+02  0.00000000000E+00 0.  1.
         11    1    3    3    0    0  0.67623980481E+01 -0.10434586029E+02 -0.13898133897E+02  0.18648558631E+02  0.51100000000E-03 0. -1.
        -11    1    3    3    0    0  0.31265428042E+01 -0.23279600243E+01  0.91351443700E+00  0.40036454225E+01  0.51100000000E-03 0.  1.
         12    1    3    3    0    0 -0.17342790992E+02 -0.13471771757E+02 -0.17171093510E+02  0.27876647682E+02  0.00000000000E+00 0. -1.
</event>
<event>
 7    1  0.5935282E-013  0.5052885E+02  0.7816164E-02  0.1300439E+00
        -11   -1    0    0    0    0  0.00000000000E+00  0.00000000000E+00  0.45593999997E+02  0.45594000000E+02  0.51100000000E-03 0. -1.
         11   -1    0    0    0    0 -0.00000000000E+00 -0.00000000000E+00 -0.45593999997E+02  0.45594000000E+02  0.51100000000E-03 0.  1.
    9900012    2    1    2    0    0 -0.75739751226E+01  0.27854533187E+00  0.39946511247E+02  0.50528850385E+02  0.29999971229E+02 0.  0.
        -12    1    1    2    0    0  0.75739751226E+01 -0.27854533187E+00 -0.39946511247E+02  0.40659149615E+02  0.00000000000E+00 0.  1.
         11    1    3    3    0    0 -0.41587066768E+01  0.82643118822E+01  0.20890832318E+02  0.22847769417E+02  0.51100000000E-03 0. -1.
        -11    1    3    3    0    0 -0.56342364018E+00 -0.13552052967E+02  0.15018799914E+02  0.20237093095E+02  0.51100000000E-03 0.  1.
         12    1    3    3    0    0 -0.28518448056E+01  0.55662864171E+01  0.40368790148E+01  0.74439878730E+01  0.00000000000E+00 0. -1.
</event>
<event>
 7    1  0.5935282E-013  0.5052892E+02  0.7816164E-02  0.1300439E+00
        -11   -1    0    0    0    0  0.00000000000E+00  0.00000000000E+00  0.45593999997E+02  0.45594000000E+02  0.51100000000E-03 0.  1.
         11   -1    0    0    0    0 -0.00000000000E+00 -0.00000000000E+00 -0.45593999997E+02  0.45594000000E+02  0.51100000000E-03 0. -1.
    9900012    2    1    2    0    0 -0.11744071343E+02  0.28819244310E+01 -0.38819224544E+02  0.50528918674E+02  0.30000178800E+02 0.  0.
        -12    1    1    2    0    0  0.11744071343E+02 -0.28819244310E+01  0.38819224544E+02  0.40659081326E+02  0.00000000000E+00 0.  1.
         11    1    3    3    0    0 -0.11241102135E+02  0.43966110609E+01 -0.23877564347E+02  0.26755011595E+02  0.51100000000E-03 0.  1.
        -11    1    3    3    0    0 -0.57486025728E+01  0.29488861643E+01 -0.15570358084E+02  0.16857592126E+02  0.51100000000E-03 0. -1.
        -12    1    3    3    0    0  0.52456333656E+01 -0.44635727942E+01  0.62869788714E+00  0.69163149530E+01  0.00000000000E+00 0.  1.
</event>
<event>
 7    1  0.5935282E-013  0.5052887E+02  0.7816164E-02  0.1300439E+00
        -11   -1    0    0    0    0  0.00000000000E+00  0.00000000000E+00  0.45593999997E+02  0.45594000000E+02  0.51100000000E-03 0.  1.
         11   -1    0    0    0    0 -0.00000000000E+00 -0.00000000000E+00 -0.45593999997E+02  0.45594000000E+02  0.51100000000E-03 0. -1.
    9900012    2    1    2    0    0 -0.28208130001E+02  0.34046425587E+01 -0.29083917890E+02  0.50528874715E+02  0.30000045184E+02 0.  0.
        -12    1    1    2    0    0  0.28208130001E+02 -0.34046425587E+01  0.29083917890E+02  0.40659125285E+02  0.00000000000E+00 0.  1.
         11    1    3    3    0    0  0.27715197171E+01 -0.19354750551E+01 -0.35075934390E+01  0.48714060831E+01  0.51100000000E-03 0. -1.
        -11    1    3    3    0    0 -0.18528649057E+01 -0.54524597286E+01 -0.58182040357E+00  0.57879997144E+01  0.51100000000E-03 0.  1.
         12    1    3    3    0    0 -0.29126784813E+02  0.10792577342E+02 -0.24994504047E+02  0.39869468918E+02  0.00000000000E+00 0. -1.
</event>
<event>
 7    1  0.5935282E-013  0.5052884E+02  0.7816164E-02  0.1300439E+00
        -11   -1    0    0    0    0  0.00000000000E+00  0.00000000000E+00  0.45593999997E+02  0.45594000000E+02  0.51100000000E-03 0.  1.
         11   -1    0    0    0    0 -0.00000000000E+00 -0.00000000000E+00 -0.45593999997E+02  0.45594000000E+02  0.51100000000E-03 0. -1.
    9900012    2    1    2    0    0 -0.17902034142E+01  0.24998809652E+02 -0.32015963806E+02  0.50528840507E+02  0.29999941204E+02 0.  0.
        -12    1    1    2    0    0  0.17902034142E+01 -0.24998809652E+02  0.32015963806E+02  0.40659159493E+02  0.00000000000E+00 0.  1.
         11    1    3    3    0    0 -0.11114298121E+02  0.16230854527E+02 -0.95248742287E+01  0.21856154528E+02  0.51100000000E-03 0. -1.
        -11    1    3    3    0    0  0.68608736242E+00  0.95149499778E+00  0.15582023303E+01  0.19503982575E+01  0.51100000000E-03 0.  1.
         12    1    3    3    0    0  0.86380073443E+01  0.78164601266E+01 -0.24049291908E+02  0.26722287721E+02  0.00000000000E+00 0. -1.
</event>
<event>
 7    1  0.5935282E-013  0.5052887E+02  0.7816164E-02  0.1300439E+00
        -11   -1    0    0    0    0  0.00000000000E+00  0.00000000000E+00  0.45593999997E+02  0.45594000000E+02  0.51100000000E-03 0.  1.
         11   -1    0    0    0    0 -0.00000000000E+00 -0.00000000000E+00 -0.45593999997E+02  0.45594000000E+02  0.51100000000E-03 0. -1.
    9900012    2    1    2    0    0  0.26671478295E+02 -0.55803903079E+00 -0.30683642063E+02  0.50528867542E+02  0.30000023381E+02 0.  0.
        -12    1    1    2    0    0 -0.26671478295E+02  0.55803903079E+00  0.30683642063E+02  0.40659132458E+02  0.00000000000E+00 0.  1.
         11    1    3    3    0    0  0.61341185590E+01  0.27354325329E+01 -0.69868974788E+01  0.96915807936E+01  0.51100000000E-03 0. -1.
        -11    1    3    3    0    0  0.25801470367E+02 -0.17550989536E+01 -0.13295228162E+02  0.29078503015E+02  0.51100000000E-03 0.  1.
        -12    1    3    3    0    0 -0.52641106313E+01 -0.15383726101E+01 -0.10401516421E+02  0.11758783734E+02  0.00000000000E+00 0.  1.
</event>
<event>
 7    1  0.5935282E-013  0.5052886E+02  0.7816164E-02  0.1300439E+00
        -11   -1    0    0    0    0  0.00000000000E+00  0.00000000000E+00  0.45593999997E+02  0.45594000000E+02  0.51100000000E-03 0. -1.
         11   -1    0    0    0    0 -0.00000000000E+00 -0.00000000000E+00 -0.45593999997E+02  0.45594000000E+02  0.51100000000E-03 0.  1.
    9900012    2    1    2    0    0 -0.35537839384E+02 -0.19742631189E+02  0.67534895698E+00  0.50528860676E+02  0.30000002511E+02 0.  0.
        -12    1    1    2    0    0  0.35537839384E+02  0.19742631189E+02 -0.67534895698E+00  0.40659139324E+02  0.00000000000E+00 0.  1.
         11    1    3    3    0    0 -0.14746556604E+02 -0.58675861384E+01  0.28025644875E+01  0.16116571184E+02  0.51100000000E-03 0. -1.
        -11    1    3    3    0    0 -0.10061725910E+02 -0.82372617831E+01  0.10644590588E+02  0.16804705265E+02  0.51100000000E-03 0.  1.
        -12    1    3    3    0    0 -0.10729556870E+02 -0.56377832674E+01 -0.12771806119E+02  0.17607584228E+02  0.00000000000E+00 0.  1.
</event>
<event>
 7    1  0.5935282E-013  0.5052886E+02  0.7816164E-02  0.1300439E+00
        -11   -1    0    0    0    0  0.00000000000E+00  0.00000000000E+00  0.45593999997E+02  0.45594000000E+02  0.51100000000E-03 0.  1.
         11   -1    0    0    0    0 -0.00000000000E+00 -0.00000000000E+00 -0.45593999997E+02  0.45594000000E+02  0.51100000000E-03 0. -1.
    9900012    2    1    2    0    0 -0.14695392473E+02 -0.96444151275E+01 -0.36663286052E+02  0.50528857766E+02  0.29999993666E+02 0.  0.
        -12    1    1    2    0    0  0.14695392473E+02  0.96444151275E+01  0.36663286052E+02  0.40659142234E+02  0.00000000000E+00 0.  1.
         11    1    3    3    0    0  0.51265124940E+01  0.10124731385E+00  0.22503707048E+01  0.55996026591E+01  0.51100000000E-03 0.  1.
        -11    1    3    3    0    0 -0.79686794816E+01 -0.45140861938E+01 -0.12360452077E+02  0.15383679750E+02  0.51100000000E-03 0. -1.
        -12    1    3    3    0    0 -0.11853225485E+02 -0.52315762475E+01 -0.26553204679E+02  0.29545575357E+02  0.00000000000E+00 0.  1.
</event>
<event>
 7    1  0.5935282E-013  0.5052884E+02  0.7816164E-02  0.1300439E+00
        -11   -1    0    0    0    0  0.00000000000E+00  0.00000000000E+00  0.45593999997E+02  0.45594000000E+02  0.51100000000E-03 0. -1.
         11   -1    0    0    0    0 -0.00000000000E+00 -0.00000000000E+00 -0.45593999997E+02  0.45594000000E+02  0.51100000000E-03 0.  1.
    9900012    2    1    2    0    0 -0.17080180270E+02  0.32630294453E+02  0.17224932690E+02  0.50528843832E+02  0.29999951310E+02 0.  0.
        -12    1    1    2    0    0  0.17080180270E+02 -0.32630294453E+02 -0.17224932690E+02  0.40659156168E+02  0.00000000000E+00 0.  1.
         11    1    3    3    0    0 -0.50268913009E+01  0.95577288704E+01  0.56776416968E+01  0.12200632476E+02  0.51100000000E-03 0. -1.
        -11    1    3    3    0    0 -0.15734059501E+02  0.25269003706E+02  0.45363699789E+01  0.30110825786E+02  0.51100000000E-03 0.  1.
        -12    1    3    3    0    0  0.36807705316E+01 -0.21964381233E+01  0.70109210142E+01  0.82173855698E+01  0.00000000000E+00 0.  1.
</event>
<event>
 7    1  0.5935282E-013  0.5052891E+02  0.7816164E-02  0.1300439E+00
        -11   -1    0    0    0    0  0.00000000000E+00  0.00000000000E+00  0.45593999997E+02  0.45594000000E+02  0.51100000000E-03 0.  1.
         11   -1    0    0    0    0 -0.00000000000E+00 -0.00000000000E+00 -0.45593999997E+02  0.45594000000E+02  0.51100000000E-03 0. -1.
    9900012    2    1    2    0    0 -0.15636527243E+02 -0.34570065221E+02 -0.14614066320E+02  0.50528913341E+02  0.30000162589E+02 0.  0.
        -12    1    1    2    0    0  0.15636527243E+02  0.34570065221E+02  0.14614066320E+02  0.40659086659E+02  0.00000000000E+00 0.  1.
         11    1    3    3    0    0 -0.22714943886E+01 -0.18961034136E+01  0.30589437532E+01  0.42558233115E+01  0.51100000000E-03 0. -1.
        -11    1    3    3    0    0  0.15080320970E+01  0.23978296282E+01 -0.56591498791E+01  0.63284852332E+01  0.51100000000E-03 0.  1.
         12    1    3    3    0    0 -0.14873064951E+02 -0.35071791436E+02 -0.12013860194E+02  0.39944604796E+02  0.00000000000E+00 0. -1.
</event>
<event>
 7    1  0.5935282E-013  0.5052886E+02  0.7816164E-02  0.1300439E+00
        -11   -1    0    0    0    0  0.00000000000E+00  0.00000000000E+00  0.45593999997E+02  0.45594000000E+02  0.51100000000E-03 0. -1.
         11   -1    0    0    0    0 -0.00000000000E+00 -0.00000000000E+00 -0.45593999997E+02  0.45594000000E+02  0.51100000000E-03 0.  1.
    9900012    2    1    2    0    0 -0.36050117138E+02 -0.36792307997E+01 -0.18439581875E+02  0.50528857552E+02  0.29999993014E+02 0.  0.
        -12    1    1    2    0    0  0.36050117138E+02  0.36792307997E+01  0.18439581875E+02  0.40659142448E+02  0.00000000000E+00 0.  1.
         11    1    3    3    0    0 -0.80546122437E-01  0.49688007627E+01  0.10241941928E+01  0.50738981763E+01  0.51100000000E-03 0. -1.
        -11    1    3    3    0    0 -0.16451871250E+01 -0.34325488665E+01 -0.80567356244E+01  0.89106689749E+01  0.51100000000E-03 0.  1.
         12    1    3    3    0    0 -0.34324383890E+02 -0.52154826960E+01 -0.11407040443E+02  0.36544290400E+02  0.00000000000E+00 0. -1.
</event>
<event>
 7    1  0.5935282E-013  0.5052885E+02  0.7816164E-02  0.1300439E+00
        -11   -1    0    0    0    0  0.00000000000E+00  0.00000000000E+00  0.45593999997E+02  0.45594000000E+02  0.51100000000E-03 0.  1.
         11   -1    0    0    0    0 -0.00000000000E+00 -0.00000000000E+00 -0.45593999997E+02  0.45594000000E+02  0.51100000000E-03 0. -1.
    9900012    2    1    2    0    0  0.13282736994E+02  0.35129492845E+02 -0.15577354661E+02  0.50528851610E+02  0.29999974953E+02 0.  0.
        -12    1    1    2    0    0 -0.13282736994E+02 -0.35129492845E+02  0.15577354661E+02  0.40659148390E+02  0.00000000000E+00 0.  1.
         11    1    3    3    0    0 -0.10955266277E+01  0.12432472838E+02  0.27829086275E+01  0.12787147460E+02  0.51100000000E-03 0.  1.
        -11    1    3    3    0    0 -0.37784935747E+01  0.10175059173E+02 -0.49554022622E+01  0.11931674430E+02  0.51100000000E-03 0. -1.
         12    1    3    3    0    0  0.18156757197E+02  0.12521960834E+02 -0.13404861026E+02  0.25810029720E+02  0.00000000000E+00 0. -1.
</event>
<event>
 7    1  0.5935282E-013  0.5052886E+02  0.7816164E-02  0.1300439E+00
        -11   -1    0    0    0    0  0.00000000000E+00  0.00000000000E+00  0.45593999997E+02  0.45594000000E+02  0.51100000000E-03 0. -1.
         11   -1    0    0    0    0 -0.00000000000E+00 -0.00000000000E+00 -0.45593999997E+02  0.45594000000E+02  0.51100000000E-03 0.  1.
    9900012    2    1    2    0    0  0.17134889057E+02 -0.26535786578E+02  0.25601047321E+02  0.50528855687E+02  0.29999987346E+02 0.  0.
        -12    1    1    2    0    0 -0.17134889057E+02  0.26535786578E+02 -0.25601047321E+02  0.40659144313E+02  0.00000000000E+00 0.  1.
         11    1    3    3    0    0  0.40398106094E+01 -0.64913120560E+01  0.75571059071E+01  0.10750211715E+02  0.51100000000E-03 0. -1.
        -11    1    3    3    0    0  0.10513713661E+02 -0.24607983272E+02  0.71654547676E+01  0.27702612836E+02  0.51100000000E-03 0.  1.
         12    1    3    3    0    0  0.25813647871E+01  0.45635087499E+01  0.10878486647E+02  0.12076031136E+02  0.00000000000E+00 0. -1.
</event>
<event>
 7    1  0.5935282E-013  0.5052886E+02  0.7816164E-02  0.1300439E+00
        -11   -1    0    0    0    0  0.00000000000E+00  0.00000000000E+00  0.45593999997E+02  0.45594000000E+02  0.51100000000E-03 0. -1.
         11   -1    0    0    0    0 -0.00000000000E+00 -0.00000000000E+00 -0.45593999997E+02  0.45594000000E+02  0.51100000000E-03 0.  1.
    9900012    2    1    2    0    0 -0.21308324576E+02  0.31288100364E+02  0.14838307450E+02  0.50528864635E+02  0.30000014546E+02 0.  0.
        -12    1    1    2    0    0  0.21308324576E+02 -0.31288100364E+02 -0.14838307450E+02  0.40659135365E+02  0.00000000000E+00 0.  1.
         11    1    3    3    0    0 -0.26328608273E+01  0.92026352797E+01 -0.25416567784E+01  0.99035585356E+01  0.51100000000E-03 0. -1.
        -11    1    3    3    0    0  0.44384346674E+01  0.38958668981E+01  0.76090990517E+01  0.96320231428E+01  0.51100000000E-03 0.  1.
        -12    1    3    3    0    0 -0.23113898416E+02  0.18189598186E+02  0.97708651767E+01  0.30993282957E+02  0.00000000000E+00 0.  1.
</event>
<event>
 7    1  0.5935282E-013  0.5052887E+02  0.7816164E-02  0.1300439E+00
        -11   -1    0    0    0    0  0.00000000000E+00  0.00000000000E+00  0.45593999997E+02  0.45594000000E+02  0.51100000000E-03 0. -1.
         11   -1    0    0    0    0 -0.00000000000E+00 -0.00000000000E+00 -0.45593999997E+02  0.45594000000E+02  0.51100000000E-03 0.  1.
    9900012    2    1    2    0    0  0.28844912630E+01 -0.34194345520E+02  0.21808060957E+02  0.50528867224E+02  0.30000022414E+02 0.  0.
        -12    1    1    2    0    0 -0.28844912630E+01  0.34194345520E+02 -0.21808060957E+02  0.40659132776E+02  0.00000000000E+00 0.  1.
         11    1    3    3    0    0  0.54286050876E+01 -0.36007010630E+01  0.41113572150E+01  0.77031201310E+01  0.51100000000E-03 0. -1.
        -11    1    3    3    0    0  0.23943644371E+01 -0.80449576568E+01  0.17868701354E+02  0.19741955655E+02  0.51100000000E-03 0.  1.
        -12    1    3    3    0    0 -0.49384782618E+01 -0.22548686800E+02 -0.17199761213E+00  0.23083791438E+02  0.00000000000E+00 0.  1.
</event>
<event>
 7    1  0.5935282E-013  0.5052886E+02  0.7816164E-02  0.1300439E+00
        -11   -1    0    0    0    0  0.00000000000E+00  0.00000000000E+00  0.45593999997E+02  0.45594000000E+02  0.51100000000E-03 0. -1.
         11   -1    0    0    0    0 -0.00000000000E+00 -0.00000000000E+00 -0.45593999997E+02  0.45594000000E+02  0.51100000000E-03 0.  1.
    9900012    2    1    2    0    0 -0.12966164512E+02 -0.36625744642E+02  0.11983276863E+02  0.50528861825E+02  0.30000006005E+02 0.  0.
        -12    1    1    2    0    0  0.12966164512E+02  0.36625744642E+02 -0.11983276863E+02  0.40659138175E+02  0.00000000000E+00 0.  1.
         11    1    3    3    0    0 -0.17647609056E+02 -0.13444900873E+02  0.34718144922E+01  0.22455666567E+02  0.51100000000E-03 0. -1.
        -11    1    3    3    0    0 -0.17918271932E+01  0.66739819019E+00 -0.72789826715E-01  0.19134690106E+01  0.51100000000E-03 0.  1.
         12    1    3    3    0    0  0.64732717373E+01 -0.23848241960E+02  0.85842521973E+01  0.26159726247E+02  0.00000000000E+00 0. -1.
</event>
<event>
 7    1  0.5935282E-013  0.5052884E+02  0.7816164E-02  0.1300439E+00
        -11   -1    0    0    0    0  0.00000000000E+00  0.00000000000E+00  0.45593999997E+02  0.45594000000E+02  0.51100000000E-03 0.  1.
         11   -1    0    0    0    0 -0.00000000000E+00 -0.00000000000E+00 -0.45593999997E+02  0.45594000000E+02  0.51100000000E-03 0. -1.
    9900012    2    1    2    0    0  0.16361106874E+02 -0.36867465622E+02 -0.51255919419E+01  0.50528837044E+02  0.29999930679E+02 0.  0.
        -12    1    1    2    0    0 -0.16361106874E+02  0.36867465622E+02  0.51255919419E+01  0.40659162956E+02  0.00000000000E+00 0.  1.
         11    1    3    3    0    0  0.60683702771E+01 -0.23301581101E+02 -0.86450620303E+01  0.25583703747E+02  0.51100000000E-03 0. -1.
        -11    1    3    3    0    0  0.24818316533E+01 -0.39077842481E+01 -0.71853605981E+01  0.85474951460E+01  0.51100000000E-03 0.  1.
        -12    1    3    3    0    0  0.78109049434E+01 -0.96581002730E+01  0.10704830687E+02  0.16397638151E+02  0.00000000000E+00 0.  1.
</event>
<event>
 7    1  0.5935282E-013  0.5052886E+02  0.7816164E-02  0.1300439E+00
        -11   -1    0    0    0    0  0.00000000000E+00  0.00000000000E+00  0.45593999997E+02  0.45594000000E+02  0.51100000000E-03 0.  1.
         11   -1    0    0    0    0 -0.00000000000E+00 -0.00000000000E+00 -0.45593999997E+02  0.45594000000E+02  0.51100000000E-03 0. -1.
    9900012    2    1    2    0    0  0.28689578337E+02  0.25295502591E+02  0.13791720331E+02  0.50528857040E+02  0.29999991460E+02 0.  0.
        -12    1    1    2    0    0 -0.28689578337E+02 -0.25295502591E+02 -0.13791720331E+02  0.40659142960E+02  0.00000000000E+00 0.  1.
         11    1    3    3    0    0  0.28961278863E+02  0.11972524992E+02  0.12653577212E+02  0.33796598122E+02  0.51100000000E-03 0. -1.
        -11    1    3    3    0    0  0.77823207305E+00 -0.15700588768E+01  0.30788320636E+00  0.17791914922E+01  0.51100000000E-03 0.  1.
        -12    1    3    3    0    0 -0.10499325990E+01  0.14893036476E+02  0.83025991205E+00  0.14953067426E+02  0.00000000000E+00 0.  1.
</event>
<event>
 7    1  0.5935282E-013  0.5052882E+02  0.7816164E-02  0.1300439E+00
        -11   -1    0    0    0    0  0.00000000000E+00  0.00000000000E+00  0.45593999997E+02  0.45594000000E+02  0.51100000000E-03 0.  1.
         11   -1    0    0    0    0 -0.00000000000E+00 -0.00000000000E+00 -0.45593999997E+02  0.45594000000E+02  0.51100000000E-03 0. -1.
    9900012    2    1    2    0    0 -0.14902401419E+02 -0.34555911407E+02 -0.15394048854E+02  0.50528815043E+02  0.29999863805E+02 0.  0.
        -12    1    1    2    0    0  0.14902401419E+02  0.34555911407E+02  0.15394048854E+02  0.40659184957E+02  0.00000000000E+00 0.  1.
         11    1    3    3    0    0 -0.65839981149E+01 -0.12791828396E+02  0.31436228869E+01  0.14726244260E+02  0.51100000000E-03 0.  1.
        -11    1    3    3    0    0  0.60731297120E+01 -0.50194472089E+01 -0.17631318317E+01  0.80738088223E+01  0.51100000000E-03 0. -1.
        -12    1    3    3    0    0 -0.14391533016E+02 -0.16744635802E+02 -0.16774539910E+02  0.27728761961E+02  0.00000000000E+00 0.  1.
</event>
<event>
 7    1  0.5935282E-013  0.5052885E+02  0.7816164E-02  0.1300439E+00
        -11   -1    0    0    0    0  0.00000000000E+00  0.00000000000E+00  0.45593999997E+02  0.45594000000E+02  0.51100000000E-03 0.  1.
         11   -1    0    0    0    0 -0.00000000000E+00 -0.00000000000E+00 -0.45593999997E+02  0.45594000000E+02  0.51100000000E-03 0. -1.
    9900012    2    1    2    0    0  0.18104573601E+02 -0.21662369555E+02 -0.29259747836E+02  0.50528847482E+02  0.29999962407E+02 0.  0.
        -12    1    1    2    0    0 -0.18104573601E+02  0.21662369555E+02  0.29259747836E+02  0.40659152518E+02  0.00000000000E+00 0.  1.
         11    1    3    3    0    0 -0.16677952180E+01  0.18041786179E+01 -0.25930354419E+01  0.35721750291E+01  0.51100000000E-03 0. -1.
        -11    1    3    3    0    0  0.76207214436E+00  0.35220579895E+01 -0.86000210970E+01  0.93244844128E+01  0.51100000000E-03 0.  1.
        -12    1    3    3    0    0  0.19010296675E+02 -0.26988606163E+02 -0.18066691297E+02  0.37632188040E+02  0.00000000000E+00 0.  1.
</event>
<event>
 7    1  0.5935282E-013  0.5052887E+02  0.7816164E-02  0.1300439E+00
        -11   -1    0    0    0    0  0.00000000000E+00  0.00000000000E+00  0.45593999997E+02  0.45594000000E+02  0.51100000000E-03 0.  1.
         11   -1    0    0    0    0 -0.00000000000E+00 -0.00000000000E+00 -0.45593999997E+02  0.45594000000E+02  0.51100000000E-03 0. -1.
    9900012    2    1    2    0    0  0.10634991483E+02 -0.33562466827E+02 -0.20337724435E+02  0.50528865005E+02  0.30000015668E+02 0.  0.
        -12    1    1    2    0    0 -0.10634991483E+02  0.33562466827E+02  0.20337724435E+02  0.40659134995E+02  0.00000000000E+00 0.  1.
         11    1    3    3    0    0  0.68139733172E+01 -0.25076141669E+02 -0.22139542008E+02  0.34137991065E+02  0.51100000000E-03 0. -1.
        -11    1    3    3    0    0  0.26593000243E+01 -0.43460145238E+01 -0.57611002530E+01  0.76909034090E+01  0.51100000000E-03 0.  1.
        -12    1    3    3    0    0  0.11617181411E+01 -0.41403106347E+01  0.75629178261E+01  0.86999705308E+01  0.00000000000E+00 0.  1.
</event>
<event>
 7    1  0.5935282E-013  0.5052886E+02  0.7816164E-02  0.1300439E+00
        -11   -1    0    0    0    0  0.00000000000E+00  0.00000000000E+00  0.45593999997E+02  0.45594000000E+02  0.51100000000E-03 0. -1.
         11   -1    0    0    0    0 -0.00000000000E+00 -0.00000000000E+00 -0.45593999997E+02  0.45594000000E+02  0.51100000000E-03 0.  1.
    9900012    2    1    2    0    0  0.74084487550E+01 -0.25465664498E+02  0.30818503891E+02  0.50528863716E+02  0.30000011750E+02 0.  0.
        -12    1    1    2    0    0 -0.74084487550E+01  0.25465664498E+02 -0.30818503891E+02  0.40659136284E+02  0.00000000000E+00 0.  1.
         11    1    3    3    0    0 -0.62187006006E+00 -0.10587464895E+02  0.17441545259E+02  0.20412952666E+02  0.51100000000E-03 0. -1.
        -11    1    3    3    0    0  0.92109878123E+01 -0.16050484073E+02  0.17623658237E+02  0.25554914701E+02  0.51100000000E-03 0.  1.
        -12    1    3    3    0    0 -0.11806689972E+01  0.11722844694E+01 -0.42466996046E+01  0.45609963484E+01  0.00000000000E+00 0.  1.
</event>
<event>
 7    1  0.5935282E-013  0.5052881E+02  0.7816164E-02  0.1300439E+00
        -11   -1    0    0    0    0  0.00000000000E+00  0.00000000000E+00  0.45593999997E+02  0.45594000000E+02  0.51100000000E-03 0.  1.
         11   -1    0    0    0    0 -0.00000000000E+00 -0.00000000000E+00 -0.45593999997E+02  0.45594000000E+02  0.51100000000E-03 0. -1.
    9900012    2    1    2    0    0 -0.17601232109E+02 -0.27073348367E+01 -0.36551835324E+02  0.50528810396E+02  0.29999849680E+02 0.  0.
        -12    1    1    2    0    0  0.17601232109E+02  0.27073348367E+01  0.36551835324E+02  0.40659189604E+02  0.00000000000E+00 0.  1.
         11    1    3    3    0    0 -0.16540938172E+02 -0.45864640583E+00 -0.82008611891E+01  0.18468002508E+02  0.51100000000E-03 0. -1.
        -11    1    3    3    0    0 -0.16606383958E+00 -0.48963171582E+01 -0.15847163268E+01  0.51490605949E+01  0.51100000000E-03 0.  1.
         12    1    3    3    0    0 -0.89423009795E+00  0.26476287273E+01 -0.26766257808E+02  0.26911747294E+02  0.00000000000E+00 0. -1.
</event>
<event>
 7    1  0.5935282E-013  0.5052894E+02  0.7816164E-02  0.1300438E+00
        -11   -1    0    0    0    0  0.00000000000E+00  0.00000000000E+00  0.45593999997E+02  0.45594000000E+02  0.51100000000E-03 0.  1.
         11   -1    0    0    0    0 -0.00000000000E+00 -0.00000000000E+00 -0.45593999997E+02  0.45594000000E+02  0.51100000000E-03 0. -1.
    9900012    2    1    2    0    0  0.15752062697E+02 -0.78831124784E+01 -0.36645435879E+02  0.50528943047E+02  0.30000252886E+02 0.  0.
        -12    1    1    2    0    0 -0.15752062697E+02  0.78831124784E+01  0.36645435879E+02  0.40659056953E+02  0.00000000000E+00 0.  1.
         11    1    3    3    0    0 -0.96172760275E+00 -0.24367306985E+01 -0.53467639541E+01  0.59540290158E+01  0.51100000000E-03 0. -1.
        -11    1    3    3    0    0  0.34477781924E+01 -0.13331801726E+02 -0.23611674673E+02  0.27333775679E+02  0.51100000000E-03 0.  1.
        -12    1    3    3    0    0  0.13266012107E+02  0.78854199465E+01 -0.76869972513E+01  0.17241138353E+02  0.00000000000E+00 0.  1.
</event>
<event>
 7    1  0.5935282E-013  0.5052885E+02  0.7816164E-02  0.1300439E+00
        -11   -1    0    0    0    0  0.00000000000E+00  0.00000000000E+00  0.45593999997E+02  0.45594000000E+02  0.51100000000E-03 0. -1.
         11   -1    0    0    0    0 -0.00000000000E+00 -0.00000000000E+00 -0.45593999997E+02  0.45594000000E+02  0.51100000000E-03 0.  1.
    9900012    2    1    2    0    0  0.22533529605E+02 -0.85855535543E+01  0.32736746926E+02  0.50528852376E+02  0.29999977281E+02 0.  0.
        -12    1    1    2    0    0 -0.22533529605E+02  0.85855535543E+01 -0.32736746926E+02  0.40659147624E+02  0.00000000000E+00 0.  1.
         11    1    3    3    0    0  0.19293503818E+02 -0.64943905046E+01  0.36351615020E+02  0.41663608970E+02  0.51100000000E-03 0. -1.
        -11    1    3    3    0    0  0.30715119640E+01 -0.39840446904E+01 -0.29411700785E+00  0.50391768094E+01  0.51100000000E-03 0.  1.
        -12    1    3    3    0    0  0.16851382298E+00  0.18928816408E+01 -0.33207510869E+01  0.38260665958E+01  0.00000000000E+00 0.  1.
</event>
<event>
 7    1  0.5935282E-013  0.5052886E+02  0.7816164E-02  0.1300439E+00
        -11   -1    0    0    0    0  0.00000000000E+00  0.00000000000E+00  0.45593999997E+02  0.45594000000E+02  0.51100000000E-03 0. -1.
         11   -1    0    0    0    0 -0.00000000000E+00 -0.00000000000E+00 -0.45593999997E+02  0.45594000000E+02  0.51100000000E-03 0.  1.
    9900012    2    1    2    0    0  0.27598166139E+02  0.22152949845E+02  0.20018828508E+02  0.50528862578E+02  0.30000008292E+02 0.  0.
        -12    1    1    2    0    0 -0.27598166139E+02 -0.22152949845E+02 -0.20018828508E+02  0.40659137422E+02  0.00000000000E+00 0.  1.
         11    1    3    3    0    0 -0.11279677143E+01 -0.18381127279E+00 -0.27841460672E+00  0.11762706758E+01  0.51100000000E-03 0. -1.
        -11    1    3    3    0    0  0.10848295416E+02 -0.52651597251E+01  0.45190502322E+01  0.12877470079E+02  0.51100000000E-03 0.  1.
         12    1    3    3    0    0  0.17877838437E+02  0.27601920843E+02  0.15778192882E+02  0.36475121824E+02  0.00000000000E+00 0. -1.
</event>
<event>
 7    1  0.5935282E-013  0.5052886E+02  0.7816164E-02  0.1300439E+00
        -11   -1    0    0    0    0  0.00000000000E+00  0.00000000000E+00  0.45593999997E+02  0.45594000000E+02  0.51100000000E-03 0.  1.
         11   -1    0    0    0    0 -0.00000000000E+00 -0.00000000000E+00 -0.45593999997E+02  0.45594000000E+02  0.51100000000E-03 0. -1.
    9900012    2    1    2    0    0  0.54689861360E+01 -0.87125309558E+01 -0.39336341018E+02  0.50528859211E+02  0.29999998059E+02 0.  0.
        -12    1    1    2    0    0 -0.54689861360E+01  0.87125309558E+01  0.39336341018E+02  0.40659140789E+02  0.00000000000E+00 0.  1.
         11    1    3    3    0    0  0.46661980330E+01  0.48519151060E+01 -0.19964106439E+01  0.70214058421E+01  0.51100000000E-03 0. -1.
        -11    1    3    3    0    0 -0.39957081538E+01  0.30388129596E+01 -0.75316692640E+01  0.90513043268E+01  0.51100000000E-03 0.  1.
         12    1    3    3    0    0  0.47984962568E+01 -0.16603259021E+02 -0.29808261110E+02  0.34456149043E+02  0.00000000000E+00 0. -1.
</event>
<event>
 7    1  0.5935282E-013  0.5052889E+02  0.7816164E-02  0.1300439E+00
        -11   -1    0    0    0    0  0.00000000000E+00  0.00000000000E+00  0.45593999997E+02  0.45594000000E+02  0.51100000000E-03 0.  1.
         11   -1    0    0    0    0 -0.00000000000E+00 -0.00000000000E+00 -0.45593999997E+02  0.45594000000E+02  0.51100000000E-03 0. -1.
    9900012    2    1    2    0    0 -0.25995195230E+02 -0.11962955919E+02 -0.28884263850E+02  0.50528890473E+02  0.30000093082E+02 0.  0.
        -12    1    1    2    0    0  0.25995195230E+02  0.11962955919E+02  0.28884263850E+02  0.40659109527E+02  0.00000000000E+00 0.  1.
         11    1    3    3    0    0  0.64324468100E+00  0.16835263605E+01 -0.47683417314E+01  0.50975590094E+01  0.51100000000E-03 0. -1.
        -11    1    3    3    0    0 -0.35933707913E+01 -0.12917589438E+02 -0.21370142821E+01  0.13577306832E+02  0.51100000000E-03 0.  1.
         12    1    3    3    0    0 -0.23045069120E+02 -0.72889284158E+00 -0.21978907837E+02  0.31854024631E+02  0.00000000000E+00 0. -1.
</event>
<event>
 7    1  0.5935282E-013  0.5052886E+02  0.7816164E-02  0.1300439E+00
        -11   -1    0    0    0    0  0.00000000000E+00  0.00000000000E+00  0.45593999997E+02  0.45594000000E+02  0.51100000000E-03 0.  1.
         11   -1    0    0    0    0 -0.00000000000E+00 -0.00000000000E+00 -0.45593999997E+02  0.45594000000E+02  0.51100000000E-03 0. -1.
    9900012    2    1    2    0    0 -0.68031975047E+01 -0.38291222824E+02 -0.11860191621E+02  0.50528863426E+02  0.30000010869E+02 0.  0.
        -12    1    1    2    0    0  0.68031975047E+01  0.38291222824E+02  0.11860191621E+02  0.40659136574E+02  0.00000000000E+00 0.  1.
         11    1    3    3    0    0 -0.41967498147E+01 -0.20048734042E+02 -0.11720757585E+02  0.23599589071E+02  0.51100000000E-03 0. -1.
        -11    1    3    3    0    0 -0.72641581452E+00 -0.83018312990E+01 -0.98526537729E+01  0.12904374045E+02  0.51100000000E-03 0.  1.
        -12    1    3    3    0    0 -0.18800318756E+01 -0.99406574834E+01  0.97132197369E+01  0.14024900310E+02  0.00000000000E+00 0.  1.
</event>
<event>
 7    1  0.5935282E-013  0.5052886E+02  0.7816164E-02  0.1300439E+00
        -11   -1    0    0    0    0  0.00000000000E+00  0.00000000000E+00  0.45593999997E+02  0.45594000000E+02  0.51100000000E-03 0.  1.
         11   -1    0    0    0    0 -0.00000000000E+00 -0.00000000000E+00 -0.45593999997E+02  0.45594000000E+02  0.51100000000E-03 0. -1.
    9900012    2    1    2    0    0  0.19296535548E+02 -0.14531301867E+02  0.32705519780E+02  0.50528855368E+02  0.29999986376E+02 0.  0.
        -12    1    1    2    0    0 -0.19296535548E+02  0.14531301867E+02 -0.32705519780E+02  0.40659144632E+02  0.00000000000E+00 0.  1.
         11    1    3    3    0    0  0.11365431888E+02 -0.36745412699E+01  0.58775568570E+01  0.13312436682E+02  0.51100000000E-03 0. -1.
        -11    1    3    3    0    0 -0.30582034564E+01  0.33491496021E+01 -0.44896767433E+00  0.45575194648E+01  0.51100000000E-03 0.  1.
        -12    1    3    3    0    0  0.10989307116E+02 -0.14205910199E+02  0.27276930598E+02  0.32658899221E+02  0.00000000000E+00 0.  1.
</event>
<event>
 7    1  0.5935282E-013  0.5052888E+02  0.7816164E-02  0.1300439E+00
        -11   -1    0    0    0    0  0.00000000000E+00  0.00000000000E+00  0.45593999997E+02  0.45594000000E+02  0.51100000000E-03 0.  1.
         11   -1    0    0    0    0 -0.00000000000E+00 -0.00000000000E+00 -0.45593999997E+02  0.45594000000E+02  0.51100000000E-03 0. -1.
    9900012    2    1    2    0    0  0.36722378569E+02 -0.67993289424E+01 -0.16074839712E+02  0.50528875149E+02  0.30000046504E+02 0.  0.
        -12    1    1    2    0    0 -0.36722378569E+02  0.67993289424E+01  0.16074839712E+02  0.40659124851E+02  0.00000000000E+00 0.  1.
         11    1    3    3    0    0  0.17805311980E+02 -0.80304618799E-01 -0.99157233198E+01  0.20380312872E+02  0.51100000000E-03 0. -1.
        -11    1    3    3    0    0  0.23391303163E+02 -0.77183075531E+01 -0.67145199340E+01  0.25530572132E+02  0.51100000000E-03 0.  1.
        -12    1    3    3    0    0 -0.44742365742E+01  0.99928322957E+00  0.55540354145E+00  0.46179901460E+01  0.00000000000E+00 0.  1.
</event>
<event>
 7    1  0.5935282E-013  0.5052885E+02  0.7816164E-02  0.1300439E+00
        -11   -1    0    0    0    0  0.00000000000E+00  0.00000000000E+00  0.45593999997E+02  0.45594000000E+02  0.51100000000E-03 0.  1.
         11   -1    0    0    0    0 -0.00000000000E+00 -0.00000000000E+00 -0.45593999997E+02  0.45594000000E+02  0.51100000000E-03 0. -1.
    9900012    2    1    2    0    0 -0.16262333683E+02  0.18424958427E+02 -0.32391720669E+02  0.50528853947E+02  0.29999982058E+02 0.  0.
        -12    1    1    2    0    0  0.16262333683E+02 -0.18424958427E+02  0.32391720669E+02  0.40659146053E+02  0.00000000000E+00 0.  1.
         11    1    3    3    0    0  0.26604145215E+00 -0.10244974611E+01 -0.22394804790E+01  0.24770236533E+01  0.51100000000E-03 0. -1.
        -11    1    3    3    0    0 -0.53558169957E+01 -0.69049952659E+01 -0.60149225298E+01  0.10608629912E+02  0.51100000000E-03 0.  1.
         12    1    3    3    0    0 -0.11172558139E+02  0.26354451154E+02 -0.24137317660E+02  0.37443200382E+02  0.00000000000E+00 0. -1.
</event>
<event>
 7    1  0.5935282E-013  0.5052886E+02  0.7816164E-02  0.1300439E+00
        -11   -1    0    0    0    0  0.00000000000E+00  0.00000000000E+00  0.45593999997E+02  0.45594000000E+02  0.51100000000E-03 0.  1.
         11   -1    0    0    0    0 -0.00000000000E+00 -0.00000000000E+00 -0.45593999997E+02  0.45594000000E+02  0.51100000000E-03 0. -1.
    9900012    2    1    2    0    0 -0.19492212726E+02 -0.30756134771E+02 -0.18090874700E+02  0.50528856742E+02  0.29999990554E+02 0.  0.
        -12    1    1    2    0    0  0.19492212726E+02  0.30756134771E+02  0.18090874700E+02  0.40659143258E+02  0.00000000000E+00 0.  1.
         11    1    3    3    0    0 -0.50416394135E+01 -0.10756137047E+02 -0.29915658082E+00  0.11882849282E+02  0.51100000000E-03 0. -1.
        -11    1    3    3    0    0  0.23305122267E+01 -0.15238559310E+02 -0.13936596156E+02  0.20781570916E+02  0.51100000000E-03 0.  1.
        -12    1    3    3    0    0 -0.16781085540E+02 -0.47614384147E+01 -0.38551219632E+01  0.17864436544E+02  0.00000000000E+00 0.  1.
</event>
<event>
 7    1  0.5935282E-013  0.5052886E+02  0.7816164E-02  0.1300439E+00
        -11   -1    0    0    0    0  0.00000000000E+00  0.00000000000E+00  0.45593999997E+02  0.45594000000E+02  0.51100000000E-03 0. -1.
         11   -1    0    0    0    0 -0.00000000000E+00 -0.00000000000E+00 -0.45593999997E+02  0.45594000000E+02  0.51100000000E-03 0.  1.
    9900012    2    1    2    0    0  0.22118715278E+02  0.68440227396E+01  0.33422858481E+02  0.50528859799E+02  0.29999999846E+02 0.  0.
        -12    1    1    2    0    0 -0.22118715278E+02 -0.68440227396E+01 -0.33422858481E+02  0.40659140201E+02  0.00000000000E+00 0.  1.
         11    1    3    3    0    0  0.10072023424E+02  0.13336850662E+02  0.71327942043E+01  0.18171240872E+02  0.51100000000E-03 0. -1.
        -11    1    3    3    0    0 -0.88143860660E+00 -0.13378067140E+01  0.13050037915E+02  0.13148009380E+02  0.51100000000E-03 0.  1.
        -12    1    3    3    0    0  0.12928130461E+02 -0.51550212083E+01  0.13240026362E+02  0.19209609547E+02  0.00000000000E+00 0.  1.
</event>
<event>
 7    1  0.5935282E-013  0.5052886E+02  0.7816164E-02  0.1300439E+00
        -11   -1    0    0    0    0  0.00000000000E+00  0.00000000000E+00  0.45593999997E+02  0.45594000000E+02  0.51100000000E-03 0.  1.
         11   -1    0    0    0    0 -0.00000000000E+00 -0.00000000000E+00 -0.45593999997E+02  0.45594000000E+02  0.51100000000E-03 0. -1.
    9900012    2    1    2    0    0 -0.29338035510E+02  0.17325149791E+02 -0.22187477645E+02  0.50528864407E+02  0.30000013853E+02 0.  0.
        -12    1    1    2    0    0  0.29338035510E+02 -0.17325149791E+02  0.22187477645E+02  0.40659135593E+02  0.00000000000E+00 0.  1.
         11    1    3    3    0    0 -0.68355553433E+01 -0.20395134893E+01 -0.11826276240E+02  0.13811055068E+02  0.51100000000E-03 0. -1.
        -11    1    3    3    0    0 -0.14104258746E+02  0.14785459177E+01 -0.92405285070E+01  0.16926416636E+02  0.51100000000E-03 0.  1.
        -12    1    3    3    0    0 -0.83982214216E+01  0.17886117363E+02 -0.11206728971E+01  0.19791392703E+02  0.00000000000E+00 0.  1.
</event>
<event>
 7    1  0.5935282E-013  0.5052886E+02  0.7816164E-02  0.1300439E+00
        -11   -1    0    0    0    0  0.00000000000E+00  0.00000000000E+00  0.45593999997E+02  0.45594000000E+02  0.51100000000E-03 0.  1.
         11   -1    0    0    0    0 -0.00000000000E+00 -0.00000000000E+00 -0.45593999997E+02  0.45594000000E+02  0.51100000000E-03 0. -1.
    9900012    2    1    2    0    0  0.17639426078E+02  0.36500084764E+02 -0.31240813740E+01  0.50528862963E+02  0.30000009463E+02 0.  0.
        -12    1    1    2    0    0 -0.17639426078E+02 -0.36500084764E+02  0.31240813740E+01  0.40659137037E+02  0.00000000000E+00 0.  1.
         11    1    3    3    0    0  0.13537831261E+01  0.18625590805E+01 -0.48842692339E+01  0.53998093754E+01  0.51100000000E-03 0. -1.
        -11    1    3    3    0    0 -0.59977075312E+01  0.76425610850E+01 -0.20161512519E+01  0.99220008920E+01  0.51100000000E-03 0.  1.
        -12    1    3    3    0    0  0.22283350483E+02  0.26994964598E+02  0.37763391118E+01  0.35207052696E+02  0.00000000000E+00 0.  1.
</event>
<event>
 7    1  0.5935282E-013  0.5052884E+02  0.7816164E-02  0.1300439E+00
        -11   -1    0    0    0    0  0.00000000000E+00  0.00000000000E+00  0.45593999997E+02  0.45594000000E+02  0.51100000000E-03 0.  1.
         11   -1    0    0    0    0 -0.00000000000E+00 -0.00000000000E+00 -0.45593999997E+02  0.45594000000E+02  0.51100000000E-03 0. -1.
    9900012    2    1    2    0    0 -0.18103801148E+02 -0.15760255599E+02 -0.32818199110E+02  0.50528837867E+02  0.29999933180E+02 0.  0.
        -12    1    1    2    0    0  0.18103801148E+02  0.15760255599E+02  0.32818199110E+02  0.40659162133E+02  0.00000000000E+00 0.  1.
         11    1    3    3    0    0 -0.10847441677E+00 -0.32822517436E+00  0.65103647591E+00  0.73712089800E+00  0.51100000000E-03 0. -1.
        -11    1    3    3    0    0 -0.14566926423E+02  0.39756641370E+01 -0.22895056197E+02  0.27425988574E+02  0.51100000000E-03 0.  1.
         12    1    3    3    0    0 -0.34284003080E+01 -0.19407694562E+02 -0.10574179389E+02  0.22365728395E+02  0.00000000000E+00 0. -1.
</event>
<event>
 7    1  0.5935282E-013  0.5052885E+02  0.7816164E-02  0.1300439E+00
        -11   -1    0    0    0    0  0.00000000000E+00  0.00000000000E+00  0.45593999997E+02  0.45594000000E+02  0.51100000000E-03 0. -1.
         11   -1    0    0    0    0 -0.00000000000E+00 -0.00000000000E+00 -0.45593999997E+02  0.45594000000E+02  0.51100000000E-03 0.  1.
    9900012    2    1    2    0    0 -0.36844600576E+02 -0.17104745704E+02 -0.17520375729E+01  0.50528849088E+02  0.29999967288E+02 0.  0.
        -12    1    1    2    0    0  0.36844600576E+02  0.17104745704E+02  0.17520375729E+01  0.40659150912E+02  0.00000000000E+00 0.  1.
         11    1    3    3    0    0 -0.55849444230E+00 -0.27878415912E+01  0.37022565674E+00  0.28672363135E+01  0.51100000000E-03 0. -1.
        -11    1    3    3    0    0 -0.22123464386E+02 -0.19247541583E+02  0.69471988159E+01  0.30136010105E+02  0.51100000000E-03 0.  1.
         12    1    3    3    0    0 -0.14162641748E+02  0.49306374692E+01 -0.90694620456E+01  0.17525602669E+02  0.00000000000E+00 0. -1.
</event>
<event>
 7    1  0.5935282E-013  0.5052885E+02  0.7816164E-02  0.1300439E+00
        -11   -1    0    0    0    0  0.00000000000E+00  0.00000000000E+00  0.45593999997E+02  0.45594000000E+02  0.51100000000E-03 0. -1.
         11   -1    0    0    0    0 -0.00000000000E+00 -0.00000000000E+00 -0.45593999997E+02  0.45594000000E+02  0.51100000000E-03 0.  1.
    9900012    2    1    2    0    0 -0.28276052574E+02  0.22239657350E+02  0.18948056916E+02  0.50528851348E+02  0.29999974159E+02 0.  0.
        -12    1    1    2    0    0  0.28276052574E+02 -0.22239657350E+02 -0.18948056916E+02  0.40659148652E+02  0.00000000000E+00 0.  1.
         11    1    3    3    0    0 -0.79987825361E+01  0.89854180790E+00  0.95969826444E+01  0.12525572864E+02  0.51100000000E-03 0. -1.
        -11    1    3    3    0    0 -0.98383722358E+01  0.26941475576E+01  0.12788603882E+02  0.16358495922E+02  0.51100000000E-03 0.  1.
        -12    1    3    3    0    0 -0.10438897802E+02  0.18646967985E+02 -0.34375296111E+01  0.21644782562E+02  0.00000000000E+00 0.  1.
</event>
<event>
 7    1  0.5935282E-013  0.5052886E+02  0.7816164E-02  0.1300439E+00
        -11   -1    0    0    0    0  0.00000000000E+00  0.00000000000E+00  0.45593999997E+02  0.45594000000E+02  0.51100000000E-03 0. -1.
         11   -1    0    0    0    0 -0.00000000000E+00 -0.00000000000E+00 -0.45593999997E+02  0.45594000000E+02  0.51100000000E-03 0.  1.
    9900012    2    1    2    0    0 -0.39923778582E+02  0.75464109219E+01  0.15196830805E+01  0.50528857722E+02  0.29999993533E+02 0.  0.
        -12    1    1    2    0    0  0.39923778582E+02 -0.75464109219E+01 -0.15196830805E+01  0.40659142278E+02  0.00000000000E+00 0.  1.
         11    1    3    3    0    0 -0.68402358288E+01  0.51076285768E+01  0.59616726336E+01  0.10412407825E+02  0.51100000000E-03 0. -1.
        -11    1    3    3    0    0 -0.15133134116E+02  0.84823254510E+01  0.61614230830E+01  0.18409908416E+02  0.51100000000E-03 0.  1.
        -12    1    3    3    0    0 -0.17950408638E+02 -0.60435431059E+01 -0.10603412636E+02  0.21706541481E+02  0.00000000000E+00 0.  1.
</event>
<event>
 7    1  0.5935282E-013  0.5052885E+02  0.7816164E-02  0.1300439E+00
        -11   -1    0    0    0    0  0.00000000000E+00  0.00000000000E+00  0.45593999997E+02  0.45594000000E+02  0.51100000000E-03 0.  1.
         11   -1    0    0    0    0 -0.00000000000E+00 -0.00000000000E+00 -0.45593999997E+02  0.45594000000E+02  0.51100000000E-03 0. -1.
    9900012    2    1    2    0    0  0.34626641923E+02 -0.20254059741E+02 -0.66283756034E+01  0.50528848139E+02  0.29999964405E+02 0.  0.
        -12    1    1    2    0    0 -0.34626641923E+02  0.20254059741E+02  0.66283756034E+01  0.40659151861E+02  0.00000000000E+00 0.  1.
         11    1    3    3    0    0  0.26415231478E+02 -0.17259618517E+02  0.14707148015E+00  0.31554405647E+02  0.51100000000E-03 0. -1.
        -11    1    3    3    0    0  0.77882437450E+01 -0.82796312500E+01 -0.75068810549E+01  0.13622125300E+02  0.51100000000E-03 0.  1.
        -12    1    3    3    0    0  0.42316669992E+00  0.52851900266E+01  0.73143397136E+00  0.53523171924E+01  0.00000000000E+00 0.  1.
</event>
<event>
 7    1  0.5935282E-013  0.5052885E+02  0.7816164E-02  0.1300439E+00
        -11   -1    0    0    0    0  0.00000000000E+00  0.00000000000E+00  0.45593999997E+02  0.45594000000E+02  0.51100000000E-03 0. -1.
         11   -1    0    0    0    0 -0.00000000000E+00 -0.00000000000E+00 -0.45593999997E+02  0.45594000000E+02  0.51100000000E-03 0.  1.
    9900012    2    1    2    0    0  0.39841626646E+02 -0.41641630966E+01  0.69620931455E+01  0.50528853316E+02  0.29999980140E+02 0.  0.
        -12    1    1    2    0    0 -0.39841626646E+02  0.41641630966E+01 -0.69620931455E+01  0.40659146684E+02  0.00000000000E+00 0.  1.
         11    1    3    3    0    0  0.14159455257E+02 -0.57930756229E+01  0.82850164272E+01  0.17398028504E+02  0.51100000000E-03 0. -1.
        -11    1    3    3    0    0  0.89563787602E+01 -0.94491743214E+01  0.85533969340E-01  0.13019636407E+02  0.51100000000E-03 0.  1.
         12    1    3    3    0    0  0.16725792628E+02  0.11078086848E+02 -0.14084572510E+01  0.20111188405E+02  0.00000000000E+00 0. -1.
</event>
<event>
 7    1  0.5935282E-013  0.5052887E+02  0.7816164E-02  0.1300439E+00
        -11   -1    0    0    0    0  0.00000000000E+00  0.00000000000E+00  0.45593999997E+02  0.45594000000E+02  0.51100000000E-03 0. -1.
         11   -1    0    0    0    0 -0.00000000000E+00 -0.00000000000E+00 -0.45593999997E+02  0.45594000000E+02  0.51100000000E-03 0.  1.
    9900012    2    1    2    0    0 -0.11298293775E+02 -0.37766224351E+02 -0.99612120588E+01  0.50528869541E+02  0.30000029458E+02 0.  0.
        -12    1    1    2    0    0  0.11298293775E+02  0.37766224351E+02  0.99612120588E+01  0.40659130459E+02  0.00000000000E+00 0.  1.
         11    1    3    3    0    0 -0.12123820540E+01 -0.18642246165E+02 -0.37131422956E+01  0.19047063771E+02  0.51100000000E-03 0. -1.
        -11    1    3    3    0    0  0.66917606303E+01 -0.91535227755E+01 -0.23468278943E+01  0.11579043180E+02  0.51100000000E-03 0.  1.
        -12    1    3    3    0    0 -0.16777672351E+02 -0.99704554109E+01 -0.39012418689E+01  0.19902762591E+02  0.00000000000E+00 0.  1.
</event>
<event>
 7    1  0.5935282E-013  0.5052887E+02  0.7816164E-02  0.1300439E+00
        -11   -1    0    0    0    0  0.00000000000E+00  0.00000000000E+00  0.45593999997E+02  0.45594000000E+02  0.51100000000E-03 0. -1.
         11   -1    0    0    0    0 -0.00000000000E+00 -0.00000000000E+00 -0.45593999997E+02  0.45594000000E+02  0.51100000000E-03 0.  1.
    9900012    2    1    2    0    0  0.39649389644E+02 -0.89746501361E+01 -0.73922986549E+00  0.50528869353E+02  0.30000028885E+02 0.  0.
        -12    1    1    2    0    0 -0.39649389644E+02  0.89746501361E+01  0.73922986549E+00  0.40659130647E+02  0.00000000000E+00 0.  1.
         11    1    3    3    0    0  0.14674331431E+02  0.29505659736E+01 -0.92772882905E+01  0.17609938126E+02  0.51100000000E-03 0. -1.
        -11    1    3    3    0    0  0.42283738271E+01 -0.69631291201E+01 -0.29821613722E+01  0.86751137789E+01  0.51100000000E-03 0.  1.
        -12    1    3    3    0    0  0.20746684386E+02 -0.49620869896E+01  0.11520219797E+02  0.24243817449E+02  0.00000000000E+00 0.  1.
</event>
<event>
 7    1  0.5935282E-013  0.5052886E+02  0.7816164E-02  0.1300439E+00
        -11   -1    0    0    0    0  0.00000000000E+00  0.00000000000E+00  0.45593999997E+02  0.45594000000E+02  0.51100000000E-03 0. -1.
         11   -1    0    0    0    0 -0.00000000000E+00 -0.00000000000E+00 -0.45593999997E+02  0.45594000000E+02  0.51100000000E-03 0.  1.
    9900012    2    1    2    0    0  0.29206758943E+02  0.27864783077E+02  0.48667131098E+01  0.50528858342E+02  0.29999995416E+02 0.  0.
        -12    1    1    2    0    0 -0.29206758943E+02 -0.27864783077E+02 -0.48667131098E+01  0.40659141658E+02  0.00000000000E+00 0.  1.
         11    1    3    3    0    0  0.23161076993E+01  0.66980900246E+01  0.24836532147E+01  0.75098134733E+01  0.51100000000E-03 0. -1.
        -11    1    3    3    0    0  0.89362388305E+01  0.21096369370E+02 -0.52573446433E+01  0.23506442479E+02  0.51100000000E-03 0.  1.
        -12    1    3    3    0    0  0.17954412413E+02  0.70323682684E-01  0.76404045383E+01  0.19512602390E+02  0.00000000000E+00 0.  1.
</event>
<event>
 7    1  0.5935282E-013  0.5052886E+02  0.7816164E-02  0.1300439E+00
        -11   -1    0    0    0    0  0.00000000000E+00  0.00000000000E+00  0.45593999997E+02  0.45594000000E+02  0.51100000000E-03 0.  1.
         11   -1    0    0    0    0 -0.00000000000E+00 -0.00000000000E+00 -0.45593999997E+02  0.45594000000E+02  0.51100000000E-03 0. -1.
    9900012    2    1    2    0    0 -0.25913490308E+02 -0.21577664278E+02 -0.22716984665E+02  0.50528856282E+02  0.29999989154E+02 0.  0.
        -12    1    1    2    0    0  0.25913490308E+02  0.21577664278E+02  0.22716984665E+02  0.40659143718E+02  0.00000000000E+00 0.  1.
         11    1    3    3    0    0 -0.13367586118E+02 -0.22917860750E+02 -0.17533834125E+02  0.31801824466E+02  0.51100000000E-03 0. -1.
        -11    1    3    3    0    0 -0.11006554935E+02 -0.40386665862E+01 -0.10498564578E+01  0.11771035561E+02  0.51100000000E-03 0.  1.
        -12    1    3    3    0    0 -0.15393492547E+01  0.53788630583E+01 -0.41332940822E+01  0.69559962549E+01  0.00000000000E+00 0.  1.
</event>
<event>
 7    1  0.5935282E-013  0.5052886E+02  0.7816164E-02  0.1300439E+00
        -11   -1    0    0    0    0  0.00000000000E+00  0.00000000000E+00  0.45593999997E+02  0.45594000000E+02  0.51100000000E-03 0.  1.
         11   -1    0    0    0    0 -0.00000000000E+00 -0.00000000000E+00 -0.45593999997E+02  0.45594000000E+02  0.51100000000E-03 0. -1.
    9900012    2    1    2    0    0  0.24827954478E+02 -0.91141578736E+00 -0.32185519763E+02  0.50528859764E+02  0.29999999739E+02 0.  0.
        -12    1    1    2    0    0 -0.24827954478E+02  0.91141578736E+00  0.32185519763E+02  0.40659140236E+02  0.00000000000E+00 0.  1.
         11    1    3    3    0    0  0.36294907167E+01 -0.71328601034E+01 -0.12021578653E+02  0.14441926800E+02  0.51100000000E-03 0. -1.
        -11    1    3    3    0    0  0.76513397971E+01 -0.73741442788E+01 -0.57345304990E+01  0.12075009103E+02  0.51100000000E-03 0.  1.
        -12    1    3    3    0    0  0.13547123964E+02  0.13595588595E+02 -0.14429410611E+02  0.24011923861E+02  0.00000000000E+00 0.  1.
</event>
<event>
 7    1  0.5935282E-013  0.5052887E+02  0.7816164E-02  0.1300439E+00
        -11   -1    0    0    0    0  0.00000000000E+00  0.00000000000E+00  0.45593999997E+02  0.45594000000E+02  0.51100000000E-03 0.  1.
         11   -1    0    0    0    0 -0.00000000000E+00 -0.00000000000E+00 -0.45593999997E+02  0.45594000000E+02  0.51100000000E-03 0. -1.
    9900012    2    1    2    0    0 -0.14287655231E+02 -0.32146904731E+02 -0.20386377480E+02  0.50528868646E+02  0.30000026735E+02 0.  0.
        -12    1    1    2    0    0  0.14287655231E+02  0.32146904731E+02  0.20386377480E+02  0.40659131354E+02  0.00000000000E+00 0.  1.
         11    1    3    3    0    0 -0.21764731901E+01 -0.68502187489E+01 -0.73027042547E+01  0.10246561479E+02  0.51100000000E-03 0.  1.
        -11    1    3    3    0    0 -0.33041666404E+01  0.14645467191E+01  0.54645028018E+01  0.65515803752E+01  0.51100000000E-03 0. -1.
         12    1    3    3    0    0 -0.88070154001E+01 -0.26761232701E+02 -0.18548176027E+02  0.33730726791E+02  0.00000000000E+00 0. -1.
</event>
<event>
 7    1  0.5935282E-013  0.5052888E+02  0.7816164E-02  0.1300439E+00
        -11   -1    0    0    0    0  0.00000000000E+00  0.00000000000E+00  0.45593999997E+02  0.45594000000E+02  0.51100000000E-03 0.  1.
         11   -1    0    0    0    0 -0.00000000000E+00 -0.00000000000E+00 -0.45593999997E+02  0.45594000000E+02  0.51100000000E-03 0. -1.
    9900012    2    1    2    0    0  0.15829002781E+02 -0.23513983186E+02 -0.29149600275E+02  0.50528881336E+02  0.30000065309E+02 0.  0.
        -12    1    1    2    0    0 -0.15829002781E+02  0.23513983186E+02  0.29149600275E+02  0.40659118664E+02  0.00000000000E+00 0.  1.
         11    1    3    3    0    0  0.66223826338E+01  0.34409770579E+01 -0.10783179894E+02  0.13113856936E+02  0.51100000000E-03 0. -1.
        -11    1    3    3    0    0 -0.30494717547E+01 -0.70483730769E+00 -0.39975109832E+01  0.50770235311E+01  0.51100000000E-03 0.  1.
         12    1    3    3    0    0  0.12256091902E+02 -0.26250122936E+02 -0.14368909398E+02  0.32338000868E+02  0.00000000000E+00 0. -1.
</event>
<event>
 7    1  0.5935282E-013  0.5052886E+02  0.7816164E-02  0.1300439E+00
        -11   -1    0    0    0    0  0.00000000000E+00  0.00000000000E+00  0.45593999997E+02  0.45594000000E+02  0.51100000000E-03 0.  1.
         11   -1    0    0    0    0 -0.00000000000E+00 -0.00000000000E+00 -0.45593999997E+02  0.45594000000E+02  0.51100000000E-03 0. -1.
    9900012    2    1    2    0    0 -0.12346843816E+02 -0.20584164668E+02 -0.32817880354E+02  0.50528860090E+02  0.30000000729E+02 0.  0.
        -12    1    1    2    0    0  0.12346843816E+02  0.20584164668E+02  0.32817880354E+02  0.40659139910E+02  0.00000000000E+00 0.  1.
         11    1    3    3    0    0 -0.10176260781E+02 -0.88972264939E+01 -0.14772066130E+02  0.20023257996E+02  0.51100000000E-03 0. -1.
        -11    1    3    3    0    0 -0.10166026663E+02 -0.14379977097E+01 -0.12991357996E+02  0.16558723332E+02  0.51100000000E-03 0.  1.
        -12    1    3    3    0    0  0.79954436273E+01 -0.10248940465E+02 -0.50544562277E+01  0.13946878762E+02  0.00000000000E+00 0.  1.
</event>
<event>
 7    1  0.5935282E-013  0.5052886E+02  0.7816164E-02  0.1300439E+00
        -11   -1    0    0    0    0  0.00000000000E+00  0.00000000000E+00  0.45593999997E+02  0.45594000000E+02  0.51100000000E-03 0.  1.
         11   -1    0    0    0    0 -0.00000000000E+00 -0.00000000000E+00 -0.45593999997E+02  0.45594000000E+02  0.51100000000E-03 0. -1.
    9900012    2    1    2    0    0  0.23893453512E+02  0.26943517543E+02 -0.18876324884E+02  0.50528857124E+02  0.29999991715E+02 0.  0.
        -12    1    1    2    0    0 -0.23893453512E+02 -0.26943517543E+02  0.18876324884E+02  0.40659142876E+02  0.00000000000E+00 0.  1.
         11    1    3    3    0    0 -0.11526400657E+01  0.19869710643E+00 -0.39234070259E+01  0.40940423316E+01  0.51100000000E-03 0. -1.
        -11    1    3    3    0    0  0.10798003699E+02  0.18619769418E+01 -0.13956707511E+02  0.17744112455E+02  0.51100000000E-03 0.  1.
        -12    1    3    3    0    0  0.14248089879E+02  0.24882843494E+02 -0.99621034669E+00  0.28690702337E+02  0.00000000000E+00 0.  1.
</event>
<event>
 7    1  0.5935282E-013  0.5052886E+02  0.7816164E-02  0.1300439E+00
        -11   -1    0    0    0    0  0.00000000000E+00  0.00000000000E+00  0.45593999997E+02  0.45594000000E+02  0.51100000000E-03 0. -1.
         11   -1    0    0    0    0 -0.00000000000E+00 -0.00000000000E+00 -0.45593999997E+02  0.45594000000E+02  0.51100000000E-03 0.  1.
    9900012    2    1    2    0    0  0.17295169341E+02  0.36419887591E+02 -0.52568538022E+01  0.50528860725E+02  0.30000002661E+02 0.  0.
        -12    1    1    2    0    0 -0.17295169341E+02 -0.36419887591E+02  0.52568538022E+01  0.40659139275E+02  0.00000000000E+00 0.  1.
         11    1    3    3    0    0  0.53363813505E+01  0.24499552739E+01 -0.44731452399E+01  0.73816173946E+01  0.51100000000E-03 0. -1.
        -11    1    3    3    0    0 -0.27871194910E+01  0.24895885919E+01 -0.69032466744E+01  0.78498981728E+01  0.51100000000E-03 0.  1.
         12    1    3    3    0    0  0.14745907481E+02  0.31480343725E+02  0.61195381120E+01  0.35297345158E+02  0.00000000000E+00 0. -1.
</event>
<event>
 7    1  0.5935282E-013  0.5052886E+02  0.7816164E-02  0.1300439E+00
        -11   -1    0    0    0    0  0.00000000000E+00  0.00000000000E+00  0.45593999997E+02  0.45594000000E+02  0.51100000000E-03 0. -1.
         11   -1    0    0    0    0 -0.00000000000E+00 -0.00000000000E+00 -0.45593999997E+02  0.45594000000E+02  0.51100000000E-03 0.  1.
    9900012    2    1    2    0    0  0.14234353876E+01  0.40339678983E+02 -0.48836266453E+01  0.50528859847E+02  0.29999999992E+02 0.  0.
        -12    1    1    2    0    0 -0.14234353876E+01 -0.40339678983E+02  0.48836266453E+01  0.40659140153E+02  0.00000000000E+00 0.  1.
         11    1    3    3    0    0  0.36347666879E+01  0.12546107380E+02  0.20594207907E+01  0.13223371489E+02  0.51100000000E-03 0. -1.
        -11    1    3    3    0    0 -0.54170754736E+01  0.21363738657E+02  0.56987829222E+01  0.22764669186E+02  0.51100000000E-03 0.  1.
        -12    1    3    3    0    0  0.32057441733E+01  0.64298329457E+01 -0.12641830358E+02  0.14540819173E+02  0.00000000000E+00 0.  1.
</event>
<event>
 7    1  0.5935282E-013  0.5052886E+02  0.7816164E-02  0.1300439E+00
        -11   -1    0    0    0    0  0.00000000000E+00  0.00000000000E+00  0.45593999997E+02  0.45594000000E+02  0.51100000000E-03 0.  1.
         11   -1    0    0    0    0 -0.00000000000E+00 -0.00000000000E+00 -0.45593999997E+02  0.45594000000E+02  0.51100000000E-03 0. -1.
    9900012    2    1    2    0    0  0.12380304749E+02  0.25486133095E+02 -0.29160778956E+02  0.50528856439E+02  0.29999989632E+02 0.  0.
        -12    1    1    2    0    0 -0.12380304749E+02 -0.25486133095E+02  0.29160778956E+02  0.40659143561E+02  0.00000000000E+00 0.  1.
         11    1    3    3    0    0  0.10398051954E+02  0.26294105572E+01  0.28324317185E+01  0.11093058821E+02  0.51100000000E-03 0.  1.
        -11    1    3    3    0    0  0.18132501652E+00  0.31257323505E+01 -0.31345590959E+01  0.44304110955E+01  0.51100000000E-03 0. -1.
        -12    1    3    3    0    0  0.18009277782E+01  0.19730990187E+02 -0.28858651579E+02  0.35005386522E+02  0.00000000000E+00 0.  1.
</event>
<event>
 7    1  0.5935282E-013  0.5052887E+02  0.7816164E-02  0.1300439E+00
        -11   -1    0    0    0    0  0.00000000000E+00  0.00000000000E+00  0.45593999997E+02  0.45594000000E+02  0.51100000000E-03 0.  1.
         11   -1    0    0    0    0 -0.00000000000E+00 -0.00000000000E+00 -0.45593999997E+02  0.45594000000E+02  0.51100000000E-03 0. -1.
    9900012    2    1    2    0    0  0.13250893622E+02 -0.90095693810E+01 -0.37368525236E+02  0.50528865718E+02  0.30000017837E+02 0.  0.
        -12    1    1    2    0    0 -0.13250893622E+02  0.90095693810E+01  0.37368525236E+02  0.40659134282E+02  0.00000000000E+00 0.  1.
         11    1    3    3    0    0 -0.41653034826E+01 -0.74943148480E+01 -0.85429270949E+01  0.12103557814E+02  0.51100000000E-03 0. -1.
        -11    1    3    3    0    0  0.14250801977E+02 -0.66302978510E+01 -0.99212625381E+01  0.18587029273E+02  0.51100000000E-03 0.  1.
         12    1    3    3    0    0  0.31653951274E+01  0.51150433181E+01 -0.18904335603E+02  0.19838278631E+02  0.00000000000E+00 0. -1.
</event>
<event>
 7    1  0.5935282E-013  0.5052886E+02  0.7816164E-02  0.1300439E+00
        -11   -1    0    0    0    0  0.00000000000E+00  0.00000000000E+00  0.45593999997E+02  0.45594000000E+02  0.51100000000E-03 0. -1.
         11   -1    0    0    0    0 -0.00000000000E+00 -0.00000000000E+00 -0.45593999997E+02  0.45594000000E+02  0.51100000000E-03 0.  1.
    9900012    2    1    2    0    0 -0.16789898828E+02 -0.36613055314E+02  0.55451860591E+01  0.50528860677E+02  0.30000002513E+02 0.  0.
        -12    1    1    2    0    0  0.16789898828E+02  0.36613055314E+02 -0.55451860591E+01  0.40659139323E+02  0.00000000000E+00 0.  1.
         11    1    3    3    0    0  0.30110627342E+01  0.14784359325E+01 -0.21425691496E+01  0.39803108443E+01  0.51100000000E-03 0. -1.
        -11    1    3    3    0    0 -0.49563838479E+01 -0.43545426297E+01 -0.41994260482E+01  0.78206752750E+01  0.51100000000E-03 0.  1.
         12    1    3    3    0    0 -0.14844577714E+02 -0.33736948617E+02  0.11887181257E+02  0.38727874557E+02  0.00000000000E+00 0. -1.
</event>
<event>
 7    1  0.5935282E-013  0.5052885E+02  0.7816164E-02  0.1300439E+00
        -11   -1    0    0    0    0  0.00000000000E+00  0.00000000000E+00  0.45593999997E+02  0.45594000000E+02  0.51100000000E-03 0.  1.
         11   -1    0    0    0    0 -0.00000000000E+00 -0.00000000000E+00 -0.45593999997E+02  0.45594000000E+02  0.51100000000E-03 0. -1.
    9900012    2    1    2    0    0 -0.10730703165E+02  0.68772914319E+01 -0.38609856616E+02  0.50528853972E+02  0.29999982133E+02 0.  0.
        -12    1    1    2    0    0  0.10730703165E+02 -0.68772914319E+01  0.38609856616E+02  0.40659146028E+02  0.00000000000E+00 0.  1.
         11    1    3    3    0    0 -0.60444128173E+01 -0.69213510016E+00 -0.41469872945E+01  0.73628446394E+01  0.51100000000E-03 0. -1.
        -11    1    3    3    0    0 -0.52626491444E+01  0.11655628622E+01  0.22889040987E+01  0.58560306554E+01  0.51100000000E-03 0.  1.
        -12    1    3    3    0    0  0.57635879683E+00  0.64038636698E+01 -0.36751773420E+02  0.37309978677E+02  0.00000000000E+00 0.  1.
</event>
<event>
 7    1  0.5935282E-013  0.5052887E+02  0.7816164E-02  0.1300439E+00
        -11   -1    0    0    0    0  0.00000000000E+00  0.00000000000E+00  0.45593999997E+02  0.45594000000E+02  0.51100000000E-03 0. -1.
         11   -1    0    0    0    0 -0.00000000000E+00 -0.00000000000E+00 -0.45593999997E+02  0.45594000000E+02  0.51100000000E-03 0.  1.
    9900012    2    1    2    0    0  0.31352497168E+02 -0.15375823153E+02 -0.20827137084E+02  0.50528872422E+02  0.30000038214E+02 0.  0.
        -12    1    1    2    0    0 -0.31352497168E+02  0.15375823153E+02  0.20827137084E+02  0.40659127578E+02  0.00000000000E+00 0.  1.
         11    1    3    3    0    0  0.10791738064E+02 -0.13387322768E+02 -0.10289096215E+01  0.17226162561E+02  0.51100000000E-03 0. -1.
        -11    1    3    3    0    0  0.89227366887E+00 -0.49734417421E+01 -0.98270577518E+01  0.11049992732E+02  0.51100000000E-03 0.  1.
         12    1    3    3    0    0  0.19668485435E+02  0.29849413563E+01 -0.99711697106E+01  0.22252717129E+02  0.00000000000E+00 0. -1.
</event>
<event>
 7    1  0.5935282E-013  0.5052885E+02  0.7816164E-02  0.1300439E+00
        -11   -1    0    0    0    0  0.00000000000E+00  0.00000000000E+00  0.45593999997E+02  0.45594000000E+02  0.51100000000E-03 0.  1.
         11   -1    0    0    0    0 -0.00000000000E+00 -0.00000000000E+00 -0.45593999997E+02  0.45594000000E+02  0.51100000000E-03 0. -1.
    9900012    2    1    2    0    0 -0.20441402788E+02 -0.46784579307E+01 -0.34834289195E+02  0.50528848260E+02  0.29999964770E+02 0.  0.
        -12    1    1    2    0    0  0.20441402788E+02  0.46784579307E+01  0.34834289195E+02  0.40659151740E+02  0.00000000000E+00 0.  1.
         11    1    3    3    0    0 -0.61646951467E+01  0.59243572850E+01 -0.23478874640E+02  0.24987177314E+02  0.51100000000E-03 0. -1.
        -11    1    3    3    0    0 -0.10639698459E+02 -0.60291217933E+01 -0.14449223187E+02  0.18929700047E+02  0.51100000000E-03 0.  1.
        -12    1    3    3    0    0 -0.36370091818E+01 -0.45736934224E+01  0.30938086325E+01  0.66119708987E+01  0.00000000000E+00 0.  1.
</event>
<event>
 7    1  0.5935282E-013  0.5052886E+02  0.7816164E-02  0.1300439E+00
        -11   -1    0    0    0    0  0.00000000000E+00  0.00000000000E+00  0.45593999997E+02  0.45594000000E+02  0.51100000000E-03 0.  1.
         11   -1    0    0    0    0 -0.00000000000E+00 -0.00000000000E+00 -0.45593999997E+02  0.45594000000E+02  0.51100000000E-03 0. -1.
    9900012    2    1    2    0    0 -0.20263332243E+02 -0.30765025431E+02 -0.17206864699E+02  0.50528860608E+02  0.30000002304E+02 0.  0.
        -12    1    1    2    0    0  0.20263332243E+02  0.30765025431E+02  0.17206864699E+02  0.40659139392E+02  0.00000000000E+00 0.  1.
         11    1    3    3    0    0  0.11424121121E+01 -0.13923970718E+02 -0.80125977419E+01  0.16105396265E+02  0.51100000000E-03 0. -1.
        -11    1    3    3    0    0 -0.13212301408E+00 -0.79841412651E+01 -0.80691490614E+01  0.11352318489E+02  0.51100000000E-03 0.  1.
        -12    1    3    3    0    0 -0.21273621341E+02 -0.88569134472E+01 -0.11251178953E+01  0.23071145855E+02  0.00000000000E+00 0.  1.
</event>
<event>
 7    1  0.5935282E-013  0.5052886E+02  0.7816164E-02  0.1300439E+00
        -11   -1    0    0    0    0  0.00000000000E+00  0.00000000000E+00  0.45593999997E+02  0.45594000000E+02  0.51100000000E-03 0.  1.
         11   -1    0    0    0    0 -0.00000000000E+00 -0.00000000000E+00 -0.45593999997E+02  0.45594000000E+02  0.51100000000E-03 0. -1.
    9900012    2    1    2    0    0 -0.15227571270E+02 -0.17261787797E+02 -0.33515926282E+02  0.50528861306E+02  0.30000004427E+02 0.  0.
        -12    1    1    2    0    0  0.15227571270E+02  0.17261787797E+02  0.33515926282E+02  0.40659138694E+02  0.00000000000E+00 0.  1.
         11    1    3    3    0    0 -0.22282476120E+00  0.31641201495E+00  0.11558850968E+01  0.12189495705E+01  0.51100000000E-03 0. -1.
        -11    1    3    3    0    0 -0.67211810836E+01  0.38991189967E+01 -0.94363436610E-01  0.77708628111E+01  0.51100000000E-03 0.  1.
         12    1    3    3    0    0 -0.82835654256E+01 -0.21477318809E+02 -0.34577447942E+02  0.41539048925E+02  0.00000000000E+00 0. -1.
</event>
<event>
 7    1  0.5935282E-013  0.5052885E+02  0.7816164E-02  0.1300439E+00
        -11   -1    0    0    0    0  0.00000000000E+00  0.00000000000E+00  0.45593999997E+02  0.45594000000E+02  0.51100000000E-03 0.  1.
         11   -1    0    0    0    0 -0.00000000000E+00 -0.00000000000E+00 -0.45593999997E+02  0.45594000000E+02  0.51100000000E-03 0. -1.
    9900012    2    1    2    0    0 -0.52098927893E+01  0.18937540244E+02 -0.35600469702E+02  0.50528845356E+02  0.29999955943E+02 0.  0.
        -12    1    1    2    0    0  0.52098927893E+01 -0.18937540244E+02  0.35600469702E+02  0.40659154644E+02  0.00000000000E+00 0.  1.
         11    1    3    3    0    0 -0.38083808294E+01  0.17786046013E+02 -0.13132968803E+02  0.22434840476E+02  0.51100000000E-03 0. -1.
        -11    1    3    3    0    0  0.36679581049E+01  0.77083360648E+01 -0.10407170567E+02  0.13460370018E+02  0.51100000000E-03 0.  1.
         12    1    3    3    0    0 -0.50694700648E+01 -0.65568418333E+01 -0.12060330332E+02  0.14633634862E+02  0.00000000000E+00 0. -1.
</event>
<event>
 7    1  0.5935282E-013  0.5052886E+02  0.7816164E-02  0.1300439E+00
        -11   -1    0    0    0    0  0.00000000000E+00  0.00000000000E+00  0.45593999997E+02  0.45594000000E+02  0.51100000000E-03 0. -1.
         11   -1    0    0    0    0 -0.00000000000E+00 -0.00000000000E+00 -0.45593999997E+02  0.45594000000E+02  0.51100000000E-03 0.  1.
    9900012    2    1    2    0    0 -0.38038200669E+02  0.12880510813E+02  0.63524246433E+01  0.50528861202E+02  0.30000004110E+02 0.  0.
        -12    1    1    2    0    0  0.38038200669E+02 -0.12880510813E+02 -0.63524246433E+01  0.40659138798E+02  0.00000000000E+00 0.  1.
         11    1    3    3    0    0 -0.22346025945E+02 -0.14988883899E+01  0.50247187421E+01  0.22952981083E+02  0.51100000000E-03 0. -1.
        -11    1    3    3    0    0 -0.71387373591E+01 -0.23113878513E+01  0.42051619752E+01  0.86015970831E+01  0.51100000000E-03 0.  1.
        -12    1    3    3    0    0 -0.85534373650E+01  0.16690787055E+02 -0.28774560739E+01  0.18974283036E+02  0.00000000000E+00 0.  1.
</event>
<event>
 7    1  0.5935282E-013  0.5052886E+02  0.7816164E-02  0.1300439E+00
        -11   -1    0    0    0    0  0.00000000000E+00  0.00000000000E+00  0.45593999997E+02  0.45594000000E+02  0.51100000000E-03 0.  1.
         11   -1    0    0    0    0 -0.00000000000E+00 -0.00000000000E+00 -0.45593999997E+02  0.45594000000E+02  0.51100000000E-03 0. -1.
    9900012    2    1    2    0    0 -0.25379009746E+02  0.31604070719E+02  0.32022414583E+01  0.50528858690E+02  0.29999996474E+02 0.  0.
        -12    1    1    2    0    0  0.25379009746E+02 -0.31604070719E+02 -0.32022414583E+01  0.40659141310E+02  0.00000000000E+00 0.  1.
         11    1    3    3    0    0 -0.54309774910E+01 -0.49121933986E+01 -0.36193735189E+01  0.81685387569E+01  0.51100000000E-03 0. -1.
        -11    1    3    3    0    0 -0.43851631232E+00  0.29250498597E+01  0.63298795203E+00  0.30247127543E+01  0.51100000000E-03 0.  1.
         12    1    3    3    0    0 -0.19509515943E+02  0.33591214258E+02  0.61886270252E+01  0.39335607179E+02  0.00000000000E+00 0. -1.
</event>
<event>
 7    1  0.5935282E-013  0.5052881E+02  0.7816164E-02  0.1300439E+00
        -11   -1    0    0    0    0  0.00000000000E+00  0.00000000000E+00  0.45593999997E+02  0.45594000000E+02  0.51100000000E-03 0. -1.
         11   -1    0    0    0    0 -0.00000000000E+00 -0.00000000000E+00 -0.45593999997E+02  0.45594000000E+02  0.51100000000E-03 0.  1.
    9900012    2    1    2    0    0  0.33294096161E+02 -0.17782722154E+02  0.15114473901E+02  0.50528814474E+02  0.29999862074E+02 0.  0.
        -12    1    1    2    0    0 -0.33294096161E+02  0.17782722154E+02 -0.15114473901E+02  0.40659185526E+02  0.00000000000E+00 0.  1.
         11    1    3    3    0    0  0.65474364328E+01  0.18977672022E+00  0.31712840892E+01  0.72774983394E+01  0.51100000000E-03 0. -1.
        -11    1    3    3    0    0  0.76583057176E+01  0.66370163528E+01  0.51780083587E+01  0.11380307700E+02  0.51100000000E-03 0.  1.
        -12    1    3    3    0    0  0.19088354010E+02 -0.24609515227E+02  0.67651814528E+01  0.31871008434E+02  0.00000000000E+00 0.  1.
</event>
<event>
 7    1  0.5935282E-013  0.5052886E+02  0.7816164E-02  0.1300439E+00
        -11   -1    0    0    0    0  0.00000000000E+00  0.00000000000E+00  0.45593999997E+02  0.45594000000E+02  0.51100000000E-03 0. -1.
         11   -1    0    0    0    0 -0.00000000000E+00 -0.00000000000E+00 -0.45593999997E+02  0.45594000000E+02  0.51100000000E-03 0.  1.
    9900012    2    1    2    0    0 -0.22024471378E+02 -0.48750292263E+01  0.33827829631E+02  0.50528864410E+02  0.30000013859E+02 0.  0.
        -12    1    1    2    0    0  0.22024471378E+02  0.48750292263E+01 -0.33827829631E+02  0.40659135590E+02  0.00000000000E+00 0.  1.
         11    1    3    3    0    0 -0.97757732176E+01 -0.58031466382E+01  0.21574838096E+02  0.24386797494E+02  0.51100000000E-03 0. -1.
        -11    1    3    3    0    0 -0.13344274114E+02 -0.10500774783E+01  0.16550488841E+02  0.21285934216E+02  0.51100000000E-03 0.  1.
        -12    1    3    3    0    0  0.10955759532E+01  0.19781948902E+01 -0.42974973061E+01  0.48561326988E+01  0.00000000000E+00 0.  1.
</event>
<event>
 7    1  0.5935282E-013  0.5052887E+02  0.7816164E-02  0.1300439E+00
        -11   -1    0    0    0    0  0.00000000000E+00  0.00000000000E+00  0.45593999997E+02  0.45594000000E+02  0.51100000000E-03 0.  1.
         11   -1    0    0    0    0 -0.00000000000E+00 -0.00000000000E+00 -0.45593999997E+02  0.45594000000E+02  0.51100000000E-03 0. -1.
    9900012    2    1    2    0    0  0.38169392799E+02 -0.12917836176E+02  0.54214292210E+01  0.50528869009E+02  0.30000027841E+02 0.  0.
        -12    1    1    2    0    0 -0.38169392799E+02  0.12917836176E+02 -0.54214292210E+01  0.40659130991E+02  0.00000000000E+00 0.  1.
         11    1    3    3    0    0  0.14394681635E+02  0.46708468291E+01  0.10371889201E+02  0.18346655153E+02  0.51100000000E-03 0. -1.
        -11    1    3    3    0    0  0.18835257833E+02 -0.12208904658E+02  0.14198956693E+01  0.22490895815E+02  0.51100000000E-03 0.  1.
        -12    1    3    3    0    0  0.49394533307E+01 -0.53797783474E+01 -0.63703556488E+01  0.96913180407E+01  0.00000000000E+00 0.  1.
</event>
<event>
 7    1  0.5935282E-013  0.5052886E+02  0.7816164E-02  0.1300439E+00
        -11   -1    0    0    0    0  0.00000000000E+00  0.00000000000E+00  0.45593999997E+02  0.45594000000E+02  0.51100000000E-03 0.  1.
         11   -1    0    0    0    0 -0.00000000000E+00 -0.00000000000E+00 -0.45593999997E+02  0.45594000000E+02  0.51100000000E-03 0. -1.
    9900012    2    1    2    0    0  0.24585285804E+02  0.32309267871E+02 -0.22001386102E+01  0.50528859843E+02  0.29999999979E+02 0.  0.
        -12    1    1    2    0    0 -0.24585285804E+02 -0.32309267871E+02  0.22001386102E+01  0.40659140157E+02  0.00000000000E+00 0.  1.
         11    1    3    3    0    0 -0.37716580917E+01  0.48942766950E+01 -0.36838140174E+01  0.71937358239E+01  0.51100000000E-03 0. -1.
        -11    1    3    3    0    0 -0.11776428706E+01  0.28165237922E-01  0.27976522781E+01  0.30355385917E+01  0.51100000000E-03 0.  1.
         12    1    3    3    0    0  0.29534586766E+02  0.27386825938E+02 -0.13139768709E+01  0.40299585427E+02  0.00000000000E+00 0. -1.
</event>
<event>
 7    1  0.5935282E-013  0.5052885E+02  0.7816164E-02  0.1300439E+00
        -11   -1    0    0    0    0  0.00000000000E+00  0.00000000000E+00  0.45593999997E+02  0.45594000000E+02  0.51100000000E-03 0.  1.
         11   -1    0    0    0    0 -0.00000000000E+00 -0.00000000000E+00 -0.45593999997E+02  0.45594000000E+02  0.51100000000E-03 0. -1.
    9900012    2    1    2    0    0  0.18786093442E+02  0.11735671226E+02 -0.34095788657E+02  0.50528854779E+02  0.29999984587E+02 0.  0.
        -12    1    1    2    0    0 -0.18786093442E+02 -0.11735671226E+02  0.34095788657E+02  0.40659145221E+02  0.00000000000E+00 0.  1.
         11    1    3    3    0    0 -0.57027072672E+01  0.60267969544E+00 -0.57906815757E+01  0.81496065158E+01  0.51100000000E-03 0. -1.
        -11    1    3    3    0    0  0.76262066713E+00 -0.13252536010E+01  0.16073178071E+01  0.22184134383E+01  0.51100000000E-03 0.  1.
         12    1    3    3    0    0  0.23726180042E+02  0.12458245132E+02 -0.29912424888E+02  0.40160834825E+02  0.00000000000E+00 0. -1.
</event>
<event>
 7    1  0.5935282E-013  0.5052881E+02  0.7816164E-02  0.1300439E+00
        -11   -1    0    0    0    0  0.00000000000E+00  0.00000000000E+00  0.45593999997E+02  0.45594000000E+02  0.51100000000E-03 0.  1.
         11   -1    0    0    0    0 -0.00000000000E+00 -0.00000000000E+00 -0.45593999997E+02  0.45594000000E+02  0.51100000000E-03 0. -1.
    9900012    2    1    2    0    0  0.97069064927E-01  0.27696204072E+01 -0.40564630339E+02  0.50528813410E+02  0.29999858842E+02 0.  0.
        -12    1    1    2    0    0 -0.97069064927E-01 -0.27696204072E+01  0.40564630339E+02  0.40659186590E+02  0.00000000000E+00 0.  1.
         11    1    3    3    0    0  0.19019422488E+00 -0.56271840601E+01 -0.37401616382E+01  0.67594514297E+01  0.51100000000E-03 0. -1.
        -11    1    3    3    0    0 -0.21073643126E+01 -0.28208861773E+01  0.14694224877E+01  0.38154404569E+01  0.51100000000E-03 0.  1.
         12    1    3    3    0    0  0.20142391526E+01  0.11217690645E+02 -0.38293891189E+02  0.39953921524E+02  0.00000000000E+00 0. -1.
</event>
<event>
 7    1  0.5935282E-013  0.5052883E+02  0.7816164E-02  0.1300439E+00
        -11   -1    0    0    0    0  0.00000000000E+00  0.00000000000E+00  0.45593999997E+02  0.45594000000E+02  0.51100000000E-03 0.  1.
         11   -1    0    0    0    0 -0.00000000000E+00 -0.00000000000E+00 -0.45593999997E+02  0.45594000000E+02  0.51100000000E-03 0. -1.
    9900012    2    1    2    0    0  0.56078565273E+01  0.31783137064E+02 -0.24729588517E+02  0.50528826316E+02  0.29999898070E+02 0.  0.
        -12    1    1    2    0    0 -0.56078565273E+01 -0.31783137064E+02  0.24729588517E+02  0.40659173684E+02  0.00000000000E+00 0.  1.
         11    1    3    3    0    0 -0.11392541787E+00  0.24112895655E+02 -0.18357461712E+02  0.30305793450E+02  0.51100000000E-03 0. -1.
        -11    1    3    3    0    0 -0.50969950245E+01  0.49007782756E+01 -0.56161548227E+01  0.90298494583E+01  0.51100000000E-03 0.  1.
        -12    1    3    3    0    0  0.10818776970E+02  0.27694631332E+01 -0.75597198248E+00  0.11193183408E+02  0.00000000000E+00 0.  1.
</event>
<event>
 7    1  0.5935282E-013  0.5052886E+02  0.7816164E-02  0.1300439E+00
        -11   -1    0    0    0    0  0.00000000000E+00  0.00000000000E+00  0.45593999997E+02  0.45594000000E+02  0.51100000000E-03 0.  1.
         11   -1    0    0    0    0 -0.00000000000E+00 -0.00000000000E+00 -0.45593999997E+02  0.45594000000E+02  0.51100000000E-03 0. -1.
    9900012    2    1    2    0    0  0.12010143488E+02 -0.91581240763E+01 -0.37749841955E+02  0.50528863870E+02  0.30000012218E+02 0.  0.
        -12    1    1    2    0    0 -0.12010143488E+02  0.91581240763E+01  0.37749841955E+02  0.40659136130E+02  0.00000000000E+00 0.  1.
         11    1    3    3    0    0  0.10222885699E+02 -0.45348109828E+01 -0.33400272800E+01  0.11671661628E+02  0.51100000000E-03 0. -1.
        -11    1    3    3    0    0 -0.37621774529E+01 -0.86057888173E+01 -0.10964956282E+02  0.14437584524E+02  0.51100000000E-03 0.  1.
         12    1    3    3    0    0  0.55494352416E+01  0.39824757238E+01 -0.23444858393E+02  0.24419617718E+02  0.00000000000E+00 0. -1.
</event>
<event>
 7    1  0.5935282E-013  0.5052886E+02  0.7816164E-02  0.1300439E+00
        -11   -1    0    0    0    0  0.00000000000E+00  0.00000000000E+00  0.45593999997E+02  0.45594000000E+02  0.51100000000E-03 0.  1.
         11   -1    0    0    0    0 -0.00000000000E+00 -0.00000000000E+00 -0.45593999997E+02  0.45594000000E+02  0.51100000000E-03 0. -1.
    9900012    2    1    2    0    0  0.36840407534E+02  0.11954961994E+02  0.12370470569E+02  0.50528864671E+02  0.30000014655E+02 0.  0.
        -12    1    1    2    0    0 -0.36840407534E+02 -0.11954961994E+02 -0.12370470569E+02  0.40659135329E+02  0.00000000000E+00 0.  1.
         11    1    3    3    0    0  0.13796965085E+02  0.42926353246E+01  0.21839626135E+01  0.14613440955E+02  0.51100000000E-03 0. -1.
        -11    1    3    3    0    0  0.17767231787E+02 -0.20774853718E+01 -0.35827746297E+01  0.18243539820E+02  0.51100000000E-03 0.  1.
        -12    1    3    3    0    0  0.52762106622E+01  0.97398120412E+01  0.13769282585E+02  0.17671883897E+02  0.00000000000E+00 0.  1.
</event>
<event>
 7    1  0.5935282E-013  0.5052887E+02  0.7816164E-02  0.1300439E+00
        -11   -1    0    0    0    0  0.00000000000E+00  0.00000000000E+00  0.45593999997E+02  0.45594000000E+02  0.51100000000E-03 0.  1.
         11   -1    0    0    0    0 -0.00000000000E+00 -0.00000000000E+00 -0.45593999997E+02  0.45594000000E+02  0.51100000000E-03 0. -1.
    9900012    2    1    2    0    0 -0.28279195759E+02  0.15424963554E+02 -0.24809726838E+02  0.50528868686E+02  0.30000026859E+02 0.  0.
        -12    1    1    2    0    0  0.28279195759E+02 -0.15424963554E+02  0.24809726838E+02  0.40659131314E+02  0.00000000000E+00 0.  1.
         11    1    3    3    0    0 -0.67825061683E+00  0.59514217744E+01 -0.16251212945E+02  0.17319970193E+02  0.51100000000E-03 0. -1.
        -11    1    3    3    0    0 -0.42293639408E+00 -0.23683174741E+01 -0.23765175069E+00  0.24174948743E+01  0.51100000000E-03 0.  1.
         12    1    3    3    0    0 -0.27178008748E+02  0.11841859254E+02 -0.83208621425E+01  0.30791403620E+02  0.00000000000E+00 0. -1.
</event>
<event>
 7    1  0.5935282E-013  0.5052888E+02  0.7816164E-02  0.1300439E+00
        -11   -1    0    0    0    0  0.00000000000E+00  0.00000000000E+00  0.45593999997E+02  0.45594000000E+02  0.51100000000E-03 0.  1.
         11   -1    0    0    0    0 -0.00000000000E+00 -0.00000000000E+00 -0.45593999997E+02  0.45594000000E+02  0.51100000000E-03 0. -1.
    9900012    2    1    2    0    0  0.90467865715E+01  0.39211710500E+02 -0.58104883014E+01  0.50528876032E+02  0.30000049186E+02 0.  0.
        -12    1    1    2    0    0 -0.90467865715E+01 -0.39211710500E+02  0.58104883014E+01  0.40659123968E+02  0.00000000000E+00 0.  1.
         11    1    3    3    0    0  0.92781899933E+01  0.33818551924E+01  0.12707015603E+01  0.99567282182E+01  0.51100000000E-03 0. -1.
        -11    1    3    3    0    0  0.18963962217E+01  0.85538926188E+01  0.56196946303E+01  0.10408956027E+02  0.51100000000E-03 0.  1.
         12    1    3    3    0    0 -0.21277996435E+01  0.27275962688E+02 -0.12700884492E+02  0.30163191787E+02  0.00000000000E+00 0. -1.
</event>
<event>
 7    1  0.5935282E-013  0.5052886E+02  0.7816164E-02  0.1300439E+00
        -11   -1    0    0    0    0  0.00000000000E+00  0.00000000000E+00  0.45593999997E+02  0.45594000000E+02  0.51100000000E-03 0.  1.
         11   -1    0    0    0    0 -0.00000000000E+00 -0.00000000000E+00 -0.45593999997E+02  0.45594000000E+02  0.51100000000E-03 0. -1.
    9900012    2    1    2    0    0  0.82253903988E+01 -0.28319481486E+02 -0.27991348799E+02  0.50528859743E+02  0.29999999674E+02 0.  0.
        -12    1    1    2    0    0 -0.82253903988E+01  0.28319481486E+02  0.27991348799E+02  0.40659140257E+02  0.00000000000E+00 0.  1.
         11    1    3    3    0    0 -0.62507958655E+01 -0.57524454722E+01 -0.28394918679E+01  0.89568851836E+01  0.51100000000E-03 0. -1.
        -11    1    3    3    0    0 -0.34903622882E+01  0.68107711359E+00 -0.15258297934E+01  0.38697095184E+01  0.51100000000E-03 0.  1.
         12    1    3    3    0    0  0.17966548552E+02 -0.23248113128E+02 -0.23626027138E+02  0.37702265041E+02  0.00000000000E+00 0. -1.
</event>
<event>
 7    1  0.5935282E-013  0.5052885E+02  0.7816164E-02  0.1300439E+00
        -11   -1    0    0    0    0  0.00000000000E+00  0.00000000000E+00  0.45593999997E+02  0.45594000000E+02  0.51100000000E-03 0. -1.
         11   -1    0    0    0    0 -0.00000000000E+00 -0.00000000000E+00 -0.45593999997E+02  0.45594000000E+02  0.51100000000E-03 0.  1.
    9900012    2    1    2    0    0  0.22803718474E+02 -0.33658639553E+02  0.50275977071E+00  0.50528851458E+02  0.29999974492E+02 0.  0.
        -12    1    1    2    0    0 -0.22803718474E+02  0.33658639553E+02 -0.50275977071E+00  0.40659148542E+02  0.00000000000E+00 0.  1.
         11    1    3    3    0    0  0.93096381271E+01 -0.15089872309E+02  0.12246805971E+02  0.21548964363E+02  0.51100000000E-03 0. -1.
        -11    1    3    3    0    0  0.59889749042E+01 -0.36604002057E+01  0.20657110653E+01  0.73166599303E+01  0.51100000000E-03 0.  1.
         12    1    3    3    0    0  0.75051054427E+01 -0.14908367038E+02 -0.13809757266E+02  0.21663227164E+02  0.00000000000E+00 0. -1.
</event>
<event>
 7    1  0.5935282E-013  0.5052886E+02  0.7816164E-02  0.1300439E+00
        -11   -1    0    0    0    0  0.00000000000E+00  0.00000000000E+00  0.45593999997E+02  0.45594000000E+02  0.51100000000E-03 0.  1.
         11   -1    0    0    0    0 -0.00000000000E+00 -0.00000000000E+00 -0.45593999997E+02  0.45594000000E+02  0.51100000000E-03 0. -1.
    9900012    2    1    2    0    0 -0.16994072546E+02 -0.36912774300E+02  0.13470098276E+01  0.50528857809E+02  0.29999993796E+02 0.  0.
        -12    1    1    2    0    0  0.16994072546E+02  0.36912774300E+02 -0.13470098276E+01  0.40659142191E+02  0.00000000000E+00 0.  1.
         11    1    3    3    0    0 -0.36554592466E+00 -0.34042357136E+01 -0.10856461660E+01  0.35918062971E+01  0.51100000000E-03 0. -1.
        -11    1    3    3    0    0 -0.19240682409E+02 -0.12100733353E+02  0.89180328877E+01  0.24416447696E+02  0.51100000000E-03 0.  1.
        -12    1    3    3    0    0  0.26121557872E+01 -0.21407805234E+02 -0.64853768940E+01  0.22520603816E+02  0.00000000000E+00 0.  1.
</event>
<event>
 7    1  0.5935282E-013  0.5052875E+02  0.7816164E-02  0.1300439E+00
        -11   -1    0    0    0    0  0.00000000000E+00  0.00000000000E+00  0.45593999997E+02  0.45594000000E+02  0.51100000000E-03 0. -1.
         11   -1    0    0    0    0 -0.00000000000E+00 -0.00000000000E+00 -0.45593999997E+02  0.45594000000E+02  0.51100000000E-03 0.  1.
    9900012    2    1    2    0    0  0.12196783036E+02 -0.77796245039E+01  0.37998559018E+02  0.50528750606E+02  0.29999667939E+02 0.  0.
        -12    1    1    2    0    0 -0.12196783036E+02  0.77796245039E+01 -0.37998559018E+02  0.40659249394E+02  0.00000000000E+00 0.  1.
         11    1    3    3    0    0  0.73503927390E+01  0.43428744684E+01  0.20055137549E+02  0.21796728526E+02  0.51100000000E-03 0. -1.
        -11    1    3    3    0    0  0.49998004593E+01  0.37165060076E+01  0.28432844901E+01  0.68479696619E+01  0.51100000000E-03 0.  1.
        -12    1    3    3    0    0 -0.15341016238E+00 -0.15839004980E+02  0.15100136980E+02  0.21884052418E+02  0.00000000000E+00 0.  1.
</event>
<event>
 7    1  0.5935282E-013  0.5052881E+02  0.7816164E-02  0.1300439E+00
        -11   -1    0    0    0    0  0.00000000000E+00  0.00000000000E+00  0.45593999997E+02  0.45594000000E+02  0.51100000000E-03 0.  1.
         11   -1    0    0    0    0 -0.00000000000E+00 -0.00000000000E+00 -0.45593999997E+02  0.45594000000E+02  0.51100000000E-03 0. -1.
    9900012    2    1    2    0    0  0.29279468939E+02  0.79139899978E+01 -0.27078618012E+02  0.50528805561E+02  0.29999834982E+02 0.  0.
        -12    1    1    2    0    0 -0.29279468939E+02 -0.79139899978E+01  0.27078618012E+02  0.40659194439E+02  0.00000000000E+00 0.  1.
         11    1    3    3    0    0  0.18044864238E+01 -0.39059831680E+01 -0.73933088385E+01  0.85541739289E+01  0.51100000000E-03 0. -1.
        -11    1    3    3    0    0  0.18085050953E+01  0.52972717468E+01 -0.13735363783E+02  0.14832127195E+02  0.51100000000E-03 0.  1.
        -12    1    3    3    0    0  0.25666477420E+02  0.65227014190E+01 -0.59499453905E+01  0.27142504437E+02  0.00000000000E+00 0.  1.
</event>
<event>
 7    1  0.5935282E-013  0.5052886E+02  0.7816164E-02  0.1300439E+00
        -11   -1    0    0    0    0  0.00000000000E+00  0.00000000000E+00  0.45593999997E+02  0.45594000000E+02  0.51100000000E-03 0. -1.
         11   -1    0    0    0    0 -0.00000000000E+00 -0.00000000000E+00 -0.45593999997E+02  0.45594000000E+02  0.51100000000E-03 0.  1.
    9900012    2    1    2    0    0  0.10844617561E+02  0.39135708198E+02 -0.19890713381E+01  0.50528858458E+02  0.29999995767E+02 0.  0.
        -12    1    1    2    0    0 -0.10844617561E+02 -0.39135708198E+02  0.19890713381E+01  0.40659141542E+02  0.00000000000E+00 0.  1.
         11    1    3    3    0    0  0.11759405347E+02  0.62256174639E+01 -0.41681704847E+01  0.13943298475E+02  0.51100000000E-03 0. -1.
        -11    1    3    3    0    0  0.46656553041E+01  0.30431983174E+01  0.27155599273E+01  0.61970687745E+01  0.51100000000E-03 0.  1.
         12    1    3    3    0    0 -0.55804430904E+01  0.29866892417E+02 -0.53646078068E+00  0.30388491208E+02  0.00000000000E+00 0. -1.
</event>
<event>
 7    1  0.5935282E-013  0.5052886E+02  0.7816164E-02  0.1300439E+00
        -11   -1    0    0    0    0  0.00000000000E+00  0.00000000000E+00  0.45593999997E+02  0.45594000000E+02  0.51100000000E-03 0.  1.
         11   -1    0    0    0    0 -0.00000000000E+00 -0.00000000000E+00 -0.45593999997E+02  0.45594000000E+02  0.51100000000E-03 0. -1.
    9900012    2    1    2    0    0 -0.50067508259E+01  0.30878334052E+02 -0.25973573948E+02  0.50528860667E+02  0.30000002485E+02 0.  0.
        -12    1    1    2    0    0  0.50067508259E+01 -0.30878334052E+02  0.25973573948E+02  0.40659139333E+02  0.00000000000E+00 0.  1.
         11    1    3    3    0    0 -0.40454288117E+01 -0.36807412774E+01 -0.22826819741E+01  0.59265494073E+01  0.51100000000E-03 0. -1.
        -11    1    3    3    0    0 -0.48695709088E+01  0.25399651179E+01 -0.42017657270E+01  0.69151268333E+01  0.51100000000E-03 0.  1.
         12    1    3    3    0    0  0.39082488946E+01  0.32019110212E+02 -0.19489126247E+02  0.37687184427E+02  0.00000000000E+00 0. -1.
</event>
<event>
 7    1  0.5935282E-013  0.5052886E+02  0.7816164E-02  0.1300439E+00
        -11   -1    0    0    0    0  0.00000000000E+00  0.00000000000E+00  0.45593999997E+02  0.45594000000E+02  0.51100000000E-03 0.  1.
         11   -1    0    0    0    0 -0.00000000000E+00 -0.00000000000E+00 -0.45593999997E+02  0.45594000000E+02  0.51100000000E-03 0. -1.
    9900012    2    1    2    0    0 -0.81198427844E+01 -0.29289619611E+02 -0.27006515272E+02  0.50528861655E+02  0.30000005488E+02 0.  0.
        -12    1    1    2    0    0  0.81198427844E+01  0.29289619611E+02  0.27006515272E+02  0.40659138345E+02  0.00000000000E+00 0.  1.
         11    1    3    3    0    0 -0.31610028066E+00 -0.18411717672E+02 -0.22380563513E+02  0.28982423820E+02  0.51100000000E-03 0. -1.
        -11    1    3    3    0    0 -0.56522735156E+01 -0.15031502567E+02 -0.50882663619E+01  0.16845911081E+02  0.51100000000E-03 0.  1.
        -12    1    3    3    0    0 -0.21514689882E+01  0.41536006276E+01  0.46231460367E+00  0.47005267549E+01  0.00000000000E+00 0.  1.
</event>
<event>
 7    1  0.5935282E-013  0.5052886E+02  0.7816164E-02  0.1300439E+00
        -11   -1    0    0    0    0  0.00000000000E+00  0.00000000000E+00  0.45593999997E+02  0.45594000000E+02  0.51100000000E-03 0. -1.
         11   -1    0    0    0    0 -0.00000000000E+00 -0.00000000000E+00 -0.45593999997E+02  0.45594000000E+02  0.51100000000E-03 0.  1.
    9900012    2    1    2    0    0 -0.21767613448E+02 -0.33847472580E+02  0.58038958697E+01  0.50528860775E+02  0.30000002811E+02 0.  0.
        -12    1    1    2    0    0  0.21767613448E+02  0.33847472580E+02 -0.58038958697E+01  0.40659139225E+02  0.00000000000E+00 0.  1.
         11    1    3    3    0    0 -0.91233778948E+01 -0.14004788112E+02 -0.42936540227E+01  0.17257044342E+02  0.51100000000E-03 0. -1.
        -11    1    3    3    0    0  0.82358677148E+00 -0.53092429241E+01 -0.57722224629E+01  0.78857408035E+01  0.51100000000E-03 0.  1.
         12    1    3    3    0    0 -0.13467822325E+02 -0.14533441543E+02  0.15869772355E+02  0.25386075630E+02  0.00000000000E+00 0. -1.
</event>
<event>
 7    1  0.5935282E-013  0.5052887E+02  0.7816164E-02  0.1300439E+00
        -11   -1    0    0    0    0  0.00000000000E+00  0.00000000000E+00  0.45593999997E+02  0.45594000000E+02  0.51100000000E-03 0.  1.
         11   -1    0    0    0    0 -0.00000000000E+00 -0.00000000000E+00 -0.45593999997E+02  0.45594000000E+02  0.51100000000E-03 0. -1.
    9900012    2    1    2    0    0 -0.35268667731E+02 -0.12101463490E+02 -0.16212360849E+02  0.50528868351E+02  0.30000025839E+02 0.  0.
        -12    1    1    2    0    0  0.35268667731E+02  0.12101463490E+02  0.16212360849E+02  0.40659131649E+02  0.00000000000E+00 0.  1.
         11    1    3    3    0    0 -0.12433296463E+02 -0.16688653194E+02 -0.14876606499E+02  0.25581466485E+02  0.51100000000E-03 0.  1.
        -11    1    3    3    0    0 -0.35784586377E+01 -0.10266493188E+01 -0.30543011172E+01  0.48154055511E+01  0.51100000000E-03 0. -1.
        -12    1    3    3    0    0 -0.19256912630E+02  0.56138390221E+01  0.17185467664E+01  0.20131996315E+02  0.00000000000E+00 0.  1.
</event>
<event>
 7    1  0.5935282E-013  0.5052887E+02  0.7816164E-02  0.1300439E+00
        -11   -1    0    0    0    0  0.00000000000E+00  0.00000000000E+00  0.45593999997E+02  0.45594000000E+02  0.51100000000E-03 0.  1.
         11   -1    0    0    0    0 -0.00000000000E+00 -0.00000000000E+00 -0.45593999997E+02  0.45594000000E+02  0.51100000000E-03 0. -1.
    9900012    2    1    2    0    0  0.47046160336E+01 -0.27076015438E+02 -0.29965330389E+02  0.50528867577E+02  0.30000023488E+02 0.  0.
        -12    1    1    2    0    0 -0.47046160336E+01  0.27076015438E+02  0.29965330389E+02  0.40659132423E+02  0.00000000000E+00 0.  1.
         11    1    3    3    0    0 -0.46089164536E+01 -0.11994891591E+02 -0.32894562677E+01  0.13264239818E+02  0.51100000000E-03 0. -1.
        -11    1    3    3    0    0  0.11798017708E+02 -0.18204344308E+02 -0.20106800057E+02  0.29578282274E+02  0.51100000000E-03 0.  1.
        -12    1    3    3    0    0 -0.24844852203E+01  0.31232204601E+01 -0.65690740650E+01  0.76863454856E+01  0.00000000000E+00 0.  1.
</event>
<event>
 7    1  0.5935282E-013  0.5052891E+02  0.7816164E-02  0.1300439E+00
        -11   -1    0    0    0    0  0.00000000000E+00  0.00000000000E+00  0.45593999997E+02  0.45594000000E+02  0.51100000000E-03 0.  1.
         11   -1    0    0    0    0 -0.00000000000E+00 -0.00000000000E+00 -0.45593999997E+02  0.45594000000E+02  0.51100000000E-03 0. -1.
    9900012    2    1    2    0    0 -0.23876786647E+02  0.27264841139E+02 -0.18430657699E+02  0.50528909428E+02  0.30000150697E+02 0.  0.
        -12    1    1    2    0    0  0.23876786647E+02 -0.27264841139E+02  0.18430657699E+02  0.40659090572E+02  0.00000000000E+00 0.  1.
         11    1    3    3    0    0 -0.17274806630E+02  0.20914374158E+02 -0.17819734701E+02  0.32455707288E+02  0.51100000000E-03 0. -1.
        -11    1    3    3    0    0 -0.99923595467E+01  0.75426997117E+01  0.31099991022E+01  0.12900064454E+02  0.51100000000E-03 0.  1.
        -12    1    3    3    0    0  0.33903795299E+01 -0.11922327300E+01 -0.37209220995E+01  0.51731376852E+01  0.00000000000E+00 0.  1.
</event>
<event>
 7    1  0.5935282E-013  0.5052887E+02  0.7816164E-02  0.1300439E+00
        -11   -1    0    0    0    0  0.00000000000E+00  0.00000000000E+00  0.45593999997E+02  0.45594000000E+02  0.51100000000E-03 0. -1.
         11   -1    0    0    0    0 -0.00000000000E+00 -0.00000000000E+00 -0.45593999997E+02  0.45594000000E+02  0.51100000000E-03 0.  1.
    9900012    2    1    2    0    0  0.35931916525E+02 -0.19023563501E+02  0.40790488943E+00  0.50528868432E+02  0.30000026085E+02 0.  0.
        -12    1    1    2    0    0 -0.35931916525E+02  0.19023563501E+02 -0.40790488943E+00  0.40659131568E+02  0.00000000000E+00 0.  1.
         11    1    3    3    0    0  0.80528431181E+01 -0.10368231830E+02 -0.28931349084E+01  0.13443167165E+02  0.51100000000E-03 0. -1.
        -11    1    3    3    0    0  0.29963691317E+02 -0.48189520094E+01  0.72454966815E+01  0.31201639672E+02  0.51100000000E-03 0.  1.
         12    1    3    3    0    0 -0.20846179098E+01 -0.38363796620E+01 -0.39444568836E+01  0.58840615945E+01  0.00000000000E+00 0. -1.
</event>
<event>
 7    1  0.5935282E-013  0.5052887E+02  0.7816164E-02  0.1300439E+00
        -11   -1    0    0    0    0  0.00000000000E+00  0.00000000000E+00  0.45593999997E+02  0.45594000000E+02  0.51100000000E-03 0.  1.
         11   -1    0    0    0    0 -0.00000000000E+00 -0.00000000000E+00 -0.45593999997E+02  0.45594000000E+02  0.51100000000E-03 0. -1.
    9900012    2    1    2    0    0 -0.25906366359E+01 -0.38335209118E+02 -0.13299067805E+02  0.50528869896E+02  0.30000030537E+02 0.  0.
        -12    1    1    2    0    0  0.25906366359E+01  0.38335209118E+02  0.13299067805E+02  0.40659130104E+02  0.00000000000E+00 0.  1.
         11    1    3    3    0    0 -0.75806152134E+01 -0.33872623717E+01 -0.19601805793E+01  0.85312121972E+01  0.51100000000E-03 0. -1.
        -11    1    3    3    0    0 -0.22604867200E+01 -0.17617764936E+01  0.38400257530E+01  0.47916025158E+01  0.51100000000E-03 0.  1.
         12    1    3    3    0    0  0.72504652976E+01 -0.33186170253E+02 -0.15178912979E+02  0.37206055183E+02  0.00000000000E+00 0. -1.
</event>
<event>
 7    1  0.5935282E-013  0.5052887E+02  0.7816164E-02  0.1300439E+00
        -11   -1    0    0    0    0  0.00000000000E+00  0.00000000000E+00  0.45593999997E+02  0.45594000000E+02  0.51100000000E-03 0.  1.
         11   -1    0    0    0    0 -0.00000000000E+00 -0.00000000000E+00 -0.45593999997E+02  0.45594000000E+02  0.51100000000E-03 0. -1.
    9900012    2    1    2    0    0 -0.24328937258E+01 -0.36183423005E+02 -0.18384931398E+02  0.50528870954E+02  0.30000033752E+02 0.  0.
        -12    1    1    2    0    0  0.24328937258E+01  0.36183423005E+02  0.18384931398E+02  0.40659129046E+02  0.00000000000E+00 0.  1.
         11    1    3    3    0    0  0.74083669260E+00 -0.18084119807E+02 -0.98442103018E+01  0.20603220742E+02  0.51100000000E-03 0. -1.
        -11    1    3    3    0    0 -0.13334316001E+01 -0.51828896058E+01 -0.14592993808E+02  0.15543353983E+02  0.51100000000E-03 0.  1.
        -12    1    3    3    0    0 -0.18402988183E+01 -0.12916413592E+02  0.60522727123E+01  0.14382296229E+02  0.00000000000E+00 0.  1.
</event>
<event>
 7    1  0.5935282E-013  0.5052887E+02  0.7816164E-02  0.1300439E+00
        -11   -1    0    0    0    0  0.00000000000E+00  0.00000000000E+00  0.45593999997E+02  0.45594000000E+02  0.51100000000E-03 0.  1.
         11   -1    0    0    0    0 -0.00000000000E+00 -0.00000000000E+00 -0.45593999997E+02  0.45594000000E+02  0.51100000000E-03 0. -1.
    9900012    2    1    2    0    0 -0.96584082290E+01 -0.70068438422E+01 -0.38868811238E+02  0.50528865759E+02  0.30000017961E+02 0.  0.
        -12    1    1    2    0    0  0.96584082290E+01  0.70068438422E+01  0.38868811238E+02  0.40659134241E+02  0.00000000000E+00 0.  1.
         11    1    3    3    0    0 -0.81883393736E+01 -0.59976406427E+01 -0.81114786209E+01  0.12992947343E+02  0.51100000000E-03 0. -1.
        -11    1    3    3    0    0 -0.22705535595E+01  0.78206810004E+01 -0.34838499590E+01  0.88575208481E+01  0.51100000000E-03 0.  1.
         12    1    3    3    0    0  0.80048470411E+00 -0.88298841999E+01 -0.27273482659E+02  0.28678397568E+02  0.00000000000E+00 0. -1.
</event>
<event>
 7    1  0.5935282E-013  0.5052885E+02  0.7816164E-02  0.1300439E+00
        -11   -1    0    0    0    0  0.00000000000E+00  0.00000000000E+00  0.45593999997E+02  0.45594000000E+02  0.51100000000E-03 0.  1.
         11   -1    0    0    0    0 -0.00000000000E+00 -0.00000000000E+00 -0.45593999997E+02  0.45594000000E+02  0.51100000000E-03 0. -1.
    9900012    2    1    2    0    0 -0.34396708697E+02  0.20821109856E+02 -0.60426825047E+01  0.50528853469E+02  0.29999980604E+02 0.  0.
        -12    1    1    2    0    0  0.34396708697E+02 -0.20821109856E+02  0.60426825047E+01  0.40659146531E+02  0.00000000000E+00 0.  1.
         11    1    3    3    0    0 -0.11340215323E+02  0.15237768739E+02  0.38388809861E+01  0.19378521285E+02  0.51100000000E-03 0. -1.
        -11    1    3    3    0    0 -0.11171743999E+02 -0.22009820371E+01  0.32108503983E+01  0.11830542948E+02  0.51100000000E-03 0.  1.
        -12    1    3    3    0    0 -0.11884749375E+02  0.77843231542E+01 -0.13092413889E+02  0.19319789236E+02  0.00000000000E+00 0.  1.
</event>
<event>
 7    1  0.5935282E-013  0.5052886E+02  0.7816164E-02  0.1300439E+00
        -11   -1    0    0    0    0  0.00000000000E+00  0.00000000000E+00  0.45593999997E+02  0.45594000000E+02  0.51100000000E-03 0. -1.
         11   -1    0    0    0    0 -0.00000000000E+00 -0.00000000000E+00 -0.45593999997E+02  0.45594000000E+02  0.51100000000E-03 0.  1.
    9900012    2    1    2    0    0  0.24083514776E+02  0.31253660216E+02  0.98162506414E+01  0.50528859115E+02  0.29999997766E+02 0.  0.
        -12    1    1    2    0    0 -0.24083514776E+02 -0.31253660216E+02 -0.98162506414E+01  0.40659140885E+02  0.00000000000E+00 0.  1.
         11    1    3    3    0    0  0.32925527196E+01  0.26522741453E+01  0.27898119267E+01  0.50654232203E+01  0.51100000000E-03 0. -1.
        -11    1    3    3    0    0  0.20361195715E+02  0.26061393326E+02 -0.47472292464E+01  0.33411236116E+02  0.51100000000E-03 0.  1.
         12    1    3    3    0    0  0.42976634097E+00  0.25399927451E+01  0.11773667961E+02  0.12052199779E+02  0.00000000000E+00 0. -1.
</event>
<event>
 7    1  0.5935282E-013  0.5052889E+02  0.7816164E-02  0.1300439E+00
        -11   -1    0    0    0    0  0.00000000000E+00  0.00000000000E+00  0.45593999997E+02  0.45594000000E+02  0.51100000000E-03 0.  1.
         11   -1    0    0    0    0 -0.00000000000E+00 -0.00000000000E+00 -0.45593999997E+02  0.45594000000E+02  0.51100000000E-03 0. -1.
    9900012    2    1    2    0    0 -0.18328920564E+02 -0.15948042140E+02 -0.32601746709E+02  0.50528889513E+02  0.30000090163E+02 0.  0.
        -12    1    1    2    0    0  0.18328920564E+02  0.15948042140E+02  0.32601746709E+02  0.40659110487E+02  0.00000000000E+00 0.  1.
         11    1    3    3    0    0 -0.15570718103E+02 -0.10729948551E+02 -0.19660281077E+02  0.27278301092E+02  0.51100000000E-03 0. -1.
        -11    1    3    3    0    0  0.24344220099E+01  0.54817412170E+01 -0.46861790876E+00  0.60162696331E+01  0.51100000000E-03 0.  1.
         12    1    3    3    0    0 -0.51926244702E+01 -0.10699834806E+02 -0.12472847723E+02  0.17234318788E+02  0.00000000000E+00 0. -1.
</event>
<event>
 7    1  0.5935282E-013  0.5052885E+02  0.7816164E-02  0.1300439E+00
        -11   -1    0    0    0    0  0.00000000000E+00  0.00000000000E+00  0.45593999997E+02  0.45594000000E+02  0.51100000000E-03 0. -1.
         11   -1    0    0    0    0 -0.00000000000E+00 -0.00000000000E+00 -0.45593999997E+02  0.45594000000E+02  0.51100000000E-03 0.  1.
    9900012    2    1    2    0    0  0.30447131145E+02  0.30043443618E+01  0.26778956440E+02  0.50528851116E+02  0.29999973452E+02 0.  0.
        -12    1    1    2    0    0 -0.30447131145E+02 -0.30043443618E+01 -0.26778956440E+02  0.40659148884E+02  0.00000000000E+00 0.  1.
         11    1    3    3    0    0  0.95713935813E+00 -0.17865293195E+01 -0.23822648018E+01  0.31277769433E+01  0.51100000000E-03 0.  1.
        -11    1    3    3    0    0  0.20201414270E+02  0.72672492968E+01  0.59501735762E+01  0.22278119685E+02  0.51100000000E-03 0. -1.
         12    1    3    3    0    0  0.92885775167E+01 -0.24763756155E+01  0.23211047665E+02  0.25122954488E+02  0.00000000000E+00 0. -1.
</event>
<event>
 7    1  0.5935282E-013  0.5052886E+02  0.7816164E-02  0.1300439E+00
        -11   -1    0    0    0    0  0.00000000000E+00  0.00000000000E+00  0.45593999997E+02  0.45594000000E+02  0.51100000000E-03 0. -1.
         11   -1    0    0    0    0 -0.00000000000E+00 -0.00000000000E+00 -0.45593999997E+02  0.45594000000E+02  0.51100000000E-03 0.  1.
    9900012    2    1    2    0    0  0.25927866675E+02 -0.29492703914E+02 -0.10540009254E+02  0.50528860196E+02  0.30000001053E+02 0.  0.
        -12    1    1    2    0    0 -0.25927866675E+02  0.29492703914E+02  0.10540009254E+02  0.40659139804E+02  0.00000000000E+00 0.  1.
         11    1    3    3    0    0  0.33725534226E+00 -0.10962853093E+02 -0.73614209958E+01  0.13209406059E+02  0.51100000000E-03 0. -1.
        -11    1    3    3    0    0  0.15440460418E+02 -0.11215668227E+01 -0.66895063221E+01  0.16864614587E+02  0.51100000000E-03 0.  1.
         12    1    3    3    0    0  0.10150150915E+02 -0.17408283999E+02  0.35109180642E+01  0.20454839550E+02  0.00000000000E+00 0. -1.
</event>
<event>
 7    1  0.5935282E-013  0.5052886E+02  0.7816164E-02  0.1300439E+00
        -11   -1    0    0    0    0  0.00000000000E+00  0.00000000000E+00  0.45593999997E+02  0.45594000000E+02  0.51100000000E-03 0.  1.
         11   -1    0    0    0    0 -0.00000000000E+00 -0.00000000000E+00 -0.45593999997E+02  0.45594000000E+02  0.51100000000E-03 0. -1.
    9900012    2    1    2    0    0 -0.18381025329E+02 -0.17916439613E+02 -0.31532601163E+02  0.50528857896E+02  0.29999994059E+02 0.  0.
        -12    1    1    2    0    0  0.18381025329E+02  0.17916439613E+02  0.31532601163E+02  0.40659142104E+02  0.00000000000E+00 0.  1.
         11    1    3    3    0    0 -0.55265732822E+01  0.67355215598E+00 -0.42005113144E+01  0.69743085904E+01  0.51100000000E-03 0. -1.
        -11    1    3    3    0    0 -0.55069640612E+01  0.59676298678E+01 -0.84362131053E+01  0.11709353152E+02  0.51100000000E-03 0.  1.
        -12    1    3    3    0    0 -0.73474879855E+01 -0.24557621637E+02 -0.18895876744E+02  0.31845196154E+02  0.00000000000E+00 0.  1.
</event>
<event>
 7    1  0.5935282E-013  0.5052886E+02  0.7816164E-02  0.1300439E+00
        -11   -1    0    0    0    0  0.00000000000E+00  0.00000000000E+00  0.45593999997E+02  0.45594000000E+02  0.51100000000E-03 0.  1.
         11   -1    0    0    0    0 -0.00000000000E+00 -0.00000000000E+00 -0.45593999997E+02  0.45594000000E+02  0.51100000000E-03 0. -1.
    9900012    2    1    2    0    0 -0.12348200725E+01  0.14476682460E+01 -0.40614591036E+02  0.50528861679E+02  0.30000005560E+02 0.  0.
        -12    1    1    2    0    0  0.12348200725E+01 -0.14476682460E+01  0.40614591036E+02  0.40659138321E+02  0.00000000000E+00 0.  1.
         11    1    3    3    0    0  0.74277226283E+00 -0.50587939361E+01 -0.19511685850E+01  0.54726744678E+01  0.51100000000E-03 0. -1.
        -11    1    3    3    0    0  0.75400355220E+01 -0.43360290103E+01 -0.13928246825E+02  0.16421003110E+02  0.51100000000E-03 0.  1.
         12    1    3    3    0    0 -0.95176278574E+01  0.10842491192E+02 -0.24735175626E+02  0.28635184102E+02  0.00000000000E+00 0. -1.
</event>
<event>
 7    1  0.5935282E-013  0.5052890E+02  0.7816164E-02  0.1300439E+00
        -11   -1    0    0    0    0  0.00000000000E+00  0.00000000000E+00  0.45593999997E+02  0.45594000000E+02  0.51100000000E-03 0.  1.
         11   -1    0    0    0    0 -0.00000000000E+00 -0.00000000000E+00 -0.45593999997E+02  0.45594000000E+02  0.51100000000E-03 0. -1.
    9900012    2    1    2    0    0 -0.47790443186E+01 -0.17071606364E+02 -0.36590757097E+02  0.50528898763E+02  0.30000118280E+02 0.  0.
        -12    1    1    2    0    0  0.47790443186E+01  0.17071606364E+02  0.36590757097E+02  0.40659101237E+02  0.00000000000E+00 0.  1.
         11    1    3    3    0    0  0.15050151069E+01 -0.11184383808E+02 -0.20597316435E+02  0.23486271654E+02  0.51100000000E-03 0. -1.
        -11    1    3    3    0    0  0.48140808921E+01 -0.83414412684E+01 -0.11021356487E+02  0.14636437966E+02  0.51100000000E-03 0.  1.
         12    1    3    3    0    0 -0.11098140318E+02  0.24542187121E+01 -0.49720841753E+01  0.12406189143E+02  0.00000000000E+00 0. -1.
</event>
<event>
 7    1  0.5935282E-013  0.5052887E+02  0.7816164E-02  0.1300439E+00
        -11   -1    0    0    0    0  0.00000000000E+00  0.00000000000E+00  0.45593999997E+02  0.45594000000E+02  0.51100000000E-03 0.  1.
         11   -1    0    0    0    0 -0.00000000000E+00 -0.00000000000E+00 -0.45593999997E+02  0.45594000000E+02  0.51100000000E-03 0. -1.
    9900012    2    1    2    0    0  0.29175904021E+02 -0.40213727069E+01 -0.28031417848E+02  0.50528865719E+02  0.30000017841E+02 0.  0.
        -12    1    1    2    0    0 -0.29175904021E+02  0.40213727069E+01  0.28031417848E+02  0.40659134281E+02  0.00000000000E+00 0.  1.
         11    1    3    3    0    0 -0.21669923829E+01 -0.15253662498E+01 -0.41147951898E+01  0.48942964662E+01  0.51100000000E-03 0.  1.
        -11    1    3    3    0    0  0.21417007111E+02 -0.99987153302E+01 -0.70305501986E+01  0.24659504014E+02  0.51100000000E-03 0. -1.
         12    1    3    3    0    0  0.99258892928E+01  0.75027088731E+01 -0.16886072459E+02  0.20975065239E+02  0.00000000000E+00 0. -1.
</event>
<event>
 7    1  0.5935282E-013  0.5052886E+02  0.7816164E-02  0.1300439E+00
        -11   -1    0    0    0    0  0.00000000000E+00  0.00000000000E+00  0.45593999997E+02  0.45594000000E+02  0.51100000000E-03 0.  1.
         11   -1    0    0    0    0 -0.00000000000E+00 -0.00000000000E+00 -0.45593999997E+02  0.45594000000E+02  0.51100000000E-03 0. -1.
    9900012    2    1    2    0    0  0.30477164375E+02 -0.17336315847E+02 -0.20585439626E+02  0.50528859329E+02  0.29999998416E+02 0.  0.
        -12    1    1    2    0    0 -0.30477164375E+02  0.17336315847E+02  0.20585439626E+02  0.40659140671E+02  0.00000000000E+00 0.  1.
         11    1    3    3    0    0  0.99873858820E+01 -0.24445778607E+01  0.17993536580E+01  0.10438463082E+02  0.51100000000E-03 0. -1.
        -11    1    3    3    0    0  0.72099370100E+01 -0.18179896478E+02 -0.13865238895E+02  0.23973666334E+02  0.51100000000E-03 0.  1.
         12    1    3    3    0    0  0.13279841483E+02  0.32881584911E+01 -0.85195543895E+01  0.16116729912E+02  0.00000000000E+00 0. -1.
</event>
<event>
 7    1  0.5935282E-013  0.5052886E+02  0.7816164E-02  0.1300439E+00
        -11   -1    0    0    0    0  0.00000000000E+00  0.00000000000E+00  0.45593999997E+02  0.45594000000E+02  0.51100000000E-03 0.  1.
         11   -1    0    0    0    0 -0.00000000000E+00 -0.00000000000E+00 -0.45593999997E+02  0.45594000000E+02  0.51100000000E-03 0. -1.
    9900012    2    1    2    0    0  0.82059008074E+01 -0.96525086829E+01 -0.38634936388E+02  0.50528855375E+02  0.29999986397E+02 0.  0.
        -12    1    1    2    0    0 -0.82059008074E+01  0.96525086829E+01  0.38634936388E+02  0.40659144625E+02  0.00000000000E+00 0.  1.
         11    1    3    3    0    0  0.32507117876E+01 -0.65740652899E+01 -0.10407709084E+02  0.12732080356E+02  0.51100000000E-03 0. -1.
        -11    1    3    3    0    0  0.77642821490E+01 -0.12821995918E+02 -0.16429353189E+02  0.22239858432E+02  0.51100000000E-03 0.  1.
         12    1    3    3    0    0 -0.28090931291E+01  0.97435525253E+01 -0.11797874116E+02  0.15556916586E+02  0.00000000000E+00 0. -1.
</event>
<event>
 7    1  0.5935282E-013  0.5052886E+02  0.7816164E-02  0.1300439E+00
        -11   -1    0    0    0    0  0.00000000000E+00  0.00000000000E+00  0.45593999997E+02  0.45594000000E+02  0.51100000000E-03 0.  1.
         11   -1    0    0    0    0 -0.00000000000E+00 -0.00000000000E+00 -0.45593999997E+02  0.45594000000E+02  0.51100000000E-03 0. -1.
    9900012    2    1    2    0    0 -0.15128863222E+02  0.37685524593E+02  0.20209647715E+01  0.50528861238E+02  0.30000004220E+02 0.  0.
        -12    1    1    2    0    0  0.15128863222E+02 -0.37685524593E+02 -0.20209647715E+01  0.40659138762E+02  0.00000000000E+00 0.  1.
         11    1    3    3    0    0 -0.90384458730E+01  0.27169949897E+01 -0.62818616412E+00  0.94588679921E+01  0.51100000000E-03 0. -1.
        -11    1    3    3    0    0 -0.12680877233E+00  0.16832768919E+02  0.11129844750E+02  0.20179981029E+02  0.51100000000E-03 0.  1.
         12    1    3    3    0    0 -0.59636085762E+01  0.18135760684E+02 -0.84806938140E+01  0.20890012217E+02  0.00000000000E+00 0. -1.
</event>
<event>
 7    1  0.5935282E-013  0.5052885E+02  0.7816164E-02  0.1300439E+00
        -11   -1    0    0    0    0  0.00000000000E+00  0.00000000000E+00  0.45593999997E+02  0.45594000000E+02  0.51100000000E-03 0.  1.
         11   -1    0    0    0    0 -0.00000000000E+00 -0.00000000000E+00 -0.45593999997E+02  0.45594000000E+02  0.51100000000E-03 0. -1.
    9900012    2    1    2    0    0  0.19515255702E+00 -0.70796164469E+01 -0.40037575469E+02  0.50528849701E+02  0.29999969152E+02 0.  0.
        -12    1    1    2    0    0 -0.19515255702E+00  0.70796164469E+01  0.40037575469E+02  0.40659150299E+02  0.00000000000E+00 0.  1.
         11    1    3    3    0    0 -0.51315716217E+01  0.76960676260E+01 -0.84694543576E+01  0.12541696121E+02  0.51100000000E-03 0.  1.
        -11    1    3    3    0    0  0.64799819212E+01 -0.32090358273E+01 -0.44699621925E+01  0.85010963353E+01  0.51100000000E-03 0. -1.
        -12    1    3    3    0    0 -0.11532577424E+01 -0.11566648246E+02 -0.27098158919E+02  0.29486057245E+02  0.00000000000E+00 0.  1.
</event>
<event>
 7    1  0.5935282E-013  0.5052888E+02  0.7816164E-02  0.1300439E+00
        -11   -1    0    0    0    0  0.00000000000E+00  0.00000000000E+00  0.45593999997E+02  0.45594000000E+02  0.51100000000E-03 0.  1.
         11   -1    0    0    0    0 -0.00000000000E+00 -0.00000000000E+00 -0.45593999997E+02  0.45594000000E+02  0.51100000000E-03 0. -1.
    9900012    2    1    2    0    0  0.15076030055E+02  0.33756193441E+02 -0.16923269196E+02  0.50528876569E+02  0.30000050820E+02 0.  0.
        -12    1    1    2    0    0 -0.15076030055E+02 -0.33756193441E+02  0.16923269196E+02  0.40659123431E+02  0.00000000000E+00 0.  1.
         11    1    3    3    0    0  0.95995149078E+01  0.35413998483E+02 -0.11236193248E+02  0.38373871501E+02  0.51100000000E-03 0. -1.
        -11    1    3    3    0    0  0.40875028594E+01  0.34691725413E+01 -0.35465464623E+01  0.64281280181E+01  0.51100000000E-03 0.  1.
        -12    1    3    3    0    0  0.13890122876E+01 -0.51269775828E+01 -0.21405294865E+01  0.57268770506E+01  0.00000000000E+00 0.  1.
</event>
<event>
 7    1  0.5935282E-013  0.5052886E+02  0.7816164E-02  0.1300439E+00
        -11   -1    0    0    0    0  0.00000000000E+00  0.00000000000E+00  0.45593999997E+02  0.45594000000E+02  0.51100000000E-03 0. -1.
         11   -1    0    0    0    0 -0.00000000000E+00 -0.00000000000E+00 -0.45593999997E+02  0.45594000000E+02  0.51100000000E-03 0.  1.
    9900012    2    1    2    0    0 -0.23077034474E+02  0.16091515194E+02  0.29354379930E+02  0.50528855858E+02  0.29999987865E+02 0.  0.
        -12    1    1    2    0    0  0.23077034474E+02 -0.16091515194E+02 -0.29354379930E+02  0.40659144142E+02  0.00000000000E+00 0.  1.
         11    1    3    3    0    0 -0.57702231990E+00  0.51618793451E+01  0.44258199183E+01  0.68239164225E+01  0.51100000000E-03 0. -1.
        -11    1    3    3    0    0  0.51509362018E+01  0.42635663406E+01  0.86495138088E+01  0.10932713802E+02  0.51100000000E-03 0.  1.
         12    1    3    3    0    0 -0.27650948356E+02  0.66660695079E+01  0.16279046203E+02  0.32772225633E+02  0.00000000000E+00 0. -1.
</event>
<event>
 7    1  0.5935282E-013  0.5052886E+02  0.7816164E-02  0.1300439E+00
        -11   -1    0    0    0    0  0.00000000000E+00  0.00000000000E+00  0.45593999997E+02  0.45594000000E+02  0.51100000000E-03 0.  1.
         11   -1    0    0    0    0 -0.00000000000E+00 -0.00000000000E+00 -0.45593999997E+02  0.45594000000E+02  0.51100000000E-03 0. -1.
    9900012    2    1    2    0    0 -0.99246963450E+00  0.40643555811E+02  0.53091007201E+00  0.50528862154E+02  0.30000007002E+02 0.  0.
        -12    1    1    2    0    0  0.99246963450E+00 -0.40643555811E+02 -0.53091007201E+00  0.40659137846E+02  0.00000000000E+00 0.  1.
         11    1    3    3    0    0  0.17751583822E+00  0.11993964457E+02 -0.10986501948E+01  0.12045485784E+02  0.51100000000E-03 0. -1.
        -11    1    3    3    0    0  0.11872767649E+02  0.13937222596E+02 -0.22389483100E+01  0.18445098946E+02  0.51100000000E-03 0.  1.
        -12    1    3    3    0    0 -0.13042753122E+02  0.14712368758E+02  0.38685085768E+01  0.20038277423E+02  0.00000000000E+00 0.  1.
</event>
<event>
 7    1  0.5935282E-013  0.5052886E+02  0.7816164E-02  0.1300439E+00
        -11   -1    0    0    0    0  0.00000000000E+00  0.00000000000E+00  0.45593999997E+02  0.45594000000E+02  0.51100000000E-03 0.  1.
         11   -1    0    0    0    0 -0.00000000000E+00 -0.00000000000E+00 -0.45593999997E+02  0.45594000000E+02  0.51100000000E-03 0. -1.
    9900012    2    1    2    0    0  0.13265274751E+01 -0.33680312450E+02 -0.22738562840E+02  0.50528863735E+02  0.30000011808E+02 0.  0.
        -12    1    1    2    0    0 -0.13265274751E+01  0.33680312450E+02  0.22738562840E+02  0.40659136265E+02  0.00000000000E+00 0.  1.
         11    1    3    3    0    0 -0.67875306593E+00  0.25521122430E+01 -0.21434647653E+01  0.34012386106E+01  0.51100000000E-03 0. -1.
        -11    1    3    3    0    0  0.23752431169E+01  0.22195356091E+01  0.46591261618E+00  0.32840817607E+01  0.51100000000E-03 0.  1.
         12    1    3    3    0    0 -0.36996257579E+00 -0.38451960302E+02 -0.21061010690E+02  0.43843543363E+02  0.00000000000E+00 0. -1.
</event>
<event>
 7    1  0.5935282E-013  0.5052887E+02  0.7816164E-02  0.1300439E+00
        -11   -1    0    0    0    0  0.00000000000E+00  0.00000000000E+00  0.45593999997E+02  0.45594000000E+02  0.51100000000E-03 0. -1.
         11   -1    0    0    0    0 -0.00000000000E+00 -0.00000000000E+00 -0.45593999997E+02  0.45594000000E+02  0.51100000000E-03 0.  1.
    9900012    2    1    2    0    0 -0.56308051487E+00 -0.37835827744E+02  0.14876083216E+02  0.50528870981E+02  0.30000033833E+02 0.  0.
        -12    1    1    2    0    0  0.56308051487E+00  0.37835827744E+02 -0.14876083216E+02  0.40659129019E+02  0.00000000000E+00 0.  1.
         11    1    3    3    0    0  0.27910355776E+01  0.21550682045E+01  0.45600509964E+01  0.57643962313E+01  0.51100000000E-03 0. -1.
        -11    1    3    3    0    0  0.29484554611E+01 -0.20789314217E+01 -0.23421653393E+01  0.43012886674E+01  0.51100000000E-03 0.  1.
         12    1    3    3    0    0 -0.63025715535E+01 -0.37911964527E+02  0.12658197559E+02  0.40463186082E+02  0.00000000000E+00 0. -1.
</event>
<event>
 7    1  0.5935282E-013  0.5052887E+02  0.7816164E-02  0.1300439E+00
        -11   -1    0    0    0    0  0.00000000000E+00  0.00000000000E+00  0.45593999997E+02  0.45594000000E+02  0.51100000000E-03 0. -1.
         11   -1    0    0    0    0 -0.00000000000E+00 -0.00000000000E+00 -0.45593999997E+02  0.45594000000E+02  0.51100000000E-03 0.  1.
    9900012    2    1    2    0    0  0.20281573921E+02  0.31954018591E+02  0.14858104709E+02  0.50528870393E+02  0.30000032048E+02 0.  0.
        -12    1    1    2    0    0 -0.20281573921E+02 -0.31954018591E+02 -0.14858104709E+02  0.40659129607E+02  0.00000000000E+00 0.  1.
         11    1    3    3    0    0  0.76260565570E+01  0.13541894536E+01  0.99870071091E+01  0.12638468220E+02  0.51100000000E-03 0. -1.
        -11    1    3    3    0    0 -0.15014971434E+01  0.39566729526E+01  0.64092627539E+01  0.76803908647E+01  0.51100000000E-03 0.  1.
        -12    1    3    3    0    0  0.14157014507E+02  0.26643156185E+02 -0.15381651540E+01  0.30210011309E+02  0.00000000000E+00 0.  1.
</event>
<event>
 7    1  0.5935282E-013  0.5052886E+02  0.7816164E-02  0.1300439E+00
        -11   -1    0    0    0    0  0.00000000000E+00  0.00000000000E+00  0.45593999997E+02  0.45594000000E+02  0.51100000000E-03 0.  1.
         11   -1    0    0    0    0 -0.00000000000E+00 -0.00000000000E+00 -0.45593999997E+02  0.45594000000E+02  0.51100000000E-03 0. -1.
    9900012    2    1    2    0    0  0.80842465576E+01  0.39832659471E+02  0.10815578699E+01  0.50528861170E+02  0.30000004013E+02 0.  0.
        -12    1    1    2    0    0 -0.80842465576E+01 -0.39832659471E+02 -0.10815578699E+01  0.40659138830E+02  0.00000000000E+00 0.  1.
         11    1    3    3    0    0 -0.12079889825E+01  0.34485624758E+02 -0.81473636754E+00  0.34516392453E+02  0.51100000000E-03 0. -1.
        -11    1    3    3    0    0  0.80709030773E+01  0.63788695915E+01 -0.31179647655E+01  0.10749472466E+02  0.51100000000E-03 0.  1.
        -12    1    3    3    0    0  0.12213324627E+01 -0.10318348784E+01  0.50142590030E+01  0.52629962521E+01  0.00000000000E+00 0.  1.
</event>
<event>
 7    1  0.5935282E-013  0.5052886E+02  0.7816164E-02  0.1300439E+00
        -11   -1    0    0    0    0  0.00000000000E+00  0.00000000000E+00  0.45593999997E+02  0.45594000000E+02  0.51100000000E-03 0.  1.
         11   -1    0    0    0    0 -0.00000000000E+00 -0.00000000000E+00 -0.45593999997E+02  0.45594000000E+02  0.51100000000E-03 0. -1.
    9900012    2    1    2    0    0 -0.31246392953E+02  0.23329842814E+02 -0.11512910245E+02  0.50528859076E+02  0.29999997649E+02 0.  0.
        -12    1    1    2    0    0  0.31246392953E+02 -0.23329842814E+02  0.11512910245E+02  0.40659140924E+02  0.00000000000E+00 0.  1.
         11    1    3    3    0    0 -0.17487892387E+02 -0.19503880619E+01 -0.41635141123E+01  0.18082180282E+02  0.51100000000E-03 0. -1.
        -11    1    3    3    0    0 -0.58330205971E+01  0.92368150256E+00 -0.23139160290E+01  0.63428325262E+01  0.51100000000E-03 0.  1.
        -12    1    3    3    0    0 -0.79254799694E+01  0.24356549373E+02 -0.50354801037E+01  0.26103846268E+02  0.00000000000E+00 0.  1.
</event>
<event>
 7    1  0.5935282E-013  0.5052886E+02  0.7816164E-02  0.1300439E+00
        -11   -1    0    0    0    0  0.00000000000E+00  0.00000000000E+00  0.45593999997E+02  0.45594000000E+02  0.51100000000E-03 0. -1.
         11   -1    0    0    0    0 -0.00000000000E+00 -0.00000000000E+00 -0.45593999997E+02  0.45594000000E+02  0.51100000000E-03 0.  1.
    9900012    2    1    2    0    0 -0.29521543483E+02  0.24825868395E+02  0.12857689237E+02  0.50528862728E+02  0.30000008749E+02 0.  0.
        -12    1    1    2    0    0  0.29521543483E+02 -0.24825868395E+02 -0.12857689237E+02  0.40659137272E+02  0.00000000000E+00 0.  1.
         11    1    3    3    0    0  0.25470988434E+01 -0.35063954006E+01  0.23130081325E+01  0.49124869573E+01  0.51100000000E-03 0. -1.
        -11    1    3    3    0    0  0.82316547258E+00  0.70083165479E+00  0.12718107935E+01  0.16692121972E+01  0.51100000000E-03 0.  1.
         12    1    3    3    0    0 -0.32891807799E+02  0.27631432140E+02  0.92728703112E+01  0.43947163574E+02  0.00000000000E+00 0. -1.
</event>
<event>
 7    1  0.5935282E-013  0.5052886E+02  0.7816164E-02  0.1300439E+00
        -11   -1    0    0    0    0  0.00000000000E+00  0.00000000000E+00  0.45593999997E+02  0.45594000000E+02  0.51100000000E-03 0.  1.
         11   -1    0    0    0    0 -0.00000000000E+00 -0.00000000000E+00 -0.45593999997E+02  0.45594000000E+02  0.51100000000E-03 0. -1.
    9900012    2    1    2    0    0  0.22525736212E+02 -0.27503894004E+02  0.19730509699E+02  0.50528856007E+02  0.29999988320E+02 0.  0.
        -12    1    1    2    0    0 -0.22525736212E+02  0.27503894004E+02 -0.19730509699E+02  0.40659143993E+02  0.00000000000E+00 0.  1.
         11    1    3    3    0    0  0.10940727352E+02 -0.31753678821E+01  0.31323933026E+00  0.11396516806E+02  0.51100000000E-03 0. -1.
        -11    1    3    3    0    0 -0.57155975024E+01 -0.86146401739E+01  0.37603321657E+01  0.11000917161E+02  0.51100000000E-03 0.  1.
         12    1    3    3    0    0  0.17300606362E+02 -0.15713885948E+02  0.15656938203E+02  0.28131422039E+02  0.00000000000E+00 0. -1.
</event>
<event>
 7    1  0.5935282E-013  0.5052886E+02  0.7816164E-02  0.1300439E+00
        -11   -1    0    0    0    0  0.00000000000E+00  0.00000000000E+00  0.45593999997E+02  0.45594000000E+02  0.51100000000E-03 0. -1.
         11   -1    0    0    0    0 -0.00000000000E+00 -0.00000000000E+00 -0.45593999997E+02  0.45594000000E+02  0.51100000000E-03 0.  1.
    9900012    2    1    2    0    0  0.81676772347E+01 -0.27331948340E+02  0.28972727117E+02  0.50528864888E+02  0.30000015314E+02 0.  0.
        -12    1    1    2    0    0 -0.81676772347E+01  0.27331948340E+02 -0.28972727117E+02  0.40659135112E+02  0.00000000000E+00 0.  1.
         11    1    3    3    0    0  0.13595366978E+01 -0.30495421791E+02  0.24720723054E+02  0.39280188884E+02  0.51100000000E-03 0. -1.
        -11    1    3    3    0    0  0.54123292840E+00 -0.18725494112E+01  0.22238409907E+01  0.29571681375E+01  0.51100000000E-03 0.  1.
        -12    1    3    3    0    0  0.62669076086E+01  0.50360228627E+01  0.20281630726E+01  0.82915078663E+01  0.00000000000E+00 0.  1.
</event>
<event>
 7    1  0.5935282E-013  0.5052885E+02  0.7816164E-02  0.1300439E+00
        -11   -1    0    0    0    0  0.00000000000E+00  0.00000000000E+00  0.45593999997E+02  0.45594000000E+02  0.51100000000E-03 0. -1.
         11   -1    0    0    0    0 -0.00000000000E+00 -0.00000000000E+00 -0.45593999997E+02  0.45594000000E+02  0.51100000000E-03 0.  1.
    9900012    2    1    2    0    0  0.37869505126E+02  0.63379453545E+01 -0.13375247503E+02  0.50528853236E+02  0.29999979897E+02 0.  0.
        -12    1    1    2    0    0 -0.37869505126E+02 -0.63379453545E+01  0.13375247503E+02  0.40659146764E+02  0.00000000000E+00 0.  1.
         11    1    3    3    0    0  0.10842878195E+02 -0.36308780700E+01  0.53208950875E+01  0.12612026320E+02  0.51100000000E-03 0.  1.
        -11    1    3    3    0    0  0.36201371111E+01  0.33821342256E-01  0.28346489116E+01  0.45980181926E+01  0.51100000000E-03 0. -1.
        -12    1    3    3    0    0  0.23406489820E+02  0.99350020823E+01 -0.21530791502E+02  0.33318808724E+02  0.00000000000E+00 0.  1.
</event>
<event>
 7    1  0.5935282E-013  0.5052885E+02  0.7816164E-02  0.1300439E+00
        -11   -1    0    0    0    0  0.00000000000E+00  0.00000000000E+00  0.45593999997E+02  0.45594000000E+02  0.51100000000E-03 0. -1.
         11   -1    0    0    0    0 -0.00000000000E+00 -0.00000000000E+00 -0.45593999997E+02  0.45594000000E+02  0.51100000000E-03 0.  1.
    9900012    2    1    2    0    0  0.24969498541E+02 -0.13515908664E+02  0.29103450134E+02  0.50528850303E+02  0.29999970980E+02 0.  0.
        -12    1    1    2    0    0 -0.24969498541E+02  0.13515908664E+02 -0.29103450134E+02  0.40659149697E+02  0.00000000000E+00 0.  1.
         11    1    3    3    0    0  0.10699771898E+02 -0.70393529484E+01  0.10035528422E+02  0.16271122874E+02  0.51100000000E-03 0. -1.
        -11    1    3    3    0    0  0.17565274593E+02 -0.86125005802E+01  0.57762427178E+01  0.20398015050E+02  0.51100000000E-03 0.  1.
        -12    1    3    3    0    0 -0.32955479502E+01  0.21359448647E+01  0.13291678993E+02  0.13859712379E+02  0.00000000000E+00 0.  1.
</event>
<event>
 7    1  0.5935282E-013  0.5052886E+02  0.7816164E-02  0.1300439E+00
        -11   -1    0    0    0    0  0.00000000000E+00  0.00000000000E+00  0.45593999997E+02  0.45594000000E+02  0.51100000000E-03 0. -1.
         11   -1    0    0    0    0 -0.00000000000E+00 -0.00000000000E+00 -0.45593999997E+02  0.45594000000E+02  0.51100000000E-03 0.  1.
    9900012    2    1    2    0    0 -0.34047160334E+02 -0.15403838101E+02  0.16021184662E+02  0.50528859417E+02  0.29999998683E+02 0.  0.
        -12    1    1    2    0    0  0.34047160334E+02  0.15403838101E+02 -0.16021184662E+02  0.40659140583E+02  0.00000000000E+00 0.  1.
         11    1    3    3    0    0 -0.20369935630E+02 -0.68440402601E+01  0.16410284858E+02  0.27038354499E+02  0.51100000000E-03 0. -1.
        -11    1    3    3    0    0 -0.43714682106E+01 -0.24345492146E+01  0.80747216995E+01  0.94993628724E+01  0.51100000000E-03 0.  1.
         12    1    3    3    0    0 -0.93057564928E+01 -0.61252486266E+01 -0.84638218957E+01  0.13991142045E+02  0.00000000000E+00 0. -1.
</event>
<event>
 7    1  0.5935282E-013  0.5052885E+02  0.7816164E-02  0.1300439E+00
        -11   -1    0    0    0    0  0.00000000000E+00  0.00000000000E+00  0.45593999997E+02  0.45594000000E+02  0.51100000000E-03 0.  1.
         11   -1    0    0    0    0 -0.00000000000E+00 -0.00000000000E+00 -0.45593999997E+02  0.45594000000E+02  0.51100000000E-03 0. -1.
    9900012    2    1    2    0    0  0.28535245586E+02  0.92384178360E+01 -0.27451002550E+02  0.50528854094E+02  0.29999982505E+02 0.  0.
        -12    1    1    2    0    0 -0.28535245586E+02 -0.92384178360E+01  0.27451002550E+02  0.40659145906E+02  0.00000000000E+00 0.  1.
         11    1    3    3    0    0  0.21054879634E+01 -0.35070346729E+00 -0.12351235995E+02  0.12534317028E+02  0.51100000000E-03 0. -1.
        -11    1    3    3    0    0  0.38305582676E+01 -0.51037900893E+01 -0.77808546428E+01  0.10062979139E+02  0.51100000000E-03 0.  1.
         12    1    3    3    0    0  0.22599199355E+02  0.14692911393E+02 -0.73189119128E+01  0.27931557928E+02  0.00000000000E+00 0. -1.
</event>
<event>
 7    1  0.5935282E-013  0.5052887E+02  0.7816164E-02  0.1300439E+00
        -11   -1    0    0    0    0  0.00000000000E+00  0.00000000000E+00  0.45593999997E+02  0.45594000000E+02  0.51100000000E-03 0.  1.
         11   -1    0    0    0    0 -0.00000000000E+00 -0.00000000000E+00 -0.45593999997E+02  0.45594000000E+02  0.51100000000E-03 0. -1.
    9900012    2    1    2    0    0 -0.28751386371E+02 -0.84519498217E+01 -0.27478855233E+02  0.50528866229E+02  0.30000019391E+02 0.  0.
        -12    1    1    2    0    0  0.28751386371E+02  0.84519498217E+01  0.27478855233E+02  0.40659133771E+02  0.00000000000E+00 0.  1.
         11    1    3    3    0    0 -0.16972424732E+02 -0.12318071238E+00 -0.17105969081E+02  0.24097563222E+02  0.51100000000E-03 0. -1.
        -11    1    3    3    0    0 -0.95876731938E+01 -0.26449192482E+01 -0.15535403121E+02  0.18446349924E+02  0.51100000000E-03 0.  1.
        -12    1    3    3    0    0 -0.21912884451E+01 -0.56838498611E+01  0.51625169690E+01  0.79849530837E+01  0.00000000000E+00 0.  1.
</event>
<event>
 7    1  0.5935282E-013  0.5052886E+02  0.7816164E-02  0.1300439E+00
        -11   -1    0    0    0    0  0.00000000000E+00  0.00000000000E+00  0.45593999997E+02  0.45594000000E+02  0.51100000000E-03 0. -1.
         11   -1    0    0    0    0 -0.00000000000E+00 -0.00000000000E+00 -0.45593999997E+02  0.45594000000E+02  0.51100000000E-03 0.  1.
    9900012    2    1    2    0    0  0.14897337066E+02  0.17027564652E+02  0.33783089712E+02  0.50528858837E+02  0.29999996920E+02 0.  0.
        -12    1    1    2    0    0 -0.14897337066E+02 -0.17027564652E+02 -0.33783089712E+02  0.40659141163E+02  0.00000000000E+00 0.  1.
         11    1    3    3    0    0  0.10623394618E+01 -0.61168604492E+00  0.54652171559E+00  0.13421666053E+01  0.51100000000E-03 0. -1.
        -11    1    3    3    0    0  0.11458796991E+01  0.22111889254E+02  0.25070344978E+02  0.33448032591E+02  0.51100000000E-03 0.  1.
        -12    1    3    3    0    0  0.12689117905E+02 -0.44726385569E+01  0.81662230192E+01  0.15738659640E+02  0.00000000000E+00 0.  1.
</event>
<event>
 7    1  0.5935282E-013  0.5052886E+02  0.7816164E-02  0.1300439E+00
        -11   -1    0    0    0    0  0.00000000000E+00  0.00000000000E+00  0.45593999997E+02  0.45594000000E+02  0.51100000000E-03 0.  1.
         11   -1    0    0    0    0 -0.00000000000E+00 -0.00000000000E+00 -0.45593999997E+02  0.45594000000E+02  0.51100000000E-03 0. -1.
    9900012    2    1    2    0    0  0.18429046939E+02 -0.11260724531E+02 -0.34448977264E+02  0.50528859299E+02  0.29999998324E+02 0.  0.
        -12    1    1    2    0    0 -0.18429046939E+02  0.11260724531E+02  0.34448977264E+02  0.40659140701E+02  0.00000000000E+00 0.  1.
         11    1    3    3    0    0  0.24356414192E+01 -0.36258901721E+01  0.11215477742E+01  0.45096893833E+01  0.51100000000E-03 0. -1.
        -11    1    3    3    0    0  0.15321076566E+02 -0.14130449558E+01 -0.72376399281E+01  0.17003397166E+02  0.51100000000E-03 0.  1.
         12    1    3    3    0    0  0.67232895353E+00 -0.62217894036E+01 -0.28332885110E+02  0.29015772750E+02  0.00000000000E+00 0. -1.
</event>
<event>
 7    1  0.5935282E-013  0.5052885E+02  0.7816164E-02  0.1300439E+00
        -11   -1    0    0    0    0  0.00000000000E+00  0.00000000000E+00  0.45593999997E+02  0.45594000000E+02  0.51100000000E-03 0. -1.
         11   -1    0    0    0    0 -0.00000000000E+00 -0.00000000000E+00 -0.45593999997E+02  0.45594000000E+02  0.51100000000E-03 0.  1.
    9900012    2    1    2    0    0 -0.92721171150E+01  0.17065858688E+02  0.35720447980E+02  0.50528854750E+02  0.29999984498E+02 0.  0.
        -12    1    1    2    0    0  0.92721171150E+01 -0.17065858688E+02 -0.35720447980E+02  0.40659145250E+02  0.00000000000E+00 0.  1.
         11    1    3    3    0    0 -0.93443889596E+01 -0.86974079868E+00  0.14528184375E+02  0.17295727668E+02  0.51100000000E-03 0. -1.
        -11    1    3    3    0    0  0.60230791669E+01  0.71212753085E+01  0.18323495743E+02  0.20560655174E+02  0.51100000000E-03 0.  1.
        -12    1    3    3    0    0 -0.59508073224E+01  0.10814324178E+02  0.28687678624E+01  0.12672471908E+02  0.00000000000E+00 0.  1.
</event>
<event>
 7    1  0.5935282E-013  0.5052886E+02  0.7816164E-02  0.1300439E+00
        -11   -1    0    0    0    0  0.00000000000E+00  0.00000000000E+00  0.45593999997E+02  0.45594000000E+02  0.51100000000E-03 0. -1.
         11   -1    0    0    0    0 -0.00000000000E+00 -0.00000000000E+00 -0.45593999997E+02  0.45594000000E+02  0.51100000000E-03 0.  1.
    9900012    2    1    2    0    0  0.35252944237E+02 -0.14724540605E+02  0.13913437618E+02  0.50528856874E+02  0.29999990954E+02 0.  0.
        -12    1    1    2    0    0 -0.35252944237E+02  0.14724540605E+02 -0.13913437618E+02  0.40659143126E+02  0.00000000000E+00 0.  1.
         11    1    3    3    0    0  0.10701302647E+01  0.17925761980E+01 -0.24732187005E+01  0.32365597802E+01  0.51100000000E-03 0. -1.
        -11    1    3    3    0    0  0.86961857622E+01 -0.73803105048E+01 -0.53245731280E+01  0.12587442521E+02  0.51100000000E-03 0.  1.
         12    1    3    3    0    0  0.25486628210E+02 -0.91368062982E+01  0.21711229446E+02  0.34704854573E+02  0.00000000000E+00 0. -1.
</event>
<event>
 7    1  0.5935282E-013  0.5052886E+02  0.7816164E-02  0.1300439E+00
        -11   -1    0    0    0    0  0.00000000000E+00  0.00000000000E+00  0.45593999997E+02  0.45594000000E+02  0.51100000000E-03 0. -1.
         11   -1    0    0    0    0 -0.00000000000E+00 -0.00000000000E+00 -0.45593999997E+02  0.45594000000E+02  0.51100000000E-03 0.  1.
    9900012    2    1    2    0    0 -0.26760043630E+01 -0.30176328606E+02  0.27118144566E+02  0.50528861148E+02  0.30000003946E+02 0.  0.
        -12    1    1    2    0    0  0.26760043630E+01  0.30176328606E+02 -0.27118144566E+02  0.40659138852E+02  0.00000000000E+00 0.  1.
         11    1    3    3    0    0 -0.56368498744E+01 -0.12330377450E+02  0.46881634876E+01  0.14345423023E+02  0.51100000000E-03 0. -1.
        -11    1    3    3    0    0 -0.89229450682E+01 -0.81562512609E+01  0.53191042351E+01  0.13207431751E+02  0.51100000000E-03 0.  1.
        -12    1    3    3    0    0  0.11883790580E+02 -0.96896998956E+01  0.17110876843E+02  0.22976006375E+02  0.00000000000E+00 0.  1.
</event>
<event>
 7    1  0.5935282E-013  0.5052886E+02  0.7816164E-02  0.1300439E+00
        -11   -1    0    0    0    0  0.00000000000E+00  0.00000000000E+00  0.45593999997E+02  0.45594000000E+02  0.51100000000E-03 0. -1.
         11   -1    0    0    0    0 -0.00000000000E+00 -0.00000000000E+00 -0.45593999997E+02  0.45594000000E+02  0.51100000000E-03 0.  1.
    9900012    2    1    2    0    0 -0.27147699282E+01  0.12860321858E+02  0.38476066647E+02  0.50528861314E+02  0.30000004449E+02 0.  0.
        -12    1    1    2    0    0  0.27147699282E+01 -0.12860321858E+02 -0.38476066647E+02  0.40659138686E+02  0.00000000000E+00 0.  1.
         11    1    3    3    0    0  0.37017539901E+01  0.14731463304E+02  0.22197467777E+02  0.26896962090E+02  0.51100000000E-03 0. -1.
        -11    1    3    3    0    0  0.86962865758E+00 -0.45336701863E+01  0.15094544470E+02  0.15784666369E+02  0.51100000000E-03 0.  1.
         12    1    3    3    0    0 -0.72861525759E+01  0.26625287407E+01  0.11840544001E+01  0.78472328548E+01  0.00000000000E+00 0. -1.
</event>
<event>
 7    1  0.5935282E-013  0.5052886E+02  0.7816164E-02  0.1300439E+00
        -11   -1    0    0    0    0  0.00000000000E+00  0.00000000000E+00  0.45593999997E+02  0.45594000000E+02  0.51100000000E-03 0.  1.
         11   -1    0    0    0    0 -0.00000000000E+00 -0.00000000000E+00 -0.45593999997E+02  0.45594000000E+02  0.51100000000E-03 0. -1.
    9900012    2    1    2    0    0 -0.16737744991E+02  0.11687798928E+00 -0.37054014685E+02  0.50528858689E+02  0.29999996472E+02 0.  0.
        -12    1    1    2    0    0  0.16737744991E+02 -0.11687798928E+00  0.37054014685E+02  0.40659141311E+02  0.00000000000E+00 0.  1.
         11    1    3    3    0    0 -0.18723921645E+02 -0.92352133672E+01 -0.30438455617E+02  0.36910350693E+02  0.51100000000E-03 0. -1.
        -11    1    3    3    0    0  0.80096593663E+00 -0.95198765599E+00  0.12227872012E+00  0.12501117051E+01  0.51100000000E-03 0.  1.
         12    1    3    3    0    0  0.11852107176E+01  0.10304079012E+02 -0.67378377884E+01  0.12368396291E+02  0.00000000000E+00 0. -1.
</event>
<event>
 7    1  0.5935282E-013  0.5052886E+02  0.7816164E-02  0.1300439E+00
        -11   -1    0    0    0    0  0.00000000000E+00  0.00000000000E+00  0.45593999997E+02  0.45594000000E+02  0.51100000000E-03 0. -1.
         11   -1    0    0    0    0 -0.00000000000E+00 -0.00000000000E+00 -0.45593999997E+02  0.45594000000E+02  0.51100000000E-03 0.  1.
    9900012    2    1    2    0    0 -0.21850877959E+02 -0.20775265114E+02 -0.27278068956E+02  0.50528861371E+02  0.30000004623E+02 0.  0.
        -12    1    1    2    0    0  0.21850877959E+02  0.20775265114E+02  0.27278068956E+02  0.40659138629E+02  0.00000000000E+00 0.  1.
         11    1    3    3    0    0 -0.92548813601E+01 -0.16354785782E+02 -0.17308143029E+02  0.25548065726E+02  0.51100000000E-03 0. -1.
        -11    1    3    3    0    0  0.21194920162E+01 -0.47960472593E+01  0.23872554502E+01  0.57613630823E+01  0.51100000000E-03 0.  1.
         12    1    3    3    0    0 -0.14715488615E+02  0.37556792765E+00 -0.12357181377E+02  0.19219432562E+02  0.00000000000E+00 0. -1.
</event>
<event>
 7    1  0.5935282E-013  0.5052885E+02  0.7816164E-02  0.1300439E+00
        -11   -1    0    0    0    0  0.00000000000E+00  0.00000000000E+00  0.45593999997E+02  0.45594000000E+02  0.51100000000E-03 0. -1.
         11   -1    0    0    0    0 -0.00000000000E+00 -0.00000000000E+00 -0.45593999997E+02  0.45594000000E+02  0.51100000000E-03 0.  1.
    9900012    2    1    2    0    0 -0.25607344133E+02 -0.27713184493E+02  0.15146277779E+02  0.50528850982E+02  0.29999973045E+02 0.  0.
        -12    1    1    2    0    0  0.25607344133E+02  0.27713184493E+02 -0.15146277779E+02  0.40659149018E+02  0.00000000000E+00 0.  1.
         11    1    3    3    0    0  0.19960790208E+01 -0.16305314637E+01  0.54357102305E+01  0.60158050402E+01  0.51100000000E-03 0.  1.
        -11    1    3    3    0    0 -0.27331695202E+02 -0.24363794310E+02  0.14527683505E+02  0.39391237910E+02  0.51100000000E-03 0. -1.
         12    1    3    3    0    0 -0.27172795197E+00 -0.17188587196E+01 -0.48171159566E+01  0.51218080320E+01  0.00000000000E+00 0. -1.
</event>
<event>
 7    1  0.5935282E-013  0.5052885E+02  0.7816164E-02  0.1300439E+00
        -11   -1    0    0    0    0  0.00000000000E+00  0.00000000000E+00  0.45593999997E+02  0.45594000000E+02  0.51100000000E-03 0.  1.
         11   -1    0    0    0    0 -0.00000000000E+00 -0.00000000000E+00 -0.45593999997E+02  0.45594000000E+02  0.51100000000E-03 0. -1.
    9900012    2    1    2    0    0  0.17020746679E+02 -0.36890170936E+02  0.16050744634E+01  0.50528846132E+02  0.29999958304E+02 0.  0.
        -12    1    1    2    0    0 -0.17020746679E+02  0.36890170936E+02 -0.16050744634E+01  0.40659153868E+02  0.00000000000E+00 0.  1.
         11    1    3    3    0    0  0.18588000169E+01 -0.33894116653E+01 -0.11202417034E+00  0.38672727620E+01  0.51100000000E-03 0. -1.
        -11    1    3    3    0    0  0.19466234517E+02 -0.35645624183E+02  0.48783276001E+01  0.40906514030E+02  0.51100000000E-03 0.  1.
         12    1    3    3    0    0 -0.43042878553E+01  0.21448649120E+01 -0.31612289664E+01  0.57550593403E+01  0.00000000000E+00 0. -1.
</event>
<event>
 7    1  0.5935282E-013  0.5052886E+02  0.7816164E-02  0.1300439E+00
        -11   -1    0    0    0    0  0.00000000000E+00  0.00000000000E+00  0.45593999997E+02  0.45594000000E+02  0.51100000000E-03 0.  1.
         11   -1    0    0    0    0 -0.00000000000E+00 -0.00000000000E+00 -0.45593999997E+02  0.45594000000E+02  0.51100000000E-03 0. -1.
    9900012    2    1    2    0    0 -0.36320638901E+02  0.52740761185E+01 -0.17497462115E+02  0.50528857491E+02  0.29999992830E+02 0.  0.
        -12    1    1    2    0    0  0.36320638901E+02 -0.52740761185E+01  0.17497462115E+02  0.40659142509E+02  0.00000000000E+00 0.  1.
         11    1    3    3    0    0 -0.25013502763E+02  0.60866571908E+01 -0.22875608565E+01  0.25844837998E+02  0.51100000000E-03 0.  1.
        -11    1    3    3    0    0 -0.11613728607E+02  0.50414197402E+01 -0.66269242786E+01  0.14290232007E+02  0.51100000000E-03 0. -1.
        -12    1    3    3    0    0  0.30659246893E+00 -0.58540008125E+01 -0.85829769804E+01  0.10393787486E+02  0.00000000000E+00 0.  1.
</event>
<event>
 7    1  0.5935282E-013  0.5052888E+02  0.7816164E-02  0.1300439E+00
        -11   -1    0    0    0    0  0.00000000000E+00  0.00000000000E+00  0.45593999997E+02  0.45594000000E+02  0.51100000000E-03 0.  1.
         11   -1    0    0    0    0 -0.00000000000E+00 -0.00000000000E+00 -0.45593999997E+02  0.45594000000E+02  0.51100000000E-03 0. -1.
    9900012    2    1    2    0    0  0.17867623314E+02  0.20659065120E+02 -0.30118348813E+02  0.50528882083E+02  0.30000067580E+02 0.  0.
        -12    1    1    2    0    0 -0.17867623314E+02 -0.20659065120E+02  0.30118348813E+02  0.40659117917E+02  0.00000000000E+00 0.  1.
         11    1    3    3    0    0  0.93582138051E+01  0.11647231456E+02 -0.36883825183E+01  0.15389552692E+02  0.51100000000E-03 0. -1.
        -11    1    3    3    0    0  0.95544292237E+01  0.14464414619E+02 -0.17559535097E+02  0.24674757975E+02  0.51100000000E-03 0.  1.
        -12    1    3    3    0    0 -0.10450197148E+01 -0.54525809547E+01 -0.88704311981E+01  0.10464571416E+02  0.00000000000E+00 0.  1.
</event>
<event>
 7    1  0.5935282E-013  0.5052885E+02  0.7816164E-02  0.1300439E+00
        -11   -1    0    0    0    0  0.00000000000E+00  0.00000000000E+00  0.45593999997E+02  0.45594000000E+02  0.51100000000E-03 0.  1.
         11   -1    0    0    0    0 -0.00000000000E+00 -0.00000000000E+00 -0.45593999997E+02  0.45594000000E+02  0.51100000000E-03 0. -1.
    9900012    2    1    2    0    0  0.16262378700E+02 -0.33181841132E+02  0.16960737476E+02  0.50528853949E+02  0.29999982063E+02 0.  0.
        -12    1    1    2    0    0 -0.16262378700E+02  0.33181841132E+02 -0.16960737476E+02  0.40659146051E+02  0.00000000000E+00 0.  1.
         11    1    3    3    0    0  0.26590650363E+01  0.28353018497E+01  0.33478606660E+00  0.39014927166E+01  0.51100000000E-03 0. -1.
        -11    1    3    3    0    0 -0.16730868108E+01 -0.19136430194E+02  0.14456970608E+01  0.19263754055E+02  0.51100000000E-03 0.  1.
         12    1    3    3    0    0  0.15276400475E+02 -0.16880712787E+02  0.15180254348E+02  0.27363607177E+02  0.00000000000E+00 0. -1.
</event>
<event>
 7    1  0.5935282E-013  0.5052887E+02  0.7816164E-02  0.1300439E+00
        -11   -1    0    0    0    0  0.00000000000E+00  0.00000000000E+00  0.45593999997E+02  0.45594000000E+02  0.51100000000E-03 0. -1.
         11   -1    0    0    0    0 -0.00000000000E+00 -0.00000000000E+00 -0.45593999997E+02  0.45594000000E+02  0.51100000000E-03 0.  1.
    9900012    2    1    2    0    0 -0.12373250703E+01 -0.32253115583E+02  0.24725897890E+02  0.50528874768E+02  0.30000045345E+02 0.  0.
        -12    1    1    2    0    0  0.12373250703E+01  0.32253115583E+02 -0.24725897890E+02  0.40659125232E+02  0.00000000000E+00 0.  1.
         11    1    3    3    0    0  0.12229264886E+01  0.22463640820E+01  0.11657004399E+01  0.28107932265E+01  0.51100000000E-03 0. -1.
        -11    1    3    3    0    0 -0.25427220305E+00  0.30812956410E+01 -0.36492815205E+00  0.31132314398E+01  0.51100000000E-03 0.  1.
         12    1    3    3    0    0 -0.22059793559E+01 -0.37580775306E+02  0.23925125602E+02  0.44604850102E+02  0.00000000000E+00 0. -1.
</event>
<event>
 7    1  0.5935282E-013  0.5052886E+02  0.7816164E-02  0.1300439E+00
        -11   -1    0    0    0    0  0.00000000000E+00  0.00000000000E+00  0.45593999997E+02  0.45594000000E+02  0.51100000000E-03 0.  1.
         11   -1    0    0    0    0 -0.00000000000E+00 -0.00000000000E+00 -0.45593999997E+02  0.45594000000E+02  0.51100000000E-03 0. -1.
    9900012    2    1    2    0    0  0.37261347531E+02 -0.14313605701E+02 -0.77380947632E+01  0.50528862792E+02  0.30000008941E+02 0.  0.
        -12    1    1    2    0    0 -0.37261347531E+02  0.14313605701E+02  0.77380947632E+01  0.40659137208E+02  0.00000000000E+00 0.  1.
         11    1    3    3    0    0  0.74737468868E+01  0.39806034862E+01  0.68228173324E+01  0.10874416456E+02  0.51100000000E-03 0.  1.
        -11    1    3    3    0    0  0.45236276546E+01 -0.87744355036E+01 -0.43923851344E+01  0.10804951318E+02  0.51100000000E-03 0. -1.
        -12    1    3    3    0    0  0.25263972989E+02 -0.95197736837E+01 -0.10168526961E+02  0.28849495017E+02  0.00000000000E+00 0.  1.
</event>
<event>
 7    1  0.5935282E-013  0.5052887E+02  0.7816164E-02  0.1300439E+00
        -11   -1    0    0    0    0  0.00000000000E+00  0.00000000000E+00  0.45593999997E+02  0.45594000000E+02  0.51100000000E-03 0.  1.
         11   -1    0    0    0    0 -0.00000000000E+00 -0.00000000000E+00 -0.45593999997E+02  0.45594000000E+02  0.51100000000E-03 0. -1.
    9900012    2    1    2    0    0  0.26087074473E+02 -0.24791689633E+02  0.18920930906E+02  0.50528868728E+02  0.30000026986E+02 0.  0.
        -12    1    1    2    0    0 -0.26087074473E+02  0.24791689633E+02 -0.18920930906E+02  0.40659131272E+02  0.00000000000E+00 0.  1.
         11    1    3    3    0    0  0.98248933520E+01 -0.70410034454E+01  0.11003301109E+02  0.16345546624E+02  0.51100000000E-03 0. -1.
        -11    1    3    3    0    0  0.26580221582E+01 -0.11798604591E+02  0.13675993312E+02  0.18256641132E+02  0.51100000000E-03 0.  1.
        -12    1    3    3    0    0  0.13604158962E+02 -0.59520815966E+01 -0.57583635146E+01  0.15926680972E+02  0.00000000000E+00 0.  1.
</event>
<event>
 7    1  0.5935282E-013  0.5052886E+02  0.7816164E-02  0.1300439E+00
        -11   -1    0    0    0    0  0.00000000000E+00  0.00000000000E+00  0.45593999997E+02  0.45594000000E+02  0.51100000000E-03 0.  1.
         11   -1    0    0    0    0 -0.00000000000E+00 -0.00000000000E+00 -0.45593999997E+02  0.45594000000E+02  0.51100000000E-03 0. -1.
    9900012    2    1    2    0    0  0.52212110729E+01 -0.10118976234E+02 -0.39032175328E+02  0.50528862823E+02  0.30000009038E+02 0.  0.
        -12    1    1    2    0    0 -0.52212110729E+01  0.10118976234E+02  0.39032175328E+02  0.40659137177E+02  0.00000000000E+00 0.  1.
         11    1    3    3    0    0  0.10464111650E+01 -0.54448564694E+01 -0.79370942547E+00  0.56010189440E+01  0.51100000000E-03 0. -1.
        -11    1    3    3    0    0 -0.26902177490E+01  0.39120968194E+01  0.39166682562E+00  0.47639454473E+01  0.51100000000E-03 0.  1.
        -12    1    3    3    0    0  0.68650176570E+01 -0.85862165842E+01 -0.38630132728E+02  0.40163898432E+02  0.00000000000E+00 0.  1.
</event>
<event>
 7    1  0.5935282E-013  0.5052886E+02  0.7816164E-02  0.1300439E+00
        -11   -1    0    0    0    0  0.00000000000E+00  0.00000000000E+00  0.45593999997E+02  0.45594000000E+02  0.51100000000E-03 0. -1.
         11   -1    0    0    0    0 -0.00000000000E+00 -0.00000000000E+00 -0.45593999997E+02  0.45594000000E+02  0.51100000000E-03 0.  1.
    9900012    2    1    2    0    0 -0.12633852770E+01  0.37369606057E+02  0.15971292245E+02  0.50528858652E+02  0.29999996358E+02 0.  0.
        -12    1    1    2    0    0  0.12633852770E+01 -0.37369606057E+02 -0.15971292245E+02  0.40659141348E+02  0.00000000000E+00 0.  1.
         11    1    3    3    0    0  0.83688524423E+01  0.31124219683E+01  0.16568502886E+01  0.90813002841E+01  0.51100000000E-03 0. -1.
        -11    1    3    3    0    0 -0.11538025702E+01 -0.65981110784E+00 -0.16586987027E+01  0.21255335134E+01  0.51100000000E-03 0.  1.
         12    1    3    3    0    0 -0.84784351492E+01  0.34916995197E+02  0.15973140659E+02  0.39322024854E+02  0.00000000000E+00 0. -1.
</event>
<event>
 7    1  0.5935282E-013  0.5052886E+02  0.7816164E-02  0.1300439E+00
        -11   -1    0    0    0    0  0.00000000000E+00  0.00000000000E+00  0.45593999997E+02  0.45594000000E+02  0.51100000000E-03 0.  1.
         11   -1    0    0    0    0 -0.00000000000E+00 -0.00000000000E+00 -0.45593999997E+02  0.45594000000E+02  0.51100000000E-03 0. -1.
    9900012    2    1    2    0    0  0.13006856544E+02  0.24245494569E+02 -0.29935650285E+02  0.50528862257E+02  0.30000007315E+02 0.  0.
        -12    1    1    2    0    0 -0.13006856544E+02 -0.24245494569E+02  0.29935650285E+02  0.40659137743E+02  0.00000000000E+00 0.  1.
         11    1    3    3    0    0  0.12906736538E+01  0.12070673392E+01 -0.11279596788E+02  0.11417186781E+02  0.51100000000E-03 0. -1.
        -11    1    3    3    0    0  0.11899505545E+02  0.81324211844E+01 -0.19421024995E+02  0.24184927510E+02  0.51100000000E-03 0.  1.
         12    1    3    3    0    0 -0.18332265527E+00  0.14906006046E+02  0.76497149782E+00  0.14926747965E+02  0.00000000000E+00 0. -1.
</event>
<event>
 7    1  0.5935282E-013  0.5052885E+02  0.7816164E-02  0.1300439E+00
        -11   -1    0    0    0    0  0.00000000000E+00  0.00000000000E+00  0.45593999997E+02  0.45594000000E+02  0.51100000000E-03 0.  1.
         11   -1    0    0    0    0 -0.00000000000E+00 -0.00000000000E+00 -0.45593999997E+02  0.45594000000E+02  0.51100000000E-03 0. -1.
    9900012    2    1    2    0    0 -0.37743397329E+02  0.54887854795E+01 -0.14088128837E+02  0.50528853647E+02  0.29999981146E+02 0.  0.
        -12    1    1    2    0    0  0.37743397329E+02 -0.54887854795E+01  0.14088128837E+02  0.40659146353E+02  0.00000000000E+00 0.  1.
         11    1    3    3    0    0 -0.28149260583E+02  0.13935618806E+02 -0.31545151962E+01  0.31567915821E+02  0.51100000000E-03 0. -1.
        -11    1    3    3    0    0 -0.88804033911E+01 -0.31216794096E+01 -0.95577292221E+01  0.13414791645E+02  0.51100000000E-03 0.  1.
        -12    1    3    3    0    0 -0.71373335514E+00 -0.53251539167E+01 -0.13758844190E+01  0.55461461821E+01  0.00000000000E+00 0.  1.
</event>
<event>
 7    1  0.5935282E-013  0.5052885E+02  0.7816164E-02  0.1300439E+00
        -11   -1    0    0    0    0  0.00000000000E+00  0.00000000000E+00  0.45593999997E+02  0.45594000000E+02  0.51100000000E-03 0.  1.
         11   -1    0    0    0    0 -0.00000000000E+00 -0.00000000000E+00 -0.45593999997E+02  0.45594000000E+02  0.51100000000E-03 0. -1.
    9900012    2    1    2    0    0 -0.18370485652E+02 -0.10535344036E+02 -0.34708766289E+02  0.50528847595E+02  0.29999962748E+02 0.  0.
        -12    1    1    2    0    0  0.18370485652E+02  0.10535344036E+02  0.34708766289E+02  0.40659152405E+02  0.00000000000E+00 0.  1.
         11    1    3    3    0    0 -0.91146324227E+01  0.88218703963E+01 -0.22122425618E+02  0.25501051684E+02  0.51100000000E-03 0. -1.
        -11    1    3    3    0    0 -0.10851207502E+01 -0.82414791586E+00 -0.56815108283E+00  0.14763139042E+01  0.51100000000E-03 0.  1.
         12    1    3    3    0    0 -0.81707324794E+01 -0.18533066516E+02 -0.12018189588E+02  0.23551482007E+02  0.00000000000E+00 0. -1.
</event>
<event>
 7    1  0.5935282E-013  0.5052886E+02  0.7816164E-02  0.1300439E+00
        -11   -1    0    0    0    0  0.00000000000E+00  0.00000000000E+00  0.45593999997E+02  0.45594000000E+02  0.51100000000E-03 0.  1.
         11   -1    0    0    0    0 -0.00000000000E+00 -0.00000000000E+00 -0.45593999997E+02  0.45594000000E+02  0.51100000000E-03 0. -1.
    9900012    2    1    2    0    0 -0.11987008878E+02  0.30619783666E+02 -0.23914551100E+02  0.50528864644E+02  0.30000014571E+02 0.  0.
        -12    1    1    2    0    0  0.11987008878E+02 -0.30619783666E+02  0.23914551100E+02  0.40659135356E+02  0.00000000000E+00 0.  1.
         11    1    3    3    0    0 -0.11893373841E+02  0.78238361216E+01 -0.37675917607E+01  0.14726150241E+02  0.51100000000E-03 0.  1.
        -11    1    3    3    0    0  0.21822294851E+00  0.25841051077E+02 -0.15186874781E+02  0.29974133980E+02  0.51100000000E-03 0. -1.
         12    1    3    3    0    0 -0.31185798566E+00 -0.30451035319E+01 -0.49600845579E+01  0.58285804228E+01  0.00000000000E+00 0. -1.
</event>
<event>
 7    1  0.5935282E-013  0.5052886E+02  0.7816164E-02  0.1300439E+00
        -11   -1    0    0    0    0  0.00000000000E+00  0.00000000000E+00  0.45593999997E+02  0.45594000000E+02  0.51100000000E-03 0.  1.
         11   -1    0    0    0    0 -0.00000000000E+00 -0.00000000000E+00 -0.45593999997E+02  0.45594000000E+02  0.51100000000E-03 0. -1.
    9900012    2    1    2    0    0  0.63113497674E+01  0.56894813444E+01 -0.39761316123E+02  0.50528860884E+02  0.30000003143E+02 0.  0.
        -12    1    1    2    0    0 -0.63113497674E+01 -0.56894813444E+01  0.39761316123E+02  0.40659139116E+02  0.00000000000E+00 0.  1.
         11    1    3    3    0    0 -0.56803947517E+01 -0.84961069395E+01 -0.81966323611E+01  0.13100973246E+02  0.51100000000E-03 0. -1.
        -11    1    3    3    0    0  0.11340178273E+00 -0.35480852030E+00 -0.43444633504E+01  0.43604026321E+01  0.51100000000E-03 0.  1.
        -12    1    3    3    0    0  0.11878342736E+02  0.14540396804E+02 -0.27220220411E+02  0.33067485006E+02  0.00000000000E+00 0.  1.
</event>
<event>
 7    1  0.5935282E-013  0.5052884E+02  0.7816164E-02  0.1300439E+00
        -11   -1    0    0    0    0  0.00000000000E+00  0.00000000000E+00  0.45593999997E+02  0.45594000000E+02  0.51100000000E-03 0. -1.
         11   -1    0    0    0    0 -0.00000000000E+00 -0.00000000000E+00 -0.45593999997E+02  0.45594000000E+02  0.51100000000E-03 0.  1.
    9900012    2    1    2    0    0  0.31841008818E+02 -0.16402137381E+02  0.19242860934E+02  0.50528835595E+02  0.29999926273E+02 0.  0.
        -12    1    1    2    0    0 -0.31841008818E+02  0.16402137381E+02 -0.19242860934E+02  0.40659164405E+02  0.00000000000E+00 0.  1.
         11    1    3    3    0    0  0.11329933635E+02 -0.85126830533E+01  0.79845967357E+01  0.16266129049E+02  0.51100000000E-03 0. -1.
        -11    1    3    3    0    0  0.94502937614E+01 -0.10658425226E+02  0.16427686388E+02  0.21743480880E+02  0.51100000000E-03 0.  1.
        -12    1    3    3    0    0  0.11060781422E+02  0.27689708986E+01 -0.51694221891E+01  0.12519225666E+02  0.00000000000E+00 0.  1.
</event>
<event>
 7    1  0.5935282E-013  0.5052886E+02  0.7816164E-02  0.1300439E+00
        -11   -1    0    0    0    0  0.00000000000E+00  0.00000000000E+00  0.45593999997E+02  0.45594000000E+02  0.51100000000E-03 0.  1.
         11   -1    0    0    0    0 -0.00000000000E+00 -0.00000000000E+00 -0.45593999997E+02  0.45594000000E+02  0.51100000000E-03 0. -1.
    9900012    2    1    2    0    0 -0.42373226326E+01  0.28572280932E+02  0.28615302843E+02  0.50528859607E+02  0.29999999261E+02 0.  0.
        -12    1    1    2    0    0  0.42373226326E+01 -0.28572280932E+02 -0.28615302843E+02  0.40659140393E+02  0.00000000000E+00 0.  1.
         11    1    3    3    0    0 -0.65936955751E+01  0.17477504134E+02  0.14141923161E+02  0.23429339791E+02  0.51100000000E-03 0. -1.
        -11    1    3    3    0    0  0.74808354713E+01  0.13040996776E+02  0.44565797939E+01  0.15680931094E+02  0.51100000000E-03 0.  1.
         12    1    3    3    0    0 -0.51244625288E+01 -0.19462199779E+01  0.10016799888E+02  0.11418588722E+02  0.00000000000E+00 0. -1.
</event>
<event>
 7    1  0.5935282E-013  0.5052886E+02  0.7816164E-02  0.1300439E+00
        -11   -1    0    0    0    0  0.00000000000E+00  0.00000000000E+00  0.45593999997E+02  0.45594000000E+02  0.51100000000E-03 0. -1.
         11   -1    0    0    0    0 -0.00000000000E+00 -0.00000000000E+00 -0.45593999997E+02  0.45594000000E+02  0.51100000000E-03 0.  1.
    9900012    2    1    2    0    0  0.16250426460E+02 -0.20097971788E+02  0.31387268308E+02  0.50528862749E+02  0.30000008812E+02 0.  0.
        -12    1    1    2    0    0 -0.16250426460E+02  0.20097971788E+02 -0.31387268308E+02  0.40659137251E+02  0.00000000000E+00 0.  1.
         11    1    3    3    0    0  0.61003728805E+01 -0.83419436751E+01  0.73565813067E+01  0.12685498112E+02  0.51100000000E-03 0. -1.
        -11    1    3    3    0    0  0.56208379150E+01 -0.17764179500E+02  0.82827101118E+01  0.20390271681E+02  0.51100000000E-03 0.  1.
        -12    1    3    3    0    0  0.45292156644E+01  0.60081513868E+01  0.15747976890E+02  0.17453092956E+02  0.00000000000E+00 0.  1.
</event>
<event>
 7    1  0.5935282E-013  0.5052885E+02  0.7816164E-02  0.1300439E+00
        -11   -1    0    0    0    0  0.00000000000E+00  0.00000000000E+00  0.45593999997E+02  0.45594000000E+02  0.51100000000E-03 0.  1.
         11   -1    0    0    0    0 -0.00000000000E+00 -0.00000000000E+00 -0.45593999997E+02  0.45594000000E+02  0.51100000000E-03 0. -1.
    9900012    2    1    2    0    0  0.26987192975E+02  0.15433504795E+02 -0.26204284777E+02  0.50528853481E+02  0.29999980641E+02 0.  0.
        -12    1    1    2    0    0 -0.26987192975E+02 -0.15433504795E+02  0.26204284777E+02  0.40659146519E+02  0.00000000000E+00 0.  1.
         11    1    3    3    0    0  0.74731292674E+01  0.43157937164E+01 -0.69435029843E+01  0.11076369911E+02  0.51100000000E-03 0. -1.
        -11    1    3    3    0    0  0.24702164569E+02  0.13274295498E+02 -0.12614132500E+02  0.30749312095E+02  0.51100000000E-03 0.  1.
        -12    1    3    3    0    0 -0.51881008606E+01 -0.21565844188E+01 -0.66466492930E+01  0.87031714748E+01  0.00000000000E+00 0.  1.
</event>
<event>
 7    1  0.5935282E-013  0.5052887E+02  0.7816164E-02  0.1300439E+00
        -11   -1    0    0    0    0  0.00000000000E+00  0.00000000000E+00  0.45593999997E+02  0.45594000000E+02  0.51100000000E-03 0. -1.
         11   -1    0    0    0    0 -0.00000000000E+00 -0.00000000000E+00 -0.45593999997E+02  0.45594000000E+02  0.51100000000E-03 0.  1.
    9900012    2    1    2    0    0 -0.33970838129E+02  0.94088550122E+01  0.20263762371E+02  0.50528874809E+02  0.30000045470E+02 0.  0.
        -12    1    1    2    0    0  0.33970838129E+02 -0.94088550122E+01 -0.20263762371E+02  0.40659125191E+02  0.00000000000E+00 0.  1.
         11    1    3    3    0    0  0.26665415437E+01 -0.40418209328E+01  0.51768043364E+01  0.70884457856E+01  0.51100000000E-03 0.  1.
        -11    1    3    3    0    0 -0.14810271683E+02  0.93863192242E+01  0.19488439823E+01  0.17642140716E+02  0.51100000000E-03 0. -1.
        -12    1    3    3    0    0 -0.21827107990E+02  0.40643567207E+01  0.13138114052E+02  0.25798288308E+02  0.00000000000E+00 0.  1.
</event>
<event>
 7    1  0.5935282E-013  0.5052899E+02  0.7816164E-02  0.1300438E+00
        -11   -1    0    0    0    0  0.00000000000E+00  0.00000000000E+00  0.45593999997E+02  0.45594000000E+02  0.51100000000E-03 0. -1.
         11   -1    0    0    0    0 -0.00000000000E+00 -0.00000000000E+00 -0.45593999997E+02  0.45594000000E+02  0.51100000000E-03 0.  1.
    9900012    2    1    2    0    0  0.13922840084E+02 -0.31653721785E+02  0.21385780935E+02  0.50528988636E+02  0.30000391457E+02 0.  0.
        -12    1    1    2    0    0 -0.13922840084E+02  0.31653721785E+02 -0.21385780935E+02  0.40659011364E+02  0.00000000000E+00 0.  1.
         11    1    3    3    0    0  0.36330526531E+01 -0.26867379746E+02  0.28003268777E+01  0.27256136866E+02  0.51100000000E-03 0. -1.
        -11    1    3    3    0    0  0.79827250732E+01 -0.80603459116E+00  0.64495266787E+01  0.10294172429E+02  0.51100000000E-03 0.  1.
        -12    1    3    3    0    0  0.23070623581E+01 -0.39803074482E+01  0.12135927379E+02  0.12978679341E+02  0.00000000000E+00 0.  1.
</event>
<event>
 7    1  0.5935282E-013  0.5052885E+02  0.7816164E-02  0.1300439E+00
        -11   -1    0    0    0    0  0.00000000000E+00  0.00000000000E+00  0.45593999997E+02  0.45594000000E+02  0.51100000000E-03 0.  1.
         11   -1    0    0    0    0 -0.00000000000E+00 -0.00000000000E+00 -0.45593999997E+02  0.45594000000E+02  0.51100000000E-03 0. -1.
    9900012    2    1    2    0    0  0.26491906612E+02 -0.25402543153E+01 -0.30739100413E+02  0.50528852172E+02  0.29999976662E+02 0.  0.
        -12    1    1    2    0    0 -0.26491906612E+02  0.25402543153E+01  0.30739100413E+02  0.40659147828E+02  0.00000000000E+00 0.  1.
         11    1    3    3    0    0  0.18423153879E+02  0.54833857384E+01 -0.15946154199E+02  0.24975186726E+02  0.51100000000E-03 0. -1.
        -11    1    3    3    0    0  0.81273659561E+00  0.37207214981E+01  0.15924308022E+01  0.41279710951E+01  0.51100000000E-03 0.  1.
         12    1    3    3    0    0  0.72560161370E+01 -0.11744361552E+02 -0.16385377016E+02  0.21425694351E+02  0.00000000000E+00 0. -1.
</event>
<event>
 7    1  0.5935282E-013  0.5052886E+02  0.7816164E-02  0.1300439E+00
        -11   -1    0    0    0    0  0.00000000000E+00  0.00000000000E+00  0.45593999997E+02  0.45594000000E+02  0.51100000000E-03 0.  1.
         11   -1    0    0    0    0 -0.00000000000E+00 -0.00000000000E+00 -0.45593999997E+02  0.45594000000E+02  0.51100000000E-03 0. -1.
    9900012    2    1    2    0    0 -0.41862867114E+00  0.39893883058E+02 -0.78401627204E+01  0.50528864410E+02  0.30000013861E+02 0.  0.
        -12    1    1    2    0    0  0.41862867114E+00 -0.39893883058E+02  0.78401627204E+01  0.40659135590E+02  0.00000000000E+00 0.  1.
         11    1    3    3    0    0  0.25380934474E+01 -0.20674931229E+01 -0.13316585796E+01  0.35340855953E+01  0.51100000000E-03 0. -1.
        -11    1    3    3    0    0  0.21588940616E+01 -0.15935026293E+01 -0.52538699824E+00  0.27342468722E+01  0.51100000000E-03 0.  1.
         12    1    3    3    0    0 -0.51156161802E+01  0.43554878811E+02 -0.59831171425E+01  0.44260531943E+02  0.00000000000E+00 0. -1.
</event>
<event>
 7    1  0.5935282E-013  0.5052894E+02  0.7816164E-02  0.1300439E+00
        -11   -1    0    0    0    0  0.00000000000E+00  0.00000000000E+00  0.45593999997E+02  0.45594000000E+02  0.51100000000E-03 0. -1.
         11   -1    0    0    0    0 -0.00000000000E+00 -0.00000000000E+00 -0.45593999997E+02  0.45594000000E+02  0.51100000000E-03 0.  1.
    9900012    2    1    2    0    0  0.27451859172E+02  0.27819282347E+02  0.11209014099E+02  0.50528941485E+02  0.30000248136E+02 0.  0.
        -12    1    1    2    0    0 -0.27451859172E+02 -0.27819282347E+02 -0.11209014099E+02  0.40659058515E+02  0.00000000000E+00 0.  1.
         11    1    3    3    0    0 -0.54784418253E+00  0.59109999765E+01  0.33604084621E+01  0.68214660642E+01  0.51100000000E-03 0. -1.
        -11    1    3    3    0    0  0.15832106277E+02  0.24391306546E+02  0.10666118731E+02  0.30973496949E+02  0.51100000000E-03 0.  1.
        -12    1    3    3    0    0  0.12167597077E+02 -0.24830241748E+01 -0.28175130951E+01  0.12733978472E+02  0.00000000000E+00 0.  1.
</event>
<event>
 7    1  0.5935282E-013  0.5052885E+02  0.7816164E-02  0.1300439E+00
        -11   -1    0    0    0    0  0.00000000000E+00  0.00000000000E+00  0.45593999997E+02  0.45594000000E+02  0.51100000000E-03 0.  1.
         11   -1    0    0    0    0 -0.00000000000E+00 -0.00000000000E+00 -0.45593999997E+02  0.45594000000E+02  0.51100000000E-03 0. -1.
    9900012    2    1    2    0    0  0.24491296710E+02 -0.43289643320E+01 -0.32165243598E+02  0.50528850446E+02  0.29999971416E+02 0.  0.
        -12    1    1    2    0    0 -0.24491296710E+02  0.43289643320E+01  0.32165243598E+02  0.40659149554E+02  0.00000000000E+00 0.  1.
         11    1    3    3    0    0  0.54311624780E+01 -0.24132895325E+00 -0.62208871761E+01  0.82616707175E+01  0.51100000000E-03 0. -1.
        -11    1    3    3    0    0  0.15716906051E+02 -0.45175174232E-01  0.82235774385E-01  0.15717186122E+02  0.51100000000E-03 0.  1.
         12    1    3    3    0    0  0.33432281814E+01 -0.40424602045E+01 -0.26026592196E+02  0.26549993607E+02  0.00000000000E+00 0. -1.
</event>
<event>
 7    1  0.5935282E-013  0.5052886E+02  0.7816164E-02  0.1300439E+00
        -11   -1    0    0    0    0  0.00000000000E+00  0.00000000000E+00  0.45593999997E+02  0.45594000000E+02  0.51100000000E-03 0.  1.
         11   -1    0    0    0    0 -0.00000000000E+00 -0.00000000000E+00 -0.45593999997E+02  0.45594000000E+02  0.51100000000E-03 0. -1.
    9900012    2    1    2    0    0  0.18793319227E+02  0.27200601011E+02 -0.23666518054E+02  0.50528860564E+02  0.30000002169E+02 0.  0.
        -12    1    1    2    0    0 -0.18793319227E+02 -0.27200601011E+02  0.23666518054E+02  0.40659139436E+02  0.00000000000E+00 0.  1.
         11    1    3    3    0    0  0.15047875304E+02  0.68933366510E+01 -0.10677059167E+02  0.19696604633E+02  0.51100000000E-03 0. -1.
        -11    1    3    3    0    0  0.10048271497E+02  0.14610168712E+02 -0.13551825925E+02  0.22317633746E+02  0.51100000000E-03 0.  1.
        -12    1    3    3    0    0 -0.63028275743E+01  0.56970956480E+01  0.56236703864E+00  0.85146221842E+01  0.00000000000E+00 0.  1.
</event>
<event>
 7    1  0.5935282E-013  0.5052886E+02  0.7816164E-02  0.1300439E+00
        -11   -1    0    0    0    0  0.00000000000E+00  0.00000000000E+00  0.45593999997E+02  0.45594000000E+02  0.51100000000E-03 0.  1.
         11   -1    0    0    0    0 -0.00000000000E+00 -0.00000000000E+00 -0.45593999997E+02  0.45594000000E+02  0.51100000000E-03 0. -1.
    9900012    2    1    2    0    0  0.14453209834E+02 -0.12652090700E+02 -0.35835663962E+02  0.50528862218E+02  0.30000007199E+02 0.  0.
        -12    1    1    2    0    0 -0.14453209834E+02  0.12652090700E+02  0.35835663962E+02  0.40659137782E+02  0.00000000000E+00 0.  1.
         11    1    3    3    0    0 -0.79304270987E+00 -0.56001704141E+01 -0.12619719468E+01  0.57951185374E+01  0.51100000000E-03 0. -1.
        -11    1    3    3    0    0  0.73316278814E+01 -0.15241577621E+02 -0.18957775229E+02  0.25405820153E+02  0.51100000000E-03 0.  1.
         12    1    3    3    0    0  0.79146246620E+01  0.81896573354E+01 -0.15615916787E+02  0.19327923528E+02  0.00000000000E+00 0. -1.
</event>
<event>
 7    1  0.5935282E-013  0.5052885E+02  0.7816164E-02  0.1300439E+00
        -11   -1    0    0    0    0  0.00000000000E+00  0.00000000000E+00  0.45593999997E+02  0.45594000000E+02  0.51100000000E-03 0. -1.
         11   -1    0    0    0    0 -0.00000000000E+00 -0.00000000000E+00 -0.45593999997E+02  0.45594000000E+02  0.51100000000E-03 0.  1.
    9900012    2    1    2    0    0 -0.18676872241E+02 -0.66409943139E+01  0.35499827938E+02  0.50528854094E+02  0.29999982504E+02 0.  0.
        -12    1    1    2    0    0  0.18676872241E+02  0.66409943139E+01 -0.35499827938E+02  0.40659145906E+02  0.00000000000E+00 0.  1.
         11    1    3    3    0    0 -0.19437731835E+02  0.40613465005E+01  0.25874134405E+02  0.32615805766E+02  0.51100000000E-03 0. -1.
        -11    1    3    3    0    0 -0.53119442055E+00  0.20449752984E+01  0.46764354491E+00  0.21639737128E+01  0.51100000000E-03 0.  1.
         12    1    3    3    0    0  0.12920540147E+01 -0.12747316113E+02  0.91580499878E+01  0.15749074615E+02  0.00000000000E+00 0. -1.
</event>
<event>
 7    1  0.5935282E-013  0.5052882E+02  0.7816164E-02  0.1300439E+00
        -11   -1    0    0    0    0  0.00000000000E+00  0.00000000000E+00  0.45593999997E+02  0.45594000000E+02  0.51100000000E-03 0. -1.
         11   -1    0    0    0    0 -0.00000000000E+00 -0.00000000000E+00 -0.45593999997E+02  0.45594000000E+02  0.51100000000E-03 0.  1.
    9900012    2    1    2    0    0 -0.35026981441E+02  0.11237911474E+02  0.17320190451E+02  0.50528818006E+02  0.29999872810E+02 0.  0.
        -12    1    1    2    0    0  0.35026981441E+02 -0.11237911474E+02 -0.17320190451E+02  0.40659181994E+02  0.00000000000E+00 0.  1.
         11    1    3    3    0    0 -0.16298424063E+02  0.13687404758E+02  0.11696695419E+02  0.24285723377E+02  0.51100000000E-03 0. -1.
        -11    1    3    3    0    0  0.26800582189E+01  0.24049657197E+01  0.79679326413E-01  0.36017941676E+01  0.51100000000E-03 0.  1.
         12    1    3    3    0    0 -0.21408615597E+02 -0.48544590037E+01  0.55438157050E+01  0.22641300461E+02  0.00000000000E+00 0. -1.
</event>
<event>
 7    1  0.5935282E-013  0.5052886E+02  0.7816164E-02  0.1300439E+00
        -11   -1    0    0    0    0  0.00000000000E+00  0.00000000000E+00  0.45593999997E+02  0.45594000000E+02  0.51100000000E-03 0. -1.
         11   -1    0    0    0    0 -0.00000000000E+00 -0.00000000000E+00 -0.45593999997E+02  0.45594000000E+02  0.51100000000E-03 0.  1.
    9900012    2    1    2    0    0 -0.31745585152E+02 -0.22579952054E+02 -0.11641686142E+02  0.50528864893E+02  0.30000015330E+02 0.  0.
        -12    1    1    2    0    0  0.31745585152E+02  0.22579952054E+02  0.11641686142E+02  0.40659135107E+02  0.00000000000E+00 0.  1.
         11    1    3    3    0    0 -0.88171499233E+01 -0.53095535580E+01 -0.62962183929E+01  0.12065482090E+02  0.51100000000E-03 0. -1.
        -11    1    3    3    0    0 -0.34419648495E+00  0.90317713323E+00 -0.91726602517E+01  0.92234427688E+01  0.51100000000E-03 0.  1.
         12    1    3    3    0    0 -0.22584238743E+02 -0.18173575629E+02  0.38271925022E+01  0.29239940034E+02  0.00000000000E+00 0. -1.
</event>
<event>
 7    1  0.5935282E-013  0.5052886E+02  0.7816164E-02  0.1300439E+00
        -11   -1    0    0    0    0  0.00000000000E+00  0.00000000000E+00  0.45593999997E+02  0.45594000000E+02  0.51100000000E-03 0.  1.
         11   -1    0    0    0    0 -0.00000000000E+00 -0.00000000000E+00 -0.45593999997E+02  0.45594000000E+02  0.51100000000E-03 0. -1.
    9900012    2    1    2    0    0 -0.29555044596E+02 -0.23451545500E+02 -0.15155516033E+02  0.50528864328E+02  0.30000013611E+02 0.  0.
        -12    1    1    2    0    0  0.29555044596E+02  0.23451545500E+02  0.15155516033E+02  0.40659135672E+02  0.00000000000E+00 0.  1.
         11    1    3    3    0    0 -0.89567629202E+00 -0.51842759904E+01  0.55715345327E+01  0.76629596681E+01  0.51100000000E-03 0. -1.
        -11    1    3    3    0    0 -0.34995188324E+01 -0.42998074254E+00  0.24441215856E+01  0.42901335741E+01  0.51100000000E-03 0.  1.
         12    1    3    3    0    0 -0.25159849471E+02 -0.17837288767E+02 -0.23171172151E+02  0.38575771086E+02  0.00000000000E+00 0. -1.
</event>
<event>
 7    1  0.5935282E-013  0.5052886E+02  0.7816164E-02  0.1300439E+00
        -11   -1    0    0    0    0  0.00000000000E+00  0.00000000000E+00  0.45593999997E+02  0.45594000000E+02  0.51100000000E-03 0. -1.
         11   -1    0    0    0    0 -0.00000000000E+00 -0.00000000000E+00 -0.45593999997E+02  0.45594000000E+02  0.51100000000E-03 0.  1.
    9900012    2    1    2    0    0 -0.36156080476E+02  0.10079359345E+02  0.15630430085E+02  0.50528856074E+02  0.29999988522E+02 0.  0.
        -12    1    1    2    0    0  0.36156080476E+02 -0.10079359345E+02 -0.15630430085E+02  0.40659143926E+02  0.00000000000E+00 0.  1.
         11    1    3    3    0    0 -0.51743559966E+01  0.39418885309E+01  0.95134864623E+01  0.11524706942E+02  0.51100000000E-03 0. -1.
        -11    1    3    3    0    0 -0.77331086580E+00  0.56591507743E+01 -0.41882717172E+01  0.70827690503E+01  0.51100000000E-03 0.  1.
        -12    1    3    3    0    0 -0.30208413613E+02  0.47832003973E+00  0.10305215340E+02  0.31921380081E+02  0.00000000000E+00 0.  1.
</event>
<event>
 7    1  0.5935282E-013  0.5052886E+02  0.7816164E-02  0.1300439E+00
        -11   -1    0    0    0    0  0.00000000000E+00  0.00000000000E+00  0.45593999997E+02  0.45594000000E+02  0.51100000000E-03 0.  1.
         11   -1    0    0    0    0 -0.00000000000E+00 -0.00000000000E+00 -0.45593999997E+02  0.45594000000E+02  0.51100000000E-03 0. -1.
    9900012    2    1    2    0    0 -0.20951254757E+01  0.20491133174E+02 -0.35055522828E+02  0.50528858712E+02  0.29999996542E+02 0.  0.
        -12    1    1    2    0    0  0.20951254757E+01 -0.20491133174E+02  0.35055522828E+02  0.40659141288E+02  0.00000000000E+00 0.  1.
         11    1    3    3    0    0  0.24582316027E+01  0.13863389876E+02 -0.17095040889E+02  0.22146713181E+02  0.51100000000E-03 0. -1.
        -11    1    3    3    0    0 -0.12019432518E+02  0.19819186270E+01 -0.61176420823E+01  0.13631592145E+02  0.51100000000E-03 0.  1.
         12    1    3    3    0    0  0.74660754391E+01  0.46458246705E+01 -0.11842839857E+02  0.14750553386E+02  0.00000000000E+00 0. -1.
</event>
<event>
 7    1  0.5935282E-013  0.5052887E+02  0.7816164E-02  0.1300439E+00
        -11   -1    0    0    0    0  0.00000000000E+00  0.00000000000E+00  0.45593999997E+02  0.45594000000E+02  0.51100000000E-03 0.  1.
         11   -1    0    0    0    0 -0.00000000000E+00 -0.00000000000E+00 -0.45593999997E+02  0.45594000000E+02  0.51100000000E-03 0. -1.
    9900012    2    1    2    0    0 -0.23799594028E+02  0.26093061105E+02 -0.20146876740E+02  0.50528866265E+02  0.30000019498E+02 0.  0.
        -12    1    1    2    0    0  0.23799594028E+02 -0.26093061105E+02  0.20146876740E+02  0.40659133735E+02  0.00000000000E+00 0.  1.
         11    1    3    3    0    0 -0.18141333392E+02  0.13695954032E+02 -0.17276519474E+02  0.28551099094E+02  0.51100000000E-03 0. -1.
        -11    1    3    3    0    0 -0.85040068401E+01  0.73705306653E+01 -0.83522302183E+01  0.14014371356E+02  0.51100000000E-03 0.  1.
        -12    1    3    3    0    0  0.28457462043E+01  0.50265764076E+01  0.54818729516E+01  0.79633958145E+01  0.00000000000E+00 0.  1.
</event>
<event>
 7    1  0.5935282E-013  0.5052887E+02  0.7816164E-02  0.1300439E+00
        -11   -1    0    0    0    0  0.00000000000E+00  0.00000000000E+00  0.45593999997E+02  0.45594000000E+02  0.51100000000E-03 0.  1.
         11   -1    0    0    0    0 -0.00000000000E+00 -0.00000000000E+00 -0.45593999997E+02  0.45594000000E+02  0.51100000000E-03 0. -1.
    9900012    2    1    2    0    0  0.21045934414E+02  0.26508119479E+02 -0.22528939221E+02  0.50528869954E+02  0.30000030713E+02 0.  0.
        -12    1    1    2    0    0 -0.21045934414E+02 -0.26508119479E+02  0.22528939221E+02  0.40659130046E+02  0.00000000000E+00 0.  1.
         11    1    3    3    0    0  0.83640003154E+00  0.23942659265E+01 -0.10659453107E+02  0.10957007581E+02  0.51100000000E-03 0. -1.
        -11    1    3    3    0    0  0.22288740205E+02  0.22581400845E+02 -0.15342679692E+02  0.35243516062E+02  0.51100000000E-03 0.  1.
        -12    1    3    3    0    0 -0.20792058229E+01  0.15324527077E+01  0.34731935780E+01  0.43283463107E+01  0.00000000000E+00 0.  1.
</event>
<event>
 7    1  0.5935282E-013  0.5052886E+02  0.7816164E-02  0.1300439E+00
        -11   -1    0    0    0    0  0.00000000000E+00  0.00000000000E+00  0.45593999997E+02  0.45594000000E+02  0.51100000000E-03 0.  1.
         11   -1    0    0    0    0 -0.00000000000E+00 -0.00000000000E+00 -0.45593999997E+02  0.45594000000E+02  0.51100000000E-03 0. -1.
    9900012    2    1    2    0    0 -0.32963031860E+02 -0.18804719367E+02 -0.14594078009E+02  0.50528855237E+02  0.29999985980E+02 0.  0.
        -12    1    1    2    0    0  0.32963031860E+02  0.18804719367E+02  0.14594078009E+02  0.40659144763E+02  0.00000000000E+00 0.  1.
         11    1    3    3    0    0 -0.40437923379E+01 -0.11621740946E+02 -0.56111525374E+01  0.13524132214E+02  0.51100000000E-03 0. -1.
        -11    1    3    3    0    0  0.21494644159E+01 -0.27239922266E+01  0.16808872908E+01  0.38556080288E+01  0.51100000000E-03 0.  1.
        -12    1    3    3    0    0 -0.31068703938E+02 -0.44589861945E+01 -0.10663812762E+02  0.33149114994E+02  0.00000000000E+00 0.  1.
</event>
<event>
 7    1  0.5935282E-013  0.5052886E+02  0.7816164E-02  0.1300439E+00
        -11   -1    0    0    0    0  0.00000000000E+00  0.00000000000E+00  0.45593999997E+02  0.45594000000E+02  0.51100000000E-03 0.  1.
         11   -1    0    0    0    0 -0.00000000000E+00 -0.00000000000E+00 -0.45593999997E+02  0.45594000000E+02  0.51100000000E-03 0. -1.
    9900012    2    1    2    0    0  0.10520315640E+01 -0.13217121617E-01 -0.40645522564E+02  0.50528862656E+02  0.30000008529E+02 0.  0.
        -12    1    1    2    0    0 -0.10520315640E+01  0.13217121617E-01  0.40645522564E+02  0.40659137344E+02  0.00000000000E+00 0.  1.
         11    1    3    3    0    0  0.52101241551E+01  0.20245583965E+01 -0.26995133087E+02  0.27567760901E+02  0.51100000000E-03 0. -1.
        -11    1    3    3    0    0  0.35451998075E+01 -0.77650191236E+01 -0.85894057863E+01  0.12109577023E+02  0.51100000000E-03 0.  1.
        -12    1    3    3    0    0 -0.77032923986E+01  0.57272436054E+01 -0.50609836899E+01  0.10851524732E+02  0.00000000000E+00 0.  1.
</event>
<event>
 7    1  0.5935282E-013  0.5052887E+02  0.7816164E-02  0.1300439E+00
        -11   -1    0    0    0    0  0.00000000000E+00  0.00000000000E+00  0.45593999997E+02  0.45594000000E+02  0.51100000000E-03 0. -1.
         11   -1    0    0    0    0 -0.00000000000E+00 -0.00000000000E+00 -0.45593999997E+02  0.45594000000E+02  0.51100000000E-03 0.  1.
    9900012    2    1    2    0    0 -0.63456447735E+01  0.30893043547E+02  0.25661602934E+02  0.50528865573E+02  0.30000017396E+02 0.  0.
        -12    1    1    2    0    0  0.63456447735E+01 -0.30893043547E+02 -0.25661602934E+02  0.40659134427E+02  0.00000000000E+00 0.  1.
         11    1    3    3    0    0 -0.37372806600E+01  0.57181842200E+01 -0.14919547659E+01  0.69921975651E+01  0.51100000000E-03 0. -1.
        -11    1    3    3    0    0 -0.75720215431E+01  0.21862081380E+02  0.96933393689E+01  0.25084795014E+02  0.51100000000E-03 0.  1.
         12    1    3    3    0    0  0.49636574296E+01  0.33127779467E+01  0.17460218331E+02  0.18451872994E+02  0.00000000000E+00 0. -1.
</event>
<event>
 7    1  0.5935282E-013  0.5052887E+02  0.7816164E-02  0.1300439E+00
        -11   -1    0    0    0    0  0.00000000000E+00  0.00000000000E+00  0.45593999997E+02  0.45594000000E+02  0.51100000000E-03 0.  1.
         11   -1    0    0    0    0 -0.00000000000E+00 -0.00000000000E+00 -0.45593999997E+02  0.45594000000E+02  0.51100000000E-03 0. -1.
    9900012    2    1    2    0    0  0.10497030842E+02 -0.36655171907E+02 -0.14120054506E+02  0.50528865439E+02  0.30000016988E+02 0.  0.
        -12    1    1    2    0    0 -0.10497030842E+02  0.36655171907E+02  0.14120054506E+02  0.40659134561E+02  0.00000000000E+00 0.  1.
         11    1    3    3    0    0  0.32288963188E+01 -0.80420716409E+01 -0.43762745363E+01  0.97083709649E+01  0.51100000000E-03 0. -1.
        -11    1    3    3    0    0  0.12205786663E+02 -0.13450354861E+02 -0.15489129862E+02  0.23870618301E+02  0.51100000000E-03 0.  1.
        -12    1    3    3    0    0 -0.49376521399E+01 -0.15162745405E+02  0.57453498925E+01  0.16949876173E+02  0.00000000000E+00 0.  1.
</event>
<event>
 7    1  0.5935282E-013  0.5052885E+02  0.7816164E-02  0.1300439E+00
        -11   -1    0    0    0    0  0.00000000000E+00  0.00000000000E+00  0.45593999997E+02  0.45594000000E+02  0.51100000000E-03 0. -1.
         11   -1    0    0    0    0 -0.00000000000E+00 -0.00000000000E+00 -0.45593999997E+02  0.45594000000E+02  0.51100000000E-03 0.  1.
    9900012    2    1    2    0    0 -0.38521188781E+02 -0.88402701416E+01  0.95464230023E+01  0.50528849082E+02  0.29999967269E+02 0.  0.
        -12    1    1    2    0    0  0.38521188781E+02  0.88402701416E+01 -0.95464230023E+01  0.40659150918E+02  0.00000000000E+00 0.  1.
         11    1    3    3    0    0 -0.78569005247E+00  0.38125615255E+00  0.22272081225E+01  0.23923046199E+01  0.51100000000E-03 0. -1.
        -11    1    3    3    0    0 -0.42483121380E+00 -0.37123593595E+01 -0.68863160769E+01  0.78347586400E+01  0.51100000000E-03 0.  1.
         12    1    3    3    0    0 -0.37310667514E+02 -0.55091669347E+01  0.14205530957E+02  0.40301785822E+02  0.00000000000E+00 0. -1.
</event>
<event>
 7    1  0.5935282E-013  0.5052886E+02  0.7816164E-02  0.1300439E+00
        -11   -1    0    0    0    0  0.00000000000E+00  0.00000000000E+00  0.45593999997E+02  0.45594000000E+02  0.51100000000E-03 0. -1.
         11   -1    0    0    0    0 -0.00000000000E+00 -0.00000000000E+00 -0.45593999997E+02  0.45594000000E+02  0.51100000000E-03 0.  1.
    9900012    2    1    2    0    0  0.11620486795E+02  0.21969360260E+02  0.32178833926E+02  0.50528857653E+02  0.29999993322E+02 0.  0.
        -12    1    1    2    0    0 -0.11620486795E+02 -0.21969360260E+02 -0.32178833926E+02  0.40659142347E+02  0.00000000000E+00 0.  1.
         11    1    3    3    0    0  0.20340976980E+01 -0.21355043169E+01  0.15304619596E+00  0.29531941236E+01  0.51100000000E-03 0.  1.
        -11    1    3    3    0    0  0.14037166772E+02  0.12413991088E+02  0.29288605870E+02  0.34770269769E+02  0.51100000000E-03 0. -1.
         12    1    3    3    0    0 -0.44507776753E+01  0.11690873488E+02  0.27371818599E+01  0.12805393761E+02  0.00000000000E+00 0. -1.
</event>
<event>
 7    1  0.5935282E-013  0.5052887E+02  0.7816164E-02  0.1300439E+00
        -11   -1    0    0    0    0  0.00000000000E+00  0.00000000000E+00  0.45593999997E+02  0.45594000000E+02  0.51100000000E-03 0. -1.
         11   -1    0    0    0    0 -0.00000000000E+00 -0.00000000000E+00 -0.45593999997E+02  0.45594000000E+02  0.51100000000E-03 0.  1.
    9900012    2    1    2    0    0 -0.22038475813E+02 -0.33519964225E+02 -0.66243682124E+01  0.50528872217E+02  0.30000037592E+02 0.  0.
        -12    1    1    2    0    0  0.22038475813E+02  0.33519964225E+02  0.66243682124E+01  0.40659127783E+02  0.00000000000E+00 0.  1.
         11    1    3    3    0    0 -0.10167445811E+01 -0.90449059865E+01 -0.12302105060E+02  0.15303133111E+02  0.51100000000E-03 0. -1.
        -11    1    3    3    0    0 -0.38245678688E+01 -0.82231329134E+01 -0.36716343716E+01  0.97840755063E+01  0.51100000000E-03 0.  1.
        -12    1    3    3    0    0 -0.17197163363E+02 -0.16251925325E+02  0.93493712195E+01  0.25441663600E+02  0.00000000000E+00 0.  1.
</event>
<event>
 7    1  0.5935282E-013  0.5052885E+02  0.7816164E-02  0.1300439E+00
        -11   -1    0    0    0    0  0.00000000000E+00  0.00000000000E+00  0.45593999997E+02  0.45594000000E+02  0.51100000000E-03 0. -1.
         11   -1    0    0    0    0 -0.00000000000E+00 -0.00000000000E+00 -0.45593999997E+02  0.45594000000E+02  0.51100000000E-03 0.  1.
    9900012    2    1    2    0    0 -0.37185548244E+01  0.39786210804E+02  0.75097247036E+01  0.50528853609E+02  0.29999981030E+02 0.  0.
        -12    1    1    2    0    0  0.37185548244E+01 -0.39786210804E+02 -0.75097247036E+01  0.40659146391E+02  0.00000000000E+00 0.  1.
         11    1    3    3    0    0 -0.55307913403E+01  0.19021644691E+02  0.55761423760E+01  0.20579261008E+02  0.51100000000E-03 0. -1.
        -11    1    3    3    0    0 -0.82938439888E+01  0.14657136875E+02  0.53270828241E+01  0.17663445903E+02  0.51100000000E-03 0.  1.
        -12    1    3    3    0    0  0.10106080505E+02  0.61074292379E+01 -0.33935004965E+01  0.12286146698E+02  0.00000000000E+00 0.  1.
</event>
<event>
 7    1  0.5935282E-013  0.5052885E+02  0.7816164E-02  0.1300439E+00
        -11   -1    0    0    0    0  0.00000000000E+00  0.00000000000E+00  0.45593999997E+02  0.45594000000E+02  0.51100000000E-03 0. -1.
         11   -1    0    0    0    0 -0.00000000000E+00 -0.00000000000E+00 -0.45593999997E+02  0.45594000000E+02  0.51100000000E-03 0.  1.
    9900012    2    1    2    0    0  0.38150805656E+02  0.10474068064E+02 -0.93795892772E+01  0.50528846430E+02  0.29999959210E+02 0.  0.
        -12    1    1    2    0    0 -0.38150805656E+02 -0.10474068064E+02  0.93795892772E+01  0.40659153570E+02  0.00000000000E+00 0.  1.
         11    1    3    3    0    0  0.40557353945E+01 -0.82633263018E+00  0.27092213307E+01  0.49468874746E+01  0.51100000000E-03 0. -1.
        -11    1    3    3    0    0 -0.31041074821E+01 -0.19934857384E+01 -0.36455595918E+01  0.51864798899E+01  0.51100000000E-03 0.  1.
         12    1    3    3    0    0  0.37199177743E+02  0.13293886432E+02 -0.84432510161E+01  0.40395479066E+02  0.00000000000E+00 0. -1.
</event>
<event>
 7    1  0.5935282E-013  0.5052883E+02  0.7816164E-02  0.1300439E+00
        -11   -1    0    0    0    0  0.00000000000E+00  0.00000000000E+00  0.45593999997E+02  0.45594000000E+02  0.51100000000E-03 0.  1.
         11   -1    0    0    0    0 -0.00000000000E+00 -0.00000000000E+00 -0.45593999997E+02  0.45594000000E+02  0.51100000000E-03 0. -1.
    9900012    2    1    2    0    0  0.10556757618E+02  0.11352185175E+02 -0.37587909989E+02  0.50528828624E+02  0.29999905086E+02 0.  0.
        -12    1    1    2    0    0 -0.10556757618E+02 -0.11352185175E+02  0.37587909989E+02  0.40659171376E+02  0.00000000000E+00 0.  1.
         11    1    3    3    0    0  0.14965118624E+02  0.11946749469E+02 -0.10012206913E+02  0.21608421641E+02  0.51100000000E-03 0. -1.
        -11    1    3    3    0    0  0.10865184176E+00 -0.17975320888E+01 -0.19549126359E+02  0.19631894165E+02  0.51100000000E-03 0.  1.
        -12    1    3    3    0    0 -0.45170128479E+01  0.12029677951E+01 -0.80265767161E+01  0.92885128177E+01  0.00000000000E+00 0.  1.
</event>
<event>
 7    1  0.5935282E-013  0.5052886E+02  0.7816164E-02  0.1300439E+00
        -11   -1    0    0    0    0  0.00000000000E+00  0.00000000000E+00  0.45593999997E+02  0.45594000000E+02  0.51100000000E-03 0. -1.
         11   -1    0    0    0    0 -0.00000000000E+00 -0.00000000000E+00 -0.45593999997E+02  0.45594000000E+02  0.51100000000E-03 0.  1.
    9900012    2    1    2    0    0  0.95982638312E+01 -0.39178846172E+02  0.51046197492E+01  0.50528858362E+02  0.29999995477E+02 0.  0.
        -12    1    1    2    0    0 -0.95982638312E+01  0.39178846172E+02 -0.51046197492E+01  0.40659141638E+02  0.00000000000E+00 0.  1.
         11    1    3    3    0    0  0.11129720094E+02 -0.25839786538E+02  0.46169144661E+01  0.28511070431E+02  0.51100000000E-03 0. -1.
        -11    1    3    3    0    0 -0.39069361021E+01 -0.17079022625E+02  0.10501066125E+01  0.17551634900E+02  0.51100000000E-03 0.  1.
        -12    1    3    3    0    0  0.23754798390E+01  0.37399629901E+01 -0.56240132939E+00  0.44661530301E+01  0.00000000000E+00 0.  1.
</event>
<event>
 7    1  0.5935282E-013  0.5052880E+02  0.7816164E-02  0.1300439E+00
        -11   -1    0    0    0    0  0.00000000000E+00  0.00000000000E+00  0.45593999997E+02  0.45594000000E+02  0.51100000000E-03 0.  1.
         11   -1    0    0    0    0 -0.00000000000E+00 -0.00000000000E+00 -0.45593999997E+02  0.45594000000E+02  0.51100000000E-03 0. -1.
    9900012    2    1    2    0    0  0.16911062919E+02  0.20900376663E+02 -0.30501816487E+02  0.50528799286E+02  0.29999815910E+02 0.  0.
        -12    1    1    2    0    0 -0.16911062919E+02 -0.20900376663E+02  0.30501816487E+02  0.40659200714E+02  0.00000000000E+00 0.  1.
         11    1    3    3    0    0 -0.10776099923E+01  0.30951849102E+01 -0.95886456327E+01  0.10133288620E+02  0.51100000000E-03 0. -1.
        -11    1    3    3    0    0  0.10252837428E+02  0.15431146345E+02 -0.25169133332E+02  0.31252619503E+02  0.51100000000E-03 0.  1.
        -12    1    3    3    0    0  0.77358354827E+01  0.23740454079E+01  0.42559624779E+01  0.91428911634E+01  0.00000000000E+00 0.  1.
</event>
<event>
 7    1  0.5935282E-013  0.5052886E+02  0.7816164E-02  0.1300439E+00
        -11   -1    0    0    0    0  0.00000000000E+00  0.00000000000E+00  0.45593999997E+02  0.45594000000E+02  0.51100000000E-03 0.  1.
         11   -1    0    0    0    0 -0.00000000000E+00 -0.00000000000E+00 -0.45593999997E+02  0.45594000000E+02  0.51100000000E-03 0. -1.
    9900012    2    1    2    0    0 -0.37153343008E+02  0.69808697523E+01 -0.14968696395E+02  0.50528864361E+02  0.30000013711E+02 0.  0.
        -12    1    1    2    0    0  0.37153343008E+02 -0.69808697523E+01  0.14968696395E+02  0.40659135639E+02  0.00000000000E+00 0.  1.
         11    1    3    3    0    0  0.35731631284E+01 -0.22521879135E+01  0.67209204840E-02  0.42237294624E+01  0.51100000000E-03 0. -1.
        -11    1    3    3    0    0 -0.79253451670E+01  0.10907957886E+01  0.23341927651E+01  0.83336299171E+01  0.51100000000E-03 0.  1.
         12    1    3    3    0    0 -0.32801160969E+02  0.81422618771E+01 -0.17309610080E+02  0.37971504981E+02  0.00000000000E+00 0. -1.
</event>
<event>
 7    1  0.5935282E-013  0.5052886E+02  0.7816164E-02  0.1300439E+00
        -11   -1    0    0    0    0  0.00000000000E+00  0.00000000000E+00  0.45593999997E+02  0.45594000000E+02  0.51100000000E-03 0. -1.
         11   -1    0    0    0    0 -0.00000000000E+00 -0.00000000000E+00 -0.45593999997E+02  0.45594000000E+02  0.51100000000E-03 0.  1.
    9900012    2    1    2    0    0 -0.30577411518E+02  0.26796014226E+02 -0.40178318829E+00  0.50528857076E+02  0.29999991569E+02 0.  0.
        -12    1    1    2    0    0  0.30577411518E+02 -0.26796014226E+02  0.40178318829E+00  0.40659142924E+02  0.00000000000E+00 0.  1.
         11    1    3    3    0    0 -0.36138244631E+01  0.90302561304E+01 -0.69263476298E+01  0.11940667686E+02  0.51100000000E-03 0. -1.
        -11    1    3    3    0    0  0.76718545948E+00 -0.25372993326E+01  0.30551292568E+01  0.40447838594E+01  0.51100000000E-03 0.  1.
         12    1    3    3    0    0 -0.27730772514E+02  0.20303057429E+02  0.34694351847E+01  0.34543405531E+02  0.00000000000E+00 0. -1.
</event>
<event>
 7    1  0.5935282E-013  0.5052884E+02  0.7816164E-02  0.1300439E+00
        -11   -1    0    0    0    0  0.00000000000E+00  0.00000000000E+00  0.45593999997E+02  0.45594000000E+02  0.51100000000E-03 0.  1.
         11   -1    0    0    0    0 -0.00000000000E+00 -0.00000000000E+00 -0.45593999997E+02  0.45594000000E+02  0.51100000000E-03 0. -1.
    9900012    2    1    2    0    0 -0.31145530648E+01  0.28219806149E+02 -0.29105145645E+02  0.50528838635E+02  0.29999935514E+02 0.  0.
        -12    1    1    2    0    0  0.31145530648E+01 -0.28219806149E+02  0.29105145645E+02  0.40659161365E+02  0.00000000000E+00 0.  1.
         11    1    3    3    0    0  0.18909789960E+01  0.76643015917E+01 -0.19521750006E+02  0.21057446284E+02  0.51100000000E-03 0. -1.
        -11    1    3    3    0    0  0.44449313922E+01 -0.18163508207E-01 -0.43808225652E+01  0.62409415638E+01  0.51100000000E-03 0.  1.
         12    1    3    3    0    0 -0.94504634530E+01  0.20573668066E+02 -0.52025730736E+01  0.23230450786E+02  0.00000000000E+00 0. -1.
</event>
<event>
 7    1  0.5935282E-013  0.5052888E+02  0.7816164E-02  0.1300439E+00
        -11   -1    0    0    0    0  0.00000000000E+00  0.00000000000E+00  0.45593999997E+02  0.45594000000E+02  0.51100000000E-03 0.  1.
         11   -1    0    0    0    0 -0.00000000000E+00 -0.00000000000E+00 -0.45593999997E+02  0.45594000000E+02  0.51100000000E-03 0. -1.
    9900012    2    1    2    0    0  0.50235704519E+01 -0.30202592185E+02 -0.26753154634E+02  0.50528879035E+02  0.30000058314E+02 0.  0.
        -12    1    1    2    0    0 -0.50235704519E+01  0.30202592185E+02  0.26753154634E+02  0.40659120965E+02  0.00000000000E+00 0.  1.
         11    1    3    3    0    0  0.48618073411E+01 -0.16835986675E+02 -0.22498373098E+02  0.28517791118E+02  0.51100000000E-03 0. -1.
        -11    1    3    3    0    0  0.63736941937E+01 -0.13490502150E+02 -0.50397169370E+01  0.15748535583E+02  0.51100000000E-03 0.  1.
        -12    1    3    3    0    0 -0.62119310830E+01  0.12389663974E+00  0.78493540051E+00  0.62625523343E+01  0.00000000000E+00 0.  1.
</event>
<event>
 7    1  0.5935282E-013  0.5052886E+02  0.7816164E-02  0.1300439E+00
        -11   -1    0    0    0    0  0.00000000000E+00  0.00000000000E+00  0.45593999997E+02  0.45594000000E+02  0.51100000000E-03 0.  1.
         11   -1    0    0    0    0 -0.00000000000E+00 -0.00000000000E+00 -0.45593999997E+02  0.45594000000E+02  0.51100000000E-03 0. -1.
    9900012    2    1    2    0    0  0.18385957465E+02  0.29543235942E+02 -0.21031382292E+02  0.50528864951E+02  0.30000015504E+02 0.  0.
        -12    1    1    2    0    0 -0.18385957465E+02 -0.29543235942E+02  0.21031382292E+02  0.40659135049E+02  0.00000000000E+00 0.  1.
         11    1    3    3    0    0  0.71062624692E+00  0.14160543232E+02 -0.10207561932E+02  0.17470555090E+02  0.51100000000E-03 0. -1.
        -11    1    3    3    0    0  0.10520253892E+02  0.38214069880E+01 -0.15108574212E+02  0.18802869683E+02  0.51100000000E-03 0.  1.
        -12    1    3    3    0    0  0.71550773259E+01  0.11561285722E+02  0.42847538525E+01  0.14255440178E+02  0.00000000000E+00 0.  1.
</event>
<event>
 7    1  0.5935282E-013  0.5052886E+02  0.7816164E-02  0.1300439E+00
        -11   -1    0    0    0    0  0.00000000000E+00  0.00000000000E+00  0.45593999997E+02  0.45594000000E+02  0.51100000000E-03 0. -1.
         11   -1    0    0    0    0 -0.00000000000E+00 -0.00000000000E+00 -0.45593999997E+02  0.45594000000E+02  0.51100000000E-03 0.  1.
    9900012    2    1    2    0    0  0.28881367386E+01  0.32578301712E+02  0.24155300853E+02  0.50528860368E+02  0.30000001576E+02 0.  0.
        -12    1    1    2    0    0 -0.28881367386E+01 -0.32578301712E+02 -0.24155300853E+02  0.40659139632E+02  0.00000000000E+00 0.  1.
         11    1    3    3    0    0 -0.38103828213E+01  0.20324105159E+02  0.96836128434E+01  0.22833322704E+02  0.51100000000E-03 0. -1.
        -11    1    3    3    0    0 -0.59961839916E+01  0.89115263392E-01  0.43426840979E+01  0.74041251628E+01  0.51100000000E-03 0.  1.
         12    1    3    3    0    0  0.12694703552E+02  0.12165081290E+02  0.10129003912E+02  0.20291412501E+02  0.00000000000E+00 0. -1.
</event>
<event>
 7    1  0.5935282E-013  0.5052889E+02  0.7816164E-02  0.1300439E+00
        -11   -1    0    0    0    0  0.00000000000E+00  0.00000000000E+00  0.45593999997E+02  0.45594000000E+02  0.51100000000E-03 0. -1.
         11   -1    0    0    0    0 -0.00000000000E+00 -0.00000000000E+00 -0.45593999997E+02  0.45594000000E+02  0.51100000000E-03 0.  1.
    9900012    2    1    2    0    0 -0.39084688714E+02  0.11152585424E+02  0.10817887558E+01  0.50528888839E+02  0.30000088116E+02 0.  0.
        -12    1    1    2    0    0  0.39084688714E+02 -0.11152585424E+02 -0.10817887558E+01  0.40659111161E+02  0.00000000000E+00 0.  1.
         11    1    3    3    0    0 -0.32943055230E+02  0.11032543527E+01  0.80678907690E+01  0.33934538744E+02  0.51100000000E-03 0. -1.
        -11    1    3    3    0    0 -0.27625086921E+01  0.95903775586E+00 -0.62115142446E+01  0.68654291318E+01  0.51100000000E-03 0.  1.
        -12    1    3    3    0    0 -0.33791247919E+01  0.90902933150E+01 -0.77458776860E+00  0.97289209640E+01  0.00000000000E+00 0.  1.
</event>
<event>
 7    1  0.5935282E-013  0.5052890E+02  0.7816164E-02  0.1300439E+00
        -11   -1    0    0    0    0  0.00000000000E+00  0.00000000000E+00  0.45593999997E+02  0.45594000000E+02  0.51100000000E-03 0. -1.
         11   -1    0    0    0    0 -0.00000000000E+00 -0.00000000000E+00 -0.45593999997E+02  0.45594000000E+02  0.51100000000E-03 0.  1.
    9900012    2    1    2    0    0  0.35974321732E+02  0.18934495929E+02  0.70413823114E+00  0.50528895598E+02  0.30000108659E+02 0.  0.
        -12    1    1    2    0    0 -0.35974321732E+02 -0.18934495929E+02 -0.70413823114E+00  0.40659104402E+02  0.00000000000E+00 0.  1.
         11    1    3    3    0    0  0.11290962479E+02  0.15224542367E+02  0.15093624637E+01  0.19014486564E+02  0.51100000000E-03 0. -1.
        -11    1    3    3    0    0  0.57044109011E+01  0.66645634085E+01  0.65486445457E+01  0.10947212193E+02  0.51100000000E-03 0.  1.
        -12    1    3    3    0    0  0.18978948351E+02 -0.29546098469E+01 -0.73538687782E+01  0.20567196840E+02  0.00000000000E+00 0.  1.
</event>
<event>
 7    1  0.5935282E-013  0.5052886E+02  0.7816164E-02  0.1300439E+00
        -11   -1    0    0    0    0  0.00000000000E+00  0.00000000000E+00  0.45593999997E+02  0.45594000000E+02  0.51100000000E-03 0. -1.
         11   -1    0    0    0    0 -0.00000000000E+00 -0.00000000000E+00 -0.45593999997E+02  0.45594000000E+02  0.51100000000E-03 0.  1.
    9900012    2    1    2    0    0 -0.22777398518E+02  0.25298494099E+02  0.22233809411E+02  0.50528856283E+02  0.29999989157E+02 0.  0.
        -12    1    1    2    0    0  0.22777398518E+02 -0.25298494099E+02 -0.22233809411E+02  0.40659143717E+02  0.00000000000E+00 0.  1.
         11    1    3    3    0    0 -0.35708336705E+01 -0.88365521660E+00  0.17776709536E+01  0.40855616413E+01  0.51100000000E-03 0. -1.
        -11    1    3    3    0    0 -0.21000243530E+01  0.17554494594E+02 -0.96278373560E+00  0.17705855967E+02  0.51100000000E-03 0.  1.
         12    1    3    3    0    0 -0.17106540495E+02  0.86276547213E+01  0.21418922193E+02  0.28737438675E+02  0.00000000000E+00 0. -1.
</event>
<event>
 7    1  0.5935282E-013  0.5052884E+02  0.7816164E-02  0.1300439E+00
        -11   -1    0    0    0    0  0.00000000000E+00  0.00000000000E+00  0.45593999997E+02  0.45594000000E+02  0.51100000000E-03 0.  1.
         11   -1    0    0    0    0 -0.00000000000E+00 -0.00000000000E+00 -0.45593999997E+02  0.45594000000E+02  0.51100000000E-03 0. -1.
    9900012    2    1    2    0    0  0.37205358462E+02  0.63820157127E+01 -0.15106227156E+02  0.50528844552E+02  0.29999953501E+02 0.  0.
        -12    1    1    2    0    0 -0.37205358462E+02 -0.63820157127E+01  0.15106227156E+02  0.40659155448E+02  0.00000000000E+00 0.  1.
         11    1    3    3    0    0  0.14553809963E+02  0.94917657258E+01 -0.80445362305E+01  0.19147364426E+02  0.51100000000E-03 0. -1.
        -11    1    3    3    0    0  0.12299557198E+02  0.65519251344E+01  0.26836415218E+01  0.14191855493E+02  0.51100000000E-03 0.  1.
         12    1    3    3    0    0  0.10351991300E+02 -0.96616751474E+01 -0.97453324474E+01  0.17189624634E+02  0.00000000000E+00 0. -1.
</event>
<event>
 7    1  0.5935282E-013  0.5052888E+02  0.7816164E-02  0.1300439E+00
        -11   -1    0    0    0    0  0.00000000000E+00  0.00000000000E+00  0.45593999997E+02  0.45594000000E+02  0.51100000000E-03 0.  1.
         11   -1    0    0    0    0 -0.00000000000E+00 -0.00000000000E+00 -0.45593999997E+02  0.45594000000E+02  0.51100000000E-03 0. -1.
    9900012    2    1    2    0    0 -0.25430515477E+02  0.30087078526E+02  0.10060840410E+02  0.50528881448E+02  0.30000065650E+02 0.  0.
        -12    1    1    2    0    0  0.25430515477E+02 -0.30087078526E+02 -0.10060840410E+02  0.40659118552E+02  0.00000000000E+00 0.  1.
         11    1    3    3    0    0 -0.98307194634E+01  0.19196644511E+02  0.92961887909E+01  0.23485598395E+02  0.51100000000E-03 0. -1.
        -11    1    3    3    0    0  0.37266267529E+00  0.33947689387E+01 -0.69829633823E+01  0.77733590858E+01  0.51100000000E-03 0.  1.
         12    1    3    3    0    0 -0.15972458689E+02  0.74956650759E+01  0.77476150016E+01  0.19269923967E+02  0.00000000000E+00 0. -1.
</event>
<event>
 7    1  0.5935282E-013  0.5052886E+02  0.7816164E-02  0.1300439E+00
        -11   -1    0    0    0    0  0.00000000000E+00  0.00000000000E+00  0.45593999997E+02  0.45594000000E+02  0.51100000000E-03 0.  1.
         11   -1    0    0    0    0 -0.00000000000E+00 -0.00000000000E+00 -0.45593999997E+02  0.45594000000E+02  0.51100000000E-03 0. -1.
    9900012    2    1    2    0    0 -0.21471877980E+02  0.11296216976E+02 -0.32626982353E+02  0.50528855402E+02  0.29999986481E+02 0.  0.
        -12    1    1    2    0    0  0.21471877980E+02 -0.11296216976E+02  0.32626982353E+02  0.40659144598E+02  0.00000000000E+00 0.  1.
         11    1    3    3    0    0 -0.20570942746E+01 -0.38635193084E+01  0.30566391196E+01  0.53386759847E+01  0.51100000000E-03 0. -1.
        -11    1    3    3    0    0 -0.54013729815E+01  0.43421311329E+00 -0.18619028779E+01  0.57297516264E+01  0.51100000000E-03 0.  1.
         12    1    3    3    0    0 -0.14013410724E+02  0.14725523172E+02 -0.33821718594E+02  0.39460427791E+02  0.00000000000E+00 0. -1.
</event>
<event>
 7    1  0.5935282E-013  0.5052886E+02  0.7816164E-02  0.1300439E+00
        -11   -1    0    0    0    0  0.00000000000E+00  0.00000000000E+00  0.45593999997E+02  0.45594000000E+02  0.51100000000E-03 0.  1.
         11   -1    0    0    0    0 -0.00000000000E+00 -0.00000000000E+00 -0.45593999997E+02  0.45594000000E+02  0.51100000000E-03 0. -1.
    9900012    2    1    2    0    0  0.11228516503E+02 -0.37642450407E+02 -0.10494380343E+02  0.50528859893E+02  0.30000000130E+02 0.  0.
        -12    1    1    2    0    0 -0.11228516503E+02  0.37642450407E+02  0.10494380343E+02  0.40659140107E+02  0.00000000000E+00 0.  1.
         11    1    3    3    0    0  0.45319627469E+01  0.25673778270E+00 -0.96435294921E+01  0.10658436187E+02  0.51100000000E-03 0. -1.
        -11    1    3    3    0    0  0.20310468453E+01 -0.43918025367E+00 -0.41205572410E+00  0.21184477251E+01  0.51100000000E-03 0.  1.
        -12    1    3    3    0    0  0.46655069109E+01 -0.37460007936E+02 -0.43879512680E+00  0.37751975981E+02  0.00000000000E+00 0.  1.
</event>
<event>
 7    1  0.5935282E-013  0.5052886E+02  0.7816164E-02  0.1300439E+00
        -11   -1    0    0    0    0  0.00000000000E+00  0.00000000000E+00  0.45593999997E+02  0.45594000000E+02  0.51100000000E-03 0. -1.
         11   -1    0    0    0    0 -0.00000000000E+00 -0.00000000000E+00 -0.45593999997E+02  0.45594000000E+02  0.51100000000E-03 0.  1.
    9900012    2    1    2    0    0 -0.68763822918E+00 -0.34161947855E+02  0.22037562227E+02  0.50528859865E+02  0.30000000047E+02 0.  0.
        -12    1    1    2    0    0  0.68763822918E+00  0.34161947855E+02 -0.22037562227E+02  0.40659140135E+02  0.00000000000E+00 0.  1.
         11    1    3    3    0    0 -0.92138152779E+01 -0.63665935924E+01  0.29164524817E+01  0.11572968560E+02  0.51100000000E-03 0.  1.
        -11    1    3    3    0    0 -0.42877475399E+01 -0.63993535241E+01  0.94861743917E+01  0.12219820348E+02  0.51100000000E-03 0. -1.
         12    1    3    3    0    0  0.12813924589E+02 -0.21396000739E+02  0.96349353532E+01  0.26736070957E+02  0.00000000000E+00 0. -1.
</event>
<event>
 7    1  0.5935282E-013  0.5052885E+02  0.7816164E-02  0.1300439E+00
        -11   -1    0    0    0    0  0.00000000000E+00  0.00000000000E+00  0.45593999997E+02  0.45594000000E+02  0.51100000000E-03 0.  1.
         11   -1    0    0    0    0 -0.00000000000E+00 -0.00000000000E+00 -0.45593999997E+02  0.45594000000E+02  0.51100000000E-03 0. -1.
    9900012    2    1    2    0    0  0.79854737308E+01  0.11818059760E+02 -0.38075347984E+02  0.50528850337E+02  0.29999971085E+02 0.  0.
        -12    1    1    2    0    0 -0.79854737308E+01 -0.11818059760E+02  0.38075347984E+02  0.40659149663E+02  0.00000000000E+00 0.  1.
         11    1    3    3    0    0  0.25725436192E+01  0.17007170995E+02 -0.17691116360E+02  0.24674631593E+02  0.51100000000E-03 0. -1.
        -11    1    3    3    0    0  0.41269994709E+01  0.39372481236E+01 -0.12444413998E+02  0.13689320196E+02  0.51100000000E-03 0.  1.
        -12    1    3    3    0    0  0.12859306407E+01 -0.91263593585E+01 -0.79398176253E+01  0.12164898548E+02  0.00000000000E+00 0.  1.
</event>
<event>
 7    1  0.5935282E-013  0.5052886E+02  0.7816164E-02  0.1300439E+00
        -11   -1    0    0    0    0  0.00000000000E+00  0.00000000000E+00  0.45593999997E+02  0.45594000000E+02  0.51100000000E-03 0.  1.
         11   -1    0    0    0    0 -0.00000000000E+00 -0.00000000000E+00 -0.45593999997E+02  0.45594000000E+02  0.51100000000E-03 0. -1.
    9900012    2    1    2    0    0  0.11444502386E+02  0.36617531917E+02 -0.13466445251E+02  0.50528862943E+02  0.30000009401E+02 0.  0.
        -12    1    1    2    0    0 -0.11444502386E+02 -0.36617531917E+02  0.13466445251E+02  0.40659137057E+02  0.00000000000E+00 0.  1.
         11    1    3    3    0    0 -0.38232599740E+00  0.30064808680E+01 -0.87048242903E+01  0.92173242627E+01  0.51100000000E-03 0. -1.
        -11    1    3    3    0    0 -0.35586121377E+01  0.23439015665E+01 -0.48605274939E+01  0.64639247118E+01  0.51100000000E-03 0.  1.
         12    1    3    3    0    0  0.15385440521E+02  0.31267149482E+02  0.98906533167E-01  0.34847613968E+02  0.00000000000E+00 0. -1.
</event>
<event>
 7    1  0.5935282E-013  0.5052887E+02  0.7816164E-02  0.1300439E+00
        -11   -1    0    0    0    0  0.00000000000E+00  0.00000000000E+00  0.45593999997E+02  0.45594000000E+02  0.51100000000E-03 0.  1.
         11   -1    0    0    0    0 -0.00000000000E+00 -0.00000000000E+00 -0.45593999997E+02  0.45594000000E+02  0.51100000000E-03 0. -1.
    9900012    2    1    2    0    0 -0.35763069337E+02  0.15614506270E+02 -0.11417323281E+02  0.50528865659E+02  0.30000017657E+02 0.  0.
        -12    1    1    2    0    0  0.35763069337E+02 -0.15614506270E+02  0.11417323281E+02  0.40659134341E+02  0.00000000000E+00 0.  1.
         11    1    3    3    0    0 -0.14261669740E+02  0.10708421844E+01  0.39446844314E+01  0.14835850575E+02  0.51100000000E-03 0. -1.
        -11    1    3    3    0    0  0.14401982369E+01  0.36043646548E+01  0.25099294800E+01  0.46222680345E+01  0.51100000000E-03 0.  1.
         12    1    3    3    0    0 -0.22941597834E+02  0.10939299431E+02 -0.17871937192E+02  0.31070747049E+02  0.00000000000E+00 0. -1.
</event>
<event>
 7    1  0.5935282E-013  0.5052884E+02  0.7816164E-02  0.1300439E+00
        -11   -1    0    0    0    0  0.00000000000E+00  0.00000000000E+00  0.45593999997E+02  0.45594000000E+02  0.51100000000E-03 0. -1.
         11   -1    0    0    0    0 -0.00000000000E+00 -0.00000000000E+00 -0.45593999997E+02  0.45594000000E+02  0.51100000000E-03 0.  1.
    9900012    2    1    2    0    0  0.25960967982E+01 -0.13810528197E+02  0.38153597674E+02  0.50528838386E+02  0.29999934758E+02 0.  0.
        -12    1    1    2    0    0 -0.25960967982E+01  0.13810528197E+02 -0.38153597674E+02  0.40659161614E+02  0.00000000000E+00 0.  1.
         11    1    3    3    0    0 -0.52726463459E+01 -0.11139879695E+02  0.29065795968E+02  0.31570844377E+02  0.51100000000E-03 0. -1.
        -11    1    3    3    0    0 -0.30231468603E+01  0.14346789650E+00  0.68488829074E+01  0.74878032371E+01  0.51100000000E-03 0.  1.
        -12    1    3    3    0    0  0.10891890004E+02 -0.28141163980E+01  0.22389187983E+01  0.11470190772E+02  0.00000000000E+00 0.  1.
</event>
<event>
 7    1  0.5935282E-013  0.5052885E+02  0.7816164E-02  0.1300439E+00
        -11   -1    0    0    0    0  0.00000000000E+00  0.00000000000E+00  0.45593999997E+02  0.45594000000E+02  0.51100000000E-03 0. -1.
         11   -1    0    0    0    0 -0.00000000000E+00 -0.00000000000E+00 -0.45593999997E+02  0.45594000000E+02  0.51100000000E-03 0.  1.
    9900012    2    1    2    0    0  0.15342164222E+02  0.21364145378E+02  0.31005774026E+02  0.50528846865E+02  0.29999960530E+02 0.  0.
        -12    1    1    2    0    0 -0.15342164222E+02 -0.21364145378E+02 -0.31005774026E+02  0.40659153135E+02  0.00000000000E+00 0.  1.
         11    1    3    3    0    0  0.10859218451E+02  0.14659685464E+01  0.12327565871E+02  0.16493652406E+02  0.51100000000E-03 0. -1.
        -11    1    3    3    0    0  0.53788543574E+01 -0.82267509898E+00 -0.89835015290E+00  0.55150613573E+01  0.51100000000E-03 0.  1.
         12    1    3    3    0    0 -0.89590858616E+00  0.20720851930E+02  0.19576558308E+02  0.28520133101E+02  0.00000000000E+00 0. -1.
</event>
<event>
 7    1  0.5935282E-013  0.5052886E+02  0.7816164E-02  0.1300439E+00
        -11   -1    0    0    0    0  0.00000000000E+00  0.00000000000E+00  0.45593999997E+02  0.45594000000E+02  0.51100000000E-03 0.  1.
         11   -1    0    0    0    0 -0.00000000000E+00 -0.00000000000E+00 -0.45593999997E+02  0.45594000000E+02  0.51100000000E-03 0. -1.
    9900012    2    1    2    0    0  0.35337699616E+02  0.13830149817E+02 -0.14599292348E+02  0.50528863325E+02  0.30000010563E+02 0.  0.
        -12    1    1    2    0    0 -0.35337699616E+02 -0.13830149817E+02  0.14599292348E+02  0.40659136675E+02  0.00000000000E+00 0.  1.
         11    1    3    3    0    0  0.47829228616E-01  0.11367279312E+00  0.14852491656E+01  0.14903605215E+01  0.51100000000E-03 0. -1.
        -11    1    3    3    0    0  0.14406372185E+02  0.93685220892E+01  0.61255840954E+01  0.18243781034E+02  0.51100000000E-03 0.  1.
         12    1    3    3    0    0  0.20883498203E+02  0.43479549345E+01 -0.22210125609E+02  0.30794721769E+02  0.00000000000E+00 0. -1.
</event>
<event>
 7    1  0.5935282E-013  0.5052887E+02  0.7816164E-02  0.1300439E+00
        -11   -1    0    0    0    0  0.00000000000E+00  0.00000000000E+00  0.45593999997E+02  0.45594000000E+02  0.51100000000E-03 0.  1.
         11   -1    0    0    0    0 -0.00000000000E+00 -0.00000000000E+00 -0.45593999997E+02  0.45594000000E+02  0.51100000000E-03 0. -1.
    9900012    2    1    2    0    0  0.79274215066E+01  0.49840131821E+01 -0.39566151997E+02  0.50528870853E+02  0.30000033444E+02 0.  0.
        -12    1    1    2    0    0 -0.79274215066E+01 -0.49840131821E+01  0.39566151997E+02  0.40659129147E+02  0.00000000000E+00 0.  1.
         11    1    3    3    0    0 -0.28072623392E+00  0.23861644795E+01  0.24237590947E+01  0.34127989322E+01  0.51100000000E-03 0. -1.
        -11    1    3    3    0    0 -0.10089422870E+01 -0.22558969432E+01  0.11575743537E+01  0.27289218022E+01  0.51100000000E-03 0.  1.
         12    1    3    3    0    0  0.92170900275E+01  0.48537456458E+01 -0.43147485445E+02  0.44387150118E+02  0.00000000000E+00 0. -1.
</event>
<event>
 7    1  0.5935282E-013  0.5052884E+02  0.7816164E-02  0.1300439E+00
        -11   -1    0    0    0    0  0.00000000000E+00  0.00000000000E+00  0.45593999997E+02  0.45594000000E+02  0.51100000000E-03 0.  1.
         11   -1    0    0    0    0 -0.00000000000E+00 -0.00000000000E+00 -0.45593999997E+02  0.45594000000E+02  0.51100000000E-03 0. -1.
    9900012    2    1    2    0    0  0.37143927684E+02  0.16491251565E+02 -0.12387304608E+01  0.50528841190E+02  0.29999943281E+02 0.  0.
        -12    1    1    2    0    0 -0.37143927684E+02 -0.16491251565E+02  0.12387304608E+01  0.40659158810E+02  0.00000000000E+00 0.  1.
         11    1    3    3    0    0  0.13206065578E+02  0.14481740608E+02 -0.44806565513E+01  0.20104657731E+02  0.51100000000E-03 0. -1.
        -11    1    3    3    0    0  0.86328384467E+01  0.95288293306E+01 -0.85597948130E+00  0.12886317907E+02  0.51100000000E-03 0.  1.
         12    1    3    3    0    0  0.15305023660E+02 -0.75193183745E+01  0.40979055718E+01  0.17537865552E+02  0.00000000000E+00 0. -1.
</event>
<event>
 7    1  0.5935282E-013  0.5052888E+02  0.7816164E-02  0.1300439E+00
        -11   -1    0    0    0    0  0.00000000000E+00  0.00000000000E+00  0.45593999997E+02  0.45594000000E+02  0.51100000000E-03 0. -1.
         11   -1    0    0    0    0 -0.00000000000E+00 -0.00000000000E+00 -0.45593999997E+02  0.45594000000E+02  0.51100000000E-03 0.  1.
    9900012    2    1    2    0    0  0.87695983701E+00 -0.31647437545E+02  0.25511458118E+02  0.50528882240E+02  0.30000068058E+02 0.  0.
        -12    1    1    2    0    0 -0.87695983701E+00  0.31647437545E+02 -0.25511458118E+02  0.40659117760E+02  0.00000000000E+00 0.  1.
         11    1    3    3    0    0  0.34881477428E+01 -0.14260787399E+02  0.15705410301E+02  0.21498770776E+02  0.51100000000E-03 0. -1.
        -11    1    3    3    0    0 -0.32842368401E+01 -0.77426389998E+01  0.15626262278E+02  0.17745837353E+02  0.51100000000E-03 0.  1.
         12    1    3    3    0    0  0.67304893427E+00 -0.96440111458E+01 -0.58202144611E+01  0.11284274111E+02  0.00000000000E+00 0. -1.
</event>
<event>
 7    1  0.5935282E-013  0.5052885E+02  0.7816164E-02  0.1300439E+00
        -11   -1    0    0    0    0  0.00000000000E+00  0.00000000000E+00  0.45593999997E+02  0.45594000000E+02  0.51100000000E-03 0.  1.
         11   -1    0    0    0    0 -0.00000000000E+00 -0.00000000000E+00 -0.45593999997E+02  0.45594000000E+02  0.51100000000E-03 0. -1.
    9900012    2    1    2    0    0  0.20886842866E+02  0.84848241035E+01 -0.33836578869E+02  0.50528849559E+02  0.29999968721E+02 0.  0.
        -12    1    1    2    0    0 -0.20886842866E+02 -0.84848241035E+01  0.33836578869E+02  0.40659150441E+02  0.00000000000E+00 0.  1.
         11    1    3    3    0    0 -0.27698337208E+01 -0.40756186434E+01 -0.13310100523E+01  0.51043348429E+01  0.51100000000E-03 0. -1.
        -11    1    3    3    0    0  0.51542251142E+01 -0.10570469700E+01  0.41797573165E+00  0.52780762403E+01  0.51100000000E-03 0.  1.
         12    1    3    3    0    0  0.18502451473E+02  0.13617489717E+02 -0.32923544549E+02  0.40146438476E+02  0.00000000000E+00 0. -1.
</event>
<event>
 7    1  0.5935282E-013  0.5052885E+02  0.7816164E-02  0.1300439E+00
        -11   -1    0    0    0    0  0.00000000000E+00  0.00000000000E+00  0.45593999997E+02  0.45594000000E+02  0.51100000000E-03 0.  1.
         11   -1    0    0    0    0 -0.00000000000E+00 -0.00000000000E+00 -0.45593999997E+02  0.45594000000E+02  0.51100000000E-03 0. -1.
    9900012    2    1    2    0    0 -0.27509422365E+02 -0.10431626458E+02 -0.28063843017E+02  0.50528850546E+02  0.29999971719E+02 0.  0.
        -12    1    1    2    0    0  0.27509422365E+02  0.10431626458E+02  0.28063843017E+02  0.40659149454E+02  0.00000000000E+00 0.  1.
         11    1    3    3    0    0 -0.17039140560E+02 -0.13376525471E+02 -0.13060089070E+02  0.25294854644E+02  0.51100000000E-03 0. -1.
        -11    1    3    3    0    0 -0.78289142282E+00 -0.65966319897E+01 -0.41155734285E+01  0.78145004635E+01  0.51100000000E-03 0.  1.
         12    1    3    3    0    0 -0.96873903829E+01  0.95415310032E+01 -0.10888180518E+02  0.17419495438E+02  0.00000000000E+00 0. -1.
</event>
<event>
 7    1  0.5935282E-013  0.5052886E+02  0.7816164E-02  0.1300439E+00
        -11   -1    0    0    0    0  0.00000000000E+00  0.00000000000E+00  0.45593999997E+02  0.45594000000E+02  0.51100000000E-03 0.  1.
         11   -1    0    0    0    0 -0.00000000000E+00 -0.00000000000E+00 -0.45593999997E+02  0.45594000000E+02  0.51100000000E-03 0. -1.
    9900012    2    1    2    0    0  0.17133485060E+02 -0.16030727409E+02 -0.33205793817E+02  0.50528864808E+02  0.30000015069E+02 0.  0.
        -12    1    1    2    0    0 -0.17133485060E+02  0.16030727409E+02  0.33205793817E+02  0.40659135192E+02  0.00000000000E+00 0.  1.
         11    1    3    3    0    0  0.50593642038E+01 -0.13025328771E+02 -0.29753943699E+02  0.32871773935E+02  0.51100000000E-03 0. -1.
        -11    1    3    3    0    0  0.64557545909E+01 -0.74956013434E+01 -0.56960909556E+00  0.99088476434E+01  0.51100000000E-03 0.  1.
        -12    1    3    3    0    0  0.56183662655E+01  0.44902027052E+01 -0.28822410230E+01  0.77482432294E+01  0.00000000000E+00 0.  1.
</event>
<event>
 7    1  0.5935282E-013  0.5052886E+02  0.7816164E-02  0.1300439E+00
        -11   -1    0    0    0    0  0.00000000000E+00  0.00000000000E+00  0.45593999997E+02  0.45594000000E+02  0.51100000000E-03 0.  1.
         11   -1    0    0    0    0 -0.00000000000E+00 -0.00000000000E+00 -0.45593999997E+02  0.45594000000E+02  0.51100000000E-03 0. -1.
    9900012    2    1    2    0    0 -0.22815608327E+02  0.25105344015E+02 -0.22412843662E+02  0.50528857824E+02  0.29999993842E+02 0.  0.
        -12    1    1    2    0    0  0.22815608327E+02 -0.25105344015E+02  0.22412843662E+02  0.40659142176E+02  0.00000000000E+00 0.  1.
         11    1    3    3    0    0 -0.50867505649E+01  0.20744813794E+01 -0.67902057953E+01  0.87341513215E+01  0.51100000000E-03 0. -1.
        -11    1    3    3    0    0 -0.23953226332E+02  0.14572561207E+02 -0.13332089295E+02  0.31046114041E+02  0.51100000000E-03 0.  1.
         12    1    3    3    0    0  0.62243685694E+01  0.84583014282E+01 -0.22905485726E+01  0.10748592461E+02  0.00000000000E+00 0. -1.
</event>
<event>
 7    1  0.5935282E-013  0.5052887E+02  0.7816164E-02  0.1300439E+00
        -11   -1    0    0    0    0  0.00000000000E+00  0.00000000000E+00  0.45593999997E+02  0.45594000000E+02  0.51100000000E-03 0.  1.
         11   -1    0    0    0    0 -0.00000000000E+00 -0.00000000000E+00 -0.45593999997E+02  0.45594000000E+02  0.51100000000E-03 0. -1.
    9900012    2    1    2    0    0  0.24934627012E+02 -0.11249792082E+02 -0.30081082698E+02  0.50528868401E+02  0.30000025990E+02 0.  0.
        -12    1    1    2    0    0 -0.24934627012E+02  0.11249792082E+02  0.30081082698E+02  0.40659131599E+02  0.00000000000E+00 0.  1.
         11    1    3    3    0    0  0.18457175466E+02 -0.15229597759E+02 -0.22207282153E+02  0.32646153754E+02  0.51100000000E-03 0. -1.
        -11    1    3    3    0    0 -0.14801557712E+01 -0.18179053435E+01  0.26047691940E+01  0.35043492634E+01  0.51100000000E-03 0.  1.
        -12    1    3    3    0    0  0.79576073176E+01  0.57977110205E+01 -0.10478569739E+02  0.14378365383E+02  0.00000000000E+00 0.  1.
</event>
<event>
 7    1  0.5935282E-013  0.5052886E+02  0.7816164E-02  0.1300439E+00
        -11   -1    0    0    0    0  0.00000000000E+00  0.00000000000E+00  0.45593999997E+02  0.45594000000E+02  0.51100000000E-03 0.  1.
         11   -1    0    0    0    0 -0.00000000000E+00 -0.00000000000E+00 -0.45593999997E+02  0.45594000000E+02  0.51100000000E-03 0. -1.
    9900012    2    1    2    0    0  0.17782567301E+02 -0.35507570151E+02  0.87268879125E+01  0.50528858218E+02  0.29999995039E+02 0.  0.
        -12    1    1    2    0    0 -0.17782567301E+02  0.35507570151E+02 -0.87268879125E+01  0.40659141782E+02  0.00000000000E+00 0.  1.
         11    1    3    3    0    0  0.53358152710E+01 -0.10718587635E+01 -0.17881278645E+01  0.57286304939E+01  0.51100000000E-03 0. -1.
        -11    1    3    3    0    0 -0.21032920778E+01  0.22494315642E+01 -0.16615677720E+01  0.34992267215E+01  0.51100000000E-03 0.  1.
        -12    1    3    3    0    0  0.14550044108E+02 -0.36685142951E+02  0.12176583549E+02  0.41301001003E+02  0.00000000000E+00 0.  1.
</event>
<event>
 7    1  0.5935282E-013  0.5052887E+02  0.7816164E-02  0.1300439E+00
        -11   -1    0    0    0    0  0.00000000000E+00  0.00000000000E+00  0.45593999997E+02  0.45594000000E+02  0.51100000000E-03 0.  1.
         11   -1    0    0    0    0 -0.00000000000E+00 -0.00000000000E+00 -0.45593999997E+02  0.45594000000E+02  0.51100000000E-03 0. -1.
    9900012    2    1    2    0    0  0.34094137183E+02 -0.51934545839E+01 -0.21535605790E+02  0.50528874610E+02  0.30000044864E+02 0.  0.
        -12    1    1    2    0    0 -0.34094137183E+02  0.51934545839E+01  0.21535605790E+02  0.40659125390E+02  0.00000000000E+00 0.  1.
         11    1    3    3    0    0  0.21290192109E+01  0.22446064772E+01 -0.19592161387E+01  0.36618996679E+01  0.51100000000E-03 0. -1.
        -11    1    3    3    0    0  0.25377419148E+02  0.49182982820E+01 -0.20266625839E+02  0.32847209680E+02  0.51100000000E-03 0.  1.
         12    1    3    3    0    0  0.65876988237E+01 -0.12356359343E+02  0.69023618766E+00  0.14019765262E+02  0.00000000000E+00 0. -1.
</event>
<event>
 7    1  0.5935282E-013  0.5052886E+02  0.7816164E-02  0.1300439E+00
        -11   -1    0    0    0    0  0.00000000000E+00  0.00000000000E+00  0.45593999997E+02  0.45594000000E+02  0.51100000000E-03 0.  1.
         11   -1    0    0    0    0 -0.00000000000E+00 -0.00000000000E+00 -0.45593999997E+02  0.45594000000E+02  0.51100000000E-03 0. -1.
    9900012    2    1    2    0    0 -0.24094670730E+02 -0.32483827630E+02 -0.41729340652E+01  0.50528860882E+02  0.30000003138E+02 0.  0.
        -12    1    1    2    0    0  0.24094670730E+02  0.32483827630E+02  0.41729340652E+01  0.40659139118E+02  0.00000000000E+00 0.  1.
         11    1    3    3    0    0  0.16178056334E+01 -0.42207194658E+01 -0.15646324562E+01  0.47832878714E+01  0.51100000000E-03 0. -1.
        -11    1    3    3    0    0  0.50016362707E+01 -0.34286429650E+01  0.72402565897E+00  0.61070591435E+01  0.51100000000E-03 0.  1.
         12    1    3    3    0    0 -0.30714112634E+02 -0.24834465199E+02 -0.33323272680E+01  0.39638513868E+02  0.00000000000E+00 0. -1.
</event>
<event>
 7    1  0.5935282E-013  0.5052886E+02  0.7816164E-02  0.1300439E+00
        -11   -1    0    0    0    0  0.00000000000E+00  0.00000000000E+00  0.45593999997E+02  0.45594000000E+02  0.51100000000E-03 0.  1.
         11   -1    0    0    0    0 -0.00000000000E+00 -0.00000000000E+00 -0.45593999997E+02  0.45594000000E+02  0.51100000000E-03 0. -1.
    9900012    2    1    2    0    0 -0.15356416443E+02  0.20929323372E+02 -0.31293922740E+02  0.50528859536E+02  0.29999999047E+02 0.  0.
        -12    1    1    2    0    0  0.15356416443E+02 -0.20929323372E+02  0.31293922740E+02  0.40659140464E+02  0.00000000000E+00 0.  1.
         11    1    3    3    0    0  0.13214181091E+01  0.58681438590E+00 -0.30165493116E+01  0.33451557442E+01  0.51100000000E-03 0. -1.
        -11    1    3    3    0    0  0.52314736643E+01  0.28901947961E+01  0.16425076290E+01  0.61983364084E+01  0.51100000000E-03 0.  1.
         12    1    3    3    0    0 -0.21909308216E+02  0.17452314190E+02 -0.29919881057E+02  0.40985367384E+02  0.00000000000E+00 0. -1.
</event>
<event>
 7    1  0.5935282E-013  0.5052886E+02  0.7816164E-02  0.1300439E+00
        -11   -1    0    0    0    0  0.00000000000E+00  0.00000000000E+00  0.45593999997E+02  0.45594000000E+02  0.51100000000E-03 0.  1.
         11   -1    0    0    0    0 -0.00000000000E+00 -0.00000000000E+00 -0.45593999997E+02  0.45594000000E+02  0.51100000000E-03 0. -1.
    9900012    2    1    2    0    0  0.31660333255E+02  0.10227434828E+02 -0.23370681197E+02  0.50528857552E+02  0.29999993016E+02 0.  0.
        -12    1    1    2    0    0 -0.31660333255E+02 -0.10227434828E+02  0.23370681197E+02  0.40659142448E+02  0.00000000000E+00 0.  1.
         11    1    3    3    0    0  0.74957821611E+01  0.29897633278E+00 -0.46986013416E+00  0.75164423673E+01  0.51100000000E-03 0. -1.
        -11    1    3    3    0    0  0.24931178574E+02  0.41806797076E+00 -0.97683574012E+01  0.26779829209E+02  0.51100000000E-03 0.  1.
         12    1    3    3    0    0 -0.76662748035E+00  0.95103905244E+01 -0.13132463662E+02  0.16232585976E+02  0.00000000000E+00 0. -1.
</event>
<event>
 7    1  0.5935282E-013  0.5052886E+02  0.7816164E-02  0.1300439E+00
        -11   -1    0    0    0    0  0.00000000000E+00  0.00000000000E+00  0.45593999997E+02  0.45594000000E+02  0.51100000000E-03 0.  1.
         11   -1    0    0    0    0 -0.00000000000E+00 -0.00000000000E+00 -0.45593999997E+02  0.45594000000E+02  0.51100000000E-03 0. -1.
    9900012    2    1    2    0    0 -0.11632889564E+01  0.32493021553E+02 -0.24413445678E+02  0.50528855632E+02  0.29999987181E+02 0.  0.
        -12    1    1    2    0    0  0.11632889564E+01 -0.32493021553E+02  0.24413445678E+02  0.40659144368E+02  0.00000000000E+00 0.  1.
         11    1    3    3    0    0 -0.23114378094E+01  0.26582684250E+02 -0.43954650741E+01  0.27042595293E+02  0.51100000000E-03 0. -1.
        -11    1    3    3    0    0  0.62484740569E-01  0.89308391172E+01 -0.16196517766E+02  0.18495701654E+02  0.51100000000E-03 0.  1.
        -12    1    3    3    0    0  0.10856641124E+01 -0.30205018142E+01 -0.38214628376E+01  0.49905586856E+01  0.00000000000E+00 0.  1.
</event>
<event>
 7    1  0.5935282E-013  0.5052885E+02  0.7816164E-02  0.1300439E+00
        -11   -1    0    0    0    0  0.00000000000E+00  0.00000000000E+00  0.45593999997E+02  0.45594000000E+02  0.51100000000E-03 0. -1.
         11   -1    0    0    0    0 -0.00000000000E+00 -0.00000000000E+00 -0.45593999997E+02  0.45594000000E+02  0.51100000000E-03 0.  1.
    9900012    2    1    2    0    0 -0.13314980785E+02 -0.37251069920E+02 -0.93933649345E+01  0.50528853080E+02  0.29999979422E+02 0.  0.
        -12    1    1    2    0    0  0.13314980785E+02  0.37251069920E+02  0.93933649345E+01  0.40659146920E+02  0.00000000000E+00 0.  1.
         11    1    3    3    0    0  0.53322965788E+01 -0.10913337667E+02 -0.49498130487E+01  0.13116210403E+02  0.51100000000E-03 0. -1.
        -11    1    3    3    0    0  0.19982790174E+01 -0.91815918793E+01 -0.48324946832E+01  0.10566350060E+02  0.51100000000E-03 0.  1.
         12    1    3    3    0    0 -0.20645556381E+02 -0.17156140373E+02  0.38894279737E+00  0.26846292617E+02  0.00000000000E+00 0. -1.
</event>
<event>
 7    1  0.5935282E-013  0.5052885E+02  0.7816164E-02  0.1300439E+00
        -11   -1    0    0    0    0  0.00000000000E+00  0.00000000000E+00  0.45593999997E+02  0.45594000000E+02  0.51100000000E-03 0. -1.
         11   -1    0    0    0    0 -0.00000000000E+00 -0.00000000000E+00 -0.45593999997E+02  0.45594000000E+02  0.51100000000E-03 0.  1.
    9900012    2    1    2    0    0  0.59935305327E+01 -0.22979653075E+02  0.33002727034E+02  0.50528845368E+02  0.29999955981E+02 0.  0.
        -12    1    1    2    0    0 -0.59935305327E+01  0.22979653075E+02 -0.33002727034E+02  0.40659154632E+02  0.00000000000E+00 0.  1.
         11    1    3    3    0    0  0.29813518351E+01 -0.89667050284E+01  0.54030215610E+01  0.10884985075E+02  0.51100000000E-03 0. -1.
        -11    1    3    3    0    0  0.55700053346E+01 -0.69761895270E+01 -0.19692784096E+01  0.91416758563E+01  0.51100000000E-03 0.  1.
        -12    1    3    3    0    0 -0.25578266371E+01 -0.70367585194E+01  0.29568983883E+02  0.30502184437E+02  0.00000000000E+00 0.  1.
</event>
<event>
 7    1  0.5935282E-013  0.5052886E+02  0.7816164E-02  0.1300439E+00
        -11   -1    0    0    0    0  0.00000000000E+00  0.00000000000E+00  0.45593999997E+02  0.45594000000E+02  0.51100000000E-03 0.  1.
         11   -1    0    0    0    0 -0.00000000000E+00 -0.00000000000E+00 -0.45593999997E+02  0.45594000000E+02  0.51100000000E-03 0. -1.
    9900012    2    1    2    0    0 -0.32424512332E+02  0.23322898946E+02 -0.76065325066E+01  0.50528856478E+02  0.29999989751E+02 0.  0.
        -12    1    1    2    0    0  0.32424512332E+02 -0.23322898946E+02  0.76065325066E+01  0.40659143522E+02  0.00000000000E+00 0.  1.
         11    1    3    3    0    0 -0.96638787502E+01  0.11061210867E+02  0.16445200362E+01  0.14779897996E+02  0.51100000000E-03 0. -1.
        -11    1    3    3    0    0 -0.13416801030E+02  0.18796124532E+02 -0.54241283656E+01  0.23721846810E+02  0.51100000000E-03 0.  1.
        -12    1    3    3    0    0 -0.93438325509E+01 -0.65344364538E+01 -0.38269241773E+01  0.12027111672E+02  0.00000000000E+00 0.  1.
</event>
<event>
 7    1  0.5935282E-013  0.5052887E+02  0.7816164E-02  0.1300439E+00
        -11   -1    0    0    0    0  0.00000000000E+00  0.00000000000E+00  0.45593999997E+02  0.45594000000E+02  0.51100000000E-03 0.  1.
         11   -1    0    0    0    0 -0.00000000000E+00 -0.00000000000E+00 -0.45593999997E+02  0.45594000000E+02  0.51100000000E-03 0. -1.
    9900012    2    1    2    0    0 -0.14924998937E+02 -0.10507483960E+02 -0.36331831922E+02  0.50528870358E+02  0.30000031942E+02 0.  0.
        -12    1    1    2    0    0  0.14924998937E+02  0.10507483960E+02  0.36331831922E+02  0.40659129642E+02  0.00000000000E+00 0.  1.
         11    1    3    3    0    0 -0.11893404693E+01  0.54976614468E+01 -0.20168909898E+01  0.59755051386E+01  0.51100000000E-03 0. -1.
        -11    1    3    3    0    0 -0.30518137375E+01 -0.29771698094E+01  0.18567153012E+01  0.46502149556E+01  0.51100000000E-03 0.  1.
         12    1    3    3    0    0 -0.10683844730E+02 -0.13027975597E+02 -0.36171656233E+02  0.39903150264E+02  0.00000000000E+00 0. -1.
</event>
<event>
 7    1  0.5935282E-013  0.5052886E+02  0.7816164E-02  0.1300439E+00
        -11   -1    0    0    0    0  0.00000000000E+00  0.00000000000E+00  0.45593999997E+02  0.45594000000E+02  0.51100000000E-03 0. -1.
         11   -1    0    0    0    0 -0.00000000000E+00 -0.00000000000E+00 -0.45593999997E+02  0.45594000000E+02  0.51100000000E-03 0.  1.
    9900012    2    1    2    0    0  0.98834720563E+01  0.30740512924E+01  0.39319623830E+02  0.50528860444E+02  0.30000001807E+02 0.  0.
        -12    1    1    2    0    0 -0.98834720563E+01 -0.30740512924E+01 -0.39319623830E+02  0.40659139556E+02  0.00000000000E+00 0.  1.
         11    1    3    3    0    0 -0.87635352899E+00 -0.12442050017E+02  0.17677531421E+02  0.21634872811E+02  0.51100000000E-03 0. -1.
        -11    1    3    3    0    0  0.26928248656E+01  0.56117353003E+01  0.88171683246E+01  0.10792837271E+02  0.51100000000E-03 0.  1.
        -12    1    3    3    0    0  0.80670007197E+01  0.99043660095E+01  0.12824924085E+02  0.18101150363E+02  0.00000000000E+00 0.  1.
</event>
<event>
 7    1  0.5935282E-013  0.5052886E+02  0.7816164E-02  0.1300439E+00
        -11   -1    0    0    0    0  0.00000000000E+00  0.00000000000E+00  0.45593999997E+02  0.45594000000E+02  0.51100000000E-03 0.  1.
         11   -1    0    0    0    0 -0.00000000000E+00 -0.00000000000E+00 -0.45593999997E+02  0.45594000000E+02  0.51100000000E-03 0. -1.
    9900012    2    1    2    0    0  0.46514912618E+01 -0.27599155160E+01 -0.40297793627E+02  0.50528859874E+02  0.30000000072E+02 0.  0.
        -12    1    1    2    0    0 -0.46514912618E+01  0.27599155160E+01  0.40297793627E+02  0.40659140126E+02  0.00000000000E+00 0.  1.
         11    1    3    3    0    0  0.10037372248E+02 -0.66858116642E+01 -0.20951455572E+02  0.24174623267E+02  0.51100000000E-03 0. -1.
        -11    1    3    3    0    0 -0.47781021830E+01 -0.43140982177E+01 -0.13867013966E+01  0.65851837429E+01  0.51100000000E-03 0.  1.
        -12    1    3    3    0    0 -0.60777880312E+00  0.82399943659E+01 -0.17959636658E+02  0.19769052863E+02  0.00000000000E+00 0.  1.
</event>
<event>
 7    1  0.5935282E-013  0.5052886E+02  0.7816164E-02  0.1300439E+00
        -11   -1    0    0    0    0  0.00000000000E+00  0.00000000000E+00  0.45593999997E+02  0.45594000000E+02  0.51100000000E-03 0.  1.
         11   -1    0    0    0    0 -0.00000000000E+00 -0.00000000000E+00 -0.45593999997E+02  0.45594000000E+02  0.51100000000E-03 0. -1.
    9900012    2    1    2    0    0  0.40598690972E+02  0.15705532399E+01 -0.15636680330E+01  0.50528863218E+02  0.30000010239E+02 0.  0.
        -12    1    1    2    0    0 -0.40598690972E+02 -0.15705532399E+01  0.15636680330E+01  0.40659136782E+02  0.00000000000E+00 0.  1.
         11    1    3    3    0    0  0.13199795991E+02  0.20410240490E+01 -0.88173656203E+01  0.16004572163E+02  0.51100000000E-03 0. -1.
        -11    1    3    3    0    0  0.19027073258E+01  0.22117154813E+01  0.83691985856E+01  0.88631521348E+01  0.51100000000E-03 0.  1.
         12    1    3    3    0    0  0.25496187655E+02 -0.26821862904E+01 -0.11155009983E+01  0.25661138921E+02  0.00000000000E+00 0. -1.
</event>
<event>
 7    1  0.5935282E-013  0.5052886E+02  0.7816164E-02  0.1300439E+00
        -11   -1    0    0    0    0  0.00000000000E+00  0.00000000000E+00  0.45593999997E+02  0.45594000000E+02  0.51100000000E-03 0.  1.
         11   -1    0    0    0    0 -0.00000000000E+00 -0.00000000000E+00 -0.45593999997E+02  0.45594000000E+02  0.51100000000E-03 0. -1.
    9900012    2    1    2    0    0 -0.33266517983E+02  0.22632594648E+02  0.58540583884E+01  0.50528861312E+02  0.30000004443E+02 0.  0.
        -12    1    1    2    0    0  0.33266517983E+02 -0.22632594648E+02 -0.58540583884E+01  0.40659138688E+02  0.00000000000E+00 0.  1.
         11    1    3    3    0    0 -0.17630076197E+02  0.30267013189E+01 -0.94913562139E+00  0.17913161817E+02  0.51100000000E-03 0. -1.
        -11    1    3    3    0    0 -0.59932852728E+01 -0.23206256388E+01 -0.25318570438E+01  0.69076097217E+01  0.51100000000E-03 0.  1.
        -12    1    3    3    0    0 -0.96431565134E+01  0.21926518968E+02  0.93350510536E+01  0.25708089773E+02  0.00000000000E+00 0.  1.
</event>
<event>
 7    1  0.5935282E-013  0.5052886E+02  0.7816164E-02  0.1300439E+00
        -11   -1    0    0    0    0  0.00000000000E+00  0.00000000000E+00  0.45593999997E+02  0.45594000000E+02  0.51100000000E-03 0. -1.
         11   -1    0    0    0    0 -0.00000000000E+00 -0.00000000000E+00 -0.45593999997E+02  0.45594000000E+02  0.51100000000E-03 0.  1.
    9900012    2    1    2    0    0 -0.28170260012E+00  0.40439531479E+02  0.42107864232E+01  0.50528858532E+02  0.29999995994E+02 0.  0.
        -12    1    1    2    0    0  0.28170260012E+00 -0.40439531479E+02 -0.42107864232E+01  0.40659141468E+02  0.00000000000E+00 0.  1.
         11    1    3    3    0    0 -0.62827762424E+01  0.12151123400E+02 -0.12943865419E+01  0.13740397155E+02  0.51100000000E-03 0. -1.
        -11    1    3    3    0    0 -0.64340188691E+01  0.62055595704E+01 -0.39047036018E+01  0.97546029580E+01  0.51100000000E-03 0.  1.
         12    1    3    3    0    0  0.12435092511E+02  0.22082848508E+02  0.94098765669E+01  0.27033858419E+02  0.00000000000E+00 0. -1.
</event>
<event>
 7    1  0.5935282E-013  0.5052886E+02  0.7816164E-02  0.1300439E+00
        -11   -1    0    0    0    0  0.00000000000E+00  0.00000000000E+00  0.45593999997E+02  0.45594000000E+02  0.51100000000E-03 0.  1.
         11   -1    0    0    0    0 -0.00000000000E+00 -0.00000000000E+00 -0.45593999997E+02  0.45594000000E+02  0.51100000000E-03 0. -1.
    9900012    2    1    2    0    0  0.92738534408E+01  0.33837627873E+02 -0.20546928984E+02  0.50528859473E+02  0.29999998854E+02 0.  0.
        -12    1    1    2    0    0 -0.92738534408E+01 -0.33837627873E+02  0.20546928984E+02  0.40659140527E+02  0.00000000000E+00 0.  1.
         11    1    3    3    0    0  0.45496291481E+01  0.72304533732E+00 -0.42531478357E+01  0.62698633732E+01  0.51100000000E-03 0. -1.
        -11    1    3    3    0    0  0.11913353258E+02  0.84598467220E+01 -0.10329517002E+02  0.17894018949E+02  0.51100000000E-03 0.  1.
         12    1    3    3    0    0 -0.71891289650E+01  0.24654735814E+02 -0.59642641459E+01  0.26364977150E+02  0.00000000000E+00 0. -1.
</event>
<event>
 7    1  0.5935282E-013  0.5052884E+02  0.7816164E-02  0.1300439E+00
        -11   -1    0    0    0    0  0.00000000000E+00  0.00000000000E+00  0.45593999997E+02  0.45594000000E+02  0.51100000000E-03 0.  1.
         11   -1    0    0    0    0 -0.00000000000E+00 -0.00000000000E+00 -0.45593999997E+02  0.45594000000E+02  0.51100000000E-03 0. -1.
    9900012    2    1    2    0    0 -0.38769034509E+02  0.18972629583E+01 -0.12104941564E+02  0.50528840469E+02  0.29999941091E+02 0.  0.
        -12    1    1    2    0    0  0.38769034509E+02 -0.18972629583E+01  0.12104941564E+02  0.40659159531E+02  0.00000000000E+00 0.  1.
         11    1    3    3    0    0 -0.24952285408E+01 -0.70068079154E+00 -0.45352761742E+01  0.52235858641E+01  0.51100000000E-03 0. -1.
        -11    1    3    3    0    0 -0.35797489886E+02 -0.25136925177E+01 -0.12681523182E+02  0.38060477699E+02  0.51100000000E-03 0.  1.
        -12    1    3    3    0    0 -0.47631608204E+00  0.51116362675E+01  0.51118577917E+01  0.72447769065E+01  0.00000000000E+00 0.  1.
</event>
<event>
 7    1  0.5935282E-013  0.5052886E+02  0.7816164E-02  0.1300439E+00
        -11   -1    0    0    0    0  0.00000000000E+00  0.00000000000E+00  0.45593999997E+02  0.45594000000E+02  0.51100000000E-03 0.  1.
         11   -1    0    0    0    0 -0.00000000000E+00 -0.00000000000E+00 -0.45593999997E+02  0.45594000000E+02  0.51100000000E-03 0. -1.
    9900012    2    1    2    0    0 -0.20010166344E+01 -0.20125956125E+02 -0.35271909197E+02  0.50528858889E+02  0.29999997078E+02 0.  0.
        -12    1    1    2    0    0  0.20010166344E+01  0.20125956125E+02  0.35271909197E+02  0.40659141111E+02  0.00000000000E+00 0.  1.
         11    1    3    3    0    0  0.36048882765E+01 -0.99907844557E+01 -0.69026583928E-01  0.10621476284E+02  0.51100000000E-03 0. -1.
        -11    1    3    3    0    0  0.46642732204E+01 -0.46874007615E+01 -0.83901496967E+01  0.10682779730E+02  0.51100000000E-03 0.  1.
        -12    1    3    3    0    0 -0.10270178131E+02 -0.54477709079E+01 -0.26812732916E+02  0.29224602874E+02  0.00000000000E+00 0.  1.
</event>
<event>
 7    1  0.5935282E-013  0.5052885E+02  0.7816164E-02  0.1300439E+00
        -11   -1    0    0    0    0  0.00000000000E+00  0.00000000000E+00  0.45593999997E+02  0.45594000000E+02  0.51100000000E-03 0.  1.
         11   -1    0    0    0    0 -0.00000000000E+00 -0.00000000000E+00 -0.45593999997E+02  0.45594000000E+02  0.51100000000E-03 0. -1.
    9900012    2    1    2    0    0  0.32471993625E+02  0.13864642464E+01 -0.24429777059E+02  0.50528847768E+02  0.29999963274E+02 0.  0.
        -12    1    1    2    0    0 -0.32471993625E+02 -0.13864642464E+01  0.24429777059E+02  0.40659152232E+02  0.00000000000E+00 0.  1.
         11    1    3    3    0    0  0.22740183222E+02  0.88210728782E+00 -0.18612684884E+02  0.29399423210E+02  0.51100000000E-03 0.  1.
        -11    1    3    3    0    0  0.83951392741E+01  0.85014219343E+01 -0.50964076747E+01  0.12989453791E+02  0.51100000000E-03 0. -1.
        -12    1    3    3    0    0  0.13366711290E+01 -0.79970649757E+01 -0.72068450073E+00  0.81399707667E+01  0.00000000000E+00 0.  1.
</event>
<event>
 7    1  0.5935282E-013  0.5052886E+02  0.7816164E-02  0.1300439E+00
        -11   -1    0    0    0    0  0.00000000000E+00  0.00000000000E+00  0.45593999997E+02  0.45594000000E+02  0.51100000000E-03 0.  1.
         11   -1    0    0    0    0 -0.00000000000E+00 -0.00000000000E+00 -0.45593999997E+02  0.45594000000E+02  0.51100000000E-03 0. -1.
    9900012    2    1    2    0    0  0.40256924458E+02  0.40772398330E+01 -0.39902191320E+01  0.50528859574E+02  0.29999999161E+02 0.  0.
        -12    1    1    2    0    0 -0.40256924458E+02 -0.40772398330E+01  0.39902191320E+01  0.40659140426E+02  0.00000000000E+00 0.  1.
         11    1    3    3    0    0  0.19983304617E+01 -0.37772134591E+01 -0.17284442742E+01  0.46095754707E+01  0.51100000000E-03 0. -1.
        -11    1    3    3    0    0  0.14164072420E+02 -0.53743017866E+01  0.72999914364E+01  0.16816478301E+02  0.51100000000E-03 0.  1.
         12    1    3    3    0    0  0.24094521576E+02  0.13228755079E+02 -0.95617662942E+01  0.29102805803E+02  0.00000000000E+00 0. -1.
</event>
<event>
 7    1  0.5935282E-013  0.5052886E+02  0.7816164E-02  0.1300439E+00
        -11   -1    0    0    0    0  0.00000000000E+00  0.00000000000E+00  0.45593999997E+02  0.45594000000E+02  0.51100000000E-03 0. -1.
         11   -1    0    0    0    0 -0.00000000000E+00 -0.00000000000E+00 -0.45593999997E+02  0.45594000000E+02  0.51100000000E-03 0.  1.
    9900012    2    1    2    0    0 -0.94513995717E+01 -0.37392511303E+02  0.12869995284E+02  0.50528860387E+02  0.30000001634E+02 0.  0.
        -12    1    1    2    0    0  0.94513995717E+01  0.37392511303E+02 -0.12869995284E+02  0.40659139613E+02  0.00000000000E+00 0.  1.
         11    1    3    3    0    0 -0.30411136550E+01  0.10522787735E+01 -0.50063796930E+01  0.59514284648E+01  0.51100000000E-03 0.  1.
        -11    1    3    3    0    0  0.21052868887E+01 -0.99006261091E+01  0.88694846420E+01  0.13458171804E+02  0.51100000000E-03 0. -1.
        -12    1    3    3    0    0 -0.85155728054E+01 -0.28544163968E+02  0.90068903351E+01  0.31119260118E+02  0.00000000000E+00 0.  1.
</event>
<event>
 7    1  0.5935282E-013  0.5052886E+02  0.7816164E-02  0.1300439E+00
        -11   -1    0    0    0    0  0.00000000000E+00  0.00000000000E+00  0.45593999997E+02  0.45594000000E+02  0.51100000000E-03 0.  1.
         11   -1    0    0    0    0 -0.00000000000E+00 -0.00000000000E+00 -0.45593999997E+02  0.45594000000E+02  0.51100000000E-03 0. -1.
    9900012    2    1    2    0    0  0.23336919000E+02  0.12356778337E+02 -0.30917052798E+02  0.50528856957E+02  0.29999991206E+02 0.  0.
        -12    1    1    2    0    0 -0.23336919000E+02 -0.12356778337E+02  0.30917052798E+02  0.40659143043E+02  0.00000000000E+00 0.  1.
         11    1    3    3    0    0  0.13132793464E+02  0.68740975218E+01 -0.17182804436E+02  0.22693000010E+02  0.51100000000E-03 0. -1.
        -11    1    3    3    0    0  0.10110465827E+02  0.91657658119E+01 -0.31808443282E-01  0.13646750316E+02  0.51100000000E-03 0.  1.
        -12    1    3    3    0    0  0.93659708644E-01 -0.36830849972E+01 -0.13702439919E+02  0.14189106631E+02  0.00000000000E+00 0.  1.
</event>
<event>
 7    1  0.5935282E-013  0.5052886E+02  0.7816164E-02  0.1300439E+00
        -11   -1    0    0    0    0  0.00000000000E+00  0.00000000000E+00  0.45593999997E+02  0.45594000000E+02  0.51100000000E-03 0.  1.
         11   -1    0    0    0    0 -0.00000000000E+00 -0.00000000000E+00 -0.45593999997E+02  0.45594000000E+02  0.51100000000E-03 0. -1.
    9900012    2    1    2    0    0 -0.56260164781E+01 -0.39436195459E+02 -0.81424885390E+01  0.50528859659E+02  0.29999999419E+02 0.  0.
        -12    1    1    2    0    0  0.56260164781E+01  0.39436195459E+02  0.81424885390E+01  0.40659140341E+02  0.00000000000E+00 0.  1.
         11    1    3    3    0    0 -0.54326898093E+01 -0.16598459762E+02 -0.83444421369E+01  0.19355947403E+02  0.51100000000E-03 0. -1.
        -11    1    3    3    0    0  0.20067519823E+01 -0.21950749719E+02 -0.73671055857E+01  0.23240841459E+02  0.51100000000E-03 0.  1.
        -12    1    3    3    0    0 -0.22000786511E+01 -0.88698597747E+00  0.75690591837E+01  0.79320707966E+01  0.00000000000E+00 0.  1.
</event>
<event>
 7    1  0.5935282E-013  0.5052888E+02  0.7816164E-02  0.1300439E+00
        -11   -1    0    0    0    0  0.00000000000E+00  0.00000000000E+00  0.45593999997E+02  0.45594000000E+02  0.51100000000E-03 0. -1.
         11   -1    0    0    0    0 -0.00000000000E+00 -0.00000000000E+00 -0.45593999997E+02  0.45594000000E+02  0.51100000000E-03 0.  1.
    9900012    2    1    2    0    0 -0.11790632009E+02  0.14041103382E+02  0.36290394630E+02  0.50528876426E+02  0.30000050385E+02 0.  0.
        -12    1    1    2    0    0  0.11790632009E+02 -0.14041103382E+02 -0.36290394630E+02  0.40659123574E+02  0.00000000000E+00 0.  1.
         11    1    3    3    0    0  0.19439511673E+00  0.66965696099E+00  0.84593668924E+01  0.84880573978E+01  0.51100000000E-03 0. -1.
        -11    1    3    3    0    0  0.38212232041E+00 -0.73557532119E+01  0.61167488226E+01  0.95743270888E+01  0.51100000000E-03 0.  1.
         12    1    3    3    0    0 -0.12367149446E+02  0.20727199633E+02  0.21714278915E+02  0.32466491940E+02  0.00000000000E+00 0. -1.
</event>
<event>
 7    1  0.5935282E-013  0.5052886E+02  0.7816164E-02  0.1300439E+00
        -11   -1    0    0    0    0  0.00000000000E+00  0.00000000000E+00  0.45593999997E+02  0.45594000000E+02  0.51100000000E-03 0.  1.
         11   -1    0    0    0    0 -0.00000000000E+00 -0.00000000000E+00 -0.45593999997E+02  0.45594000000E+02  0.51100000000E-03 0. -1.
    9900012    2    1    2    0    0 -0.25805705809E+02 -0.68143570302E+01 -0.30672391478E+02  0.50528861876E+02  0.30000006159E+02 0.  0.
        -12    1    1    2    0    0  0.25805705809E+02  0.68143570302E+01  0.30672391478E+02  0.40659138124E+02  0.00000000000E+00 0.  1.
         11    1    3    3    0    0 -0.10594293422E+02 -0.91123368901E+01 -0.14117785938E+02  0.19864179237E+02  0.51100000000E-03 0. -1.
        -11    1    3    3    0    0 -0.14764661750E+01 -0.20985025854E+01  0.44790240160E+01  0.51619106795E+01  0.51100000000E-03 0.  1.
        -12    1    3    3    0    0 -0.13734946211E+02  0.43964824453E+01 -0.21033629556E+02  0.25502771959E+02  0.00000000000E+00 0.  1.
</event>
<event>
 7    1  0.5935282E-013  0.5052887E+02  0.7816164E-02  0.1300439E+00
        -11   -1    0    0    0    0  0.00000000000E+00  0.00000000000E+00  0.45593999997E+02  0.45594000000E+02  0.51100000000E-03 0.  1.
         11   -1    0    0    0    0 -0.00000000000E+00 -0.00000000000E+00 -0.45593999997E+02  0.45594000000E+02  0.51100000000E-03 0. -1.
    9900012    2    1    2    0    0  0.22337129418E+02  0.28080701455E+01 -0.33857528915E+02  0.50528869749E+02  0.30000030088E+02 0.  0.
        -12    1    1    2    0    0 -0.22337129418E+02 -0.28080701455E+01  0.33857528915E+02  0.40659130251E+02  0.00000000000E+00 0.  1.
         11    1    3    3    0    0 -0.21222173331E+00  0.27977863495E+01 -0.83007986227E+01  0.87621860604E+01  0.51100000000E-03 0.  1.
        -11    1    3    3    0    0  0.82597892389E+01 -0.21190613205E+01 -0.25948820168E+02  0.27314022178E+02  0.51100000000E-03 0. -1.
        -12    1    3    3    0    0  0.14289561912E+02  0.21293451166E+01  0.39208987551E+00  0.14452661511E+02  0.00000000000E+00 0.  1.
</event>
<event>
 7    1  0.5935282E-013  0.5052887E+02  0.7816164E-02  0.1300439E+00
        -11   -1    0    0    0    0  0.00000000000E+00  0.00000000000E+00  0.45593999997E+02  0.45594000000E+02  0.51100000000E-03 0. -1.
         11   -1    0    0    0    0 -0.00000000000E+00 -0.00000000000E+00 -0.45593999997E+02  0.45594000000E+02  0.51100000000E-03 0.  1.
    9900012    2    1    2    0    0  0.38171379122E+02  0.85514090091E+01  0.11089813622E+02  0.50528871304E+02  0.30000034816E+02 0.  0.
        -12    1    1    2    0    0 -0.38171379122E+02 -0.85514090091E+01 -0.11089813622E+02  0.40659128696E+02  0.00000000000E+00 0.  1.
         11    1    3    3    0    0  0.20322399465E+02 -0.10500905912E+01  0.90159954357E+01  0.22257375951E+02  0.51100000000E-03 0. -1.
        -11    1    3    3    0    0  0.90373634103E+01 -0.28080488370E+01  0.75398630153E+01  0.12099942571E+02  0.51100000000E-03 0.  1.
         12    1    3    3    0    0  0.88116162472E+01  0.12409548437E+02 -0.54660448291E+01  0.16171552782E+02  0.00000000000E+00 0. -1.
</event>
<event>
 7    1  0.5935282E-013  0.5052887E+02  0.7816164E-02  0.1300439E+00
        -11   -1    0    0    0    0  0.00000000000E+00  0.00000000000E+00  0.45593999997E+02  0.45594000000E+02  0.51100000000E-03 0. -1.
         11   -1    0    0    0    0 -0.00000000000E+00 -0.00000000000E+00 -0.45593999997E+02  0.45594000000E+02  0.51100000000E-03 0.  1.
    9900012    2    1    2    0    0 -0.83328548680E+01  0.14486460162E+02  0.37065768924E+02  0.50528865427E+02  0.30000016953E+02 0.  0.
        -12    1    1    2    0    0  0.83328548680E+01 -0.14486460162E+02 -0.37065768924E+02  0.40659134573E+02  0.00000000000E+00 0.  1.
         11    1    3    3    0    0  0.71749069138E+01  0.41925492440E+01  0.19789456610E+02  0.21463442212E+02  0.51100000000E-03 0.  1.
        -11    1    3    3    0    0  0.10964037718E+01  0.13930125864E+01  0.77581071724E+01  0.79580658741E+01  0.51100000000E-03 0. -1.
        -12    1    3    3    0    0 -0.16604165554E+02  0.89008983319E+01  0.95182051412E+01  0.21107357342E+02  0.00000000000E+00 0.  1.
</event>
<event>
 7    1  0.5935282E-013  0.5052885E+02  0.7816164E-02  0.1300439E+00
        -11   -1    0    0    0    0  0.00000000000E+00  0.00000000000E+00  0.45593999997E+02  0.45594000000E+02  0.51100000000E-03 0. -1.
         11   -1    0    0    0    0 -0.00000000000E+00 -0.00000000000E+00 -0.45593999997E+02  0.45594000000E+02  0.51100000000E-03 0.  1.
    9900012    2    1    2    0    0  0.21923493929E+02  0.68492224814E+01  0.33550180949E+02  0.50528854948E+02  0.29999985101E+02 0.  0.
        -12    1    1    2    0    0 -0.21923493929E+02 -0.68492224814E+01 -0.33550180949E+02  0.40659145052E+02  0.00000000000E+00 0.  1.
         11    1    3    3    0    0  0.20258932892E+00  0.10664385607E+01  0.12204738772E+02  0.12252917301E+02  0.51100000000E-03 0. -1.
        -11    1    3    3    0    0 -0.43781425369E+01  0.31181433186E+01  0.51552663479E+01  0.74476654871E+01  0.51100000000E-03 0.  1.
         12    1    3    3    0    0  0.26099047137E+02  0.26646406021E+01  0.16190175829E+02  0.30828272160E+02  0.00000000000E+00 0. -1.
</event>
<event>
 7    1  0.5935282E-013  0.5052886E+02  0.7816164E-02  0.1300439E+00
        -11   -1    0    0    0    0  0.00000000000E+00  0.00000000000E+00  0.45593999997E+02  0.45594000000E+02  0.51100000000E-03 0. -1.
         11   -1    0    0    0    0 -0.00000000000E+00 -0.00000000000E+00 -0.45593999997E+02  0.45594000000E+02  0.51100000000E-03 0.  1.
    9900012    2    1    2    0    0  0.20591768665E+02 -0.19199492553E+02  0.29334689761E+02  0.50528862350E+02  0.30000007600E+02 0.  0.
        -12    1    1    2    0    0 -0.20591768665E+02  0.19199492553E+02 -0.29334689761E+02  0.40659137650E+02  0.00000000000E+00 0.  1.
         11    1    3    3    0    0  0.16803454261E+01 -0.61827918246E+01  0.15985495624E+02  0.17221688248E+02  0.51100000000E-03 0.  1.
        -11    1    3    3    0    0 -0.32718569782E+01 -0.59059357949E+01  0.55536924308E+01  0.87423466859E+01  0.51100000000E-03 0. -1.
         12    1    3    3    0    0  0.22183280218E+02 -0.71107649331E+01  0.77955017061E+01  0.24564827416E+02  0.00000000000E+00 0. -1.
</event>
<event>
 7    1  0.5935282E-013  0.5052884E+02  0.7816164E-02  0.1300439E+00
        -11   -1    0    0    0    0  0.00000000000E+00  0.00000000000E+00  0.45593999997E+02  0.45594000000E+02  0.51100000000E-03 0. -1.
         11   -1    0    0    0    0 -0.00000000000E+00 -0.00000000000E+00 -0.45593999997E+02  0.45594000000E+02  0.51100000000E-03 0.  1.
    9900012    2    1    2    0    0 -0.22299355883E+02 -0.51857942151E+01  0.33600791478E+02  0.50528844544E+02  0.29999953477E+02 0.  0.
        -12    1    1    2    0    0  0.22299355883E+02  0.51857942151E+01 -0.33600791478E+02  0.40659155456E+02  0.00000000000E+00 0.  1.
         11    1    3    3    0    0 -0.39978902651E+01 -0.91726145532E+01  0.71697521429E+01  0.12309562558E+02  0.51100000000E-03 0. -1.
        -11    1    3    3    0    0 -0.87183470366E+01 -0.77035686227E+01  0.69163595597E+01  0.13534791258E+02  0.51100000000E-03 0.  1.
         12    1    3    3    0    0 -0.95831185813E+01  0.11690388961E+02  0.19514679775E+02  0.24684490728E+02  0.00000000000E+00 0. -1.
</event>
<event>
 7    1  0.5935282E-013  0.5052886E+02  0.7816164E-02  0.1300439E+00
        -11   -1    0    0    0    0  0.00000000000E+00  0.00000000000E+00  0.45593999997E+02  0.45594000000E+02  0.51100000000E-03 0.  1.
         11   -1    0    0    0    0 -0.00000000000E+00 -0.00000000000E+00 -0.45593999997E+02  0.45594000000E+02  0.51100000000E-03 0. -1.
    9900012    2    1    2    0    0 -0.32398967947E+02 -0.36325987575E+01 -0.24295614091E+02  0.50528858816E+02  0.29999996856E+02 0.  0.
        -12    1    1    2    0    0  0.32398967947E+02  0.36325987575E+01  0.24295614091E+02  0.40659141184E+02  0.00000000000E+00 0.  1.
         11    1    3    3    0    0 -0.24924592553E+02  0.60115292492E+01 -0.19165754236E+02  0.32010934593E+02  0.51100000000E-03 0. -1.
        -11    1    3    3    0    0 -0.20520442575E+01 -0.26485091573E+01 -0.84302253750E+01  0.90716143285E+01  0.51100000000E-03 0.  1.
        -12    1    3    3    0    0 -0.54223311373E+01 -0.69956188495E+01  0.33003655197E+01  0.94463098940E+01  0.00000000000E+00 0.  1.
</event>
<event>
 7    1  0.5935282E-013  0.5052886E+02  0.7816164E-02  0.1300439E+00
        -11   -1    0    0    0    0  0.00000000000E+00  0.00000000000E+00  0.45593999997E+02  0.45594000000E+02  0.51100000000E-03 0.  1.
         11   -1    0    0    0    0 -0.00000000000E+00 -0.00000000000E+00 -0.45593999997E+02  0.45594000000E+02  0.51100000000E-03 0. -1.
    9900012    2    1    2    0    0  0.26020355924E+02  0.12491250909E+02 -0.28636959237E+02  0.50528859502E+02  0.29999998943E+02 0.  0.
        -12    1    1    2    0    0 -0.26020355924E+02 -0.12491250909E+02  0.28636959237E+02  0.40659140498E+02  0.00000000000E+00 0.  1.
         11    1    3    3    0    0  0.73695014449E+01  0.35025591177E+01 -0.77145328688E+01  0.11229046690E+02  0.51100000000E-03 0. -1.
        -11    1    3    3    0    0  0.21193827965E+02  0.19365771943E+01 -0.52400105031E+01  0.21917718526E+02  0.51100000000E-03 0.  1.
         12    1    3    3    0    0 -0.25429734859E+01  0.70521145966E+01 -0.15682415865E+02  0.17382094287E+02  0.00000000000E+00 0. -1.
</event>
<event>
 7    1  0.5935282E-013  0.5052886E+02  0.7816164E-02  0.1300439E+00
        -11   -1    0    0    0    0  0.00000000000E+00  0.00000000000E+00  0.45593999997E+02  0.45594000000E+02  0.51100000000E-03 0. -1.
         11   -1    0    0    0    0 -0.00000000000E+00 -0.00000000000E+00 -0.45593999997E+02  0.45594000000E+02  0.51100000000E-03 0.  1.
    9900012    2    1    2    0    0 -0.15211648032E+02 -0.21415512743E+02  0.31034615997E+02  0.50528858199E+02  0.29999994983E+02 0.  0.
        -12    1    1    2    0    0  0.15211648032E+02  0.21415512743E+02 -0.31034615997E+02  0.40659141801E+02  0.00000000000E+00 0.  1.
         11    1    3    3    0    0  0.20232606666E+00 -0.10207417278E+01  0.94810794354E+01  0.95380143129E+01  0.51100000000E-03 0. -1.
        -11    1    3    3    0    0 -0.14879196443E+02 -0.12853501921E+01  0.51398769525E+01  0.15794332757E+02  0.51100000000E-03 0.  1.
        -12    1    3    3    0    0 -0.53477765574E+00 -0.19109420823E+02  0.16413659609E+02  0.25196511130E+02  0.00000000000E+00 0.  1.
</event>
<event>
 7    1  0.5935282E-013  0.5052886E+02  0.7816164E-02  0.1300439E+00
        -11   -1    0    0    0    0  0.00000000000E+00  0.00000000000E+00  0.45593999997E+02  0.45594000000E+02  0.51100000000E-03 0. -1.
         11   -1    0    0    0    0 -0.00000000000E+00 -0.00000000000E+00 -0.45593999997E+02  0.45594000000E+02  0.51100000000E-03 0.  1.
    9900012    2    1    2    0    0  0.18039148306E+02 -0.15878290836E+00  0.36438024312E+02  0.50528859584E+02  0.29999999190E+02 0.  0.
        -12    1    1    2    0    0 -0.18039148306E+02  0.15878290836E+00 -0.36438024312E+02  0.40659140416E+02  0.00000000000E+00 0.  1.
         11    1    3    3    0    0  0.15247291256E+02 -0.10747457420E+02  0.14959641130E+02  0.23911892326E+02  0.51100000000E-03 0. -1.
        -11    1    3    3    0    0  0.36485185937E+01  0.48228950969E+01  0.21332487483E+01  0.64127026695E+01  0.51100000000E-03 0.  1.
        -12    1    3    3    0    0 -0.85666154346E+00  0.57657794148E+01  0.19345134434E+02  0.20204264588E+02  0.00000000000E+00 0.  1.
</event>
<event>
 7    1  0.5935282E-013  0.5052884E+02  0.7816164E-02  0.1300439E+00
        -11   -1    0    0    0    0  0.00000000000E+00  0.00000000000E+00  0.45593999997E+02  0.45594000000E+02  0.51100000000E-03 0.  1.
         11   -1    0    0    0    0 -0.00000000000E+00 -0.00000000000E+00 -0.45593999997E+02  0.45594000000E+02  0.51100000000E-03 0. -1.
    9900012    2    1    2    0    0  0.16371950298E+02  0.69924077003E+01 -0.36554517714E+02  0.50528840057E+02  0.29999939837E+02 0.  0.
        -12    1    1    2    0    0 -0.16371950298E+02 -0.69924077003E+01  0.36554517714E+02  0.40659159943E+02  0.00000000000E+00 0.  1.
         11    1    3    3    0    0 -0.29499987835E+01  0.60940108147E+01 -0.63189584071E+01  0.92611390360E+01  0.51100000000E-03 0. -1.
        -11    1    3    3    0    0  0.56068939515E+01 -0.79375764985E+01 -0.42991019457E+01  0.10626601444E+02  0.51100000000E-03 0.  1.
        -12    1    3    3    0    0  0.13715055130E+02  0.88359733840E+01 -0.25936457361E+02  0.30641099577E+02  0.00000000000E+00 0.  1.
</event>
<event>
 7    1  0.5935282E-013  0.5052886E+02  0.7816164E-02  0.1300439E+00
        -11   -1    0    0    0    0  0.00000000000E+00  0.00000000000E+00  0.45593999997E+02  0.45594000000E+02  0.51100000000E-03 0. -1.
         11   -1    0    0    0    0 -0.00000000000E+00 -0.00000000000E+00 -0.45593999997E+02  0.45594000000E+02  0.51100000000E-03 0.  1.
    9900012    2    1    2    0    0  0.31950395090E+01 -0.37281922376E+02 -0.15906461474E+02  0.50528861665E+02  0.30000005516E+02 0.  0.
        -12    1    1    2    0    0 -0.31950395090E+01  0.37281922376E+02  0.15906461474E+02  0.40659138335E+02  0.00000000000E+00 0.  1.
         11    1    3    3    0    0 -0.32386196231E+01 -0.18898991119E+02  0.16262231577E+01  0.19243313759E+02  0.51100000000E-03 0. -1.
        -11    1    3    3    0    0 -0.19353443708E+00 -0.14029936477E+02 -0.24469710188E+01  0.14243041830E+02  0.51100000000E-03 0.  1.
        -12    1    3    3    0    0  0.66271935692E+01 -0.43529947796E+01 -0.15085713613E+02  0.17042506076E+02  0.00000000000E+00 0.  1.
</event>
<event>
 7    1  0.5935282E-013  0.5052887E+02  0.7816164E-02  0.1300439E+00
        -11   -1    0    0    0    0  0.00000000000E+00  0.00000000000E+00  0.45593999997E+02  0.45594000000E+02  0.51100000000E-03 0.  1.
         11   -1    0    0    0    0 -0.00000000000E+00 -0.00000000000E+00 -0.45593999997E+02  0.45594000000E+02  0.51100000000E-03 0. -1.
    9900012    2    1    2    0    0 -0.14064383045E+02  0.36361686612E+02  0.11540595343E+02  0.50528874769E+02  0.30000045348E+02 0.  0.
        -12    1    1    2    0    0  0.14064383045E+02 -0.36361686612E+02 -0.11540595343E+02  0.40659125231E+02  0.00000000000E+00 0.  1.
         11    1    3    3    0    0 -0.13253104921E+01 -0.16641845200E+01  0.36694149614E+01  0.42415285496E+01  0.51100000000E-03 0. -1.
        -11    1    3    3    0    0 -0.32262577991E+01  0.10221965966E+01  0.73334296187E+01  0.80766834470E+01  0.51100000000E-03 0.  1.
         12    1    3    3    0    0 -0.95128147540E+01  0.37003674535E+02  0.53775076248E+00  0.38210662773E+02  0.00000000000E+00 0. -1.
</event>
<event>
 7    1  0.5935282E-013  0.5052885E+02  0.7816164E-02  0.1300439E+00
        -11   -1    0    0    0    0  0.00000000000E+00  0.00000000000E+00  0.45593999997E+02  0.45594000000E+02  0.51100000000E-03 0.  1.
         11   -1    0    0    0    0 -0.00000000000E+00 -0.00000000000E+00 -0.45593999997E+02  0.45594000000E+02  0.51100000000E-03 0. -1.
    9900012    2    1    2    0    0 -0.20022988446E+02 -0.12854389545E+02 -0.32969845786E+02  0.50528854313E+02  0.29999983169E+02 0.  0.
        -12    1    1    2    0    0  0.20022988446E+02  0.12854389545E+02  0.32969845786E+02  0.40659145687E+02  0.00000000000E+00 0.  1.
         11    1    3    3    0    0 -0.49692299798E+01 -0.22622459206E+01 -0.14168851626E+02  0.15184444668E+02  0.51100000000E-03 0. -1.
        -11    1    3    3    0    0 -0.11473431779E+02 -0.78934739313E+01 -0.24446599478E+02  0.28135081194E+02  0.51100000000E-03 0.  1.
        -12    1    3    3    0    0 -0.35803266870E+01 -0.26986696927E+01  0.56456053187E+01  0.72093284507E+01  0.00000000000E+00 0.  1.
</event>
<event>
 7    1  0.5935282E-013  0.5052886E+02  0.7816164E-02  0.1300439E+00
        -11   -1    0    0    0    0  0.00000000000E+00  0.00000000000E+00  0.45593999997E+02  0.45594000000E+02  0.51100000000E-03 0. -1.
         11   -1    0    0    0    0 -0.00000000000E+00 -0.00000000000E+00 -0.45593999997E+02  0.45594000000E+02  0.51100000000E-03 0.  1.
    9900012    2    1    2    0    0 -0.16732197187E+02  0.22503864895E+02  0.29441047164E+02  0.50528860609E+02  0.30000002308E+02 0.  0.
        -12    1    1    2    0    0  0.16732197187E+02 -0.22503864895E+02 -0.29441047164E+02  0.40659139391E+02  0.00000000000E+00 0.  1.
         11    1    3    3    0    0 -0.12582818099E+01  0.36390833239E+01  0.23486441707E+01  0.45102472497E+01  0.51100000000E-03 0. -1.
        -11    1    3    3    0    0 -0.12683764953E+02  0.14576808362E+02  0.91307943096E+00  0.19344119254E+02  0.51100000000E-03 0.  1.
         12    1    3    3    0    0 -0.27901504239E+01  0.42879732088E+01  0.26179323562E+02  0.26674494106E+02  0.00000000000E+00 0. -1.
</event>
<event>
 7    1  0.5935282E-013  0.5052885E+02  0.7816164E-02  0.1300439E+00
        -11   -1    0    0    0    0  0.00000000000E+00  0.00000000000E+00  0.45593999997E+02  0.45594000000E+02  0.51100000000E-03 0.  1.
         11   -1    0    0    0    0 -0.00000000000E+00 -0.00000000000E+00 -0.45593999997E+02  0.45594000000E+02  0.51100000000E-03 0. -1.
    9900012    2    1    2    0    0  0.88630490995E+01 -0.20139639709E+02 -0.34190753690E+02  0.50528851400E+02  0.29999974315E+02 0.  0.
        -12    1    1    2    0    0 -0.88630490995E+01  0.20139639709E+02  0.34190753690E+02  0.40659148600E+02  0.00000000000E+00 0.  1.
         11    1    3    3    0    0  0.34354395991E+01 -0.95530171971E+01 -0.11361737613E+02  0.15236517471E+02  0.51100000000E-03 0. -1.
        -11    1    3    3    0    0 -0.22381819729E+01 -0.16685758162E+02 -0.16832192964E+02  0.23806442494E+02  0.51100000000E-03 0.  1.
        -12    1    3    3    0    0  0.76657914734E+01  0.60991356499E+01 -0.59968231134E+01  0.11485891434E+02  0.00000000000E+00 0.  1.
</event>
<event>
 7    1  0.5935282E-013  0.5052893E+02  0.7816164E-02  0.1300439E+00
        -11   -1    0    0    0    0  0.00000000000E+00  0.00000000000E+00  0.45593999997E+02  0.45594000000E+02  0.51100000000E-03 0.  1.
         11   -1    0    0    0    0 -0.00000000000E+00 -0.00000000000E+00 -0.45593999997E+02  0.45594000000E+02  0.51100000000E-03 0. -1.
    9900012    2    1    2    0    0 -0.25276034757E+02  0.15020460230E+01 -0.31812351639E+02  0.50528932228E+02  0.30000219998E+02 0.  0.
        -12    1    1    2    0    0  0.25276034757E+02 -0.15020460230E+01  0.31812351639E+02  0.40659067772E+02  0.00000000000E+00 0.  1.
         11    1    3    3    0    0 -0.86787120738E+01  0.76191468136E+01 -0.10659794290E+02  0.15716318144E+02  0.51100000000E-03 0. -1.
        -11    1    3    3    0    0 -0.63135994921E+01  0.72645111513E+01 -0.31276782412E+01  0.10120130051E+02  0.51100000000E-03 0.  1.
        -12    1    3    3    0    0 -0.10283723191E+02 -0.13381611942E+02 -0.18024879108E+02  0.24692484032E+02  0.00000000000E+00 0.  1.
</event>
<event>
 7    1  0.5935282E-013  0.5052885E+02  0.7816164E-02  0.1300439E+00
        -11   -1    0    0    0    0  0.00000000000E+00  0.00000000000E+00  0.45593999997E+02  0.45594000000E+02  0.51100000000E-03 0.  1.
         11   -1    0    0    0    0 -0.00000000000E+00 -0.00000000000E+00 -0.45593999997E+02  0.45594000000E+02  0.51100000000E-03 0. -1.
    9900012    2    1    2    0    0  0.18289254980E+02 -0.10153713424E+01 -0.36299288904E+02  0.50528853407E+02  0.29999980417E+02 0.  0.
        -12    1    1    2    0    0 -0.18289254980E+02  0.10153713424E+01  0.36299288904E+02  0.40659146593E+02  0.00000000000E+00 0.  1.
         11    1    3    3    0    0  0.60967609112E+01 -0.82082237323E+01 -0.90270973194E+01  0.13639425088E+02  0.51100000000E-03 0. -1.
        -11    1    3    3    0    0 -0.22155557681E+01 -0.52564340056E+01 -0.49837138146E+01  0.75747072197E+01  0.51100000000E-03 0.  1.
         12    1    3    3    0    0  0.14408049837E+02  0.12449286396E+02 -0.22288477770E+02  0.29314721100E+02  0.00000000000E+00 0. -1.
</event>
<event>
 7    1  0.5935282E-013  0.5052885E+02  0.7816164E-02  0.1300439E+00
        -11   -1    0    0    0    0  0.00000000000E+00  0.00000000000E+00  0.45593999997E+02  0.45594000000E+02  0.51100000000E-03 0. -1.
         11   -1    0    0    0    0 -0.00000000000E+00 -0.00000000000E+00 -0.45593999997E+02  0.45594000000E+02  0.51100000000E-03 0.  1.
    9900012    2    1    2    0    0  0.17360011187E+02 -0.30531599611E+02  0.20484569898E+02  0.50528853831E+02  0.29999981705E+02 0.  0.
        -12    1    1    2    0    0 -0.17360011187E+02  0.30531599611E+02 -0.20484569898E+02  0.40659146169E+02  0.00000000000E+00 0.  1.
         11    1    3    3    0    0 -0.43466698615E+01  0.73770694225E+00  0.10891612046E+01  0.45413679446E+01  0.51100000000E-03 0. -1.
        -11    1    3    3    0    0 -0.21135052582E+00 -0.28891357713E+01  0.77685574287E+01  0.82910951831E+01  0.51100000000E-03 0.  1.
        -12    1    3    3    0    0  0.21918031574E+02 -0.28380170782E+02  0.11626851265E+02  0.37696390704E+02  0.00000000000E+00 0.  1.
</event>
<event>
 7    1  0.5935282E-013  0.5052885E+02  0.7816164E-02  0.1300439E+00
        -11   -1    0    0    0    0  0.00000000000E+00  0.00000000000E+00  0.45593999997E+02  0.45594000000E+02  0.51100000000E-03 0. -1.
         11   -1    0    0    0    0 -0.00000000000E+00 -0.00000000000E+00 -0.45593999997E+02  0.45594000000E+02  0.51100000000E-03 0.  1.
    9900012    2    1    2    0    0  0.28640124623E+02 -0.25502603071E+02 -0.13510241854E+02  0.50528854204E+02  0.29999982840E+02 0.  0.
        -12    1    1    2    0    0 -0.28640124623E+02  0.25502603071E+02  0.13510241854E+02  0.40659145796E+02  0.00000000000E+00 0.  1.
         11    1    3    3    0    0 -0.22732422586E+01 -0.11165889567E+01 -0.49772905956E+01  0.55846059125E+01  0.51100000000E-03 0. -1.
        -11    1    3    3    0    0  0.31206989154E+01  0.27218663432E+01  0.21663327162E+01  0.46733623666E+01  0.51100000000E-03 0.  1.
         12    1    3    3    0    0  0.27792667967E+02 -0.27107880458E+02 -0.10699283975E+02  0.40270885925E+02  0.00000000000E+00 0. -1.
</event>
<event>
 7    1  0.5935282E-013  0.5052886E+02  0.7816164E-02  0.1300439E+00
        -11   -1    0    0    0    0  0.00000000000E+00  0.00000000000E+00  0.45593999997E+02  0.45594000000E+02  0.51100000000E-03 0. -1.
         11   -1    0    0    0    0 -0.00000000000E+00 -0.00000000000E+00 -0.45593999997E+02  0.45594000000E+02  0.51100000000E-03 0.  1.
    9900012    2    1    2    0    0 -0.25744538327E+02 -0.12949379807E+02  0.28682713629E+02  0.50528858935E+02  0.29999997219E+02 0.  0.
        -12    1    1    2    0    0  0.25744538327E+02  0.12949379807E+02 -0.28682713629E+02  0.40659141065E+02  0.00000000000E+00 0.  1.
         11    1    3    3    0    0 -0.48872016393E+01 -0.44655527103E+00 -0.31892690459E+01  0.58528274177E+01  0.51100000000E-03 0. -1.
        -11    1    3    3    0    0 -0.14997281618E+02 -0.49506096449E+00  0.72563234210E+01  0.16667866424E+02  0.51100000000E-03 0.  1.
         12    1    3    3    0    0 -0.58600550697E+01 -0.12007763572E+02  0.24615659253E+02  0.28008165093E+02  0.00000000000E+00 0. -1.
</event>
<event>
 7    1  0.5935282E-013  0.5052886E+02  0.7816164E-02  0.1300439E+00
        -11   -1    0    0    0    0  0.00000000000E+00  0.00000000000E+00  0.45593999997E+02  0.45594000000E+02  0.51100000000E-03 0. -1.
         11   -1    0    0    0    0 -0.00000000000E+00 -0.00000000000E+00 -0.45593999997E+02  0.45594000000E+02  0.51100000000E-03 0.  1.
    9900012    2    1    2    0    0  0.25110311206E+02 -0.29058273088E+02 -0.13351205122E+02  0.50528860290E+02  0.30000001338E+02 0.  0.
        -12    1    1    2    0    0 -0.25110311206E+02  0.29058273088E+02  0.13351205122E+02  0.40659139710E+02  0.00000000000E+00 0.  1.
         11    1    3    3    0    0  0.22163070817E+02 -0.21979214831E+02  0.12866820078E+01  0.31240088724E+02  0.51100000000E-03 0. -1.
        -11    1    3    3    0    0  0.87605385623E+00  0.58574931102E+00  0.11848614842E+01  0.15857079214E+01  0.51100000000E-03 0.  1.
         12    1    3    3    0    0  0.20711865328E+01 -0.76648075687E+01 -0.15822748614E+02  0.17703063645E+02  0.00000000000E+00 0. -1.
</event>
<event>
 7    1  0.5935282E-013  0.5052886E+02  0.7816164E-02  0.1300439E+00
        -11   -1    0    0    0    0  0.00000000000E+00  0.00000000000E+00  0.45593999997E+02  0.45594000000E+02  0.51100000000E-03 0.  1.
         11   -1    0    0    0    0 -0.00000000000E+00 -0.00000000000E+00 -0.45593999997E+02  0.45594000000E+02  0.51100000000E-03 0. -1.
    9900012    2    1    2    0    0  0.53781621293E+01 -0.40272148349E+02  0.15475472429E+01  0.50528862491E+02  0.30000008028E+02 0.  0.
        -12    1    1    2    0    0 -0.53781621293E+01  0.40272148349E+02 -0.15475472429E+01  0.40659137509E+02  0.00000000000E+00 0.  1.
         11    1    3    3    0    0 -0.31695916751E+01 -0.73860285442E+01 -0.99480452277E+01  0.12789188135E+02  0.51100000000E-03 0. -1.
        -11    1    3    3    0    0  0.18522525967E+01  0.35445147728E+00 -0.13899971710E+00  0.18909777139E+01  0.51100000000E-03 0.  1.
         12    1    3    3    0    0  0.66955012076E+01 -0.33240571282E+02  0.11634592188E+02  0.35848696642E+02  0.00000000000E+00 0. -1.
</event>
<event>
 7    1  0.5935282E-013  0.5052886E+02  0.7816164E-02  0.1300439E+00
        -11   -1    0    0    0    0  0.00000000000E+00  0.00000000000E+00  0.45593999997E+02  0.45594000000E+02  0.51100000000E-03 0.  1.
         11   -1    0    0    0    0 -0.00000000000E+00 -0.00000000000E+00 -0.45593999997E+02  0.45594000000E+02  0.51100000000E-03 0. -1.
    9900012    2    1    2    0    0  0.32358019262E+02  0.22796007446E+02 -0.92987180042E+01  0.50528861758E+02  0.30000005801E+02 0.  0.
        -12    1    1    2    0    0 -0.32358019262E+02 -0.22796007446E+02  0.92987180042E+01  0.40659138242E+02  0.00000000000E+00 0.  1.
         11    1    3    3    0    0 -0.55817599039E-01 -0.13155073755E+01 -0.59876009354E+01  0.61306639512E+01  0.51100000000E-03 0. -1.
        -11    1    3    3    0    0 -0.59064158748E+00  0.59916278379E+01 -0.30427414309E+01  0.67458681657E+01  0.51100000000E-03 0.  1.
         12    1    3    3    0    0  0.33004478448E+02  0.18119886984E+02 -0.26837563789E+00  0.37652329641E+02  0.00000000000E+00 0. -1.
</event>
<event>
 7    1  0.5935282E-013  0.5052885E+02  0.7816164E-02  0.1300439E+00
        -11   -1    0    0    0    0  0.00000000000E+00  0.00000000000E+00  0.45593999997E+02  0.45594000000E+02  0.51100000000E-03 0.  1.
         11   -1    0    0    0    0 -0.00000000000E+00 -0.00000000000E+00 -0.45593999997E+02  0.45594000000E+02  0.51100000000E-03 0. -1.
    9900012    2    1    2    0    0  0.31143522814E+02  0.18326111861E+02  0.18638702418E+02  0.50528848299E+02  0.29999964889E+02 0.  0.
        -12    1    1    2    0    0 -0.31143522814E+02 -0.18326111861E+02 -0.18638702418E+02  0.40659151701E+02  0.00000000000E+00 0.  1.
         11    1    3    3    0    0  0.46417459770E+01  0.40248868542E+01 -0.33617168112E+00  0.61529286981E+01  0.51100000000E-03 0. -1.
        -11    1    3    3    0    0  0.17802032646E+02  0.16771362153E+02  0.12650660891E+01  0.24490637952E+02  0.51100000000E-03 0.  1.
        -12    1    3    3    0    0  0.86997441914E+01 -0.24701371466E+01  0.17709808010E+02  0.19885281649E+02  0.00000000000E+00 0.  1.
</event>
<event>
 7    1  0.5935282E-013  0.5052886E+02  0.7816164E-02  0.1300439E+00
        -11   -1    0    0    0    0  0.00000000000E+00  0.00000000000E+00  0.45593999997E+02  0.45594000000E+02  0.51100000000E-03 0.  1.
         11   -1    0    0    0    0 -0.00000000000E+00 -0.00000000000E+00 -0.45593999997E+02  0.45594000000E+02  0.51100000000E-03 0. -1.
    9900012    2    1    2    0    0  0.25120390119E+01  0.71084500277E-01 -0.40581403701E+02  0.50528859338E+02  0.29999998444E+02 0.  0.
        -12    1    1    2    0    0 -0.25120390119E+01 -0.71084500277E-01  0.40581403701E+02  0.40659140662E+02  0.00000000000E+00 0.  1.
         11    1    3    3    0    0  0.52404411877E+01 -0.44299265162E+00 -0.35999405309E+01  0.63732282572E+01  0.51100000000E-03 0. -1.
        -11    1    3    3    0    0  0.91680164565E+01 -0.31286513732E+01 -0.25293573481E+02  0.27085159125E+02  0.51100000000E-03 0.  1.
         12    1    3    3    0    0 -0.11896418632E+02  0.36427285251E+01 -0.11687889690E+02  0.17070471955E+02  0.00000000000E+00 0. -1.
</event>
<event>
 7    1  0.5935282E-013  0.5052886E+02  0.7816164E-02  0.1300439E+00
        -11   -1    0    0    0    0  0.00000000000E+00  0.00000000000E+00  0.45593999997E+02  0.45594000000E+02  0.51100000000E-03 0.  1.
         11   -1    0    0    0    0 -0.00000000000E+00 -0.00000000000E+00 -0.45593999997E+02  0.45594000000E+02  0.51100000000E-03 0. -1.
    9900012    2    1    2    0    0 -0.31845410945E+02  0.18231747499E+02 -0.17511106798E+02  0.50528859866E+02  0.30000000048E+02 0.  0.
        -12    1    1    2    0    0  0.31845410945E+02 -0.18231747499E+02  0.17511106798E+02  0.40659140134E+02  0.00000000000E+00 0.  1.
         11    1    3    3    0    0 -0.14726591198E+02  0.11586285482E+02  0.16260617766E+01  0.18808470877E+02  0.51100000000E-03 0. -1.
        -11    1    3    3    0    0  0.11096758314E+00  0.55036201128E+01  0.55157089902E+00  0.55323032155E+01  0.51100000000E-03 0.  1.
         12    1    3    3    0    0 -0.17229787331E+02  0.11418419043E+01 -0.19688739474E+02  0.26188085773E+02  0.00000000000E+00 0. -1.
</event>
<event>
 7    1  0.5935282E-013  0.5052888E+02  0.7816164E-02  0.1300439E+00
        -11   -1    0    0    0    0  0.00000000000E+00  0.00000000000E+00  0.45593999997E+02  0.45594000000E+02  0.51100000000E-03 0.  1.
         11   -1    0    0    0    0 -0.00000000000E+00 -0.00000000000E+00 -0.45593999997E+02  0.45594000000E+02  0.51100000000E-03 0. -1.
    9900012    2    1    2    0    0  0.19854965448E+02 -0.17119688849E+02 -0.31078295624E+02  0.50528882227E+02  0.30000068017E+02 0.  0.
        -12    1    1    2    0    0 -0.19854965448E+02  0.17119688849E+02  0.31078295624E+02  0.40659117773E+02  0.00000000000E+00 0.  1.
         11    1    3    3    0    0  0.33679917303E+01 -0.74134205062E+01  0.20001730400E+01  0.83846803367E+01  0.51100000000E-03 0.  1.
        -11    1    3    3    0    0  0.15758200712E+02  0.56093185186E+00 -0.18688657129E+02  0.24452023224E+02  0.51100000000E-03 0. -1.
         12    1    3    3    0    0  0.72877300525E+00 -0.10267200195E+02 -0.14389811535E+02  0.17692178666E+02  0.00000000000E+00 0. -1.
</event>
<event>
 7    1  0.5935282E-013  0.5052884E+02  0.7816164E-02  0.1300439E+00
        -11   -1    0    0    0    0  0.00000000000E+00  0.00000000000E+00  0.45593999997E+02  0.45594000000E+02  0.51100000000E-03 0. -1.
         11   -1    0    0    0    0 -0.00000000000E+00 -0.00000000000E+00 -0.45593999997E+02  0.45594000000E+02  0.51100000000E-03 0.  1.
    9900012    2    1    2    0    0 -0.36986459794E+02 -0.84452498040E+01  0.14623494566E+02  0.50528843028E+02  0.29999948869E+02 0.  0.
        -12    1    1    2    0    0  0.36986459794E+02  0.84452498040E+01 -0.14623494566E+02  0.40659156972E+02  0.00000000000E+00 0.  1.
         11    1    3    3    0    0 -0.34808392914E+02 -0.64557364871E+01  0.11304941066E+02  0.37163186672E+02  0.51100000000E-03 0. -1.
        -11    1    3    3    0    0 -0.79789987113E+00 -0.20617782153E+01  0.80959454998E+01  0.83923719776E+01  0.51100000000E-03 0.  1.
        -12    1    3    3    0    0 -0.13801670084E+01  0.72264898413E-01 -0.47773920002E+01  0.49732843786E+01  0.00000000000E+00 0.  1.
</event>
<event>
 7    1  0.5935282E-013  0.5052884E+02  0.7816164E-02  0.1300439E+00
        -11   -1    0    0    0    0  0.00000000000E+00  0.00000000000E+00  0.45593999997E+02  0.45594000000E+02  0.51100000000E-03 0.  1.
         11   -1    0    0    0    0 -0.00000000000E+00 -0.00000000000E+00 -0.45593999997E+02  0.45594000000E+02  0.51100000000E-03 0. -1.
    9900012    2    1    2    0    0  0.73180079459E+01 -0.42651302265E-01 -0.39995156870E+02  0.50528835812E+02  0.29999926934E+02 0.  0.
        -12    1    1    2    0    0 -0.73180079459E+01  0.42651302265E-01  0.39995156870E+02  0.40659164188E+02  0.00000000000E+00 0.  1.
         11    1    3    3    0    0  0.62502569140E+01  0.17389235844E+01 -0.32375682030E+01  0.72506147914E+01  0.51100000000E-03 0. -1.
        -11    1    3    3    0    0  0.89811348645E+01  0.61684794750E+01 -0.23562155838E+02  0.25959316448E+02  0.51100000000E-03 0.  1.
         12    1    3    3    0    0 -0.79133838325E+01 -0.79500543617E+01 -0.13195432829E+02  0.17318904572E+02  0.00000000000E+00 0. -1.
</event>
<event>
 7    1  0.5935282E-013  0.5052894E+02  0.7816164E-02  0.1300438E+00
        -11   -1    0    0    0    0  0.00000000000E+00  0.00000000000E+00  0.45593999997E+02  0.45594000000E+02  0.51100000000E-03 0.  1.
         11   -1    0    0    0    0 -0.00000000000E+00 -0.00000000000E+00 -0.45593999997E+02  0.45594000000E+02  0.51100000000E-03 0. -1.
    9900012    2    1    2    0    0  0.23724891450E+02  0.32278102020E+02 -0.69579075182E+01  0.50528944165E+02  0.30000256284E+02 0.  0.
        -12    1    1    2    0    0 -0.23724891450E+02 -0.32278102020E+02  0.69579075182E+01  0.40659055835E+02  0.00000000000E+00 0.  1.
         11    1    3    3    0    0  0.62213434605E+01  0.82906198592E+01 -0.43721456040E+01  0.11249673308E+02  0.51100000000E-03 0. -1.
        -11    1    3    3    0    0  0.98219907622E+01  0.13126767709E+02 -0.14147125929E+02  0.21654669366E+02  0.51100000000E-03 0.  1.
        -12    1    3    3    0    0  0.76815572272E+01  0.10860714452E+02  0.11561364015E+02  0.17624601491E+02  0.00000000000E+00 0.  1.
</event>
<event>
 7    1  0.5935282E-013  0.5052882E+02  0.7816164E-02  0.1300439E+00
        -11   -1    0    0    0    0  0.00000000000E+00  0.00000000000E+00  0.45593999997E+02  0.45594000000E+02  0.51100000000E-03 0.  1.
         11   -1    0    0    0    0 -0.00000000000E+00 -0.00000000000E+00 -0.45593999997E+02  0.45594000000E+02  0.51100000000E-03 0. -1.
    9900012    2    1    2    0    0  0.18083790048E+02 -0.23813206076E+02 -0.27551350433E+02  0.50528817067E+02  0.29999869957E+02 0.  0.
        -12    1    1    2    0    0 -0.18083790048E+02  0.23813206076E+02  0.27551350433E+02  0.40659182933E+02  0.00000000000E+00 0.  1.
         11    1    3    3    0    0  0.47665355577E-01  0.10660981268E+01 -0.50868196155E+01  0.51975543541E+01  0.51100000000E-03 0. -1.
        -11    1    3    3    0    0  0.29170038756E+01 -0.39747567384E+01  0.54306566134E+01  0.73348233962E+01  0.51100000000E-03 0.  1.
        -12    1    3    3    0    0  0.15119120816E+02 -0.20904547464E+02 -0.27895187431E+02  0.37996439317E+02  0.00000000000E+00 0.  1.
</event>
<event>
 7    1  0.5935282E-013  0.5052886E+02  0.7816164E-02  0.1300439E+00
        -11   -1    0    0    0    0  0.00000000000E+00  0.00000000000E+00  0.45593999997E+02  0.45594000000E+02  0.51100000000E-03 0.  1.
         11   -1    0    0    0    0 -0.00000000000E+00 -0.00000000000E+00 -0.45593999997E+02  0.45594000000E+02  0.51100000000E-03 0. -1.
    9900012    2    1    2    0    0  0.12518414783E+02 -0.92124685322E+01 -0.37571072231E+02  0.50528858915E+02  0.29999997158E+02 0.  0.
        -12    1    1    2    0    0 -0.12518414783E+02  0.92124685322E+01  0.37571072231E+02  0.40659141085E+02  0.00000000000E+00 0.  1.
         11    1    3    3    0    0  0.34559946996E+01 -0.20543473322E+01 -0.27897195446E+02  0.28185417441E+02  0.51100000000E-03 0. -1.
        -11    1    3    3    0    0  0.45527906869E+01 -0.10328215484E+02 -0.11897286117E+02  0.16399553510E+02  0.51100000000E-03 0.  1.
        -12    1    3    3    0    0  0.45096293969E+01  0.31700942841E+01  0.22234093316E+01  0.59438879636E+01  0.00000000000E+00 0.  1.
</event>
<event>
 7    1  0.5935282E-013  0.5052886E+02  0.7816164E-02  0.1300439E+00
        -11   -1    0    0    0    0  0.00000000000E+00  0.00000000000E+00  0.45593999997E+02  0.45594000000E+02  0.51100000000E-03 0.  1.
         11   -1    0    0    0    0 -0.00000000000E+00 -0.00000000000E+00 -0.45593999997E+02  0.45594000000E+02  0.51100000000E-03 0. -1.
    9900012    2    1    2    0    0 -0.32185032333E+02 -0.21812901802E+02 -0.11894832654E+02  0.50528855455E+02  0.29999986640E+02 0.  0.
        -12    1    1    2    0    0  0.32185032333E+02  0.21812901802E+02  0.11894832654E+02  0.40659144545E+02  0.00000000000E+00 0.  1.
         11    1    3    3    0    0 -0.14416547871E+01 -0.10841426398E+02 -0.20243667877E+01  0.11122632603E+02  0.51100000000E-03 0. -1.
        -11    1    3    3    0    0 -0.27918430846E+00 -0.69303134997E+01  0.54699471442E+00  0.69574702703E+01  0.51100000000E-03 0.  1.
         12    1    3    3    0    0 -0.30464193237E+02 -0.40411619045E+01 -0.10417460581E+02  0.32448752581E+02  0.00000000000E+00 0. -1.
</event>
<event>
 7    1  0.5935282E-013  0.5052885E+02  0.7816164E-02  0.1300439E+00
        -11   -1    0    0    0    0  0.00000000000E+00  0.00000000000E+00  0.45593999997E+02  0.45594000000E+02  0.51100000000E-03 0.  1.
         11   -1    0    0    0    0 -0.00000000000E+00 -0.00000000000E+00 -0.45593999997E+02  0.45594000000E+02  0.51100000000E-03 0. -1.
    9900012    2    1    2    0    0  0.12908202138E+02  0.55973344478E+01 -0.38147270847E+02  0.50528854553E+02  0.29999983900E+02 0.  0.
        -12    1    1    2    0    0 -0.12908202138E+02 -0.55973344478E+01  0.38147270847E+02  0.40659145447E+02  0.00000000000E+00 0.  1.
         11    1    3    3    0    0  0.61510822629E+01  0.60648723343E+00 -0.10885458068E+02  0.12517860735E+02  0.51100000000E-03 0. -1.
        -11    1    3    3    0    0  0.11473367510E+02 -0.58275103791E+01 -0.72280147905E+01  0.14759479575E+02  0.51100000000E-03 0.  1.
         12    1    3    3    0    0 -0.47162476347E+01  0.10818357594E+02 -0.20033797989E+02  0.23251514244E+02  0.00000000000E+00 0. -1.
</event>
<event>
 7    1  0.5935282E-013  0.5052889E+02  0.7816164E-02  0.1300439E+00
        -11   -1    0    0    0    0  0.00000000000E+00  0.00000000000E+00  0.45593999997E+02  0.45594000000E+02  0.51100000000E-03 0.  1.
         11   -1    0    0    0    0 -0.00000000000E+00 -0.00000000000E+00 -0.45593999997E+02  0.45594000000E+02  0.51100000000E-03 0. -1.
    9900012    2    1    2    0    0  0.27114579516E+02  0.30080636957E+01 -0.30148210343E+02  0.50528887167E+02  0.30000083032E+02 0.  0.
        -12    1    1    2    0    0 -0.27114579516E+02 -0.30080636957E+01  0.30148210343E+02  0.40659112833E+02  0.00000000000E+00 0.  1.
         11    1    3    3    0    0  0.59764405946E+01  0.21003232537E+01 -0.14867907406E+02  0.16161184079E+02  0.51100000000E-03 0. -1.
        -11    1    3    3    0    0  0.44963234344E+01  0.10461705350E+02 -0.37893158430E+01  0.12000963215E+02  0.51100000000E-03 0.  1.
         12    1    3    3    0    0  0.16641815487E+02 -0.95539649082E+01 -0.11490987094E+02  0.22366739873E+02  0.00000000000E+00 0. -1.
</event>
<event>
 7    1  0.5935282E-013  0.5052886E+02  0.7816164E-02  0.1300439E+00
        -11   -1    0    0    0    0  0.00000000000E+00  0.00000000000E+00  0.45593999997E+02  0.45594000000E+02  0.51100000000E-03 0. -1.
         11   -1    0    0    0    0 -0.00000000000E+00 -0.00000000000E+00 -0.45593999997E+02  0.45594000000E+02  0.51100000000E-03 0.  1.
    9900012    2    1    2    0    0 -0.22052493506E+02 -0.25349492809E+02  0.22896641882E+02  0.50528862467E+02  0.30000007953E+02 0.  0.
        -12    1    1    2    0    0  0.22052493506E+02  0.25349492809E+02 -0.22896641882E+02  0.40659137533E+02  0.00000000000E+00 0.  1.
         11    1    3    3    0    0 -0.20851726550E+01 -0.88952642924E+01  0.11603268016E+02  0.14768530758E+02  0.51100000000E-03 0. -1.
        -11    1    3    3    0    0 -0.11512647272E+02 -0.78061699078E+01 -0.55910726828E+01  0.14991245107E+02  0.51100000000E-03 0.  1.
         12    1    3    3    0    0 -0.84546735787E+01 -0.86480586084E+01  0.16884446549E+02  0.20769086602E+02  0.00000000000E+00 0. -1.
</event>
<event>
 7    1  0.5935282E-013  0.5052886E+02  0.7816164E-02  0.1300439E+00
        -11   -1    0    0    0    0  0.00000000000E+00  0.00000000000E+00  0.45593999997E+02  0.45594000000E+02  0.51100000000E-03 0.  1.
         11   -1    0    0    0    0 -0.00000000000E+00 -0.00000000000E+00 -0.45593999997E+02  0.45594000000E+02  0.51100000000E-03 0. -1.
    9900012    2    1    2    0    0 -0.13910578494E+01  0.32292666238E+02 -0.24666059543E+02  0.50528858001E+02  0.29999994381E+02 0.  0.
        -12    1    1    2    0    0  0.13910578494E+01 -0.32292666238E+02  0.24666059543E+02  0.40659141999E+02  0.00000000000E+00 0.  1.
         11    1    3    3    0    0 -0.41311546947E+01  0.56727368603E+01 -0.80761273655E+01  0.10699075478E+02  0.51100000000E-03 0. -1.
        -11    1    3    3    0    0 -0.97212627104E+01  0.13972799632E+02 -0.13680747570E+02  0.21838153141E+02  0.51100000000E-03 0.  1.
         12    1    3    3    0    0  0.12461359556E+02  0.12647129745E+02 -0.29091846070E+01  0.17991629383E+02  0.00000000000E+00 0. -1.
</event>
<event>
 7    1  0.5935282E-013  0.5052879E+02  0.7816164E-02  0.1300439E+00
        -11   -1    0    0    0    0  0.00000000000E+00  0.00000000000E+00  0.45593999997E+02  0.45594000000E+02  0.51100000000E-03 0.  1.
         11   -1    0    0    0    0 -0.00000000000E+00 -0.00000000000E+00 -0.45593999997E+02  0.45594000000E+02  0.51100000000E-03 0. -1.
    9900012    2    1    2    0    0  0.14532653101E+02  0.16096653456E+02 -0.34392898043E+02  0.50528785861E+02  0.29999775102E+02 0.  0.
        -12    1    1    2    0    0 -0.14532653101E+02 -0.16096653456E+02  0.34392898043E+02  0.40659214139E+02  0.00000000000E+00 0.  1.
         11    1    3    3    0    0  0.27850779846E+01  0.17787971401E+01  0.21513547464E+00  0.33116555043E+01  0.51100000000E-03 0. -1.
        -11    1    3    3    0    0 -0.59668243454E+01  0.46788708262E+01 -0.50749432308E+00  0.75994983865E+01  0.51100000000E-03 0.  1.
         12    1    3    3    0    0  0.17714399461E+02  0.96389854895E+01 -0.34100539195E+02  0.39617631970E+02  0.00000000000E+00 0. -1.
</event>
<event>
 7    1  0.5935282E-013  0.5052888E+02  0.7816164E-02  0.1300439E+00
        -11   -1    0    0    0    0  0.00000000000E+00  0.00000000000E+00  0.45593999997E+02  0.45594000000E+02  0.51100000000E-03 0.  1.
         11   -1    0    0    0    0 -0.00000000000E+00 -0.00000000000E+00 -0.45593999997E+02  0.45594000000E+02  0.51100000000E-03 0. -1.
    9900012    2    1    2    0    0 -0.18642494670E+02 -0.65570236710E+01 -0.35533464573E+02  0.50528877143E+02  0.30000052564E+02 0.  0.
        -12    1    1    2    0    0  0.18642494670E+02  0.65570236710E+01  0.35533464573E+02  0.40659122857E+02  0.00000000000E+00 0.  1.
         11    1    3    3    0    0 -0.59852063199E+01 -0.57011447619E+01  0.31960723559E+01  0.88623148812E+01  0.51100000000E-03 0. -1.
        -11    1    3    3    0    0 -0.76643526207E+01  0.37820083011E+01 -0.22076743287E+02  0.23673370742E+02  0.51100000000E-03 0.  1.
        -12    1    3    3    0    0 -0.49929357296E+01 -0.46378872102E+01 -0.16652793642E+02  0.17993191520E+02  0.00000000000E+00 0.  1.
</event>
<event>
 7    1  0.5935282E-013  0.5052886E+02  0.7816164E-02  0.1300439E+00
        -11   -1    0    0    0    0  0.00000000000E+00  0.00000000000E+00  0.45593999997E+02  0.45594000000E+02  0.51100000000E-03 0.  1.
         11   -1    0    0    0    0 -0.00000000000E+00 -0.00000000000E+00 -0.45593999997E+02  0.45594000000E+02  0.51100000000E-03 0. -1.
    9900012    2    1    2    0    0  0.15792120218E+02  0.10026222963E+02 -0.36100546312E+02  0.50528860168E+02  0.30000000965E+02 0.  0.
        -12    1    1    2    0    0 -0.15792120218E+02 -0.10026222963E+02  0.36100546312E+02  0.40659139832E+02  0.00000000000E+00 0.  1.
         11    1    3    3    0    0  0.18610293768E+02  0.72057053102E+01 -0.14296108881E+02  0.24548807558E+02  0.51100000000E-03 0. -1.
        -11    1    3    3    0    0  0.38337088579E+01  0.54543610442E+01 -0.78540774404E+01  0.10302131367E+02  0.51100000000E-03 0.  1.
         12    1    3    3    0    0 -0.66518824083E+01 -0.26338433913E+01 -0.13950359991E+02  0.15677921242E+02  0.00000000000E+00 0. -1.
</event>
<event>
 7    1  0.5935282E-013  0.5052886E+02  0.7816164E-02  0.1300439E+00
        -11   -1    0    0    0    0  0.00000000000E+00  0.00000000000E+00  0.45593999997E+02  0.45594000000E+02  0.51100000000E-03 0.  1.
         11   -1    0    0    0    0 -0.00000000000E+00 -0.00000000000E+00 -0.45593999997E+02  0.45594000000E+02  0.51100000000E-03 0. -1.
    9900012    2    1    2    0    0  0.19165535581E+01  0.24970468669E+01 -0.40537110969E+02  0.50528858515E+02  0.29999995941E+02 0.  0.
        -12    1    1    2    0    0 -0.19165535581E+01 -0.24970468669E+01  0.40537110969E+02  0.40659141485E+02  0.00000000000E+00 0.  1.
         11    1    3    3    0    0 -0.30577000877E+00  0.47058456985E+01 -0.27359229519E+02  0.27762671327E+02  0.51100000000E-03 0. -1.
        -11    1    3    3    0    0 -0.49463943368E+01  0.52114402569E+01 -0.92811499470E+01  0.11737362186E+02  0.51100000000E-03 0.  1.
        -12    1    3    3    0    0  0.71687179037E+01 -0.74202390886E+01 -0.38967315028E+01  0.11028825002E+02  0.00000000000E+00 0.  1.
</event>
<event>
 7    1  0.5935282E-013  0.5052886E+02  0.7816164E-02  0.1300439E+00
        -11   -1    0    0    0    0  0.00000000000E+00  0.00000000000E+00  0.45593999997E+02  0.45594000000E+02  0.51100000000E-03 0.  1.
         11   -1    0    0    0    0 -0.00000000000E+00 -0.00000000000E+00 -0.45593999997E+02  0.45594000000E+02  0.51100000000E-03 0. -1.
    9900012    2    1    2    0    0 -0.37630384140E+02 -0.26629344213E+01 -0.15166703562E+02  0.50528856782E+02  0.29999990675E+02 0.  0.
        -12    1    1    2    0    0  0.37630384140E+02  0.26629344213E+01  0.15166703562E+02  0.40659143218E+02  0.00000000000E+00 0.  1.
         11    1    3    3    0    0 -0.61079399340E+01 -0.44118190473E+00 -0.41745076547E+01  0.74113484691E+01  0.51100000000E-03 0. -1.
        -11    1    3    3    0    0 -0.93254173563E+01  0.10870628086E+00 -0.17533653215E+02  0.19859612817E+02  0.51100000000E-03 0.  1.
         12    1    3    3    0    0 -0.22197026850E+02 -0.23304587974E+01  0.65414573075E+01  0.23257895496E+02  0.00000000000E+00 0. -1.
</event>
<event>
 7    1  0.5935282E-013  0.5052882E+02  0.7816164E-02  0.1300439E+00
        -11   -1    0    0    0    0  0.00000000000E+00  0.00000000000E+00  0.45593999997E+02  0.45594000000E+02  0.51100000000E-03 0.  1.
         11   -1    0    0    0    0 -0.00000000000E+00 -0.00000000000E+00 -0.45593999997E+02  0.45594000000E+02  0.51100000000E-03 0. -1.
    9900012    2    1    2    0    0  0.17260638886E+02  0.11731825761E+02 -0.34894173429E+02  0.50528822318E+02  0.29999885918E+02 0.  0.
        -12    1    1    2    0    0 -0.17260638886E+02 -0.11731825761E+02  0.34894173429E+02  0.40659177682E+02  0.00000000000E+00 0.  1.
         11    1    3    3    0    0 -0.85877782288E+00 -0.61026057573E+00 -0.41544751489E+01  0.42859749584E+01  0.51100000000E-03 0. -1.
        -11    1    3    3    0    0  0.15496885660E+01 -0.66551799551E+01 -0.46747073519E+00  0.68491958678E+01  0.51100000000E-03 0.  1.
        -12    1    3    3    0    0  0.16569728143E+02  0.18997266292E+02 -0.30272227545E+02  0.39393651492E+02  0.00000000000E+00 0.  1.
</event>
<event>
 7    1  0.5935282E-013  0.5052887E+02  0.7816164E-02  0.1300439E+00
        -11   -1    0    0    0    0  0.00000000000E+00  0.00000000000E+00  0.45593999997E+02  0.45594000000E+02  0.51100000000E-03 0. -1.
         11   -1    0    0    0    0 -0.00000000000E+00 -0.00000000000E+00 -0.45593999997E+02  0.45594000000E+02  0.51100000000E-03 0.  1.
    9900012    2    1    2    0    0 -0.37196088071E+02  0.34725807759E+01 -0.16048589758E+02  0.50528867960E+02  0.30000024650E+02 0.  0.
        -12    1    1    2    0    0  0.37196088071E+02 -0.34725807759E+01  0.16048589758E+02  0.40659132040E+02  0.00000000000E+00 0.  1.
         11    1    3    3    0    0 -0.13025794997E+02  0.60277588452E+01 -0.39357385334E+01  0.14882716488E+02  0.51100000000E-03 0. -1.
        -11    1    3    3    0    0 -0.28775237201E+02 -0.16248914717E+01 -0.10647136417E+02  0.30724844384E+02  0.51100000000E-03 0.  1.
        -12    1    3    3    0    0  0.46049441262E+01 -0.93028659748E+00 -0.14657148071E+01  0.49213070881E+01  0.00000000000E+00 0.  1.
</event>
<event>
 7    1  0.5935282E-013  0.5052885E+02  0.7816164E-02  0.1300439E+00
        -11   -1    0    0    0    0  0.00000000000E+00  0.00000000000E+00  0.45593999997E+02  0.45594000000E+02  0.51100000000E-03 0. -1.
         11   -1    0    0    0    0 -0.00000000000E+00 -0.00000000000E+00 -0.45593999997E+02  0.45594000000E+02  0.51100000000E-03 0.  1.
    9900012    2    1    2    0    0 -0.10984043698E+02  0.65508971833E+01  0.38595374097E+02  0.50528851318E+02  0.29999974066E+02 0.  0.
        -12    1    1    2    0    0  0.10984043698E+02 -0.65508971833E+01 -0.38595374097E+02  0.40659148682E+02  0.00000000000E+00 0.  1.
         11    1    3    3    0    0  0.34920794060E+01 -0.53667883427E+01  0.55447426426E+01  0.84700181184E+01  0.51100000000E-03 0. -1.
        -11    1    3    3    0    0 -0.34186139801E+01 -0.13164717918E+01 -0.10795194070E+01  0.38190812946E+01  0.51100000000E-03 0.  1.
         12    1    3    3    0    0 -0.11057509124E+02  0.13234157318E+02  0.34130150861E+02  0.38239751905E+02  0.00000000000E+00 0. -1.
</event>
<event>
 7    1  0.5935282E-013  0.5052887E+02  0.7816164E-02  0.1300439E+00
        -11   -1    0    0    0    0  0.00000000000E+00  0.00000000000E+00  0.45593999997E+02  0.45594000000E+02  0.51100000000E-03 0. -1.
         11   -1    0    0    0    0 -0.00000000000E+00 -0.00000000000E+00 -0.45593999997E+02  0.45594000000E+02  0.51100000000E-03 0.  1.
    9900012    2    1    2    0    0  0.36547246666E+02  0.32788092546E+01  0.17513233392E+02  0.50528866058E+02  0.30000018871E+02 0.  0.
        -12    1    1    2    0    0 -0.36547246666E+02 -0.32788092546E+01 -0.17513233392E+02  0.40659133942E+02  0.00000000000E+00 0.  1.
         11    1    3    3    0    0  0.17579496864E+02  0.48130218632E+01  0.11524431877E+02  0.21564239374E+02  0.51100000000E-03 0. -1.
        -11    1    3    3    0    0 -0.80033181466E+00  0.64511905990E+01  0.38067025833E+01  0.75332181686E+01  0.51100000000E-03 0.  1.
        -12    1    3    3    0    0  0.19768081617E+02 -0.79854032075E+01  0.21820989325E+01  0.21431408516E+02  0.00000000000E+00 0.  1.
</event>
<event>
 7    1  0.5935282E-013  0.5052886E+02  0.7816164E-02  0.1300439E+00
        -11   -1    0    0    0    0  0.00000000000E+00  0.00000000000E+00  0.45593999997E+02  0.45594000000E+02  0.51100000000E-03 0.  1.
         11   -1    0    0    0    0 -0.00000000000E+00 -0.00000000000E+00 -0.45593999997E+02  0.45594000000E+02  0.51100000000E-03 0. -1.
    9900012    2    1    2    0    0  0.40361986985E+02 -0.28364879949E+01 -0.40037642233E+01  0.50528858525E+02  0.29999995972E+02 0.  0.
        -12    1    1    2    0    0 -0.40361986985E+02  0.28364879949E+01  0.40037642233E+01  0.40659141475E+02  0.00000000000E+00 0.  1.
         11    1    3    3    0    0  0.20424086391E+02  0.97941147354E+01 -0.50116981926E+01  0.23198816940E+02  0.51100000000E-03 0. -1.
        -11    1    3    3    0    0  0.13500175206E+02 -0.13949139885E+01 -0.27470733224E+01  0.13847271490E+02  0.51100000000E-03 0.  1.
        -12    1    3    3    0    0  0.64377253884E+01 -0.11235688742E+02  0.37550072917E+01  0.13482770095E+02  0.00000000000E+00 0.  1.
</event>
<event>
 7    1  0.5935282E-013  0.5052886E+02  0.7816164E-02  0.1300439E+00
        -11   -1    0    0    0    0  0.00000000000E+00  0.00000000000E+00  0.45593999997E+02  0.45594000000E+02  0.51100000000E-03 0. -1.
         11   -1    0    0    0    0 -0.00000000000E+00 -0.00000000000E+00 -0.45593999997E+02  0.45594000000E+02  0.51100000000E-03 0.  1.
    9900012    2    1    2    0    0  0.38525564746E+02 -0.60258092087E+01  0.11516774290E+02  0.50528860736E+02  0.30000002693E+02 0.  0.
        -12    1    1    2    0    0 -0.38525564746E+02  0.60258092087E+01 -0.11516774290E+02  0.40659139264E+02  0.00000000000E+00 0.  1.
         11    1    3    3    0    0  0.15761104351E+02 -0.68598215519E+01  0.15900078804E+02  0.23415423727E+02  0.51100000000E-03 0. -1.
        -11    1    3    3    0    0  0.10034121543E+02  0.71330201496E+01 -0.22277258234E+00  0.12313131181E+02  0.51100000000E-03 0.  1.
        -12    1    3    3    0    0  0.12730338853E+02 -0.62990078064E+01 -0.41605319315E+01  0.14800305828E+02  0.00000000000E+00 0.  1.
</event>
<event>
 7    1  0.5935282E-013  0.5052885E+02  0.7816164E-02  0.1300439E+00
        -11   -1    0    0    0    0  0.00000000000E+00  0.00000000000E+00  0.45593999997E+02  0.45594000000E+02  0.51100000000E-03 0. -1.
         11   -1    0    0    0    0 -0.00000000000E+00 -0.00000000000E+00 -0.45593999997E+02  0.45594000000E+02  0.51100000000E-03 0.  1.
    9900012    2    1    2    0    0  0.28760174314E+02  0.26387255934E+02  0.11389992436E+02  0.50528845680E+02  0.29999956930E+02 0.  0.
        -12    1    1    2    0    0 -0.28760174314E+02 -0.26387255934E+02 -0.11389992436E+02  0.40659154320E+02  0.00000000000E+00 0.  1.
         11    1    3    3    0    0  0.43848869948E+01  0.88236008532E+01 -0.37725889901E+01  0.10550620547E+02  0.51100000000E-03 0. -1.
        -11    1    3    3    0    0  0.21693384426E+00  0.93355681587E+01 -0.15584449218E+01  0.94672405681E+01  0.51100000000E-03 0.  1.
         12    1    3    3    0    0  0.24158353475E+02  0.82280869223E+01  0.16721026348E+02  0.30510984565E+02  0.00000000000E+00 0. -1.
</event>
<event>
 7    1  0.5935282E-013  0.5052886E+02  0.7816164E-02  0.1300439E+00
        -11   -1    0    0    0    0  0.00000000000E+00  0.00000000000E+00  0.45593999997E+02  0.45594000000E+02  0.51100000000E-03 0. -1.
         11   -1    0    0    0    0 -0.00000000000E+00 -0.00000000000E+00 -0.45593999997E+02  0.45594000000E+02  0.51100000000E-03 0.  1.
    9900012    2    1    2    0    0 -0.35202285125E+02 -0.19705938434E+02  0.50636557643E+01  0.50528862069E+02  0.30000006745E+02 0.  0.
        -12    1    1    2    0    0  0.35202285125E+02  0.19705938434E+02 -0.50636557643E+01  0.40659137931E+02  0.00000000000E+00 0.  1.
         11    1    3    3    0    0 -0.31284604513E+01  0.22778579593E+01  0.41835133453E+01  0.56989197090E+01  0.51100000000E-03 0. -1.
        -11    1    3    3    0    0 -0.14384131070E+02 -0.93752807795E+01  0.11484516802E+02  0.20656554475E+02  0.51100000000E-03 0.  1.
        -12    1    3    3    0    0 -0.17689693603E+02 -0.12608515614E+02 -0.10604374383E+02  0.24173387885E+02  0.00000000000E+00 0.  1.
</event>
<event>
 7    1  0.5935282E-013  0.5052887E+02  0.7816164E-02  0.1300439E+00
        -11   -1    0    0    0    0  0.00000000000E+00  0.00000000000E+00  0.45593999997E+02  0.45594000000E+02  0.51100000000E-03 0.  1.
         11   -1    0    0    0    0 -0.00000000000E+00 -0.00000000000E+00 -0.45593999997E+02  0.45594000000E+02  0.51100000000E-03 0. -1.
    9900012    2    1    2    0    0 -0.74562936860E+01 -0.30855851195E+02 -0.25406396160E+02  0.50528870222E+02  0.30000031525E+02 0.  0.
        -12    1    1    2    0    0  0.74562936860E+01  0.30855851195E+02  0.25406396160E+02  0.40659129778E+02  0.00000000000E+00 0.  1.
         11    1    3    3    0    0 -0.17285697920E+01  0.11769995234E+01 -0.44322143281E+01  0.49007964164E+01  0.51100000000E-03 0. -1.
        -11    1    3    3    0    0 -0.61250826666E+01  0.20007158237E+01 -0.41159818817E+01  0.76459668186E+01  0.51100000000E-03 0.  1.
         12    1    3    3    0    0  0.39735877257E+00 -0.34033566542E+02 -0.16858199950E+02  0.37982106987E+02  0.00000000000E+00 0. -1.
</event>
<event>
 7    1  0.5935282E-013  0.5052886E+02  0.7816164E-02  0.1300439E+00
        -11   -1    0    0    0    0  0.00000000000E+00  0.00000000000E+00  0.45593999997E+02  0.45594000000E+02  0.51100000000E-03 0. -1.
         11   -1    0    0    0    0 -0.00000000000E+00 -0.00000000000E+00 -0.45593999997E+02  0.45594000000E+02  0.51100000000E-03 0.  1.
    9900012    2    1    2    0    0 -0.62155458474E+01 -0.29794783946E+02  0.26959296804E+02  0.50528857797E+02  0.29999993758E+02 0.  0.
        -12    1    1    2    0    0  0.62155458474E+01  0.29794783946E+02 -0.26959296804E+02  0.40659142203E+02  0.00000000000E+00 0.  1.
         11    1    3    3    0    0  0.73402581586E+00 -0.24320916976E+02  0.29299670130E+02  0.38085646462E+02  0.51100000000E-03 0.  1.
        -11    1    3    3    0    0  0.78913249856E+00 -0.42762676035E+01 -0.13309619092E+01  0.45475987710E+01  0.51100000000E-03 0. -1.
        -12    1    3    3    0    0 -0.77387041618E+01 -0.11975993667E+01 -0.10094114169E+01  0.78956125637E+01  0.00000000000E+00 0.  1.
</event>
<event>
 7    1  0.5935282E-013  0.5052887E+02  0.7816164E-02  0.1300439E+00
        -11   -1    0    0    0    0  0.00000000000E+00  0.00000000000E+00  0.45593999997E+02  0.45594000000E+02  0.51100000000E-03 0. -1.
         11   -1    0    0    0    0 -0.00000000000E+00 -0.00000000000E+00 -0.45593999997E+02  0.45594000000E+02  0.51100000000E-03 0.  1.
    9900012    2    1    2    0    0  0.16570605079E+02 -0.14184650737E+02  0.34312906286E+02  0.50528870557E+02  0.30000032545E+02 0.  0.
        -12    1    1    2    0    0 -0.16570605079E+02  0.14184650737E+02 -0.34312906286E+02  0.40659129443E+02  0.00000000000E+00 0.  1.
         11    1    3    3    0    0  0.14795599630E+02 -0.99290249830E+01  0.22147039827E+02  0.28425106488E+02  0.51100000000E-03 0. -1.
        -11    1    3    3    0    0 -0.26975257350E+01 -0.10446729627E+02  0.65262335173E+01  0.12609620501E+02  0.51100000000E-03 0.  1.
        -12    1    3    3    0    0  0.44725311841E+01  0.61911038729E+01  0.56396329423E+01  0.94941435676E+01  0.00000000000E+00 0.  1.
</event>
<event>
 7    1  0.5935282E-013  0.5052886E+02  0.7816164E-02  0.1300439E+00
        -11   -1    0    0    0    0  0.00000000000E+00  0.00000000000E+00  0.45593999997E+02  0.45594000000E+02  0.51100000000E-03 0.  1.
         11   -1    0    0    0    0 -0.00000000000E+00 -0.00000000000E+00 -0.45593999997E+02  0.45594000000E+02  0.51100000000E-03 0. -1.
    9900012    2    1    2    0    0 -0.10545972008E+01  0.22183932398E+01 -0.40584874450E+02  0.50528862307E+02  0.30000007468E+02 0.  0.
        -12    1    1    2    0    0  0.10545972008E+01 -0.22183932398E+01  0.40584874450E+02  0.40659137693E+02  0.00000000000E+00 0.  1.
         11    1    3    3    0    0  0.17634117651E+01  0.97587001269E+01 -0.13907909112E+02  0.17081328559E+02  0.51100000000E-03 0.  1.
        -11    1    3    3    0    0 -0.10264712437E+01  0.48946936213E+01 -0.16615432806E+02  0.17351780210E+02  0.51100000000E-03 0. -1.
        -12    1    3    3    0    0 -0.17915377223E+01 -0.12435000508E+02 -0.10061532533E+02  0.16095753538E+02  0.00000000000E+00 0.  1.
</event>
<event>
 7    1  0.5935282E-013  0.5052886E+02  0.7816164E-02  0.1300439E+00
        -11   -1    0    0    0    0  0.00000000000E+00  0.00000000000E+00  0.45593999997E+02  0.45594000000E+02  0.51100000000E-03 0. -1.
         11   -1    0    0    0    0 -0.00000000000E+00 -0.00000000000E+00 -0.45593999997E+02  0.45594000000E+02  0.51100000000E-03 0.  1.
    9900012    2    1    2    0    0  0.15146234574E+02  0.36597088051E+02 -0.91875014051E+01  0.50528862556E+02  0.30000008226E+02 0.  0.
        -12    1    1    2    0    0 -0.15146234574E+02 -0.36597088051E+02  0.91875014051E+01  0.40659137444E+02  0.00000000000E+00 0.  1.
         11    1    3    3    0    0  0.56510825796E+01  0.20173317135E+02 -0.36650836405E+01  0.21268058137E+02  0.51100000000E-03 0. -1.
        -11    1    3    3    0    0  0.16461037052E+02  0.10237427718E+02 -0.30631586238E+01  0.19625330777E+02  0.51100000000E-03 0.  1.
        -12    1    3    3    0    0 -0.69658850572E+01  0.61863431982E+01 -0.24592591408E+01  0.96354736426E+01  0.00000000000E+00 0.  1.
</event>
<event>
 7    1  0.5935282E-013  0.5052885E+02  0.7816164E-02  0.1300439E+00
        -11   -1    0    0    0    0  0.00000000000E+00  0.00000000000E+00  0.45593999997E+02  0.45594000000E+02  0.51100000000E-03 0.  1.
         11   -1    0    0    0    0 -0.00000000000E+00 -0.00000000000E+00 -0.45593999997E+02  0.45594000000E+02  0.51100000000E-03 0. -1.
    9900012    2    1    2    0    0  0.14660488234E+02 -0.34392468251E+02  0.15981061000E+02  0.50528854678E+02  0.29999984279E+02 0.  0.
        -12    1    1    2    0    0 -0.14660488234E+02  0.34392468251E+02 -0.15981061000E+02  0.40659145322E+02  0.00000000000E+00 0.  1.
         11    1    3    3    0    0 -0.20444496873E+01 -0.12630752751E+02 -0.62583743417E+00  0.12810439584E+02  0.51100000000E-03 0. -1.
        -11    1    3    3    0    0  0.46858180550E+01 -0.95855391223E+01  0.17598977602E+02  0.20580657522E+02  0.51100000000E-03 0.  1.
         12    1    3    3    0    0  0.12019119866E+02 -0.12176176378E+02 -0.99207916811E+00  0.17137757573E+02  0.00000000000E+00 0. -1.
</event>
<event>
 7    1  0.5935282E-013  0.5052886E+02  0.7816164E-02  0.1300439E+00
        -11   -1    0    0    0    0  0.00000000000E+00  0.00000000000E+00  0.45593999997E+02  0.45594000000E+02  0.51100000000E-03 0.  1.
         11   -1    0    0    0    0 -0.00000000000E+00 -0.00000000000E+00 -0.45593999997E+02  0.45594000000E+02  0.51100000000E-03 0. -1.
    9900012    2    1    2    0    0 -0.33444732959E+02 -0.12135583139E+02 -0.19681031903E+02  0.50528861328E+02  0.30000004492E+02 0.  0.
        -12    1    1    2    0    0  0.33444732959E+02  0.12135583139E+02  0.19681031903E+02  0.40659138672E+02  0.00000000000E+00 0.  1.
         11    1    3    3    0    0 -0.20583739082E+02 -0.51502193046E+01 -0.23458355995E+01  0.21347552984E+02  0.51100000000E-03 0.  1.
        -11    1    3    3    0    0 -0.12616508902E+02 -0.44078690959E+01 -0.18625082170E+01  0.13493500063E+02  0.51100000000E-03 0. -1.
         12    1    3    3    0    0 -0.24448497462E+00 -0.25774947381E+01 -0.15472688086E+02  0.15687808281E+02  0.00000000000E+00 0. -1.
</event>
<event>
 7    1  0.5935282E-013  0.5052886E+02  0.7816164E-02  0.1300439E+00
        -11   -1    0    0    0    0  0.00000000000E+00  0.00000000000E+00  0.45593999997E+02  0.45594000000E+02  0.51100000000E-03 0. -1.
         11   -1    0    0    0    0 -0.00000000000E+00 -0.00000000000E+00 -0.45593999997E+02  0.45594000000E+02  0.51100000000E-03 0.  1.
    9900012    2    1    2    0    0  0.35514970426E+02 -0.16658894591E+02 -0.10692701187E+02  0.50528858936E+02  0.29999997223E+02 0.  0.
        -12    1    1    2    0    0 -0.35514970426E+02  0.16658894591E+02  0.10692701187E+02  0.40659141064E+02  0.00000000000E+00 0.  1.
         11    1    3    3    0    0  0.14888783480E+02 -0.13773545182E+02 -0.18288506364E+01  0.20364948203E+02  0.51100000000E-03 0. -1.
        -11    1    3    3    0    0  0.20073786782E+02 -0.93795680042E+01 -0.81452637210E+01  0.23606747617E+02  0.51100000000E-03 0.  1.
        -12    1    3    3    0    0  0.55240016462E+00  0.64942185953E+01 -0.71858682976E+00  0.65571631166E+01  0.00000000000E+00 0.  1.
</event>
<event>
 7    1  0.5935282E-013  0.5052884E+02  0.7816164E-02  0.1300439E+00
        -11   -1    0    0    0    0  0.00000000000E+00  0.00000000000E+00  0.45593999997E+02  0.45594000000E+02  0.51100000000E-03 0. -1.
         11   -1    0    0    0    0 -0.00000000000E+00 -0.00000000000E+00 -0.45593999997E+02  0.45594000000E+02  0.51100000000E-03 0.  1.
    9900012    2    1    2    0    0 -0.22959280843E+02  0.29507575515E+01  0.33426517240E+02  0.50528836190E+02  0.29999928082E+02 0.  0.
        -12    1    1    2    0    0  0.22959280843E+02 -0.29507575515E+01 -0.33426517240E+02  0.40659163810E+02  0.00000000000E+00 0.  1.
         11    1    3    3    0    0 -0.13608843306E+02 -0.53097571676E+01  0.88568300976E+01  0.17083254285E+02  0.51100000000E-03 0. -1.
        -11    1    3    3    0    0  0.34188830578E+01 -0.35605409340E+01  0.81047872655E+01  0.94896675382E+01  0.51100000000E-03 0.  1.
        -12    1    3    3    0    0 -0.12769320595E+02  0.11821055653E+02  0.16464899877E+02  0.23955914367E+02  0.00000000000E+00 0.  1.
</event>
<event>
 7    1  0.5935282E-013  0.5052875E+02  0.7816164E-02  0.1300439E+00
        -11   -1    0    0    0    0  0.00000000000E+00  0.00000000000E+00  0.45593999997E+02  0.45594000000E+02  0.51100000000E-03 0.  1.
         11   -1    0    0    0    0 -0.00000000000E+00 -0.00000000000E+00 -0.45593999997E+02  0.45594000000E+02  0.51100000000E-03 0. -1.
    9900012    2    1    2    0    0 -0.87185438328E+01  0.17879460618E+02 -0.35461050906E+02  0.50528754435E+02  0.29999679579E+02 0.  0.
        -12    1    1    2    0    0  0.87185438328E+01 -0.17879460618E+02  0.35461050906E+02  0.40659245565E+02  0.00000000000E+00 0.  1.
         11    1    3    3    0    0  0.15232713021E+01  0.73507994379E+01 -0.27753445809E+01  0.80035708056E+01  0.51100000000E-03 0. -1.
        -11    1    3    3    0    0  0.61527037668E+01  0.44865246658E+01 -0.32179193527E+01  0.82667812624E+01  0.51100000000E-03 0.  1.
         12    1    3    3    0    0 -0.16394518902E+02  0.60421365141E+01 -0.29467786973E+02  0.34258402367E+02  0.00000000000E+00 0. -1.
</event>
<event>
 7    1  0.5935282E-013  0.5052886E+02  0.7816164E-02  0.1300439E+00
        -11   -1    0    0    0    0  0.00000000000E+00  0.00000000000E+00  0.45593999997E+02  0.45594000000E+02  0.51100000000E-03 0.  1.
         11   -1    0    0    0    0 -0.00000000000E+00 -0.00000000000E+00 -0.45593999997E+02  0.45594000000E+02  0.51100000000E-03 0. -1.
    9900012    2    1    2    0    0  0.59471072976E+01  0.14689138689E+02 -0.37443651273E+02  0.50528857101E+02  0.29999991644E+02 0.  0.
        -12    1    1    2    0    0 -0.59471072976E+01 -0.14689138689E+02  0.37443651273E+02  0.40659142899E+02  0.00000000000E+00 0.  1.
         11    1    3    3    0    0 -0.19203503870E+01  0.62375046537E+01 -0.50530982470E+01  0.82539694734E+01  0.51100000000E-03 0. -1.
        -11    1    3    3    0    0  0.10217637923E+02  0.16153652262E+02 -0.22783847837E+02  0.29739608751E+02  0.51100000000E-03 0.  1.
        -12    1    3    3    0    0 -0.23501802389E+01 -0.77020182271E+01 -0.96067051888E+01  0.12535278876E+02  0.00000000000E+00 0.  1.
</event>
<event>
 7    1  0.5935282E-013  0.5052885E+02  0.7816164E-02  0.1300439E+00
        -11   -1    0    0    0    0  0.00000000000E+00  0.00000000000E+00  0.45593999997E+02  0.45594000000E+02  0.51100000000E-03 0.  1.
         11   -1    0    0    0    0 -0.00000000000E+00 -0.00000000000E+00 -0.45593999997E+02  0.45594000000E+02  0.51100000000E-03 0. -1.
    9900012    2    1    2    0    0 -0.26900045139E+02 -0.11133339502E+01 -0.30468256083E+02  0.50528848881E+02  0.29999966658E+02 0.  0.
        -12    1    1    2    0    0  0.26900045139E+02  0.11133339502E+01  0.30468256083E+02  0.40659151119E+02  0.00000000000E+00 0.  1.
         11    1    3    3    0    0 -0.10037196012E+02 -0.24775886269E+01 -0.59180416190E+01  0.11912471030E+02  0.51100000000E-03 0. -1.
        -11    1    3    3    0    0 -0.11013242381E+02 -0.17070611954E+01  0.19420500870E+01  0.11312697488E+02  0.51100000000E-03 0.  1.
         12    1    3    3    0    0 -0.58496067467E+01  0.30713158721E+01 -0.26492264551E+02  0.27303680362E+02  0.00000000000E+00 0. -1.
</event>
<event>
 7    1  0.5935282E-013  0.5052884E+02  0.7816164E-02  0.1300439E+00
        -11   -1    0    0    0    0  0.00000000000E+00  0.00000000000E+00  0.45593999997E+02  0.45594000000E+02  0.51100000000E-03 0. -1.
         11   -1    0    0    0    0 -0.00000000000E+00 -0.00000000000E+00 -0.45593999997E+02  0.45594000000E+02  0.51100000000E-03 0.  1.
    9900012    2    1    2    0    0 -0.25771110358E+02  0.29997040794E+02  0.94443107783E+01  0.50528836315E+02  0.29999928463E+02 0.  0.
        -12    1    1    2    0    0  0.25771110358E+02 -0.29997040794E+02 -0.94443107783E+01  0.40659163685E+02  0.00000000000E+00 0.  1.
         11    1    3    3    0    0 -0.10432627449E+02  0.22456357830E+02  0.12606696817E+02  0.27785905193E+02  0.51100000000E-03 0. -1.
        -11    1    3    3    0    0  0.29166577772E+00  0.29788523659E+01  0.39659589227E+01  0.49686477820E+01  0.51100000000E-03 0.  1.
        -12    1    3    3    0    0 -0.15630148687E+02  0.45618305976E+01 -0.71283449613E+01  0.17774283340E+02  0.00000000000E+00 0.  1.
</event>
<event>
 7    1  0.5935282E-013  0.5052886E+02  0.7816164E-02  0.1300439E+00
        -11   -1    0    0    0    0  0.00000000000E+00  0.00000000000E+00  0.45593999997E+02  0.45594000000E+02  0.51100000000E-03 0.  1.
         11   -1    0    0    0    0 -0.00000000000E+00 -0.00000000000E+00 -0.45593999997E+02  0.45594000000E+02  0.51100000000E-03 0. -1.
    9900012    2    1    2    0    0  0.20650023241E+02 -0.28882966244E+02 -0.19812023078E+02  0.50528862560E+02  0.30000008238E+02 0.  0.
        -12    1    1    2    0    0 -0.20650023241E+02  0.28882966244E+02  0.19812023078E+02  0.40659137440E+02  0.00000000000E+00 0.  1.
         11    1    3    3    0    0  0.88342015395E+01 -0.11701104947E+02 -0.53255123761E+01  0.15598719696E+02  0.51100000000E-03 0. -1.
        -11    1    3    3    0    0  0.18631610511E+02 -0.95128047714E+01 -0.12820707053E+02  0.24535706521E+02  0.51100000000E-03 0.  1.
        -12    1    3    3    0    0 -0.68157888102E+01 -0.76690565254E+01 -0.16658036487E+01  0.10394436343E+02  0.00000000000E+00 0.  1.
</event>
<event>
 7    1  0.5935282E-013  0.5052886E+02  0.7816164E-02  0.1300439E+00
        -11   -1    0    0    0    0  0.00000000000E+00  0.00000000000E+00  0.45593999997E+02  0.45594000000E+02  0.51100000000E-03 0.  1.
         11   -1    0    0    0    0 -0.00000000000E+00 -0.00000000000E+00 -0.45593999997E+02  0.45594000000E+02  0.51100000000E-03 0. -1.
    9900012    2    1    2    0    0  0.13113928320E+02  0.43162569216E+01 -0.38243433659E+02  0.50528863169E+02  0.30000010089E+02 0.  0.
        -12    1    1    2    0    0 -0.13113928320E+02 -0.43162569216E+01  0.38243433659E+02  0.40659136831E+02  0.00000000000E+00 0.  1.
         11    1    3    3    0    0 -0.60059283496E+01 -0.23240161280E+00 -0.12956811962E+02  0.14283002567E+02  0.51100000000E-03 0. -1.
        -11    1    3    3    0    0 -0.83668036884E+00 -0.36914620035E+01 -0.13703674287E+01  0.40255226883E+01  0.51100000000E-03 0.  1.
         12    1    3    3    0    0  0.19956537039E+02  0.82401205379E+01 -0.23916254268E+02  0.32220337914E+02  0.00000000000E+00 0. -1.
</event>
<event>
 7    1  0.5935282E-013  0.5052886E+02  0.7816164E-02  0.1300439E+00
        -11   -1    0    0    0    0  0.00000000000E+00  0.00000000000E+00  0.45593999997E+02  0.45594000000E+02  0.51100000000E-03 0.  1.
         11   -1    0    0    0    0 -0.00000000000E+00 -0.00000000000E+00 -0.45593999997E+02  0.45594000000E+02  0.51100000000E-03 0. -1.
    9900012    2    1    2    0    0  0.38302473170E+02 -0.99104718293E+01 -0.93738386362E+01  0.50528858917E+02  0.29999997164E+02 0.  0.
        -12    1    1    2    0    0 -0.38302473170E+02  0.99104718293E+01  0.93738386362E+01  0.40659141083E+02  0.00000000000E+00 0.  1.
         11    1    3    3    0    0  0.24093050950E+02 -0.92328464782E+01 -0.14893264401E+02  0.29791439759E+02  0.51100000000E-03 0. -1.
        -11    1    3    3    0    0  0.11790926327E+02 -0.66168954272E+01  0.44625813931E+01  0.14238113698E+02  0.51100000000E-03 0.  1.
        -12    1    3    3    0    0  0.24184958940E+01  0.59392700761E+01  0.10568443717E+01  0.64993054592E+01  0.00000000000E+00 0.  1.
</event>
<event>
 7    1  0.5935282E-013  0.5052887E+02  0.7816164E-02  0.1300439E+00
        -11   -1    0    0    0    0  0.00000000000E+00  0.00000000000E+00  0.45593999997E+02  0.45594000000E+02  0.51100000000E-03 0.  1.
         11   -1    0    0    0    0 -0.00000000000E+00 -0.00000000000E+00 -0.45593999997E+02  0.45594000000E+02  0.51100000000E-03 0. -1.
    9900012    2    1    2    0    0  0.32642003235E+02 -0.23336437011E+02  0.65631860062E+01  0.50528867224E+02  0.30000022414E+02 0.  0.
        -12    1    1    2    0    0 -0.32642003235E+02  0.23336437011E+02 -0.65631860062E+01  0.40659132776E+02  0.00000000000E+00 0.  1.
         11    1    3    3    0    0  0.17922804137E+02 -0.69880451114E+01  0.55335290842E+01  0.20016983464E+02  0.51100000000E-03 0. -1.
        -11    1    3    3    0    0  0.15626215168E+02 -0.15542193465E+02  0.79926054914E+01  0.23443978352E+02  0.51100000000E-03 0.  1.
         12    1    3    3    0    0 -0.90701607011E+00 -0.80619843424E+00 -0.69629485694E+01  0.70679054073E+01  0.00000000000E+00 0. -1.
</event>
<event>
 7    1  0.5935282E-013  0.5052884E+02  0.7816164E-02  0.1300439E+00
        -11   -1    0    0    0    0  0.00000000000E+00  0.00000000000E+00  0.45593999997E+02  0.45594000000E+02  0.51100000000E-03 0.  1.
         11   -1    0    0    0    0 -0.00000000000E+00 -0.00000000000E+00 -0.45593999997E+02  0.45594000000E+02  0.51100000000E-03 0. -1.
    9900012    2    1    2    0    0 -0.36422884170E+02  0.15135868202E+02 -0.98714902449E+01  0.50528839689E+02  0.29999938719E+02 0.  0.
        -12    1    1    2    0    0  0.36422884170E+02 -0.15135868202E+02  0.98714902449E+01  0.40659160311E+02  0.00000000000E+00 0.  1.
         11    1    3    3    0    0 -0.21479540297E+02  0.13197231959E+02 -0.71454474693E+01  0.26202957897E+02  0.51100000000E-03 0. -1.
        -11    1    3    3    0    0 -0.94171304698E+01  0.93031746412E+01  0.28785727374E+01  0.13546866278E+02  0.51100000000E-03 0.  1.
        -12    1    3    3    0    0 -0.55262134036E+01 -0.73645383985E+01 -0.56046155131E+01  0.10779015514E+02  0.00000000000E+00 0.  1.
</event>
<event>
 7    1  0.5935282E-013  0.5052885E+02  0.7816164E-02  0.1300439E+00
        -11   -1    0    0    0    0  0.00000000000E+00  0.00000000000E+00  0.45593999997E+02  0.45594000000E+02  0.51100000000E-03 0. -1.
         11   -1    0    0    0    0 -0.00000000000E+00 -0.00000000000E+00 -0.45593999997E+02  0.45594000000E+02  0.51100000000E-03 0.  1.
    9900012    2    1    2    0    0 -0.36766773796E+02  0.16780546483E+02  0.44479537702E+01  0.50528847422E+02  0.29999962224E+02 0.  0.
        -12    1    1    2    0    0  0.36766773796E+02 -0.16780546483E+02 -0.44479537702E+01  0.40659152578E+02  0.00000000000E+00 0.  1.
         11    1    3    3    0    0 -0.27636954249E+02  0.10746326743E+02  0.97515090256E+01  0.31215007723E+02  0.51100000000E-03 0. -1.
        -11    1    3    3    0    0 -0.32675845467E+01  0.50949585166E+01  0.47121408573E+01  0.76707224416E+01  0.51100000000E-03 0.  1.
        -12    1    3    3    0    0 -0.58622350004E+01  0.93926122260E+00 -0.10015696113E+02  0.11643117257E+02  0.00000000000E+00 0.  1.
</event>
<event>
 7    1  0.5935282E-013  0.5052886E+02  0.7816164E-02  0.1300439E+00
        -11   -1    0    0    0    0  0.00000000000E+00  0.00000000000E+00  0.45593999997E+02  0.45594000000E+02  0.51100000000E-03 0.  1.
         11   -1    0    0    0    0 -0.00000000000E+00 -0.00000000000E+00 -0.45593999997E+02  0.45594000000E+02  0.51100000000E-03 0. -1.
    9900012    2    1    2    0    0 -0.11948172435E+02  0.37485613587E+02  0.10258447883E+02  0.50528858304E+02  0.29999995300E+02 0.  0.
        -12    1    1    2    0    0  0.11948172435E+02 -0.37485613587E+02 -0.10258447883E+02  0.40659141696E+02  0.00000000000E+00 0.  1.
         11    1    3    3    0    0 -0.86071341413E+01  0.20134838383E+02 -0.35492943369E+01  0.22183145976E+02  0.51100000000E-03 0. -1.
        -11    1    3    3    0    0 -0.84332012699E+01  0.13568098162E+02  0.36773269520E+01  0.16393135916E+02  0.51100000000E-03 0.  1.
        -12    1    3    3    0    0  0.50921629764E+01  0.37826770416E+01  0.10130415268E+02  0.11952576412E+02  0.00000000000E+00 0.  1.
</event>
<event>
 7    1  0.5935282E-013  0.5052886E+02  0.7816164E-02  0.1300439E+00
        -11   -1    0    0    0    0  0.00000000000E+00  0.00000000000E+00  0.45593999997E+02  0.45594000000E+02  0.51100000000E-03 0. -1.
         11   -1    0    0    0    0 -0.00000000000E+00 -0.00000000000E+00 -0.45593999997E+02  0.45594000000E+02  0.51100000000E-03 0.  1.
    9900012    2    1    2    0    0  0.17902601871E+02  0.29081990119E+02  0.22065818934E+02  0.50528859967E+02  0.30000000355E+02 0.  0.
        -12    1    1    2    0    0 -0.17902601871E+02 -0.29081990119E+02 -0.22065818934E+02  0.40659140033E+02  0.00000000000E+00 0.  1.
         11    1    3    3    0    0  0.12077311029E+02  0.10087898054E+02 -0.99361091470E+00  0.15767510639E+02  0.51100000000E-03 0.  1.
        -11    1    3    3    0    0  0.49967263283E+01  0.30177403940E+01  0.16444604158E+02  0.17449900780E+02  0.51100000000E-03 0. -1.
        -12    1    3    3    0    0  0.82856451318E+00  0.15976351671E+02  0.66148256906E+01  0.17311448547E+02  0.00000000000E+00 0.  1.
</event>
<event>
 7    1  0.5935282E-013  0.5052888E+02  0.7816164E-02  0.1300439E+00
        -11   -1    0    0    0    0  0.00000000000E+00  0.00000000000E+00  0.45593999997E+02  0.45594000000E+02  0.51100000000E-03 0. -1.
         11   -1    0    0    0    0 -0.00000000000E+00 -0.00000000000E+00 -0.45593999997E+02  0.45594000000E+02  0.51100000000E-03 0.  1.
    9900012    2    1    2    0    0  0.27839843729E+02  0.62089421696E+01  0.28975101180E+02  0.50528876177E+02  0.30000049627E+02 0.  0.
        -12    1    1    2    0    0 -0.27839843729E+02 -0.62089421696E+01 -0.28975101180E+02  0.40659123823E+02  0.00000000000E+00 0.  1.
         11    1    3    3    0    0  0.17453039060E+02 -0.77172929137E+01  0.16427310706E+02  0.25179787919E+02  0.51100000000E-03 0. -1.
        -11    1    3    3    0    0 -0.27393367968E+01  0.13458845676E+01  0.45676505477E+01  0.54935237455E+01  0.51100000000E-03 0.  1.
         12    1    3    3    0    0  0.13126141465E+02  0.12580350516E+02  0.79801399264E+01  0.19855564512E+02  0.00000000000E+00 0. -1.
</event>
<event>
 7    1  0.5935282E-013  0.5052886E+02  0.7816164E-02  0.1300439E+00
        -11   -1    0    0    0    0  0.00000000000E+00  0.00000000000E+00  0.45593999997E+02  0.45594000000E+02  0.51100000000E-03 0.  1.
         11   -1    0    0    0    0 -0.00000000000E+00 -0.00000000000E+00 -0.45593999997E+02  0.45594000000E+02  0.51100000000E-03 0. -1.
    9900012    2    1    2    0    0  0.72446608557E+01  0.30240767786E+02 -0.26194965150E+02  0.50528863925E+02  0.30000012386E+02 0.  0.
        -12    1    1    2    0    0 -0.72446608557E+01 -0.30240767786E+02  0.26194965150E+02  0.40659136075E+02  0.00000000000E+00 0.  1.
         11    1    3    3    0    0  0.32347911132E-01  0.20071460001E+02 -0.65312266781E+01  0.21107379637E+02  0.51100000000E-03 0. -1.
        -11    1    3    3    0    0 -0.16089791525E+00  0.11994781076E+02 -0.51793318460E+01  0.13066221330E+02  0.51100000000E-03 0.  1.
         12    1    3    3    0    0  0.73732108598E+01 -0.18254732915E+01 -0.14484406626E+02  0.16355262958E+02  0.00000000000E+00 0. -1.
</event>
<event>
 7    1  0.5935282E-013  0.5052891E+02  0.7816164E-02  0.1300439E+00
        -11   -1    0    0    0    0  0.00000000000E+00  0.00000000000E+00  0.45593999997E+02  0.45594000000E+02  0.51100000000E-03 0.  1.
         11   -1    0    0    0    0 -0.00000000000E+00 -0.00000000000E+00 -0.45593999997E+02  0.45594000000E+02  0.51100000000E-03 0. -1.
    9900012    2    1    2    0    0 -0.33677247573E+02 -0.19751258816E+02 -0.11353062711E+02  0.50528914153E+02  0.30000165060E+02 0.  0.
        -12    1    1    2    0    0  0.33677247573E+02  0.19751258816E+02  0.11353062711E+02  0.40659085847E+02  0.00000000000E+00 0.  1.
         11    1    3    3    0    0 -0.23617264350E+02 -0.18196082943E+02 -0.35875385647E+01  0.30029036666E+02  0.51100000000E-03 0. -1.
        -11    1    3    3    0    0 -0.72467108396E+01 -0.32632332161E+01  0.35580888509E+01  0.87076693522E+01  0.51100000000E-03 0.  1.
         12    1    3    3    0    0 -0.28132723840E+01  0.17080573431E+01 -0.11323612998E+02  0.11792208136E+02  0.00000000000E+00 0. -1.
</event>
<event>
 7    1  0.5935282E-013  0.5052886E+02  0.7816164E-02  0.1300439E+00
        -11   -1    0    0    0    0  0.00000000000E+00  0.00000000000E+00  0.45593999997E+02  0.45594000000E+02  0.51100000000E-03 0.  1.
         11   -1    0    0    0    0 -0.00000000000E+00 -0.00000000000E+00 -0.45593999997E+02  0.45594000000E+02  0.51100000000E-03 0. -1.
    9900012    2    1    2    0    0  0.27805631389E+00 -0.16490936242E+02 -0.37163661648E+02  0.50528855388E+02  0.29999986438E+02 0.  0.
        -12    1    1    2    0    0 -0.27805631389E+00  0.16490936242E+02  0.37163661648E+02  0.40659144612E+02  0.00000000000E+00 0.  1.
         11    1    3    3    0    0  0.28366541590E+01 -0.58366590680E+01 -0.12015258709E+02  0.13655754758E+02  0.51100000000E-03 0. -1.
        -11    1    3    3    0    0 -0.29272950645E+01 -0.22548030326E+00 -0.26219130790E+02  0.26383000538E+02  0.51100000000E-03 0.  1.
        -12    1    3    3    0    0  0.36869721936E+00 -0.10428796871E+02  0.10707278510E+01  0.10490100092E+02  0.00000000000E+00 0.  1.
</event>
<event>
 7    1  0.5935282E-013  0.5052885E+02  0.7816164E-02  0.1300439E+00
        -11   -1    0    0    0    0  0.00000000000E+00  0.00000000000E+00  0.45593999997E+02  0.45594000000E+02  0.51100000000E-03 0.  1.
         11   -1    0    0    0    0 -0.00000000000E+00 -0.00000000000E+00 -0.45593999997E+02  0.45594000000E+02  0.51100000000E-03 0. -1.
    9900012    2    1    2    0    0 -0.12342236264E+02  0.12467185430E+02 -0.36679761736E+02  0.50528850605E+02  0.29999971898E+02 0.  0.
        -12    1    1    2    0    0  0.12342236264E+02 -0.12467185430E+02  0.36679761736E+02  0.40659149395E+02  0.00000000000E+00 0.  1.
         11    1    3    3    0    0 -0.54935237172E+01  0.83748178224E+01 -0.90000278718E+01  0.13465395588E+02  0.51100000000E-03 0. -1.
        -11    1    3    3    0    0 -0.96384841987E+01 -0.43080334577E+01 -0.31987395644E+01  0.11031385452E+02  0.51100000000E-03 0.  1.
         12    1    3    3    0    0  0.27897716517E+01  0.84004010650E+01 -0.24480994300E+02  0.26032069565E+02  0.00000000000E+00 0. -1.
</event>
<event>
 7    1  0.5935282E-013  0.5052886E+02  0.7816164E-02  0.1300439E+00
        -11   -1    0    0    0    0  0.00000000000E+00  0.00000000000E+00  0.45593999997E+02  0.45594000000E+02  0.51100000000E-03 0.  1.
         11   -1    0    0    0    0 -0.00000000000E+00 -0.00000000000E+00 -0.45593999997E+02  0.45594000000E+02  0.51100000000E-03 0. -1.
    9900012    2    1    2    0    0 -0.10322469453E+02  0.34458521031E+02 -0.18953171534E+02  0.50528858858E+02  0.29999996984E+02 0.  0.
        -12    1    1    2    0    0  0.10322469453E+02 -0.34458521031E+02  0.18953171534E+02  0.40659141142E+02  0.00000000000E+00 0.  1.
         11    1    3    3    0    0 -0.13064017488E+00  0.20662831323E+02 -0.16545349609E+02  0.26471083452E+02  0.51100000000E-03 0. -1.
        -11    1    3    3    0    0  0.12463409216E+01  0.54451988816E+00  0.49024784647E+01  0.50876480774E+01  0.51100000000E-03 0.  1.
         12    1    3    3    0    0 -0.11438170199E+02  0.13251169819E+02 -0.73103003894E+01  0.18970127329E+02  0.00000000000E+00 0. -1.
</event>
<event>
 7    1  0.5935282E-013  0.5052887E+02  0.7816164E-02  0.1300439E+00
        -11   -1    0    0    0    0  0.00000000000E+00  0.00000000000E+00  0.45593999997E+02  0.45594000000E+02  0.51100000000E-03 0.  1.
         11   -1    0    0    0    0 -0.00000000000E+00 -0.00000000000E+00 -0.45593999997E+02  0.45594000000E+02  0.51100000000E-03 0. -1.
    9900012    2    1    2    0    0 -0.29969372798E+02 -0.96891286229E+01 -0.25712304941E+02  0.50528866404E+02  0.30000019921E+02 0.  0.
        -12    1    1    2    0    0  0.29969372798E+02  0.96891286229E+01  0.25712304941E+02  0.40659133596E+02  0.00000000000E+00 0.  1.
         11    1    3    3    0    0 -0.11761150465E+02  0.89723155304E+00 -0.50443433663E+01  0.12828682121E+02  0.51100000000E-03 0. -1.
        -11    1    3    3    0    0 -0.84106342064E+01  0.62044540085E+01 -0.17928424498E+01  0.10604164352E+02  0.51100000000E-03 0.  1.
         12    1    3    3    0    0 -0.97975881274E+01 -0.16790814184E+02 -0.18875119125E+02  0.27096019930E+02  0.00000000000E+00 0. -1.
</event>
<event>
 7    1  0.5935282E-013  0.5052885E+02  0.7816164E-02  0.1300439E+00
        -11   -1    0    0    0    0  0.00000000000E+00  0.00000000000E+00  0.45593999997E+02  0.45594000000E+02  0.51100000000E-03 0. -1.
         11   -1    0    0    0    0 -0.00000000000E+00 -0.00000000000E+00 -0.45593999997E+02  0.45594000000E+02  0.51100000000E-03 0.  1.
    9900012    2    1    2    0    0 -0.13526495994E+02 -0.34390094426E+01  0.38188660528E+02  0.50528847614E+02  0.29999962806E+02 0.  0.
        -12    1    1    2    0    0  0.13526495994E+02  0.34390094426E+01 -0.38188660528E+02  0.40659152386E+02  0.00000000000E+00 0.  1.
         11    1    3    3    0    0 -0.10133634122E+02 -0.10124002549E+02  0.10637238654E+02  0.17841995813E+02  0.51100000000E-03 0. -1.
        -11    1    3    3    0    0 -0.23694284929E+01  0.34759225049E+01  0.28791739883E+02  0.29097431405E+02  0.51100000000E-03 0.  1.
        -12    1    3    3    0    0 -0.10234333794E+01  0.32090706020E+01 -0.12403180089E+01  0.35894203952E+01  0.00000000000E+00 0.  1.
</event>
<event>
 7    1  0.5935282E-013  0.5052885E+02  0.7816164E-02  0.1300439E+00
        -11   -1    0    0    0    0  0.00000000000E+00  0.00000000000E+00  0.45593999997E+02  0.45594000000E+02  0.51100000000E-03 0.  1.
         11   -1    0    0    0    0 -0.00000000000E+00 -0.00000000000E+00 -0.45593999997E+02  0.45594000000E+02  0.51100000000E-03 0. -1.
    9900012    2    1    2    0    0  0.23824119712E+02 -0.24418473058E+02 -0.22120487631E+02  0.50528849989E+02  0.29999970028E+02 0.  0.
        -12    1    1    2    0    0 -0.23824119712E+02  0.24418473058E+02  0.22120487631E+02  0.40659150011E+02  0.00000000000E+00 0.  1.
         11    1    3    3    0    0  0.71149060179E+01 -0.15814358550E+02 -0.18761120887E+02  0.25547905613E+02  0.51100000000E-03 0. -1.
        -11    1    3    3    0    0 -0.21503603756E+01 -0.72652230938E+00 -0.39254381150E+01  0.45344182722E+01  0.51100000000E-03 0.  1.
        -12    1    3    3    0    0  0.18859574070E+02 -0.78775921984E+01  0.56607137114E+00  0.20446526104E+02  0.00000000000E+00 0.  1.
</event>
<event>
 7    1  0.5935282E-013  0.5052886E+02  0.7816164E-02  0.1300439E+00
        -11   -1    0    0    0    0  0.00000000000E+00  0.00000000000E+00  0.45593999997E+02  0.45594000000E+02  0.51100000000E-03 0.  1.
         11   -1    0    0    0    0 -0.00000000000E+00 -0.00000000000E+00 -0.45593999997E+02  0.45594000000E+02  0.51100000000E-03 0. -1.
    9900012    2    1    2    0    0 -0.61204831608E+01 -0.33812841033E+02 -0.21734698486E+02  0.50528860177E+02  0.30000000994E+02 0.  0.
        -12    1    1    2    0    0  0.61204831608E+01  0.33812841033E+02  0.21734698486E+02  0.40659139823E+02  0.00000000000E+00 0.  1.
         11    1    3    3    0    0 -0.11222579235E+02 -0.11839132240E+02 -0.11948816618E+02  0.20220918765E+02  0.51100000000E-03 0.  1.
        -11    1    3    3    0    0 -0.14045446897E+01 -0.55733744732E+01  0.47430239875E+01  0.74519477730E+01  0.51100000000E-03 0. -1.
         12    1    3    3    0    0  0.65066407643E+01 -0.16400334320E+02 -0.14528905855E+02  0.22855993639E+02  0.00000000000E+00 0. -1.
</event>
<event>
 7    1  0.5935282E-013  0.5052886E+02  0.7816164E-02  0.1300439E+00
        -11   -1    0    0    0    0  0.00000000000E+00  0.00000000000E+00  0.45593999997E+02  0.45594000000E+02  0.51100000000E-03 0.  1.
         11   -1    0    0    0    0 -0.00000000000E+00 -0.00000000000E+00 -0.45593999997E+02  0.45594000000E+02  0.51100000000E-03 0. -1.
    9900012    2    1    2    0    0 -0.23446912487E+02 -0.28696077167E+02 -0.16731489924E+02  0.50528864433E+02  0.30000013931E+02 0.  0.
        -12    1    1    2    0    0  0.23446912487E+02  0.28696077167E+02  0.16731489924E+02  0.40659135567E+02  0.00000000000E+00 0.  1.
         11    1    3    3    0    0 -0.26026790515E+02 -0.21204720733E+02 -0.10383488029E+02  0.35140444359E+02  0.51100000000E-03 0. -1.
        -11    1    3    3    0    0 -0.25533985871E+01 -0.35001619595E+01 -0.76174305646E+01  0.87633456371E+01  0.51100000000E-03 0.  1.
        -12    1    3    3    0    0  0.51332766153E+01 -0.39911944748E+01  0.12694286689E+01  0.66250744366E+01  0.00000000000E+00 0.  1.
</event>
<event>
 7    1  0.5935282E-013  0.5052886E+02  0.7816164E-02  0.1300439E+00
        -11   -1    0    0    0    0  0.00000000000E+00  0.00000000000E+00  0.45593999997E+02  0.45594000000E+02  0.51100000000E-03 0.  1.
         11   -1    0    0    0    0 -0.00000000000E+00 -0.00000000000E+00 -0.45593999997E+02  0.45594000000E+02  0.51100000000E-03 0. -1.
    9900012    2    1    2    0    0 -0.23113345107E+02  0.27494865641E+02 -0.19051797813E+02  0.50528863775E+02  0.30000011929E+02 0.  0.
        -12    1    1    2    0    0  0.23113345107E+02 -0.27494865641E+02  0.19051797813E+02  0.40659136225E+02  0.00000000000E+00 0.  1.
         11    1    3    3    0    0 -0.22287622749E+01  0.66011414573E+00 -0.78916666083E+01  0.82268787570E+01  0.51100000000E-03 0. -1.
        -11    1    3    3    0    0  0.48107959746E+01  0.35569586256E+01 -0.29549090365E+01  0.66728704655E+01  0.51100000000E-03 0.  1.
        -12    1    3    3    0    0 -0.25695378807E+02  0.23277792870E+02 -0.82052221684E+01  0.35629114552E+02  0.00000000000E+00 0.  1.
</event>
<event>
 7    1  0.5935282E-013  0.5052886E+02  0.7816164E-02  0.1300439E+00
        -11   -1    0    0    0    0  0.00000000000E+00  0.00000000000E+00  0.45593999997E+02  0.45594000000E+02  0.51100000000E-03 0. -1.
         11   -1    0    0    0    0 -0.00000000000E+00 -0.00000000000E+00 -0.45593999997E+02  0.45594000000E+02  0.51100000000E-03 0.  1.
    9900012    2    1    2    0    0  0.24567073909E+02 -0.23649975623E+02  0.22142789798E+02  0.50528860714E+02  0.30000002627E+02 0.  0.
        -12    1    1    2    0    0 -0.24567073909E+02  0.23649975623E+02 -0.22142789798E+02  0.40659139286E+02  0.00000000000E+00 0.  1.
         11    1    3    3    0    0  0.98538283274E+01 -0.24886674524E+01  0.98522679249E+00  0.10210880006E+02  0.51100000000E-03 0. -1.
        -11    1    3    3    0    0 -0.51944684430E+01 -0.54811589040E+01  0.40299571981E+00  0.75622755271E+01  0.51100000000E-03 0.  1.
         12    1    3    3    0    0  0.19907714025E+02 -0.15680149267E+02  0.20754567285E+02  0.32755705181E+02  0.00000000000E+00 0. -1.
</event>
<event>
 7    1  0.5935282E-013  0.5052887E+02  0.7816164E-02  0.1300439E+00
        -11   -1    0    0    0    0  0.00000000000E+00  0.00000000000E+00  0.45593999997E+02  0.45594000000E+02  0.51100000000E-03 0.  1.
         11   -1    0    0    0    0 -0.00000000000E+00 -0.00000000000E+00 -0.45593999997E+02  0.45594000000E+02  0.51100000000E-03 0. -1.
    9900012    2    1    2    0    0  0.21252726400E+02  0.16487651106E+02 -0.30490066013E+02  0.50528866415E+02  0.30000019955E+02 0.  0.
        -12    1    1    2    0    0 -0.21252726400E+02 -0.16487651106E+02  0.30490066013E+02  0.40659133585E+02  0.00000000000E+00 0.  1.
         11    1    3    3    0    0  0.72557184826E+01  0.56407732986E+01  0.76979629723E+00  0.92226005392E+01  0.51100000000E-03 0. -1.
        -11    1    3    3    0    0  0.29473768572E+00 -0.15824624644E+01  0.24045466773E+01  0.28935968515E+01  0.51100000000E-03 0.  1.
         12    1    3    3    0    0  0.13702270231E+02  0.12429340272E+02 -0.33664408988E+02  0.38412669024E+02  0.00000000000E+00 0. -1.
</event>
<event>
 7    1  0.5935282E-013  0.5052886E+02  0.7816164E-02  0.1300439E+00
        -11   -1    0    0    0    0  0.00000000000E+00  0.00000000000E+00  0.45593999997E+02  0.45594000000E+02  0.51100000000E-03 0.  1.
         11   -1    0    0    0    0 -0.00000000000E+00 -0.00000000000E+00 -0.45593999997E+02  0.45594000000E+02  0.51100000000E-03 0. -1.
    9900012    2    1    2    0    0  0.64661394468E+01  0.16047218601E+02 -0.36794584409E+02  0.50528860486E+02  0.30000001933E+02 0.  0.
        -12    1    1    2    0    0 -0.64661394468E+01 -0.16047218601E+02  0.36794584409E+02  0.40659139514E+02  0.00000000000E+00 0.  1.
         11    1    3    3    0    0 -0.79117168951E+01  0.11701108874E+02 -0.21534720260E+02  0.25753745166E+02  0.51100000000E-03 0. -1.
        -11    1    3    3    0    0 -0.14880146121E+01  0.18412136188E+01  0.33105091252E+00  0.23903660899E+01  0.51100000000E-03 0.  1.
         12    1    3    3    0    0  0.15865870954E+02  0.25048961085E+01 -0.15590915061E+02  0.22384749230E+02  0.00000000000E+00 0. -1.
</event>
<event>
 7    1  0.5935282E-013  0.5052887E+02  0.7816164E-02  0.1300439E+00
        -11   -1    0    0    0    0  0.00000000000E+00  0.00000000000E+00  0.45593999997E+02  0.45594000000E+02  0.51100000000E-03 0.  1.
         11   -1    0    0    0    0 -0.00000000000E+00 -0.00000000000E+00 -0.45593999997E+02  0.45594000000E+02  0.51100000000E-03 0. -1.
    9900012    2    1    2    0    0 -0.15196276977E+01  0.36127039932E+02 -0.18592809189E+02  0.50528870199E+02  0.30000031458E+02 0.  0.
        -12    1    1    2    0    0  0.15196276977E+01 -0.36127039932E+02  0.18592809189E+02  0.40659129801E+02  0.00000000000E+00 0.  1.
         11    1    3    3    0    0  0.77726028758E+01  0.18578070872E+01 -0.10012262453E+02  0.12810550430E+02  0.51100000000E-03 0. -1.
        -11    1    3    3    0    0 -0.22748418585E+01  0.80373624662E+00 -0.13648096045E+01  0.27719312677E+01  0.51100000000E-03 0.  1.
        -12    1    3    3    0    0 -0.70173887150E+01  0.33465496598E+02 -0.72157371317E+01  0.34946388501E+02  0.00000000000E+00 0.  1.
</event>
<event>
 7    1  0.5935282E-013  0.5052881E+02  0.7816164E-02  0.1300439E+00
        -11   -1    0    0    0    0  0.00000000000E+00  0.00000000000E+00  0.45593999997E+02  0.45594000000E+02  0.51100000000E-03 0. -1.
         11   -1    0    0    0    0 -0.00000000000E+00 -0.00000000000E+00 -0.45593999997E+02  0.45594000000E+02  0.51100000000E-03 0.  1.
    9900012    2    1    2    0    0  0.39683961201E+02  0.37000833284E+00 -0.88439860697E+01  0.50528809497E+02  0.29999846946E+02 0.  0.
        -12    1    1    2    0    0 -0.39683961201E+02 -0.37000833284E+00  0.88439860697E+01  0.40659190503E+02  0.00000000000E+00 0.  1.
         11    1    3    3    0    0 -0.24579486633E+01 -0.60860272126E+00 -0.39689696313E+00  0.25630911736E+01  0.51100000000E-03 0. -1.
        -11    1    3    3    0    0  0.18033261855E+02  0.11809096394E+01 -0.14428649813E+02  0.23125289542E+02  0.51100000000E-03 0.  1.
         12    1    3    3    0    0  0.24108648009E+02 -0.20229858525E+00  0.59815607067E+01  0.24840428781E+02  0.00000000000E+00 0. -1.
</event>
<event>
 7    1  0.5935282E-013  0.5052885E+02  0.7816164E-02  0.1300439E+00
        -11   -1    0    0    0    0  0.00000000000E+00  0.00000000000E+00  0.45593999997E+02  0.45594000000E+02  0.51100000000E-03 0. -1.
         11   -1    0    0    0    0 -0.00000000000E+00 -0.00000000000E+00 -0.45593999997E+02  0.45594000000E+02  0.51100000000E-03 0.  1.
    9900012    2    1    2    0    0 -0.35757835177E+02  0.18521097183E+02  0.56136114178E+01  0.50528850346E+02  0.29999971112E+02 0.  0.
        -12    1    1    2    0    0  0.35757835177E+02 -0.18521097183E+02 -0.56136114178E+01  0.40659149654E+02  0.00000000000E+00 0.  1.
         11    1    3    3    0    0 -0.92662652782E+01  0.51193914436E+01 -0.34286995659E+01  0.11127795017E+02  0.51100000000E-03 0. -1.
        -11    1    3    3    0    0 -0.26432686436E+02  0.13125015763E+02 -0.83108095561E+00  0.29523611683E+02  0.51100000000E-03 0.  1.
        -12    1    3    3    0    0 -0.58883462801E-01  0.27668997698E+00  0.98733919393E+01  0.98774436466E+01  0.00000000000E+00 0.  1.
</event>
<event>
 7    1  0.5935282E-013  0.5052886E+02  0.7816164E-02  0.1300439E+00
        -11   -1    0    0    0    0  0.00000000000E+00  0.00000000000E+00  0.45593999997E+02  0.45594000000E+02  0.51100000000E-03 0.  1.
         11   -1    0    0    0    0 -0.00000000000E+00 -0.00000000000E+00 -0.45593999997E+02  0.45594000000E+02  0.51100000000E-03 0. -1.
    9900012    2    1    2    0    0 -0.20767255061E+01  0.39783061531E+02 -0.81339198971E+01  0.50528862940E+02  0.30000009392E+02 0.  0.
        -12    1    1    2    0    0  0.20767255061E+01 -0.39783061531E+02  0.81339198971E+01  0.40659137060E+02  0.00000000000E+00 0.  1.
         11    1    3    3    0    0 -0.18750355418E+01  0.12321259597E+02 -0.13141857345E+01  0.12532209731E+02  0.51100000000E-03 0. -1.
        -11    1    3    3    0    0 -0.10524123855E+02  0.14817029714E+02 -0.10872311181E+02  0.21178024061E+02  0.51100000000E-03 0.  1.
        -12    1    3    3    0    0  0.10322433890E+02  0.12644772219E+02  0.40525770186E+01  0.16818629147E+02  0.00000000000E+00 0.  1.
</event>
<event>
 7    1  0.5935282E-013  0.5052896E+02  0.7816164E-02  0.1300438E+00
        -11   -1    0    0    0    0  0.00000000000E+00  0.00000000000E+00  0.45593999997E+02  0.45594000000E+02  0.51100000000E-03 0. -1.
         11   -1    0    0    0    0 -0.00000000000E+00 -0.00000000000E+00 -0.45593999997E+02  0.45594000000E+02  0.51100000000E-03 0.  1.
    9900012    2    1    2    0    0 -0.27719440003E+02 -0.26731759952E+01 -0.29625062723E+02  0.50528959612E+02  0.30000303235E+02 0.  0.
        -12    1    1    2    0    0  0.27719440003E+02  0.26731759952E+01  0.29625062723E+02  0.40659040388E+02  0.00000000000E+00 0.  1.
         11    1    3    3    0    0 -0.26540975907E+01  0.41943308713E+01  0.13208192735E+01  0.51362641378E+01  0.51100000000E-03 0. -1.
        -11    1    3    3    0    0  0.15050854917E+01 -0.43332136693E+01 -0.81294174923E-01  0.45878788176E+01  0.51100000000E-03 0.  1.
         12    1    3    3    0    0 -0.26570427904E+02 -0.25342931973E+01 -0.30864587821E+02  0.40804816656E+02  0.00000000000E+00 0. -1.
</event>
<event>
 7    1  0.5935282E-013  0.5052887E+02  0.7816164E-02  0.1300439E+00
        -11   -1    0    0    0    0  0.00000000000E+00  0.00000000000E+00  0.45593999997E+02  0.45594000000E+02  0.51100000000E-03 0.  1.
         11   -1    0    0    0    0 -0.00000000000E+00 -0.00000000000E+00 -0.45593999997E+02  0.45594000000E+02  0.51100000000E-03 0. -1.
    9900012    2    1    2    0    0  0.23455071243E+02  0.21817039850E+02 -0.25040797986E+02  0.50528866234E+02  0.30000019405E+02 0.  0.
        -12    1    1    2    0    0 -0.23455071243E+02 -0.21817039850E+02  0.25040797986E+02  0.40659133766E+02  0.00000000000E+00 0.  1.
         11    1    3    3    0    0  0.18012803093E+02  0.89667553182E+01 -0.17028392988E+02  0.26359627164E+02  0.51100000000E-03 0. -1.
        -11    1    3    3    0    0  0.75943188277E+01  0.85781459770E+01 -0.12952723618E+02  0.17292521974E+02  0.51100000000E-03 0.  1.
        -12    1    3    3    0    0 -0.21520506782E+01  0.42721385546E+01  0.49403186196E+01  0.68767170957E+01  0.00000000000E+00 0.  1.
</event>
<event>
 7    1  0.5935282E-013  0.5052887E+02  0.7816164E-02  0.1300439E+00
        -11   -1    0    0    0    0  0.00000000000E+00  0.00000000000E+00  0.45593999997E+02  0.45594000000E+02  0.51100000000E-03 0.  1.
         11   -1    0    0    0    0 -0.00000000000E+00 -0.00000000000E+00 -0.45593999997E+02  0.45594000000E+02  0.51100000000E-03 0. -1.
    9900012    2    1    2    0    0 -0.13195836079E+01  0.10214726809E+02 -0.39332978491E+02  0.50528866442E+02  0.30000020039E+02 0.  0.
        -12    1    1    2    0    0  0.13195836079E+01 -0.10214726809E+02  0.39332978491E+02  0.40659133558E+02  0.00000000000E+00 0.  1.
         11    1    3    3    0    0  0.43547204422E+01  0.73668495419E+01 -0.25852966025E+02  0.27232515764E+02  0.51100000000E-03 0. -1.
        -11    1    3    3    0    0 -0.51711769996E+01  0.99405771460E+01 -0.51145428919E+01  0.12317251918E+02  0.51100000000E-03 0.  1.
        -12    1    3    3    0    0 -0.50312705048E+00 -0.70926998785E+01 -0.83654695744E+01  0.10979098761E+02  0.00000000000E+00 0.  1.
</event>
<event>
 7    1  0.5935282E-013  0.5052888E+02  0.7816164E-02  0.1300439E+00
        -11   -1    0    0    0    0  0.00000000000E+00  0.00000000000E+00  0.45593999997E+02  0.45594000000E+02  0.51100000000E-03 0.  1.
         11   -1    0    0    0    0 -0.00000000000E+00 -0.00000000000E+00 -0.45593999997E+02  0.45594000000E+02  0.51100000000E-03 0. -1.
    9900012    2    1    2    0    0  0.26310974384E+02  0.29388618156E+02  0.98592850940E+01  0.50528883523E+02  0.30000071956E+02 0.  0.
        -12    1    1    2    0    0 -0.26310974384E+02 -0.29388618156E+02 -0.98592850940E+01  0.40659116477E+02  0.00000000000E+00 0.  1.
         11    1    3    3    0    0  0.16858026750E+01  0.10832983115E+02 -0.12443321031E+01  0.11033758040E+02  0.51100000000E-03 0. -1.
        -11    1    3    3    0    0  0.61294969793E+01  0.17223527305E+02  0.10188273214E+02  0.20928964078E+02  0.51100000000E-03 0.  1.
         12    1    3    3    0    0  0.18495674730E+02  0.13321077359E+01  0.91534398277E+00  0.18566161405E+02  0.00000000000E+00 0. -1.
</event>
<event>
 7    1  0.5935282E-013  0.5052883E+02  0.7816164E-02  0.1300439E+00
        -11   -1    0    0    0    0  0.00000000000E+00  0.00000000000E+00  0.45593999997E+02  0.45594000000E+02  0.51100000000E-03 0. -1.
         11   -1    0    0    0    0 -0.00000000000E+00 -0.00000000000E+00 -0.45593999997E+02  0.45594000000E+02  0.51100000000E-03 0.  1.
    9900012    2    1    2    0    0 -0.35189194476E+02  0.20307818717E+02 -0.15751017939E+01  0.50528833081E+02  0.29999918632E+02 0.  0.
        -12    1    1    2    0    0  0.35189194476E+02 -0.20307818717E+02  0.15751017939E+01  0.40659166919E+02  0.00000000000E+00 0.  1.
         11    1    3    3    0    0 -0.19795660177E+02  0.12544540137E+02 -0.21551764317E+01  0.23534622045E+02  0.51100000000E-03 0. -1.
        -11    1    3    3    0    0 -0.94569160926E+00  0.11349807626E+02 -0.28014594154E+01  0.11728624851E+02  0.51100000000E-03 0.  1.
         12    1    3    3    0    0 -0.14447842690E+02 -0.35865290470E+01  0.33815340531E+01  0.15265586185E+02  0.00000000000E+00 0. -1.
</event>
<event>
 7    1  0.5935282E-013  0.5052887E+02  0.7816164E-02  0.1300439E+00
        -11   -1    0    0    0    0  0.00000000000E+00  0.00000000000E+00  0.45593999997E+02  0.45594000000E+02  0.51100000000E-03 0.  1.
         11   -1    0    0    0    0 -0.00000000000E+00 -0.00000000000E+00 -0.45593999997E+02  0.45594000000E+02  0.51100000000E-03 0. -1.
    9900012    2    1    2    0    0 -0.30943649570E+02  0.17386291106E+02 -0.19833614207E+02  0.50528870403E+02  0.30000032076E+02 0.  0.
        -12    1    1    2    0    0  0.30943649570E+02 -0.17386291106E+02  0.19833614207E+02  0.40659129597E+02  0.00000000000E+00 0.  1.
         11    1    3    3    0    0 -0.76690394773E+01 -0.37508992006E+01 -0.16293605433E+01  0.86912730574E+01  0.51100000000E-03 0. -1.
        -11    1    3    3    0    0 -0.14751280494E+02  0.16143352741E+01 -0.17941051163E+01  0.14947413422E+02  0.51100000000E-03 0.  1.
        -12    1    3    3    0    0 -0.85233295988E+01  0.19522855033E+02 -0.16410148547E+02  0.26890183923E+02  0.00000000000E+00 0.  1.
</event>
<event>
 7    1  0.5935282E-013  0.5052886E+02  0.7816164E-02  0.1300439E+00
        -11   -1    0    0    0    0  0.00000000000E+00  0.00000000000E+00  0.45593999997E+02  0.45594000000E+02  0.51100000000E-03 0.  1.
         11   -1    0    0    0    0 -0.00000000000E+00 -0.00000000000E+00 -0.45593999997E+02  0.45594000000E+02  0.51100000000E-03 0. -1.
    9900012    2    1    2    0    0  0.15841224845E+02 -0.20911435858E+02 -0.31063372117E+02  0.50528860295E+02  0.30000001354E+02 0.  0.
        -12    1    1    2    0    0 -0.15841224845E+02  0.20911435858E+02  0.31063372117E+02  0.40659139705E+02  0.00000000000E+00 0.  1.
         11    1    3    3    0    0  0.63911406015E+01 -0.81732012650E+01 -0.13388373377E+02  0.16938017566E+02  0.51100000000E-03 0. -1.
        -11    1    3    3    0    0  0.13881010370E+02  0.74711156637E+00 -0.11778745190E+02  0.18220303595E+02  0.51100000000E-03 0.  1.
         12    1    3    3    0    0 -0.44309261261E+01 -0.13485346159E+02 -0.58962535498E+01  0.15370539135E+02  0.00000000000E+00 0. -1.
</event>
<event>
 7    1  0.5935282E-013  0.5052887E+02  0.7816164E-02  0.1300439E+00
        -11   -1    0    0    0    0  0.00000000000E+00  0.00000000000E+00  0.45593999997E+02  0.45594000000E+02  0.51100000000E-03 0.  1.
         11   -1    0    0    0    0 -0.00000000000E+00 -0.00000000000E+00 -0.45593999997E+02  0.45594000000E+02  0.51100000000E-03 0. -1.
    9900012    2    1    2    0    0 -0.17096895815E+02 -0.54068512321E+01 -0.36491468864E+02  0.50528865890E+02  0.30000018359E+02 0.  0.
        -12    1    1    2    0    0  0.17096895815E+02  0.54068512321E+01  0.36491468864E+02  0.40659134110E+02  0.00000000000E+00 0.  1.
         11    1    3    3    0    0 -0.16656868648E+01  0.80638067627E+01 -0.92147244932E+01  0.12357614656E+02  0.51100000000E-03 0. -1.
        -11    1    3    3    0    0 -0.55086002235E+01  0.37742677342E+01 -0.52911668349E+01  0.85197546965E+01  0.51100000000E-03 0.  1.
         12    1    3    3    0    0 -0.99226087269E+01 -0.17244925729E+02 -0.21985577535E+02  0.29651496537E+02  0.00000000000E+00 0. -1.
</event>
<event>
 7    1  0.5935282E-013  0.5052886E+02  0.7816164E-02  0.1300439E+00
        -11   -1    0    0    0    0  0.00000000000E+00  0.00000000000E+00  0.45593999997E+02  0.45594000000E+02  0.51100000000E-03 0.  1.
         11   -1    0    0    0    0 -0.00000000000E+00 -0.00000000000E+00 -0.45593999997E+02  0.45594000000E+02  0.51100000000E-03 0. -1.
    9900012    2    1    2    0    0 -0.67123610043E+01 -0.25693992993E+02 -0.30788451779E+02  0.50528857988E+02  0.29999994341E+02 0.  0.
        -12    1    1    2    0    0  0.67123610043E+01  0.25693992993E+02  0.30788451779E+02  0.40659142012E+02  0.00000000000E+00 0.  1.
         11    1    3    3    0    0 -0.49857507624E+01 -0.16038346787E+01 -0.42891491834E+01  0.67695492701E+01  0.51100000000E-03 0. -1.
        -11    1    3    3    0    0  0.19133034399E-01  0.40474791826E+01  0.12153758683E+01  0.42260611175E+01  0.51100000000E-03 0.  1.
        -12    1    3    3    0    0 -0.17457432763E+01 -0.28137637497E+02 -0.27714678464E+02  0.39533247601E+02  0.00000000000E+00 0.  1.
</event>
<event>
 7    1  0.5935282E-013  0.5052886E+02  0.7816164E-02  0.1300439E+00
        -11   -1    0    0    0    0  0.00000000000E+00  0.00000000000E+00  0.45593999997E+02  0.45594000000E+02  0.51100000000E-03 0.  1.
         11   -1    0    0    0    0 -0.00000000000E+00 -0.00000000000E+00 -0.45593999997E+02  0.45594000000E+02  0.51100000000E-03 0. -1.
    9900012    2    1    2    0    0 -0.19556208484E+02  0.35586871037E+02 -0.20723412515E+01  0.50528864756E+02  0.30000014913E+02 0.  0.
        -12    1    1    2    0    0  0.19556208484E+02 -0.35586871037E+02  0.20723412515E+01  0.40659135244E+02  0.00000000000E+00 0.  1.
         11    1    3    3    0    0 -0.16251936404E+01  0.18913312543E+02  0.21157986218E+01  0.19100556269E+02  0.51100000000E-03 0. -1.
        -11    1    3    3    0    0 -0.12299163967E+02  0.18102767224E+02 -0.92137894200E+01  0.23746021376E+02  0.51100000000E-03 0.  1.
        -12    1    3    3    0    0 -0.56318508763E+01 -0.14292087300E+01  0.50256495467E+01  0.76822871108E+01  0.00000000000E+00 0.  1.
</event>
<event>
 7    1  0.5935282E-013  0.5052887E+02  0.7816164E-02  0.1300439E+00
        -11   -1    0    0    0    0  0.00000000000E+00  0.00000000000E+00  0.45593999997E+02  0.45594000000E+02  0.51100000000E-03 0.  1.
         11   -1    0    0    0    0 -0.00000000000E+00 -0.00000000000E+00 -0.45593999997E+02  0.45594000000E+02  0.51100000000E-03 0. -1.
    9900012    2    1    2    0    0  0.37962632727E+02 -0.63848422114E+01 -0.13085752787E+02  0.50528872862E+02  0.30000039551E+02 0.  0.
        -12    1    1    2    0    0 -0.37962632727E+02  0.63848422114E+01  0.13085752787E+02  0.40659127138E+02  0.00000000000E+00 0.  1.
         11    1    3    3    0    0  0.18076049717E+02 -0.69160954098E+01 -0.63394321374E+01  0.20365764144E+02  0.51100000000E-03 0. -1.
        -11    1    3    3    0    0  0.19917910286E+02 -0.71867065919E+01 -0.24130859483E+01  0.21311848485E+02  0.51100000000E-03 0.  1.
        -12    1    3    3    0    0 -0.31327276006E-01  0.77179597903E+01 -0.43332347014E+01  0.88512602324E+01  0.00000000000E+00 0.  1.
</event>
<event>
 7    1  0.5935282E-013  0.5052886E+02  0.7816164E-02  0.1300439E+00
        -11   -1    0    0    0    0  0.00000000000E+00  0.00000000000E+00  0.45593999997E+02  0.45594000000E+02  0.51100000000E-03 0.  1.
         11   -1    0    0    0    0 -0.00000000000E+00 -0.00000000000E+00 -0.45593999997E+02  0.45594000000E+02  0.51100000000E-03 0. -1.
    9900012    2    1    2    0    0 -0.43394281679E+01 -0.39840388916E+02  0.68613893380E+01  0.50528857246E+02  0.29999992086E+02 0.  0.
        -12    1    1    2    0    0  0.43394281679E+01  0.39840388916E+02 -0.68613893380E+01  0.40659142754E+02  0.00000000000E+00 0.  1.
         11    1    3    3    0    0  0.11259626202E+00 -0.93909506678E+01 -0.29777005436E+01  0.98523770305E+01  0.51100000000E-03 0. -1.
        -11    1    3    3    0    0 -0.26815638602E+01 -0.32837658847E+01 -0.73468254460E+01  0.84823197014E+01  0.51100000000E-03 0.  1.
         12    1    3    3    0    0 -0.17704605697E+01 -0.27165672363E+02  0.17185915328E+02  0.32194160515E+02  0.00000000000E+00 0. -1.
</event>
<event>
 7    1  0.5935282E-013  0.5052886E+02  0.7816164E-02  0.1300439E+00
        -11   -1    0    0    0    0  0.00000000000E+00  0.00000000000E+00  0.45593999997E+02  0.45594000000E+02  0.51100000000E-03 0.  1.
         11   -1    0    0    0    0 -0.00000000000E+00 -0.00000000000E+00 -0.45593999997E+02  0.45594000000E+02  0.51100000000E-03 0. -1.
    9900012    2    1    2    0    0  0.25793229831E+02  0.31105433651E+02  0.45085014206E+01  0.50528864584E+02  0.30000014389E+02 0.  0.
        -12    1    1    2    0    0 -0.25793229831E+02 -0.31105433651E+02 -0.45085014206E+01  0.40659135416E+02  0.00000000000E+00 0.  1.
         11    1    3    3    0    0  0.25242725780E+02  0.20993195676E+02 -0.22328932015E+01  0.32907374277E+02  0.51100000000E-03 0. -1.
        -11    1    3    3    0    0 -0.32708967999E+01  0.10704253697E+02  0.17838021999E+01  0.11334097389E+02  0.51100000000E-03 0.  1.
        -12    1    3    3    0    0  0.38214008509E+01 -0.59201572182E+00  0.49575924222E+01  0.62873929178E+01  0.00000000000E+00 0.  1.
</event>
<event>
 7    1  0.5935282E-013  0.5052886E+02  0.7816164E-02  0.1300439E+00
        -11   -1    0    0    0    0  0.00000000000E+00  0.00000000000E+00  0.45593999997E+02  0.45594000000E+02  0.51100000000E-03 0.  1.
         11   -1    0    0    0    0 -0.00000000000E+00 -0.00000000000E+00 -0.45593999997E+02  0.45594000000E+02  0.51100000000E-03 0. -1.
    9900012    2    1    2    0    0  0.58928494912E+01  0.32948047074E+02 -0.23083899912E+02  0.50528856917E+02  0.29999991085E+02 0.  0.
        -12    1    1    2    0    0 -0.58928494912E+01 -0.32948047074E+02  0.23083899912E+02  0.40659143083E+02  0.00000000000E+00 0.  1.
         11    1    3    3    0    0  0.60586849752E+01  0.11174341177E+02 -0.24362648895E+01  0.12942524917E+02  0.51100000000E-03 0. -1.
        -11    1    3    3    0    0  0.10818286299E+02  0.13377857521E+02 -0.14307651184E+02  0.22376578669E+02  0.51100000000E-03 0.  1.
        -12    1    3    3    0    0 -0.10984121783E+02  0.83958483762E+01 -0.63399838386E+01  0.15209753330E+02  0.00000000000E+00 0.  1.
</event>
<event>
 7    1  0.5935282E-013  0.5052886E+02  0.7816164E-02  0.1300439E+00
        -11   -1    0    0    0    0  0.00000000000E+00  0.00000000000E+00  0.45593999997E+02  0.45594000000E+02  0.51100000000E-03 0.  1.
         11   -1    0    0    0    0 -0.00000000000E+00 -0.00000000000E+00 -0.45593999997E+02  0.45594000000E+02  0.51100000000E-03 0. -1.
    9900012    2    1    2    0    0 -0.13918855430E+02 -0.29332264216E+01 -0.38089730154E+02  0.50528857154E+02  0.29999991806E+02 0.  0.
        -12    1    1    2    0    0  0.13918855430E+02  0.29332264216E+01  0.38089730154E+02  0.40659142846E+02  0.00000000000E+00 0.  1.
         11    1    3    3    0    0 -0.33463256073E+00  0.64707608094E+01 -0.39647219535E+01  0.75961664564E+01  0.51100000000E-03 0. -1.
        -11    1    3    3    0    0 -0.10427390839E+02  0.17104385002E+01 -0.51825826830E+01  0.11769249895E+02  0.51100000000E-03 0.  1.
         12    1    3    3    0    0 -0.31568320304E+01 -0.11114425731E+02 -0.28942425518E+02  0.31163440803E+02  0.00000000000E+00 0. -1.
</event>
<event>
 7    1  0.5935282E-013  0.5052889E+02  0.7816164E-02  0.1300439E+00
        -11   -1    0    0    0    0  0.00000000000E+00  0.00000000000E+00  0.45593999997E+02  0.45594000000E+02  0.51100000000E-03 0.  1.
         11   -1    0    0    0    0 -0.00000000000E+00 -0.00000000000E+00 -0.45593999997E+02  0.45594000000E+02  0.51100000000E-03 0. -1.
    9900012    2    1    2    0    0  0.15672531018E+02 -0.19943975985E+02 -0.31776926603E+02  0.50528886988E+02  0.30000082489E+02 0.  0.
        -12    1    1    2    0    0 -0.15672531018E+02  0.19943975985E+02  0.31776926603E+02  0.40659113012E+02  0.00000000000E+00 0.  1.
         11    1    3    3    0    0  0.74153107307E+00 -0.14288850761E+02 -0.24398415901E+02  0.28284338832E+02  0.51100000000E-03 0. -1.
        -11    1    3    3    0    0  0.29248130206E+00 -0.61736608692E+01 -0.34539213843E+01  0.70801982338E+01  0.51100000000E-03 0.  1.
         12    1    3    3    0    0  0.14638518643E+02  0.51853564458E+00 -0.39245893168E+01  0.15164349923E+02  0.00000000000E+00 0. -1.
</event>
<event>
 7    1  0.5935282E-013  0.5052887E+02  0.7816164E-02  0.1300439E+00
        -11   -1    0    0    0    0  0.00000000000E+00  0.00000000000E+00  0.45593999997E+02  0.45594000000E+02  0.51100000000E-03 0. -1.
         11   -1    0    0    0    0 -0.00000000000E+00 -0.00000000000E+00 -0.45593999997E+02  0.45594000000E+02  0.51100000000E-03 0.  1.
    9900012    2    1    2    0    0  0.31324536645E+02 -0.24373784458E+02 -0.88236392164E+01  0.50528873425E+02  0.30000041262E+02 0.  0.
        -12    1    1    2    0    0 -0.31324536645E+02  0.24373784458E+02  0.88236392164E+01  0.40659126575E+02  0.00000000000E+00 0.  1.
         11    1    3    3    0    0  0.86253992481E+00 -0.65736466954E+01 -0.50911199480E+01  0.83592050211E+01  0.51100000000E-03 0. -1.
        -11    1    3    3    0    0  0.13107780713E+02 -0.96332022287E+01 -0.13042238045E+02  0.20849759564E+02  0.51100000000E-03 0.  1.
         12    1    3    3    0    0  0.17354216008E+02 -0.81669355334E+01  0.93097187762E+01  0.21319908840E+02  0.00000000000E+00 0. -1.
</event>
<event>
 7    1  0.5935282E-013  0.5052887E+02  0.7816164E-02  0.1300439E+00
        -11   -1    0    0    0    0  0.00000000000E+00  0.00000000000E+00  0.45593999997E+02  0.45594000000E+02  0.51100000000E-03 0.  1.
         11   -1    0    0    0    0 -0.00000000000E+00 -0.00000000000E+00 -0.45593999997E+02  0.45594000000E+02  0.51100000000E-03 0. -1.
    9900012    2    1    2    0    0 -0.21486498833E+02 -0.20500161635E+02 -0.27771178204E+02  0.50528873128E+02  0.30000040360E+02 0.  0.
        -12    1    1    2    0    0  0.21486498833E+02  0.20500161635E+02  0.27771178204E+02  0.40659126872E+02  0.00000000000E+00 0.  1.
         11    1    3    3    0    0  0.31040485674E+01 -0.18267759765E+01 -0.80813419625E+00  0.36912476370E+01  0.51100000000E-03 0. -1.
        -11    1    3    3    0    0 -0.89189421567E+00  0.11978722550E+01  0.32657139110E+01  0.35909971931E+01  0.51100000000E-03 0.  1.
         12    1    3    3    0    0 -0.23698653185E+02 -0.19871257913E+02 -0.30228757918E+02  0.43246628298E+02  0.00000000000E+00 0. -1.
</event>
<event>
 7    1  0.5935282E-013  0.5052886E+02  0.7816164E-02  0.1300439E+00
        -11   -1    0    0    0    0  0.00000000000E+00  0.00000000000E+00  0.45593999997E+02  0.45594000000E+02  0.51100000000E-03 0. -1.
         11   -1    0    0    0    0 -0.00000000000E+00 -0.00000000000E+00 -0.45593999997E+02  0.45594000000E+02  0.51100000000E-03 0.  1.
    9900012    2    1    2    0    0  0.42408061783E+01 -0.37788713008E+02  0.14394249873E+02  0.50528859610E+02  0.29999999270E+02 0.  0.
        -12    1    1    2    0    0 -0.42408061783E+01  0.37788713008E+02 -0.14394249873E+02  0.40659140390E+02  0.00000000000E+00 0.  1.
         11    1    3    3    0    0  0.19083961331E+00 -0.77603408971E+01  0.72908162852E+01  0.10649662575E+02  0.51100000000E-03 0. -1.
        -11    1    3    3    0    0  0.10346387134E+02 -0.66138325794E+01  0.94847990254E+01  0.15516182550E+02  0.51100000000E-03 0.  1.
         12    1    3    3    0    0 -0.62964205685E+01 -0.23414539532E+02 -0.23813654375E+01  0.24363014485E+02  0.00000000000E+00 0. -1.
</event>
<event>
 7    1  0.5935282E-013  0.5052886E+02  0.7816164E-02  0.1300439E+00
        -11   -1    0    0    0    0  0.00000000000E+00  0.00000000000E+00  0.45593999997E+02  0.45594000000E+02  0.51100000000E-03 0. -1.
         11   -1    0    0    0    0 -0.00000000000E+00 -0.00000000000E+00 -0.45593999997E+02  0.45594000000E+02  0.51100000000E-03 0.  1.
    9900012    2    1    2    0    0  0.30675002710E+02  0.18770827268E+02  0.18970139014E+02  0.50528856849E+02  0.29999990879E+02 0.  0.
        -12    1    1    2    0    0 -0.30675002710E+02 -0.18770827268E+02 -0.18970139014E+02  0.40659143151E+02  0.00000000000E+00 0.  1.
         11    1    3    3    0    0  0.42044065017E+00  0.20986974805E+01  0.43722621548E+01  0.48680569087E+01  0.51100000000E-03 0.  1.
        -11    1    3    3    0    0  0.25943218995E+02  0.17504660272E+02  0.21150412918E+02  0.37773055342E+02  0.51100000000E-03 0. -1.
        -12    1    3    3    0    0  0.43113430651E+01 -0.83253048421E+00 -0.65525360596E+01  0.78877445981E+01  0.00000000000E+00 0.  1.
</event>
<event>
 7    1  0.5935282E-013  0.5052886E+02  0.7816164E-02  0.1300439E+00
        -11   -1    0    0    0    0  0.00000000000E+00  0.00000000000E+00  0.45593999997E+02  0.45594000000E+02  0.51100000000E-03 0.  1.
         11   -1    0    0    0    0 -0.00000000000E+00 -0.00000000000E+00 -0.45593999997E+02  0.45594000000E+02  0.51100000000E-03 0. -1.
    9900012    2    1    2    0    0 -0.44226995391E+00 -0.23933633207E+02 -0.32865649138E+02  0.50528864563E+02  0.30000014327E+02 0.  0.
        -12    1    1    2    0    0  0.44226995391E+00  0.23933633207E+02  0.32865649138E+02  0.40659135437E+02  0.00000000000E+00 0.  1.
         11    1    3    3    0    0 -0.10619529050E+02 -0.11216336012E+02 -0.21003775296E+02  0.26071807910E+02  0.51100000000E-03 0.  1.
        -11    1    3    3    0    0 -0.10980859560E+01 -0.89489214066E+01 -0.25904366366E+01  0.93807968392E+01  0.51100000000E-03 0. -1.
        -12    1    3    3    0    0  0.11275345052E+02 -0.37683757888E+01 -0.92714372054E+01  0.15076259814E+02  0.00000000000E+00 0.  1.
</event>
<event>
 7    1  0.5935282E-013  0.5052886E+02  0.7816164E-02  0.1300439E+00
        -11   -1    0    0    0    0  0.00000000000E+00  0.00000000000E+00  0.45593999997E+02  0.45594000000E+02  0.51100000000E-03 0. -1.
         11   -1    0    0    0    0 -0.00000000000E+00 -0.00000000000E+00 -0.45593999997E+02  0.45594000000E+02  0.51100000000E-03 0.  1.
    9900012    2    1    2    0    0  0.39130217307E+02  0.24250061257E+01  0.10775490573E+02  0.50528858860E+02  0.29999996990E+02 0.  0.
        -12    1    1    2    0    0 -0.39130217307E+02 -0.24250061257E+01 -0.10775490573E+02  0.40659141140E+02  0.00000000000E+00 0.  1.
         11    1    3    3    0    0  0.15203949892E+02  0.17034390908E+01  0.10741205996E+02  0.18693188695E+02  0.51100000000E-03 0. -1.
        -11    1    3    3    0    0  0.12882753398E+02 -0.57299846614E+01  0.85320370017E+01  0.16480100576E+02  0.51100000000E-03 0.  1.
        -12    1    3    3    0    0  0.11043514016E+02  0.64515516963E+01 -0.84977524249E+01  0.15355569589E+02  0.00000000000E+00 0.  1.
</event>
<event>
 7    1  0.5935282E-013  0.5052886E+02  0.7816164E-02  0.1300439E+00
        -11   -1    0    0    0    0  0.00000000000E+00  0.00000000000E+00  0.45593999997E+02  0.45594000000E+02  0.51100000000E-03 0.  1.
         11   -1    0    0    0    0 -0.00000000000E+00 -0.00000000000E+00 -0.45593999997E+02  0.45594000000E+02  0.51100000000E-03 0. -1.
    9900012    2    1    2    0    0  0.36251279436E+02 -0.10716601387E+02 -0.14972131215E+02  0.50528861801E+02  0.30000005929E+02 0.  0.
        -12    1    1    2    0    0 -0.36251279436E+02  0.10716601387E+02  0.14972131215E+02  0.40659138199E+02  0.00000000000E+00 0.  1.
         11    1    3    3    0    0  0.10819655568E+01  0.40335302844E+01 -0.56144073020E+00  0.42136957622E+01  0.51100000000E-03 0. -1.
        -11    1    3    3    0    0  0.53994363711E+01  0.26241539027E+01 -0.98645040651E+01  0.11547663727E+02  0.51100000000E-03 0.  1.
         12    1    3    3    0    0  0.29769877508E+02 -0.17374285574E+02 -0.45461864193E+01  0.34767502312E+02  0.00000000000E+00 0. -1.
</event>
<event>
 7    1  0.5935282E-013  0.5052885E+02  0.7816164E-02  0.1300439E+00
        -11   -1    0    0    0    0  0.00000000000E+00  0.00000000000E+00  0.45593999997E+02  0.45594000000E+02  0.51100000000E-03 0.  1.
         11   -1    0    0    0    0 -0.00000000000E+00 -0.00000000000E+00 -0.45593999997E+02  0.45594000000E+02  0.51100000000E-03 0. -1.
    9900012    2    1    2    0    0 -0.22382584867E+02 -0.58526546267E+01 -0.33435496452E+02  0.50528854724E+02  0.29999984420E+02 0.  0.
        -12    1    1    2    0    0  0.22382584867E+02  0.58526546267E+01  0.33435496452E+02  0.40659145276E+02  0.00000000000E+00 0.  1.
         11    1    3    3    0    0  0.11303417197E+01 -0.37537500340E+01 -0.87455790910E+01  0.95840213699E+01  0.51100000000E-03 0. -1.
        -11    1    3    3    0    0 -0.72282831951E+01 -0.11659279259E+02 -0.11636455827E+02  0.17988717999E+02  0.51100000000E-03 0.  1.
         12    1    3    3    0    0 -0.16284643392E+02  0.95603746663E+01 -0.13053461534E+02  0.22956115355E+02  0.00000000000E+00 0. -1.
</event>
<event>
 7    1  0.5935282E-013  0.5052887E+02  0.7816164E-02  0.1300439E+00
        -11   -1    0    0    0    0  0.00000000000E+00  0.00000000000E+00  0.45593999997E+02  0.45594000000E+02  0.51100000000E-03 0. -1.
         11   -1    0    0    0    0 -0.00000000000E+00 -0.00000000000E+00 -0.45593999997E+02  0.45594000000E+02  0.51100000000E-03 0.  1.
    9900012    2    1    2    0    0  0.37699672593E+02  0.36182405821E+01  0.14792169555E+02  0.50528865003E+02  0.30000015663E+02 0.  0.
        -12    1    1    2    0    0 -0.37699672593E+02 -0.36182405821E+01 -0.14792169555E+02  0.40659134997E+02  0.00000000000E+00 0.  1.
         11    1    3    3    0    0  0.24641571091E+02  0.61808231210E+01 -0.89088866677E+00  0.25420528775E+02  0.51100000000E-03 0. -1.
        -11    1    3    3    0    0  0.52327440743E+00 -0.41845055471E+01 -0.84546716555E+00  0.43010135745E+01  0.51100000000E-03 0.  1.
        -12    1    3    3    0    0  0.12534827095E+02  0.16219230081E+01  0.16528525387E+02  0.20807322654E+02  0.00000000000E+00 0.  1.
</event>
<event>
 7    1  0.5935282E-013  0.5052886E+02  0.7816164E-02  0.1300439E+00
        -11   -1    0    0    0    0  0.00000000000E+00  0.00000000000E+00  0.45593999997E+02  0.45594000000E+02  0.51100000000E-03 0.  1.
         11   -1    0    0    0    0 -0.00000000000E+00 -0.00000000000E+00 -0.45593999997E+02  0.45594000000E+02  0.51100000000E-03 0. -1.
    9900012    2    1    2    0    0 -0.17930363693E+02  0.36491052144E+02  0.26569089381E+00  0.50528863015E+02  0.30000009619E+02 0.  0.
        -12    1    1    2    0    0  0.17930363693E+02 -0.36491052144E+02 -0.26569089381E+00  0.40659136985E+02  0.00000000000E+00 0.  1.
         11    1    3    3    0    0  0.18284757736E+01  0.84472482525E+01  0.61181422739E+01  0.10589192218E+02  0.51100000000E-03 0. -1.
        -11    1    3    3    0    0  0.18455298287E+01 -0.18506395744E+01 -0.62322847890E+00  0.26868682851E+01  0.51100000000E-03 0.  1.
         12    1    3    3    0    0 -0.21604369295E+02  0.29894443466E+02 -0.52292229012E+01  0.37252802511E+02  0.00000000000E+00 0. -1.
</event>
<event>
 7    1  0.5935282E-013  0.5052886E+02  0.7816164E-02  0.1300439E+00
        -11   -1    0    0    0    0  0.00000000000E+00  0.00000000000E+00  0.45593999997E+02  0.45594000000E+02  0.51100000000E-03 0.  1.
         11   -1    0    0    0    0 -0.00000000000E+00 -0.00000000000E+00 -0.45593999997E+02  0.45594000000E+02  0.51100000000E-03 0. -1.
    9900012    2    1    2    0    0 -0.53570425746E+01 -0.12508082919E+02 -0.38314694368E+02  0.50528857757E+02  0.29999993637E+02 0.  0.
        -12    1    1    2    0    0  0.53570425746E+01  0.12508082919E+02  0.38314694368E+02  0.40659142243E+02  0.00000000000E+00 0.  1.
         11    1    3    3    0    0 -0.10139123611E+02 -0.46182469804E+01 -0.91691766413E+01  0.14429270020E+02  0.51100000000E-03 0. -1.
        -11    1    3    3    0    0  0.34856166761E+01 -0.10486225846E+02 -0.30825495797E+02  0.32746322656E+02  0.51100000000E-03 0.  1.
         12    1    3    3    0    0  0.12964643598E+01  0.25963899074E+01  0.16799780700E+01  0.33532650809E+01  0.00000000000E+00 0. -1.
</event>
<event>
 7    1  0.5935282E-013  0.5052886E+02  0.7816164E-02  0.1300439E+00
        -11   -1    0    0    0    0  0.00000000000E+00  0.00000000000E+00  0.45593999997E+02  0.45594000000E+02  0.51100000000E-03 0. -1.
         11   -1    0    0    0    0 -0.00000000000E+00 -0.00000000000E+00 -0.45593999997E+02  0.45594000000E+02  0.51100000000E-03 0.  1.
    9900012    2    1    2    0    0  0.36193230948E+02  0.17691505866E+02  0.54978184785E+01  0.50528863828E+02  0.30000012092E+02 0.  0.
        -12    1    1    2    0    0 -0.36193230948E+02 -0.17691505866E+02 -0.54978184785E+01  0.40659136172E+02  0.00000000000E+00 0.  1.
         11    1    3    3    0    0  0.11039125823E+01 -0.38578734037E+01  0.43940941364E+01  0.59506196088E+01  0.51100000000E-03 0. -1.
        -11    1    3    3    0    0  0.92181890377E+01 -0.20739135235E+01 -0.87135820779E+00  0.94886981102E+01  0.51100000000E-03 0.  1.
         12    1    3    3    0    0  0.25871129328E+02  0.23623292793E+02  0.19750825500E+01  0.35089546109E+02  0.00000000000E+00 0. -1.
</event>
<event>
 7    1  0.5935282E-013  0.5052886E+02  0.7816164E-02  0.1300439E+00
        -11   -1    0    0    0    0  0.00000000000E+00  0.00000000000E+00  0.45593999997E+02  0.45594000000E+02  0.51100000000E-03 0.  1.
         11   -1    0    0    0    0 -0.00000000000E+00 -0.00000000000E+00 -0.45593999997E+02  0.45594000000E+02  0.51100000000E-03 0. -1.
    9900012    2    1    2    0    0 -0.19464758995E+02  0.13637365060E+02 -0.32989560512E+02  0.50528859929E+02  0.30000000241E+02 0.  0.
        -12    1    1    2    0    0  0.19464758995E+02 -0.13637365060E+02  0.32989560512E+02  0.40659140071E+02  0.00000000000E+00 0.  1.
         11    1    3    3    0    0 -0.47752280315E+01  0.13436987740E+02 -0.30574207100E+02  0.33736294733E+02  0.51100000000E-03 0. -1.
        -11    1    3    3    0    0 -0.42989207884E+01  0.36725239315E+01 -0.56778917749E+00  0.56824762898E+01  0.51100000000E-03 0.  1.
        -12    1    3    3    0    0 -0.10390610175E+02 -0.34721466116E+01 -0.18475642347E+01  0.11110088906E+02  0.00000000000E+00 0.  1.
</event>
<event>
 7    1  0.5935282E-013  0.5052886E+02  0.7816164E-02  0.1300439E+00
        -11   -1    0    0    0    0  0.00000000000E+00  0.00000000000E+00  0.45593999997E+02  0.45594000000E+02  0.51100000000E-03 0.  1.
         11   -1    0    0    0    0 -0.00000000000E+00 -0.00000000000E+00 -0.45593999997E+02  0.45594000000E+02  0.51100000000E-03 0. -1.
    9900012    2    1    2    0    0 -0.94871488121E+01  0.23231659095E+02 -0.31991405305E+02  0.50528856007E+02  0.29999988319E+02 0.  0.
        -12    1    1    2    0    0  0.94871488121E+01 -0.23231659095E+02  0.31991405305E+02  0.40659143993E+02  0.00000000000E+00 0.  1.
         11    1    3    3    0    0 -0.12869011016E+00  0.12507108732E+02 -0.12484643802E+02  0.17672313406E+02  0.51100000000E-03 0. -1.
        -11    1    3    3    0    0  0.27253580627E+01  0.13559646402E+02 -0.82762266443E+01  0.16117925265E+02  0.51100000000E-03 0.  1.
         12    1    3    3    0    0 -0.12083816765E+02 -0.28350960389E+01 -0.11230534858E+02  0.16738617337E+02  0.00000000000E+00 0. -1.
</event>
<event>
 7    1  0.5935282E-013  0.5052888E+02  0.7816164E-02  0.1300439E+00
        -11   -1    0    0    0    0  0.00000000000E+00  0.00000000000E+00  0.45593999997E+02  0.45594000000E+02  0.51100000000E-03 0.  1.
         11   -1    0    0    0    0 -0.00000000000E+00 -0.00000000000E+00 -0.45593999997E+02  0.45594000000E+02  0.51100000000E-03 0. -1.
    9900012    2    1    2    0    0  0.46735050166E+01  0.17571941721E+02 -0.36366867049E+02  0.50528882893E+02  0.30000070040E+02 0.  0.
        -12    1    1    2    0    0 -0.46735050166E+01 -0.17571941721E+02  0.36366867049E+02  0.40659117107E+02  0.00000000000E+00 0.  1.
         11    1    3    3    0    0  0.98856213407E+01  0.17688803515E+01 -0.72689238664E+01  0.12397245719E+02  0.51100000000E-03 0. -1.
        -11    1    3    3    0    0 -0.87463539145E+01  0.68655774140E+01 -0.50072215112E+01  0.12194553192E+02  0.51100000000E-03 0.  1.
         12    1    3    3    0    0  0.35342375904E+01  0.89374839556E+01 -0.24090721672E+02  0.25937083981E+02  0.00000000000E+00 0. -1.
</event>
<event>
 7    1  0.5935282E-013  0.5052887E+02  0.7816164E-02  0.1300439E+00
        -11   -1    0    0    0    0  0.00000000000E+00  0.00000000000E+00  0.45593999997E+02  0.45594000000E+02  0.51100000000E-03 0.  1.
         11   -1    0    0    0    0 -0.00000000000E+00 -0.00000000000E+00 -0.45593999997E+02  0.45594000000E+02  0.51100000000E-03 0. -1.
    9900012    2    1    2    0    0 -0.11609820512E+02  0.12501025667E+02 -0.36906653788E+02  0.50528872256E+02  0.30000037709E+02 0.  0.
        -12    1    1    2    0    0  0.11609820512E+02 -0.12501025667E+02  0.36906653788E+02  0.40659127744E+02  0.00000000000E+00 0.  1.
         11    1    3    3    0    0 -0.28320793926E+01 -0.20384578689E+01 -0.14419251468E+02  0.14835457436E+02  0.51100000000E-03 0. -1.
        -11    1    3    3    0    0 -0.42559492271E+01 -0.43763473496E+01 -0.12315017430E+02  0.13745005439E+02  0.51100000000E-03 0.  1.
         12    1    3    3    0    0 -0.45217918925E+01  0.18915830885E+02 -0.10172384890E+02  0.21948409381E+02  0.00000000000E+00 0. -1.
</event>
<event>
 7    1  0.5935282E-013  0.5052886E+02  0.7816164E-02  0.1300439E+00
        -11   -1    0    0    0    0  0.00000000000E+00  0.00000000000E+00  0.45593999997E+02  0.45594000000E+02  0.51100000000E-03 0. -1.
         11   -1    0    0    0    0 -0.00000000000E+00 -0.00000000000E+00 -0.45593999997E+02  0.45594000000E+02  0.51100000000E-03 0.  1.
    9900012    2    1    2    0    0 -0.36471772718E+02 -0.19010782890E+01  0.17870689733E+02  0.50528857666E+02  0.29999993360E+02 0.  0.
        -12    1    1    2    0    0  0.36471772718E+02  0.19010782890E+01 -0.17870689733E+02  0.40659142334E+02  0.00000000000E+00 0.  1.
         11    1    3    3    0    0 -0.36739562180E+01  0.31908225544E+00  0.42728616310E+01  0.56442107116E+01  0.51100000000E-03 0.  1.
        -11    1    3    3    0    0  0.48515150568E+00  0.57460670873E+01 -0.33775083510E+01  0.66828303792E+01  0.51100000000E-03 0. -1.
         12    1    3    3    0    0 -0.33282968005E+02 -0.79662276317E+01  0.16975336453E+02  0.38201816575E+02  0.00000000000E+00 0. -1.
</event>
<event>
 7    1  0.5935282E-013  0.5052885E+02  0.7816164E-02  0.1300439E+00
        -11   -1    0    0    0    0  0.00000000000E+00  0.00000000000E+00  0.45593999997E+02  0.45594000000E+02  0.51100000000E-03 0.  1.
         11   -1    0    0    0    0 -0.00000000000E+00 -0.00000000000E+00 -0.45593999997E+02  0.45594000000E+02  0.51100000000E-03 0. -1.
    9900012    2    1    2    0    0  0.10155173216E+02  0.12553118690E+02 -0.37315655110E+02  0.50528850375E+02  0.29999971201E+02 0.  0.
        -12    1    1    2    0    0 -0.10155173216E+02 -0.12553118690E+02  0.37315655110E+02  0.40659149625E+02  0.00000000000E+00 0.  1.
         11    1    3    3    0    0  0.66409637662E+01 -0.43128577599E+01 -0.41000688472E+01  0.89170458457E+01  0.51100000000E-03 0. -1.
        -11    1    3    3    0    0  0.19095783789E+01  0.42345506180E+01  0.12990152100E+01  0.48234167660E+01  0.51100000000E-03 0.  1.
         12    1    3    3    0    0  0.16046310709E+01  0.12631425832E+02 -0.34514601473E+02  0.36788387764E+02  0.00000000000E+00 0. -1.
</event>
<event>
 7    1  0.5935282E-013  0.5052888E+02  0.7816164E-02  0.1300439E+00
        -11   -1    0    0    0    0  0.00000000000E+00  0.00000000000E+00  0.45593999997E+02  0.45594000000E+02  0.51100000000E-03 0.  1.
         11   -1    0    0    0    0 -0.00000000000E+00 -0.00000000000E+00 -0.45593999997E+02  0.45594000000E+02  0.51100000000E-03 0. -1.
    9900012    2    1    2    0    0  0.25657909494E+02 -0.19421775964E+02 -0.24852170918E+02  0.50528879246E+02  0.30000058956E+02 0.  0.
        -12    1    1    2    0    0 -0.25657909494E+02  0.19421775964E+02  0.24852170918E+02  0.40659120754E+02  0.00000000000E+00 0.  1.
         11    1    3    3    0    0  0.17877544663E+02 -0.13818848310E+02 -0.75000475235E+01  0.23807937435E+02  0.51100000000E-03 0. -1.
        -11    1    3    3    0    0  0.93239841090E+01 -0.41610592228E+01 -0.10293887300E+01  0.10262101877E+02  0.51100000000E-03 0.  1.
         12    1    3    3    0    0 -0.15436192783E+01 -0.14418684315E+01 -0.16322734664E+02  0.16458839934E+02  0.00000000000E+00 0. -1.
</event>
<event>
 7    1  0.5935282E-013  0.5052886E+02  0.7816164E-02  0.1300439E+00
        -11   -1    0    0    0    0  0.00000000000E+00  0.00000000000E+00  0.45593999997E+02  0.45594000000E+02  0.51100000000E-03 0.  1.
         11   -1    0    0    0    0 -0.00000000000E+00 -0.00000000000E+00 -0.45593999997E+02  0.45594000000E+02  0.51100000000E-03 0. -1.
    9900012    2    1    2    0    0 -0.11892641357E+02 -0.38153948600E+02 -0.74837666129E+01  0.50528862344E+02  0.30000007580E+02 0.  0.
        -12    1    1    2    0    0  0.11892641357E+02  0.38153948600E+02  0.74837666129E+01  0.40659137656E+02  0.00000000000E+00 0.  1.
         11    1    3    3    0    0 -0.69816185363E+01 -0.13843284109E+02  0.19289794864E+01  0.15623715129E+02  0.51100000000E-03 0. -1.
        -11    1    3    3    0    0 -0.98359084591E+01 -0.26411807398E+02 -0.87445088878E+01  0.29509237557E+02  0.51100000000E-03 0.  1.
        -12    1    3    3    0    0  0.49248856380E+01  0.21011429072E+01 -0.66823721152E+00  0.53959096578E+01  0.00000000000E+00 0.  1.
</event>
<event>
 7    1  0.5935282E-013  0.5052886E+02  0.7816164E-02  0.1300439E+00
        -11   -1    0    0    0    0  0.00000000000E+00  0.00000000000E+00  0.45593999997E+02  0.45594000000E+02  0.51100000000E-03 0.  1.
         11   -1    0    0    0    0 -0.00000000000E+00 -0.00000000000E+00 -0.45593999997E+02  0.45594000000E+02  0.51100000000E-03 0. -1.
    9900012    2    1    2    0    0 -0.25714418470E+02  0.15573267982E+02 -0.27375311646E+02  0.50528859815E+02  0.29999999894E+02 0.  0.
        -12    1    1    2    0    0  0.25714418470E+02 -0.15573267982E+02  0.27375311646E+02  0.40659140185E+02  0.00000000000E+00 0.  1.
         11    1    3    3    0    0  0.14717103846E+01  0.77203270463E+00 -0.49172694716E+01  0.51905207129E+01  0.51100000000E-03 0. -1.
        -11    1    3    3    0    0 -0.16680970563E+01  0.11912673125E+02 -0.13638181355E+02  0.18185002603E+02  0.51100000000E-03 0.  1.
        -12    1    3    3    0    0 -0.25518031798E+02  0.28885621531E+01 -0.88198608193E+01  0.27153336499E+02  0.00000000000E+00 0.  1.
</event>
<event>
 7    1  0.5935282E-013  0.5052885E+02  0.7816164E-02  0.1300439E+00
        -11   -1    0    0    0    0  0.00000000000E+00  0.00000000000E+00  0.45593999997E+02  0.45594000000E+02  0.51100000000E-03 0. -1.
         11   -1    0    0    0    0 -0.00000000000E+00 -0.00000000000E+00 -0.45593999997E+02  0.45594000000E+02  0.51100000000E-03 0.  1.
    9900012    2    1    2    0    0  0.15388972528E+02 -0.35257191431E+02  0.13163439784E+02  0.50528853796E+02  0.29999981599E+02 0.  0.
        -12    1    1    2    0    0 -0.15388972528E+02  0.35257191431E+02 -0.13163439784E+02  0.40659146204E+02  0.00000000000E+00 0.  1.
         11    1    3    3    0    0  0.91045982198E+01 -0.25888052541E+01  0.13043654441E+02  0.16116219868E+02  0.51100000000E-03 0. -1.
        -11    1    3    3    0    0 -0.12687342821E+01 -0.81774401455E+01 -0.25133277720E+01  0.86485276644E+01  0.51100000000E-03 0.  1.
        -12    1    3    3    0    0  0.75531085907E+01 -0.24490946031E+02  0.26331131148E+01  0.25764106264E+02  0.00000000000E+00 0.  1.
</event>
<event>
 7    1  0.5935282E-013  0.5052886E+02  0.7816164E-02  0.1300439E+00
        -11   -1    0    0    0    0  0.00000000000E+00  0.00000000000E+00  0.45593999997E+02  0.45594000000E+02  0.51100000000E-03 0. -1.
         11   -1    0    0    0    0 -0.00000000000E+00 -0.00000000000E+00 -0.45593999997E+02  0.45594000000E+02  0.51100000000E-03 0.  1.
    9900012    2    1    2    0    0  0.22604876901E+02  0.31699737376E+02  0.11718005638E+02  0.50528862459E+02  0.30000007932E+02 0.  0.
        -12    1    1    2    0    0 -0.22604876901E+02 -0.31699737376E+02 -0.11718005638E+02  0.40659137541E+02  0.00000000000E+00 0.  1.
         11    1    3    3    0    0 -0.10577575770E+01 -0.40153910873E+00 -0.18378377763E+01  0.21581780975E+01  0.51100000000E-03 0. -1.
        -11    1    3    3    0    0  0.17955212048E+01 -0.34887767687E+01 -0.11463973776E+01  0.40877483958E+01  0.51100000000E-03 0.  1.
         12    1    3    3    0    0  0.21867113273E+02  0.35590053254E+02  0.14702240791E+02  0.44282935966E+02  0.00000000000E+00 0. -1.
</event>
<event>
 7    1  0.5935282E-013  0.5052886E+02  0.7816164E-02  0.1300439E+00
        -11   -1    0    0    0    0  0.00000000000E+00  0.00000000000E+00  0.45593999997E+02  0.45594000000E+02  0.51100000000E-03 0.  1.
         11   -1    0    0    0    0 -0.00000000000E+00 -0.00000000000E+00 -0.45593999997E+02  0.45594000000E+02  0.51100000000E-03 0. -1.
    9900012    2    1    2    0    0  0.38114632016E+02  0.34773727791E+01 -0.13724008797E+02  0.50528859421E+02  0.29999998695E+02 0.  0.
        -12    1    1    2    0    0 -0.38114632016E+02 -0.34773727791E+01  0.13724008797E+02  0.40659140579E+02  0.00000000000E+00 0.  1.
         11    1    3    3    0    0  0.16824517844E+01 -0.47662028313E-01  0.29934310539E+01  0.34341731773E+01  0.51100000000E-03 0. -1.
        -11    1    3    3    0    0  0.59997090933E+01 -0.27711662061E+01  0.57393044288E+01  0.87530273011E+01  0.51100000000E-03 0.  1.
         12    1    3    3    0    0  0.30432471139E+02  0.62962010135E+01 -0.22456744280E+02  0.38341658942E+02  0.00000000000E+00 0. -1.
</event>
<event>
 7    1  0.5935282E-013  0.5052886E+02  0.7816164E-02  0.1300439E+00
        -11   -1    0    0    0    0  0.00000000000E+00  0.00000000000E+00  0.45593999997E+02  0.45594000000E+02  0.51100000000E-03 0.  1.
         11   -1    0    0    0    0 -0.00000000000E+00 -0.00000000000E+00 -0.45593999997E+02  0.45594000000E+02  0.51100000000E-03 0. -1.
    9900012    2    1    2    0    0  0.60031115778E+01 -0.29147083010E+02 -0.27705161875E+02  0.50528858455E+02  0.29999995760E+02 0.  0.
        -12    1    1    2    0    0 -0.60031115778E+01  0.29147083010E+02  0.27705161875E+02  0.40659141545E+02  0.00000000000E+00 0.  1.
         11    1    3    3    0    0 -0.19573609986E+01 -0.10597318088E+02 -0.88974979165E+01  0.13974973423E+02  0.51100000000E-03 0. -1.
        -11    1    3    3    0    0 -0.41338580817E+01 -0.11666395640E+02  0.92071690938E+00  0.12411337146E+02  0.51100000000E-03 0.  1.
         12    1    3    3    0    0  0.12094330658E+02 -0.68833692827E+01 -0.19728380868E+02  0.24142547886E+02  0.00000000000E+00 0. -1.
</event>
<event>
 7    1  0.5935282E-013  0.5052885E+02  0.7816164E-02  0.1300439E+00
        -11   -1    0    0    0    0  0.00000000000E+00  0.00000000000E+00  0.45593999997E+02  0.45594000000E+02  0.51100000000E-03 0.  1.
         11   -1    0    0    0    0 -0.00000000000E+00 -0.00000000000E+00 -0.45593999997E+02  0.45594000000E+02  0.51100000000E-03 0. -1.
    9900012    2    1    2    0    0 -0.11058862041E+02 -0.39122782869E+02  0.52525672675E+00  0.50528850185E+02  0.29999970621E+02 0.  0.
        -12    1    1    2    0    0  0.11058862041E+02  0.39122782869E+02 -0.52525672675E+00  0.40659149815E+02  0.00000000000E+00 0.  1.
         11    1    3    3    0    0 -0.53104105673E+01 -0.12742419798E+02  0.54640376886E+00  0.13815508678E+02  0.51100000000E-03 0. -1.
        -11    1    3    3    0    0 -0.63177623908E+01 -0.10023148318E+01  0.78596213029E+01  0.10133726064E+02  0.51100000000E-03 0.  1.
         12    1    3    3    0    0  0.56931091667E+00 -0.25378048240E+02 -0.78807683450E+01  0.26579615443E+02  0.00000000000E+00 0. -1.
</event>
<event>
 7    1  0.5935282E-013  0.5052885E+02  0.7816164E-02  0.1300439E+00
        -11   -1    0    0    0    0  0.00000000000E+00  0.00000000000E+00  0.45593999997E+02  0.45594000000E+02  0.51100000000E-03 0.  1.
         11   -1    0    0    0    0 -0.00000000000E+00 -0.00000000000E+00 -0.45593999997E+02  0.45594000000E+02  0.51100000000E-03 0. -1.
    9900012    2    1    2    0    0  0.39119221386E+02 -0.44169073538E+01 -0.10165803211E+02  0.50528854567E+02  0.29999983943E+02 0.  0.
        -12    1    1    2    0    0 -0.39119221386E+02  0.44169073538E+01  0.10165803211E+02  0.40659145433E+02  0.00000000000E+00 0.  1.
         11    1    3    3    0    0  0.30830065535E+02 -0.32296818415E+01 -0.90039538152E-01  0.30998901482E+02  0.51100000000E-03 0. -1.
        -11    1    3    3    0    0  0.12430218907E+00 -0.15396794675E+01  0.34199686291E+01  0.37526323537E+01  0.51100000000E-03 0.  1.
        -12    1    3    3    0    0  0.81648536613E+01  0.35245395523E+00 -0.13495732302E+02  0.15777320732E+02  0.00000000000E+00 0.  1.
</event>
<event>
 7    1  0.5935282E-013  0.5052886E+02  0.7816164E-02  0.1300439E+00
        -11   -1    0    0    0    0  0.00000000000E+00  0.00000000000E+00  0.45593999997E+02  0.45594000000E+02  0.51100000000E-03 0.  1.
         11   -1    0    0    0    0 -0.00000000000E+00 -0.00000000000E+00 -0.45593999997E+02  0.45594000000E+02  0.51100000000E-03 0. -1.
    9900012    2    1    2    0    0  0.12043217922E+02 -0.31427422772E+02 -0.22813243271E+02  0.50528855044E+02  0.29999985392E+02 0.  0.
        -12    1    1    2    0    0 -0.12043217922E+02  0.31427422772E+02  0.22813243271E+02  0.40659144956E+02  0.00000000000E+00 0.  1.
         11    1    3    3    0    0 -0.76482836042E+00 -0.43353454536E+01 -0.47530879294E+01  0.64785822330E+01  0.51100000000E-03 0. -1.
        -11    1    3    3    0    0  0.13005764959E+02 -0.74643558490E+01 -0.19231280488E+02  0.24386649624E+02  0.51100000000E-03 0.  1.
        -12    1    3    3    0    0 -0.19771867635E+00 -0.19627721469E+02  0.11711251459E+01  0.19663623187E+02  0.00000000000E+00 0.  1.
</event>
<event>
 7    1  0.5935282E-013  0.5052886E+02  0.7816164E-02  0.1300439E+00
        -11   -1    0    0    0    0  0.00000000000E+00  0.00000000000E+00  0.45593999997E+02  0.45594000000E+02  0.51100000000E-03 0.  1.
         11   -1    0    0    0    0 -0.00000000000E+00 -0.00000000000E+00 -0.45593999997E+02  0.45594000000E+02  0.51100000000E-03 0. -1.
    9900012    2    1    2    0    0  0.52529305204E+01 -0.33292097800E+02 -0.22742212720E+02  0.50528864564E+02  0.30000014330E+02 0.  0.
        -12    1    1    2    0    0 -0.52529305204E+01  0.33292097800E+02  0.22742212720E+02  0.40659135436E+02  0.00000000000E+00 0.  1.
         11    1    3    3    0    0 -0.49672184736E+01 -0.65728886431E+01 -0.19696106744E+02  0.21349771559E+02  0.51100000000E-03 0. -1.
        -11    1    3    3    0    0  0.38217020584E+01 -0.45788234958E+01 -0.33130034660E+00  0.59733400547E+01  0.51100000000E-03 0.  1.
        -12    1    3    3    0    0  0.63984469357E+01 -0.22140385661E+02 -0.27148056292E+01  0.23205752951E+02  0.00000000000E+00 0.  1.
</event>
<event>
 7    1  0.5935282E-013  0.5052894E+02  0.7816164E-02  0.1300439E+00
        -11   -1    0    0    0    0  0.00000000000E+00  0.00000000000E+00  0.45593999997E+02  0.45594000000E+02  0.51100000000E-03 0.  1.
         11   -1    0    0    0    0 -0.00000000000E+00 -0.00000000000E+00 -0.45593999997E+02  0.45594000000E+02  0.51100000000E-03 0. -1.
    9900012    2    1    2    0    0  0.46221429172E+01 -0.25111358706E+02 -0.31641980251E+02  0.50528936368E+02  0.30000232584E+02 0.  0.
        -12    1    1    2    0    0 -0.46221429172E+01  0.25111358706E+02  0.31641980251E+02  0.40659063632E+02  0.00000000000E+00 0.  1.
         11    1    3    3    0    0  0.11808294582E+01 -0.53790141443E+01 -0.25879568927E+02  0.26459029451E+02  0.51100000000E-03 0. -1.
        -11    1    3    3    0    0 -0.24656357456E+01  0.69205056555E-01 -0.17391174916E+01  0.30180587934E+01  0.51100000000E-03 0.  1.
        -12    1    3    3    0    0  0.59069492046E+01 -0.19801549618E+02 -0.40232938331E+01  0.21051848124E+02  0.00000000000E+00 0.  1.
</event>
<event>
 7    1  0.5935282E-013  0.5052885E+02  0.7816164E-02  0.1300439E+00
        -11   -1    0    0    0    0  0.00000000000E+00  0.00000000000E+00  0.45593999997E+02  0.45594000000E+02  0.51100000000E-03 0.  1.
         11   -1    0    0    0    0 -0.00000000000E+00 -0.00000000000E+00 -0.45593999997E+02  0.45594000000E+02  0.51100000000E-03 0. -1.
    9900012    2    1    2    0    0  0.19548133167E+02  0.32340598916E+02 -0.15004078183E+02  0.50528853296E+02  0.29999980080E+02 0.  0.
        -12    1    1    2    0    0 -0.19548133167E+02 -0.32340598916E+02  0.15004078183E+02  0.40659146704E+02  0.00000000000E+00 0.  1.
         11    1    3    3    0    0  0.12925878075E+02  0.47567947664E+01 -0.33168703414E+01  0.14167111547E+02  0.51100000000E-03 0. -1.
        -11    1    3    3    0    0  0.12238246370E+02  0.15845881181E+02 -0.19634925854E+01  0.20117701857E+02  0.51100000000E-03 0.  1.
         12    1    3    3    0    0 -0.56159912781E+01  0.11737922968E+02 -0.97237152558E+01  0.16244039892E+02  0.00000000000E+00 0. -1.
</event>
<event>
 7    1  0.5935282E-013  0.5052886E+02  0.7816164E-02  0.1300439E+00
        -11   -1    0    0    0    0  0.00000000000E+00  0.00000000000E+00  0.45593999997E+02  0.45594000000E+02  0.51100000000E-03 0.  1.
         11   -1    0    0    0    0 -0.00000000000E+00 -0.00000000000E+00 -0.45593999997E+02  0.45594000000E+02  0.51100000000E-03 0. -1.
    9900012    2    1    2    0    0  0.24243228568E+02 -0.32638713921E+02 -0.38203480822E+00  0.50528859227E+02  0.29999998107E+02 0.  0.
        -12    1    1    2    0    0 -0.24243228568E+02  0.32638713921E+02  0.38203480822E+00  0.40659140773E+02  0.00000000000E+00 0.  1.
         11    1    3    3    0    0  0.29756482741E+01 -0.21990233224E+01  0.21784908036E+01  0.42937173482E+01  0.51100000000E-03 0. -1.
        -11    1    3    3    0    0 -0.38850612975E+01 -0.30404594438E+01 -0.72265042859E+01  0.87498833918E+01  0.51100000000E-03 0.  1.
         12    1    3    3    0    0  0.25152641591E+02 -0.27399231154E+02  0.46659786740E+01  0.37485258487E+02  0.00000000000E+00 0. -1.
</event>
<event>
 7    1  0.5935282E-013  0.5052886E+02  0.7816164E-02  0.1300439E+00
        -11   -1    0    0    0    0  0.00000000000E+00  0.00000000000E+00  0.45593999997E+02  0.45594000000E+02  0.51100000000E-03 0.  1.
         11   -1    0    0    0    0 -0.00000000000E+00 -0.00000000000E+00 -0.45593999997E+02  0.45594000000E+02  0.51100000000E-03 0. -1.
    9900012    2    1    2    0    0  0.19277911534E+02 -0.35661373406E+02 -0.31295677383E+01  0.50528860553E+02  0.30000002137E+02 0.  0.
        -12    1    1    2    0    0 -0.19277911534E+02  0.35661373406E+02  0.31295677383E+01  0.40659139447E+02  0.00000000000E+00 0.  1.
         11    1    3    3    0    0  0.18842071172E+01 -0.37352937585E+01  0.59200446687E+01  0.72491092600E+01  0.51100000000E-03 0. -1.
        -11    1    3    3    0    0  0.16719018433E+02 -0.82713871013E+01 -0.36408628042E+01  0.19005191505E+02  0.51100000000E-03 0.  1.
         12    1    3    3    0    0  0.67468598466E+00 -0.23654692546E+02 -0.54087496028E+01  0.24274559788E+02  0.00000000000E+00 0. -1.
</event>
<event>
 7    1  0.5935282E-013  0.5052886E+02  0.7816164E-02  0.1300439E+00
        -11   -1    0    0    0    0  0.00000000000E+00  0.00000000000E+00  0.45593999997E+02  0.45594000000E+02  0.51100000000E-03 0. -1.
         11   -1    0    0    0    0 -0.00000000000E+00 -0.00000000000E+00 -0.45593999997E+02  0.45594000000E+02  0.51100000000E-03 0.  1.
    9900012    2    1    2    0    0  0.30868755230E+02  0.24865671908E+02 -0.90544976236E+01  0.50528860608E+02  0.30000002304E+02 0.  0.
        -12    1    1    2    0    0 -0.30868755230E+02 -0.24865671908E+02  0.90544976236E+01  0.40659139392E+02  0.00000000000E+00 0.  1.
         11    1    3    3    0    0  0.21820807309E+00  0.16406594749E+01  0.37299057116E+01  0.40806341608E+01  0.51100000000E-03 0. -1.
        -11    1    3    3    0    0  0.10083975536E+02 -0.34386486540E+01 -0.72038962987E+00  0.10678475015E+02  0.51100000000E-03 0.  1.
         12    1    3    3    0    0  0.20566571621E+02  0.26663661087E+02 -0.12064013705E+02  0.35769751432E+02  0.00000000000E+00 0. -1.
</event>
<event>
 7    1  0.5935282E-013  0.5052886E+02  0.7816164E-02  0.1300439E+00
        -11   -1    0    0    0    0  0.00000000000E+00  0.00000000000E+00  0.45593999997E+02  0.45594000000E+02  0.51100000000E-03 0. -1.
         11   -1    0    0    0    0 -0.00000000000E+00 -0.00000000000E+00 -0.45593999997E+02  0.45594000000E+02  0.51100000000E-03 0.  1.
    9900012    2    1    2    0    0 -0.34530546581E+02 -0.67184697534E+01  0.20387963192E+02  0.50528861715E+02  0.30000005668E+02 0.  0.
        -12    1    1    2    0    0  0.34530546581E+02  0.67184697534E+01 -0.20387963192E+02  0.40659138285E+02  0.00000000000E+00 0.  1.
         11    1    3    3    0    0 -0.11624454199E+01  0.36695714857E+01 -0.24768040352E+01  0.45772909819E+01  0.51100000000E-03 0. -1.
        -11    1    3    3    0    0 -0.36862201490E+01 -0.61090545161E+01 -0.15258301292E+01  0.72963637459E+01  0.51100000000E-03 0.  1.
         12    1    3    3    0    0 -0.29681881012E+02 -0.42789867230E+01  0.24390597357E+02  0.38655206987E+02  0.00000000000E+00 0. -1.
</event>
<event>
 7    1  0.5935282E-013  0.5052885E+02  0.7816164E-02  0.1300439E+00
        -11   -1    0    0    0    0  0.00000000000E+00  0.00000000000E+00  0.45593999997E+02  0.45594000000E+02  0.51100000000E-03 0.  1.
         11   -1    0    0    0    0 -0.00000000000E+00 -0.00000000000E+00 -0.45593999997E+02  0.45594000000E+02  0.51100000000E-03 0. -1.
    9900012    2    1    2    0    0 -0.34787850425E+02 -0.11005089797E+02 -0.17940463671E+02  0.50528846352E+02  0.29999958972E+02 0.  0.
        -12    1    1    2    0    0  0.34787850425E+02  0.11005089797E+02  0.17940463671E+02  0.40659153648E+02  0.00000000000E+00 0.  1.
         11    1    3    3    0    0 -0.30041456726E+01 -0.24157438930E+01  0.49818941029E+01  0.62992046238E+01  0.51100000000E-03 0. -1.
        -11    1    3    3    0    0  0.28440703912E+00  0.17846422367E+01  0.17065451901E+01  0.24855848455E+01  0.51100000000E-03 0.  1.
         12    1    3    3    0    0 -0.32068111792E+02 -0.10373988140E+02 -0.24628902964E+02  0.41744056883E+02  0.00000000000E+00 0. -1.
</event>
<event>
 7    1  0.5935282E-013  0.5052886E+02  0.7816164E-02  0.1300439E+00
        -11   -1    0    0    0    0  0.00000000000E+00  0.00000000000E+00  0.45593999997E+02  0.45594000000E+02  0.51100000000E-03 0. -1.
         11   -1    0    0    0    0 -0.00000000000E+00 -0.00000000000E+00 -0.45593999997E+02  0.45594000000E+02  0.51100000000E-03 0.  1.
    9900012    2    1    2    0    0  0.12334503488E+02  0.38740770234E+02 -0.42222661236E+00  0.50528861668E+02  0.30000005526E+02 0.  0.
        -12    1    1    2    0    0 -0.12334503488E+02 -0.38740770234E+02  0.42222661236E+00  0.40659138332E+02  0.00000000000E+00 0.  1.
         11    1    3    3    0    0 -0.72021721840E+01  0.20793415035E+02 -0.31583732651E+01  0.22230895504E+02  0.51100000000E-03 0.  1.
        -11    1    3    3    0    0  0.11086642753E+01  0.60525158197E+01 -0.27150423545E+00  0.61592044156E+01  0.51100000000E-03 0. -1.
        -12    1    3    3    0    0  0.18428011396E+02  0.11894839379E+02  0.30076508882E+01  0.22138761748E+02  0.00000000000E+00 0.  1.
</event>
<event>
 7    1  0.5935282E-013  0.5052886E+02  0.7816164E-02  0.1300439E+00
        -11   -1    0    0    0    0  0.00000000000E+00  0.00000000000E+00  0.45593999997E+02  0.45594000000E+02  0.51100000000E-03 0.  1.
         11   -1    0    0    0    0 -0.00000000000E+00 -0.00000000000E+00 -0.45593999997E+02  0.45594000000E+02  0.51100000000E-03 0. -1.
    9900012    2    1    2    0    0  0.30085660671E+02  0.22805977136E+02 -0.15096551275E+02  0.50528862878E+02  0.30000009203E+02 0.  0.
        -12    1    1    2    0    0 -0.30085660671E+02 -0.22805977136E+02  0.15096551275E+02  0.40659137122E+02  0.00000000000E+00 0.  1.
         11    1    3    3    0    0  0.14173222372E+01  0.48935994397E+01 -0.53567921121E+01  0.73926544485E+01  0.51100000000E-03 0. -1.
        -11    1    3    3    0    0 -0.26699204692E+00  0.82280017336E+01 -0.95688620300E+01  0.12622773788E+02  0.51100000000E-03 0.  1.
         12    1    3    3    0    0  0.28935330480E+02  0.96843759628E+01 -0.17089713326E+00  0.30513434642E+02  0.00000000000E+00 0. -1.
</event>
<event>
 7    1  0.5935282E-013  0.5052886E+02  0.7816164E-02  0.1300439E+00
        -11   -1    0    0    0    0  0.00000000000E+00  0.00000000000E+00  0.45593999997E+02  0.45594000000E+02  0.51100000000E-03 0.  1.
         11   -1    0    0    0    0 -0.00000000000E+00 -0.00000000000E+00 -0.45593999997E+02  0.45594000000E+02  0.51100000000E-03 0. -1.
    9900012    2    1    2    0    0  0.30573639968E+02  0.16007149154E+02 -0.21498589202E+02  0.50528860528E+02  0.30000002061E+02 0.  0.
        -12    1    1    2    0    0 -0.30573639968E+02 -0.16007149154E+02  0.21498589202E+02  0.40659139472E+02  0.00000000000E+00 0.  1.
         11    1    3    3    0    0  0.47241115293E+01  0.36782138494E+01 -0.62436066497E+01  0.86503821372E+01  0.51100000000E-03 0. -1.
        -11    1    3    3    0    0  0.53350255773E+01 -0.29733042730E+01 -0.15096246077E+02  0.16284952627E+02  0.51100000000E-03 0.  1.
        -12    1    3    3    0    0  0.20514502861E+02  0.15302239577E+02 -0.15873647613E+00  0.25593525763E+02  0.00000000000E+00 0.  1.
</event>
<event>
 7    1  0.5935282E-013  0.5052886E+02  0.7816164E-02  0.1300439E+00
        -11   -1    0    0    0    0  0.00000000000E+00  0.00000000000E+00  0.45593999997E+02  0.45594000000E+02  0.51100000000E-03 0.  1.
         11   -1    0    0    0    0 -0.00000000000E+00 -0.00000000000E+00 -0.45593999997E+02  0.45594000000E+02  0.51100000000E-03 0. -1.
    9900012    2    1    2    0    0  0.24932398200E+02 -0.25512623063E+02 -0.19510177845E+02  0.50528862588E+02  0.30000008322E+02 0.  0.
        -12    1    1    2    0    0 -0.24932398200E+02  0.25512623063E+02  0.19510177845E+02  0.40659137412E+02  0.00000000000E+00 0.  1.
         11    1    3    3    0    0  0.22201931123E+01 -0.40433934565E+01 -0.46519100358E+01  0.65512254840E+01  0.51100000000E-03 0. -1.
        -11    1    3    3    0    0  0.12934604620E+01 -0.19044357716E+02 -0.28408366494E+01  0.19298470248E+02  0.51100000000E-03 0.  1.
        -12    1    3    3    0    0  0.21418744626E+02 -0.24248718908E+01 -0.12017431160E+02  0.24679166856E+02  0.00000000000E+00 0.  1.
</event>
<event>
 7    1  0.5935282E-013  0.5052885E+02  0.7816164E-02  0.1300439E+00
        -11   -1    0    0    0    0  0.00000000000E+00  0.00000000000E+00  0.45593999997E+02  0.45594000000E+02  0.51100000000E-03 0.  1.
         11   -1    0    0    0    0 -0.00000000000E+00 -0.00000000000E+00 -0.45593999997E+02  0.45594000000E+02  0.51100000000E-03 0. -1.
    9900012    2    1    2    0    0 -0.30508454260E+02 -0.14718256694E+02 -0.22489403338E+02  0.50528854363E+02  0.29999983321E+02 0.  0.
        -12    1    1    2    0    0  0.30508454260E+02  0.14718256694E+02  0.22489403338E+02  0.40659145637E+02  0.00000000000E+00 0.  1.
         11    1    3    3    0    0 -0.81377375988E+01 -0.50136350668E+01 -0.80264450106E-01  0.95585434273E+01  0.51100000000E-03 0.  1.
        -11    1    3    3    0    0 -0.59231034241E+01  0.73725753740E+00  0.46927275025E+01  0.75926539841E+01  0.51100000000E-03 0. -1.
         12    1    3    3    0    0 -0.16447613237E+02 -0.10441879164E+02 -0.27101866391E+02  0.33377656951E+02  0.00000000000E+00 0. -1.
</event>
<event>
 7    1  0.5935282E-013  0.5052885E+02  0.7816164E-02  0.1300439E+00
        -11   -1    0    0    0    0  0.00000000000E+00  0.00000000000E+00  0.45593999997E+02  0.45594000000E+02  0.51100000000E-03 0.  1.
         11   -1    0    0    0    0 -0.00000000000E+00 -0.00000000000E+00 -0.45593999997E+02  0.45594000000E+02  0.51100000000E-03 0. -1.
    9900012    2    1    2    0    0  0.17455751780E+02 -0.35077679144E+02 -0.10863680129E+02  0.50528851088E+02  0.29999973366E+02 0.  0.
        -12    1    1    2    0    0 -0.17455751780E+02  0.35077679144E+02  0.10863680129E+02  0.40659148912E+02  0.00000000000E+00 0.  1.
         11    1    3    3    0    0  0.43029503087E+00  0.63426733671E+00  0.31744427366E+00  0.82959025791E+00  0.51100000000E-03 0.  1.
        -11    1    3    3    0    0 -0.47098039594E+01 -0.63817056151E+01 -0.10535868759E+02  0.13187605949E+02  0.51100000000E-03 0. -1.
         12    1    3    3    0    0  0.21735260709E+02 -0.29330240866E+02 -0.64525564321E+00  0.36511654881E+02  0.00000000000E+00 0. -1.
</event>
<event>
 7    1  0.5935282E-013  0.5052886E+02  0.7816164E-02  0.1300439E+00
        -11   -1    0    0    0    0  0.00000000000E+00  0.00000000000E+00  0.45593999997E+02  0.45594000000E+02  0.51100000000E-03 0.  1.
         11   -1    0    0    0    0 -0.00000000000E+00 -0.00000000000E+00 -0.45593999997E+02  0.45594000000E+02  0.51100000000E-03 0. -1.
    9900012    2    1    2    0    0 -0.10050317471E+02 -0.46535985269E+01 -0.39121615113E+02  0.50528860442E+02  0.30000001800E+02 0.  0.
        -12    1    1    2    0    0  0.10050317471E+02  0.46535985269E+01  0.39121615113E+02  0.40659139558E+02  0.00000000000E+00 0.  1.
         11    1    3    3    0    0 -0.18524032532E+01 -0.22127997376E+01 -0.90805733728E+01  0.95281002058E+01  0.51100000000E-03 0. -1.
        -11    1    3    3    0    0 -0.11508432021E+00 -0.13375821607E+02 -0.20150788829E+02  0.24186362660E+02  0.51100000000E-03 0.  1.
        -12    1    3    3    0    0 -0.80828298974E+01  0.10935022818E+02 -0.98902529118E+01  0.16814397576E+02  0.00000000000E+00 0.  1.
</event>
<event>
 7    1  0.5935282E-013  0.5052886E+02  0.7816164E-02  0.1300439E+00
        -11   -1    0    0    0    0  0.00000000000E+00  0.00000000000E+00  0.45593999997E+02  0.45594000000E+02  0.51100000000E-03 0.  1.
         11   -1    0    0    0    0 -0.00000000000E+00 -0.00000000000E+00 -0.45593999997E+02  0.45594000000E+02  0.51100000000E-03 0. -1.
    9900012    2    1    2    0    0  0.17100610195E+02 -0.22163298299E+01 -0.36821500974E+02  0.50528856859E+02  0.29999990910E+02 0.  0.
        -12    1    1    2    0    0 -0.17100610195E+02  0.22163298299E+01  0.36821500974E+02  0.40659143141E+02  0.00000000000E+00 0.  1.
         11    1    3    3    0    0  0.72032888929E+01  0.87302452234E+01 -0.51682155529E+01  0.12442467794E+02  0.51100000000E-03 0. -1.
        -11    1    3    3    0    0  0.30397558067E+01 -0.24718589582E+00  0.86745179510E+00  0.31707552901E+01  0.51100000000E-03 0.  1.
         12    1    3    3    0    0  0.68575654958E+01 -0.10699389158E+02 -0.32520737216E+02  0.34915633775E+02  0.00000000000E+00 0. -1.
</event>
<event>
 7    1  0.5935282E-013  0.5052886E+02  0.7816164E-02  0.1300439E+00
        -11   -1    0    0    0    0  0.00000000000E+00  0.00000000000E+00  0.45593999997E+02  0.45594000000E+02  0.51100000000E-03 0.  1.
         11   -1    0    0    0    0 -0.00000000000E+00 -0.00000000000E+00 -0.45593999997E+02  0.45594000000E+02  0.51100000000E-03 0. -1.
    9900012    2    1    2    0    0  0.39998487946E+02  0.72997459142E+01  0.10304910285E-01  0.50528862841E+02  0.30000009090E+02 0.  0.
        -12    1    1    2    0    0 -0.39998487946E+02 -0.72997459142E+01 -0.10304910285E-01  0.40659137159E+02  0.00000000000E+00 0.  1.
         11    1    3    3    0    0  0.18120852964E+02  0.70129591458E+01 -0.50552335054E+01  0.20077407556E+02  0.51100000000E-03 0. -1.
        -11    1    3    3    0    0  0.90867620866E+01  0.47499043726E+01 -0.69145590459E+01  0.12366970681E+02  0.51100000000E-03 0.  1.
        -12    1    3    3    0    0  0.12790872895E+02 -0.44631176043E+01  0.11980097462E+02  0.18084484603E+02  0.00000000000E+00 0.  1.
</event>
<event>
 7    1  0.5935282E-013  0.5052886E+02  0.7816164E-02  0.1300439E+00
        -11   -1    0    0    0    0  0.00000000000E+00  0.00000000000E+00  0.45593999997E+02  0.45594000000E+02  0.51100000000E-03 0.  1.
         11   -1    0    0    0    0 -0.00000000000E+00 -0.00000000000E+00 -0.45593999997E+02  0.45594000000E+02  0.51100000000E-03 0. -1.
    9900012    2    1    2    0    0  0.28011435792E+01 -0.40136863046E+02  0.58610371794E+01  0.50528856657E+02  0.29999990295E+02 0.  0.
        -12    1    1    2    0    0 -0.28011435792E+01  0.40136863046E+02 -0.58610371794E+01  0.40659143343E+02  0.00000000000E+00 0.  1.
         11    1    3    3    0    0 -0.58656045776E+01  0.52819295433E+00 -0.27829357380E+01  0.65137574748E+01  0.51100000000E-03 0. -1.
        -11    1    3    3    0    0  0.88852223165E+00 -0.31774607378E+01  0.43926745829E+01  0.54937527019E+01  0.51100000000E-03 0.  1.
         12    1    3    3    0    0  0.77782259251E+01 -0.37487595263E+02  0.42512983345E+01  0.38521346480E+02  0.00000000000E+00 0. -1.
</event>
<event>
 7    1  0.5935282E-013  0.5052886E+02  0.7816164E-02  0.1300439E+00
        -11   -1    0    0    0    0  0.00000000000E+00  0.00000000000E+00  0.45593999997E+02  0.45594000000E+02  0.51100000000E-03 0.  1.
         11   -1    0    0    0    0 -0.00000000000E+00 -0.00000000000E+00 -0.45593999997E+02  0.45594000000E+02  0.51100000000E-03 0. -1.
    9900012    2    1    2    0    0 -0.37500596655E+02 -0.58055232791E+01 -0.14600242368E+02  0.50528856782E+02  0.29999990675E+02 0.  0.
        -12    1    1    2    0    0  0.37500596655E+02  0.58055232791E+01  0.14600242368E+02  0.40659143218E+02  0.00000000000E+00 0.  1.
         11    1    3    3    0    0 -0.14797050638E+02 -0.96867588547E+01  0.65795603334E+00  0.17697991725E+02  0.51100000000E-03 0. -1.
        -11    1    3    3    0    0 -0.89132973378E+01 -0.71317750803E+01 -0.56588110714E+01  0.12740927291E+02  0.51100000000E-03 0.  1.
        -12    1    3    3    0    0 -0.13790248679E+02  0.11013010656E+02 -0.95993873300E+01  0.20089937766E+02  0.00000000000E+00 0.  1.
</event>
<event>
 7    1  0.5935282E-013  0.5052886E+02  0.7816164E-02  0.1300439E+00
        -11   -1    0    0    0    0  0.00000000000E+00  0.00000000000E+00  0.45593999997E+02  0.45594000000E+02  0.51100000000E-03 0. -1.
         11   -1    0    0    0    0 -0.00000000000E+00 -0.00000000000E+00 -0.45593999997E+02  0.45594000000E+02  0.51100000000E-03 0.  1.
    9900012    2    1    2    0    0  0.36641847611E+01  0.37147465023E+02 -0.16118463244E+02  0.50528864926E+02  0.30000015429E+02 0.  0.
        -12    1    1    2    0    0 -0.36641847611E+01 -0.37147465023E+02  0.16118463244E+02  0.40659135074E+02  0.00000000000E+00 0.  1.
         11    1    3    3    0    0  0.34366168223E+01  0.33317629456E+02 -0.90233463556E+01  0.34688550669E+02  0.51100000000E-03 0. -1.
        -11    1    3    3    0    0 -0.34775865665E+01  0.79140283173E+01 -0.45064979283E+01  0.97485371402E+01  0.51100000000E-03 0.  1.
         12    1    3    3    0    0  0.37051545053E+01 -0.40841927501E+01 -0.25886189597E+01  0.60917771173E+01  0.00000000000E+00 0. -1.
</event>
<event>
 7    1  0.5935282E-013  0.5052886E+02  0.7816164E-02  0.1300439E+00
        -11   -1    0    0    0    0  0.00000000000E+00  0.00000000000E+00  0.45593999997E+02  0.45594000000E+02  0.51100000000E-03 0.  1.
         11   -1    0    0    0    0 -0.00000000000E+00 -0.00000000000E+00 -0.45593999997E+02  0.45594000000E+02  0.51100000000E-03 0. -1.
    9900012    2    1    2    0    0 -0.23205636796E+02 -0.21762786062E+02 -0.25318875172E+02  0.50528857409E+02  0.29999992580E+02 0.  0.
        -12    1    1    2    0    0  0.23205636796E+02  0.21762786062E+02  0.25318875172E+02  0.40659142591E+02  0.00000000000E+00 0.  1.
         11    1    3    3    0    0 -0.82379007554E+00 -0.94443005746E+01 -0.14556723288E+02  0.17371575535E+02  0.51100000000E-03 0. -1.
        -11    1    3    3    0    0 -0.74949487138E+00  0.37122066314E+01  0.77371151768E+00  0.38653396242E+01  0.51100000000E-03 0.  1.
         12    1    3    3    0    0 -0.21632351849E+02 -0.16030692119E+02 -0.11535863402E+02  0.29291942249E+02  0.00000000000E+00 0. -1.
</event>
<event>
 7    1  0.5935282E-013  0.5052886E+02  0.7816164E-02  0.1300439E+00
        -11   -1    0    0    0    0  0.00000000000E+00  0.00000000000E+00  0.45593999997E+02  0.45594000000E+02  0.51100000000E-03 0.  1.
         11   -1    0    0    0    0 -0.00000000000E+00 -0.00000000000E+00 -0.45593999997E+02  0.45594000000E+02  0.51100000000E-03 0. -1.
    9900012    2    1    2    0    0 -0.23074638011E+02 -0.23894878779E+02 -0.23446997454E+02  0.50528857845E+02  0.29999993904E+02 0.  0.
        -12    1    1    2    0    0  0.23074638011E+02  0.23894878779E+02  0.23446997454E+02  0.40659142155E+02  0.00000000000E+00 0.  1.
         11    1    3    3    0    0 -0.12369190973E+02 -0.81956011892E+01  0.14542885230E+00  0.14838662810E+02  0.51100000000E-03 0. -1.
        -11    1    3    3    0    0 -0.33481856450E+00 -0.22401330059E+01  0.32263541991E+01  0.39420376754E+01  0.51100000000E-03 0.  1.
        -12    1    3    3    0    0 -0.10370628473E+02 -0.13459144584E+02 -0.26818780506E+02  0.31748157359E+02  0.00000000000E+00 0.  1.
</event>
<event>
 7    1  0.5935282E-013  0.5052883E+02  0.7816164E-02  0.1300439E+00
        -11   -1    0    0    0    0  0.00000000000E+00  0.00000000000E+00  0.45593999997E+02  0.45594000000E+02  0.51100000000E-03 0.  1.
         11   -1    0    0    0    0 -0.00000000000E+00 -0.00000000000E+00 -0.45593999997E+02  0.45594000000E+02  0.51100000000E-03 0. -1.
    9900012    2    1    2    0    0 -0.21051293631E+02  0.24171702274E+02 -0.25014794086E+02  0.50528830339E+02  0.29999910299E+02 0.  0.
        -12    1    1    2    0    0  0.21051293631E+02 -0.24171702274E+02  0.25014794086E+02  0.40659169661E+02  0.00000000000E+00 0.  1.
         11    1    3    3    0    0  0.38301753640E+01  0.21876285998E+01 -0.81814126976E+00  0.44861250103E+01  0.51100000000E-03 0. -1.
        -11    1    3    3    0    0 -0.39301975388E+00  0.12116876971E+02 -0.11642139694E+02  0.16808110810E+02  0.51100000000E-03 0.  1.
        -12    1    3    3    0    0 -0.24488449241E+02  0.98671967026E+01 -0.12554513122E+02  0.29234594519E+02  0.00000000000E+00 0.  1.
</event>
<event>
 7    1  0.5935282E-013  0.5052885E+02  0.7816164E-02  0.1300439E+00
        -11   -1    0    0    0    0  0.00000000000E+00  0.00000000000E+00  0.45593999997E+02  0.45594000000E+02  0.51100000000E-03 0.  1.
         11   -1    0    0    0    0 -0.00000000000E+00 -0.00000000000E+00 -0.45593999997E+02  0.45594000000E+02  0.51100000000E-03 0. -1.
    9900012    2    1    2    0    0 -0.39344842121E+02  0.86853423315E+01  0.54510943453E+01  0.50528853397E+02  0.29999980386E+02 0.  0.
        -12    1    1    2    0    0  0.39344842121E+02 -0.86853423315E+01 -0.54510943453E+01  0.40659146603E+02  0.00000000000E+00 0.  1.
         11    1    3    3    0    0 -0.17357080875E+01 -0.47408482467E+01  0.26204898539E+01  0.56881712350E+01  0.51100000000E-03 0. -1.
        -11    1    3    3    0    0  0.43072456384E+00  0.87785577870E+00  0.46417747398E+01  0.47436512746E+01  0.51100000000E-03 0.  1.
         12    1    3    3    0    0 -0.38039858597E+02  0.12548334799E+02 -0.18111702484E+01  0.40097030888E+02  0.00000000000E+00 0. -1.
</event>
<event>
 7    1  0.5935282E-013  0.5052885E+02  0.7816164E-02  0.1300439E+00
        -11   -1    0    0    0    0  0.00000000000E+00  0.00000000000E+00  0.45593999997E+02  0.45594000000E+02  0.51100000000E-03 0. -1.
         11   -1    0    0    0    0 -0.00000000000E+00 -0.00000000000E+00 -0.45593999997E+02  0.45594000000E+02  0.51100000000E-03 0.  1.
    9900012    2    1    2    0    0 -0.12331861653E+01 -0.37844441967E+02  0.14813633060E+02  0.50528852686E+02  0.29999978223E+02 0.  0.
        -12    1    1    2    0    0  0.12331861653E+01  0.37844441967E+02 -0.14813633060E+02  0.40659147314E+02  0.00000000000E+00 0.  1.
         11    1    3    3    0    0  0.10688985161E+02 -0.11953785384E+02  0.93756314955E+01  0.18575517623E+02  0.51100000000E-03 0. -1.
        -11    1    3    3    0    0 -0.53624302178E+00  0.11700936661E+01  0.20217640106E+01  0.23967072708E+01  0.51100000000E-03 0.  1.
         12    1    3    3    0    0 -0.11385928304E+02 -0.27060750249E+02  0.34162375536E+01  0.29556627792E+02  0.00000000000E+00 0. -1.
</event>
<event>
 7    1  0.5935282E-013  0.5052886E+02  0.7816164E-02  0.1300439E+00
        -11   -1    0    0    0    0  0.00000000000E+00  0.00000000000E+00  0.45593999997E+02  0.45594000000E+02  0.51100000000E-03 0.  1.
         11   -1    0    0    0    0 -0.00000000000E+00 -0.00000000000E+00 -0.45593999997E+02  0.45594000000E+02  0.51100000000E-03 0. -1.
    9900012    2    1    2    0    0  0.16985483694E+02 -0.28141501222E+02 -0.23931458959E+02  0.50528862340E+02  0.30000007570E+02 0.  0.
        -12    1    1    2    0    0 -0.16985483694E+02  0.28141501222E+02  0.23931458959E+02  0.40659137660E+02  0.00000000000E+00 0.  1.
         11    1    3    3    0    0 -0.25596575532E+00  0.14164760734E+01 -0.56230974972E+01  0.58044076924E+01  0.51100000000E-03 0. -1.
        -11    1    3    3    0    0  0.99619947924E+01 -0.25116764331E+00 -0.81205090003E+01  0.12854847028E+02  0.51100000000E-03 0.  1.
        -12    1    3    3    0    0  0.72794546566E+01 -0.29306809652E+02 -0.10187852461E+02  0.31869607620E+02  0.00000000000E+00 0.  1.
</event>
<event>
 7    1  0.5935282E-013  0.5052885E+02  0.7816164E-02  0.1300439E+00
        -11   -1    0    0    0    0  0.00000000000E+00  0.00000000000E+00  0.45593999997E+02  0.45594000000E+02  0.51100000000E-03 0. -1.
         11   -1    0    0    0    0 -0.00000000000E+00 -0.00000000000E+00 -0.45593999997E+02  0.45594000000E+02  0.51100000000E-03 0.  1.
    9900012    2    1    2    0    0  0.11958513694E+02 -0.11758774797E+02  0.37039057946E+02  0.50528847918E+02  0.29999963731E+02 0.  0.
        -12    1    1    2    0    0 -0.11958513694E+02  0.11758774797E+02 -0.37039057946E+02  0.40659152082E+02  0.00000000000E+00 0.  1.
         11    1    3    3    0    0  0.10871819990E+02  0.50061482839E+01  0.20913193617E+02  0.24096050673E+02  0.51100000000E-03 0. -1.
        -11    1    3    3    0    0  0.33119744700E+01 -0.29526804305E+01  0.10416807983E+02  0.11322428424E+02  0.51100000000E-03 0.  1.
        -12    1    3    3    0    0 -0.22252807663E+01 -0.13812242650E+02  0.57090563469E+01  0.15110368820E+02  0.00000000000E+00 0.  1.
</event>
<event>
 7    1  0.5935282E-013  0.5052886E+02  0.7816164E-02  0.1300439E+00
        -11   -1    0    0    0    0  0.00000000000E+00  0.00000000000E+00  0.45593999997E+02  0.45594000000E+02  0.51100000000E-03 0. -1.
         11   -1    0    0    0    0 -0.00000000000E+00 -0.00000000000E+00 -0.45593999997E+02  0.45594000000E+02  0.51100000000E-03 0.  1.
    9900012    2    1    2    0    0  0.49432635463E+01  0.37144054321E+02 -0.15781284996E+02  0.50528861027E+02  0.30000003577E+02 0.  0.
        -12    1    1    2    0    0 -0.49432635463E+01 -0.37144054321E+02  0.15781284996E+02  0.40659138973E+02  0.00000000000E+00 0.  1.
         11    1    3    3    0    0  0.76160935932E+01  0.21010986192E+02  0.28784038552E+01  0.22533344878E+02  0.51100000000E-03 0. -1.
        -11    1    3    3    0    0  0.46545617597E+01  0.38218690848E+01 -0.85612282118E+01  0.10467390182E+02  0.51100000000E-03 0.  1.
        -12    1    3    3    0    0 -0.73273918066E+01  0.12311199045E+02 -0.10098460639E+02  0.17528125966E+02  0.00000000000E+00 0.  1.
</event>
<event>
 7    1  0.5935282E-013  0.5052886E+02  0.7816164E-02  0.1300439E+00
        -11   -1    0    0    0    0  0.00000000000E+00  0.00000000000E+00  0.45593999997E+02  0.45594000000E+02  0.51100000000E-03 0. -1.
         11   -1    0    0    0    0 -0.00000000000E+00 -0.00000000000E+00 -0.45593999997E+02  0.45594000000E+02  0.51100000000E-03 0.  1.
    9900012    2    1    2    0    0 -0.30883938162E+02  0.20519274695E+02  0.16682553667E+02  0.50528857520E+02  0.29999992917E+02 0.  0.
        -12    1    1    2    0    0  0.30883938162E+02 -0.20519274695E+02 -0.16682553667E+02  0.40659142480E+02  0.00000000000E+00 0.  1.
         11    1    3    3    0    0 -0.15007988400E+02  0.10198954452E+02 -0.59083761145E+01  0.19083167879E+02  0.51100000000E-03 0.  1.
        -11    1    3    3    0    0  0.27635690395E+00 -0.13737128682E+01  0.12577101387E+00  0.14068684344E+01  0.51100000000E-03 0. -1.
         12    1    3    3    0    0 -0.16152306666E+02  0.11694033111E+02  0.22465158768E+02  0.30038821206E+02  0.00000000000E+00 0. -1.
</event>
<event>
 7    1  0.5935282E-013  0.5052886E+02  0.7816164E-02  0.1300439E+00
        -11   -1    0    0    0    0  0.00000000000E+00  0.00000000000E+00  0.45593999997E+02  0.45594000000E+02  0.51100000000E-03 0.  1.
         11   -1    0    0    0    0 -0.00000000000E+00 -0.00000000000E+00 -0.45593999997E+02  0.45594000000E+02  0.51100000000E-03 0. -1.
    9900012    2    1    2    0    0  0.12121063880E+01 -0.87480971046E+01 -0.39688377939E+02  0.50528858983E+02  0.29999997365E+02 0.  0.
        -12    1    1    2    0    0 -0.12121063880E+01  0.87480971046E+01  0.39688377939E+02  0.40659141017E+02  0.00000000000E+00 0.  1.
         11    1    3    3    0    0  0.94322805128E+00 -0.63984921669E+01 -0.16313180363E+02  0.17548510905E+02  0.51100000000E-03 0. -1.
        -11    1    3    3    0    0 -0.15392417910E+01  0.10040991097E+02 -0.68720605921E+01  0.12264419454E+02  0.51100000000E-03 0.  1.
         12    1    3    3    0    0  0.18081201276E+01 -0.12390596034E+02 -0.16503136984E+02  0.20715928625E+02  0.00000000000E+00 0. -1.
</event>
<event>
 7    1  0.5935282E-013  0.5052886E+02  0.7816164E-02  0.1300439E+00
        -11   -1    0    0    0    0  0.00000000000E+00  0.00000000000E+00  0.45593999997E+02  0.45594000000E+02  0.51100000000E-03 0. -1.
         11   -1    0    0    0    0 -0.00000000000E+00 -0.00000000000E+00 -0.45593999997E+02  0.45594000000E+02  0.51100000000E-03 0.  1.
    9900012    2    1    2    0    0  0.16742235785E+02 -0.34264918473E+02  0.14098889867E+02  0.50528858439E+02  0.29999995711E+02 0.  0.
        -12    1    1    2    0    0 -0.16742235785E+02  0.34264918473E+02 -0.14098889867E+02  0.40659141561E+02  0.00000000000E+00 0.  1.
         11    1    3    3    0    0  0.15098054606E+02 -0.25111236885E+02  0.11621572939E+02  0.31521206014E+02  0.51100000000E-03 0. -1.
        -11    1    3    3    0    0  0.52775282849E+01  0.22983357252E+01  0.38347472898E+01  0.69166421724E+01  0.51100000000E-03 0.  1.
         12    1    3    3    0    0 -0.36333471057E+01 -0.11452017313E+02 -0.13574303621E+01  0.12091010252E+02  0.00000000000E+00 0. -1.
</event>
<event>
 7    1  0.5935282E-013  0.5052885E+02  0.7816164E-02  0.1300439E+00
        -11   -1    0    0    0    0  0.00000000000E+00  0.00000000000E+00  0.45593999997E+02  0.45594000000E+02  0.51100000000E-03 0.  1.
         11   -1    0    0    0    0 -0.00000000000E+00 -0.00000000000E+00 -0.45593999997E+02  0.45594000000E+02  0.51100000000E-03 0. -1.
    9900012    2    1    2    0    0  0.12420044347E+01 -0.28355233338E+02 -0.29113646455E+02  0.50528852904E+02  0.29999978887E+02 0.  0.
        -12    1    1    2    0    0 -0.12420044347E+01  0.28355233338E+02  0.29113646455E+02  0.40659147096E+02  0.00000000000E+00 0.  1.
         11    1    3    3    0    0 -0.49953077361E+00 -0.13231255187E+02 -0.16218848456E+02  0.20937208274E+02  0.51100000000E-03 0. -1.
        -11    1    3    3    0    0 -0.53724651851E+01 -0.35878017152E+00 -0.12029056894E+02  0.13179162166E+02  0.51100000000E-03 0.  1.
        -12    1    3    3    0    0  0.71140003934E+01 -0.14765197980E+02 -0.86574110519E+00  0.16412482464E+02  0.00000000000E+00 0.  1.
</event>
<event>
 7    1  0.5935282E-013  0.5052886E+02  0.7816164E-02  0.1300439E+00
        -11   -1    0    0    0    0  0.00000000000E+00  0.00000000000E+00  0.45593999997E+02  0.45594000000E+02  0.51100000000E-03 0.  1.
         11   -1    0    0    0    0 -0.00000000000E+00 -0.00000000000E+00 -0.45593999997E+02  0.45594000000E+02  0.51100000000E-03 0. -1.
    9900012    2    1    2    0    0  0.26342518391E+02 -0.28962624799E+02 -0.10972868476E+02  0.50528858925E+02  0.29999997187E+02 0.  0.
        -12    1    1    2    0    0 -0.26342518391E+02  0.28962624799E+02  0.10972868476E+02  0.40659141075E+02  0.00000000000E+00 0.  1.
         11    1    3    3    0    0  0.30811703727E+01 -0.13812681579E+02 -0.93455108793E+01  0.16959432689E+02  0.51100000000E-03 0. -1.
        -11    1    3    3    0    0  0.38339454881E+01 -0.10553623358E+01  0.70112840046E+01  0.80604609868E+01  0.51100000000E-03 0.  1.
         12    1    3    3    0    0  0.19427402530E+02 -0.14094580884E+02 -0.86386416012E+01  0.25508965249E+02  0.00000000000E+00 0. -1.
</event>
<event>
 7    1  0.5935282E-013  0.5052883E+02  0.7816164E-02  0.1300439E+00
        -11   -1    0    0    0    0  0.00000000000E+00  0.00000000000E+00  0.45593999997E+02  0.45594000000E+02  0.51100000000E-03 0.  1.
         11   -1    0    0    0    0 -0.00000000000E+00 -0.00000000000E+00 -0.45593999997E+02  0.45594000000E+02  0.51100000000E-03 0. -1.
    9900012    2    1    2    0    0 -0.37091674261E+02  0.12117179589E+02 -0.11425823174E+02  0.50528834048E+02  0.29999921573E+02 0.  0.
        -12    1    1    2    0    0  0.37091674261E+02 -0.12117179589E+02  0.11425823174E+02  0.40659165952E+02  0.00000000000E+00 0.  1.
         11    1    3    3    0    0 -0.12944696431E+02 -0.60014771490E+01 -0.82511722620E+01  0.16482255235E+02  0.51100000000E-03 0. -1.
        -11    1    3    3    0    0 -0.99672966271E+01  0.33512715303E+01  0.54348737295E+01  0.11837055193E+02  0.51100000000E-03 0.  1.
        -12    1    3    3    0    0 -0.14179681203E+02  0.14767385208E+02 -0.86095246416E+01  0.22209523620E+02  0.00000000000E+00 0.  1.
</event>
<event>
 7    1  0.5935282E-013  0.5052886E+02  0.7816164E-02  0.1300439E+00
        -11   -1    0    0    0    0  0.00000000000E+00  0.00000000000E+00  0.45593999997E+02  0.45594000000E+02  0.51100000000E-03 0. -1.
         11   -1    0    0    0    0 -0.00000000000E+00 -0.00000000000E+00 -0.45593999997E+02  0.45594000000E+02  0.51100000000E-03 0.  1.
    9900012    2    1    2    0    0 -0.21317863876E+02 -0.18002365246E+02  0.29574131408E+02  0.50528859290E+02  0.29999998299E+02 0.  0.
        -12    1    1    2    0    0  0.21317863876E+02  0.18002365246E+02 -0.29574131408E+02  0.40659140710E+02  0.00000000000E+00 0.  1.
         11    1    3    3    0    0 -0.75100890349E+01 -0.25261695381E+01  0.82602074431E+01  0.11446134593E+02  0.51100000000E-03 0. -1.
        -11    1    3    3    0    0 -0.12425304267E+02 -0.19425192050E+02  0.24633215708E+02  0.33741985548E+02  0.51100000000E-03 0.  1.
        -12    1    3    3    0    0 -0.13824705742E+01  0.39489963416E+01 -0.33192917433E+01  0.53407391503E+01  0.00000000000E+00 0.  1.
</event>
<event>
 7    1  0.5935282E-013  0.5052885E+02  0.7816164E-02  0.1300439E+00
        -11   -1    0    0    0    0  0.00000000000E+00  0.00000000000E+00  0.45593999997E+02  0.45594000000E+02  0.51100000000E-03 0.  1.
         11   -1    0    0    0    0 -0.00000000000E+00 -0.00000000000E+00 -0.45593999997E+02  0.45594000000E+02  0.51100000000E-03 0. -1.
    9900012    2    1    2    0    0 -0.18733724826E+02  0.78142544321E+01 -0.35229974184E+02  0.50528854667E+02  0.29999984246E+02 0.  0.
        -12    1    1    2    0    0  0.18733724826E+02 -0.78142544321E+01  0.35229974184E+02  0.40659145333E+02  0.00000000000E+00 0.  1.
         11    1    3    3    0    0 -0.65013637815E+01 -0.40533426268E+01 -0.14528367955E+02  0.16424700702E+02  0.51100000000E-03 0. -1.
        -11    1    3    3    0    0 -0.49335577282E+01 -0.52404536419E+01 -0.14632369130E+01  0.73446176725E+01  0.51100000000E-03 0.  1.
         12    1    3    3    0    0 -0.72988033168E+01  0.17108050701E+02 -0.19238369316E+02  0.26759536293E+02  0.00000000000E+00 0. -1.
</event>
<event>
 7    1  0.5935282E-013  0.5052884E+02  0.7816164E-02  0.1300439E+00
        -11   -1    0    0    0    0  0.00000000000E+00  0.00000000000E+00  0.45593999997E+02  0.45594000000E+02  0.51100000000E-03 0.  1.
         11   -1    0    0    0    0 -0.00000000000E+00 -0.00000000000E+00 -0.45593999997E+02  0.45594000000E+02  0.51100000000E-03 0. -1.
    9900012    2    1    2    0    0 -0.21426575447E+02 -0.26654471510E+02 -0.21991097165E+02  0.50528839392E+02  0.29999937815E+02 0.  0.
        -12    1    1    2    0    0  0.21426575447E+02  0.26654471510E+02  0.21991097165E+02  0.40659160608E+02  0.00000000000E+00 0.  1.
         11    1    3    3    0    0  0.35228249845E+01 -0.52443267617E+01 -0.23950141830E+01  0.67564304372E+01  0.51100000000E-03 0.  1.
        -11    1    3    3    0    0 -0.70856458533E+01  0.31409972854E+01 -0.21894080028E+00  0.77537201678E+01  0.51100000000E-03 0. -1.
        -12    1    3    3    0    0 -0.17863754578E+02 -0.24551142034E+02 -0.19377142182E+02  0.36018688787E+02  0.00000000000E+00 0.  1.
</event>
<event>
 7    1  0.5935282E-013  0.5052886E+02  0.7816164E-02  0.1300439E+00
        -11   -1    0    0    0    0  0.00000000000E+00  0.00000000000E+00  0.45593999997E+02  0.45594000000E+02  0.51100000000E-03 0. -1.
         11   -1    0    0    0    0 -0.00000000000E+00 -0.00000000000E+00 -0.45593999997E+02  0.45594000000E+02  0.51100000000E-03 0.  1.
    9900012    2    1    2    0    0 -0.33431644030E+02 -0.22541312025E+02 -0.52325701261E+01  0.50528863752E+02  0.30000011859E+02 0.  0.
        -12    1    1    2    0    0  0.33431644030E+02  0.22541312025E+02  0.52325701261E+01  0.40659136248E+02  0.00000000000E+00 0.  1.
         11    1    3    3    0    0 -0.31992463294E+02 -0.14426535506E+02 -0.56921291145E+01  0.35553381955E+02  0.51100000000E-03 0. -1.
        -11    1    3    3    0    0 -0.65381308528E+01 -0.16692800878E+01  0.33105627812E+00  0.67559788026E+01  0.51100000000E-03 0.  1.
        -12    1    3    3    0    0  0.50989501164E+01 -0.64454964306E+01  0.12850271028E+00  0.82195029943E+01  0.00000000000E+00 0.  1.
</event>
<event>
 7    1  0.5935282E-013  0.5052885E+02  0.7816164E-02  0.1300439E+00
        -11   -1    0    0    0    0  0.00000000000E+00  0.00000000000E+00  0.45593999997E+02  0.45594000000E+02  0.51100000000E-03 0. -1.
         11   -1    0    0    0    0 -0.00000000000E+00 -0.00000000000E+00 -0.45593999997E+02  0.45594000000E+02  0.51100000000E-03 0.  1.
    9900012    2    1    2    0    0 -0.26819226916E+02 -0.17099867920E+02  0.25327648376E+02  0.50528853581E+02  0.29999980945E+02 0.  0.
        -12    1    1    2    0    0  0.26819226916E+02  0.17099867920E+02 -0.25327648376E+02  0.40659146419E+02  0.00000000000E+00 0.  1.
         11    1    3    3    0    0 -0.19180289731E+02 -0.17912361024E+01  0.15660538049E+02  0.24826286335E+02  0.51100000000E-03 0. -1.
        -11    1    3    3    0    0 -0.32444465848E+01  0.17696057135E+01  0.69341289882E+01  0.78574858008E+01  0.51100000000E-03 0.  1.
        -12    1    3    3    0    0 -0.43944906000E+01 -0.17078237531E+02  0.27329813387E+01  0.17845081445E+02  0.00000000000E+00 0.  1.
</event>
<event>
 7    1  0.5935282E-013  0.5052887E+02  0.7816164E-02  0.1300439E+00
        -11   -1    0    0    0    0  0.00000000000E+00  0.00000000000E+00  0.45593999997E+02  0.45594000000E+02  0.51100000000E-03 0.  1.
         11   -1    0    0    0    0 -0.00000000000E+00 -0.00000000000E+00 -0.45593999997E+02  0.45594000000E+02  0.51100000000E-03 0. -1.
    9900012    2    1    2    0    0 -0.90463648220E+01 -0.84137942176E+01 -0.38736758064E+02  0.50528867263E+02  0.30000022533E+02 0.  0.
        -12    1    1    2    0    0  0.90463648220E+01  0.84137942176E+01  0.38736758064E+02  0.40659132737E+02  0.00000000000E+00 0.  1.
         11    1    3    3    0    0 -0.39592128429E+01  0.12841330155E+01 -0.10823959378E+02  0.11596657312E+02  0.51100000000E-03 0. -1.
        -11    1    3    3    0    0 -0.65191131736E+01  0.71733299645E+01 -0.13942959079E+02  0.16981213369E+02  0.51100000000E-03 0.  1.
         12    1    3    3    0    0  0.14319611946E+01 -0.16871257198E+02 -0.13969839606E+02  0.21950996581E+02  0.00000000000E+00 0. -1.
</event>
<event>
 7    1  0.5935282E-013  0.5052886E+02  0.7816164E-02  0.1300439E+00
        -11   -1    0    0    0    0  0.00000000000E+00  0.00000000000E+00  0.45593999997E+02  0.45594000000E+02  0.51100000000E-03 0.  1.
         11   -1    0    0    0    0 -0.00000000000E+00 -0.00000000000E+00 -0.45593999997E+02  0.45594000000E+02  0.51100000000E-03 0. -1.
    9900012    2    1    2    0    0  0.97052181165E+01  0.36916341565E+02 -0.14005644580E+02  0.50528860642E+02  0.30000002407E+02 0.  0.
        -12    1    1    2    0    0 -0.97052181165E+01 -0.36916341565E+02  0.14005644580E+02  0.40659139358E+02  0.00000000000E+00 0.  1.
         11    1    3    3    0    0  0.70768547860E+01  0.20873503117E+01  0.35902682164E+01  0.82054208370E+01  0.51100000000E-03 0.  1.
        -11    1    3    3    0    0 -0.58413480051E+01  0.19708901487E+02 -0.57987138395E+01  0.21358539903E+02  0.51100000000E-03 0. -1.
        -12    1    3    3    0    0  0.84697113355E+01  0.15120089766E+02 -0.11797198957E+02  0.20964899901E+02  0.00000000000E+00 0.  1.
</event>
<event>
 7    1  0.5935282E-013  0.5052886E+02  0.7816164E-02  0.1300439E+00
        -11   -1    0    0    0    0  0.00000000000E+00  0.00000000000E+00  0.45593999997E+02  0.45594000000E+02  0.51100000000E-03 0. -1.
         11   -1    0    0    0    0 -0.00000000000E+00 -0.00000000000E+00 -0.45593999997E+02  0.45594000000E+02  0.51100000000E-03 0.  1.
    9900012    2    1    2    0    0 -0.33689724807E+02  0.21818886997E+02  0.64887941215E+01  0.50528857898E+02  0.29999994066E+02 0.  0.
        -12    1    1    2    0    0  0.33689724807E+02 -0.21818886997E+02 -0.64887941215E+01  0.40659142102E+02  0.00000000000E+00 0.  1.
         11    1    3    3    0    0 -0.18472721290E+01  0.60559356345E+01  0.15949137420E+01  0.65292052222E+01  0.51100000000E-03 0. -1.
        -11    1    3    3    0    0  0.25211199201E+01  0.38422819126E+01 -0.45018849420E+01  0.64332063731E+01  0.51100000000E-03 0.  1.
         12    1    3    3    0    0 -0.34363572598E+02  0.11920669450E+02  0.93957653215E+01  0.37566446302E+02  0.00000000000E+00 0. -1.
</event>
<event>
 7    1  0.5935282E-013  0.5052888E+02  0.7816164E-02  0.1300439E+00
        -11   -1    0    0    0    0  0.00000000000E+00  0.00000000000E+00  0.45593999997E+02  0.45594000000E+02  0.51100000000E-03 0. -1.
         11   -1    0    0    0    0 -0.00000000000E+00 -0.00000000000E+00 -0.45593999997E+02  0.45594000000E+02  0.51100000000E-03 0.  1.
    9900012    2    1    2    0    0  0.38667859188E+01 -0.12315329877E+02  0.38555731437E+02  0.50528882818E+02  0.30000069815E+02 0.  0.
        -12    1    1    2    0    0 -0.38667859188E+01  0.12315329877E+02 -0.38555731437E+02  0.40659117182E+02  0.00000000000E+00 0.  1.
         11    1    3    3    0    0 -0.12344272582E+01 -0.15312179887E+01  0.86604452510E+01  0.88809769390E+01  0.51100000000E-03 0. -1.
        -11    1    3    3    0    0 -0.53979619480E+01 -0.15100520509E+02  0.10478637559E+02  0.19156345115E+02  0.51100000000E-03 0.  1.
         12    1    3    3    0    0  0.10499175125E+02  0.43164086206E+01  0.19416648627E+02  0.22491560764E+02  0.00000000000E+00 0. -1.
</event>
<event>
 7    1  0.5935282E-013  0.5052887E+02  0.7816164E-02  0.1300439E+00
        -11   -1    0    0    0    0  0.00000000000E+00  0.00000000000E+00  0.45593999997E+02  0.45594000000E+02  0.51100000000E-03 0.  1.
         11   -1    0    0    0    0 -0.00000000000E+00 -0.00000000000E+00 -0.45593999997E+02  0.45594000000E+02  0.51100000000E-03 0. -1.
    9900012    2    1    2    0    0  0.24942585457E+02 -0.32032495164E+02  0.22251670743E+01  0.50528872068E+02  0.30000037137E+02 0.  0.
        -12    1    1    2    0    0 -0.24942585457E+02  0.32032495164E+02 -0.22251670743E+01  0.40659127932E+02  0.00000000000E+00 0.  1.
         11    1    3    3    0    0  0.21006764702E+01 -0.13116499012E+02 -0.50291106773E+01  0.14203779160E+02  0.51100000000E-03 0. -1.
        -11    1    3    3    0    0  0.10207037091E+02 -0.14676546193E+02  0.12699379496E+02  0.21928494116E+02  0.51100000000E-03 0.  1.
        -12    1    3    3    0    0  0.12634871895E+02 -0.42394499595E+01 -0.54451017443E+01  0.14396598792E+02  0.00000000000E+00 0.  1.
</event>
<event>
 7    1  0.5935282E-013  0.5052886E+02  0.7816164E-02  0.1300439E+00
        -11   -1    0    0    0    0  0.00000000000E+00  0.00000000000E+00  0.45593999997E+02  0.45594000000E+02  0.51100000000E-03 0.  1.
         11   -1    0    0    0    0 -0.00000000000E+00 -0.00000000000E+00 -0.45593999997E+02  0.45594000000E+02  0.51100000000E-03 0. -1.
    9900012    2    1    2    0    0  0.27170741298E+02  0.26566864627E+02 -0.14460916474E+02  0.50528861002E+02  0.30000003501E+02 0.  0.
        -12    1    1    2    0    0 -0.27170741298E+02 -0.26566864627E+02  0.14460916474E+02  0.40659138998E+02  0.00000000000E+00 0.  1.
         11    1    3    3    0    0  0.14400710191E+02  0.23392661009E+01 -0.77365989262E+01  0.16513860333E+02  0.51100000000E-03 0. -1.
        -11    1    3    3    0    0 -0.25221450468E+00 -0.24264441348E+01 -0.33708279838E+01  0.41609764303E+01  0.51100000000E-03 0.  1.
        -12    1    3    3    0    0  0.13022245611E+02  0.26654042661E+02 -0.33534895640E+01  0.29854024238E+02  0.00000000000E+00 0.  1.
</event>
<event>
 7    1  0.5935282E-013  0.5052886E+02  0.7816164E-02  0.1300439E+00
        -11   -1    0    0    0    0  0.00000000000E+00  0.00000000000E+00  0.45593999997E+02  0.45594000000E+02  0.51100000000E-03 0. -1.
         11   -1    0    0    0    0 -0.00000000000E+00 -0.00000000000E+00 -0.45593999997E+02  0.45594000000E+02  0.51100000000E-03 0.  1.
    9900012    2    1    2    0    0 -0.14137025277E+02  0.22222684647E+02  0.30975194498E+02  0.50528857476E+02  0.29999992784E+02 0.  0.
        -12    1    1    2    0    0  0.14137025277E+02 -0.22222684647E+02 -0.30975194498E+02  0.40659142524E+02  0.00000000000E+00 0.  1.
         11    1    3    3    0    0  0.34425893441E+01  0.16029467762E+02  0.24104739935E+02  0.29151908097E+02  0.51100000000E-03 0. -1.
        -11    1    3    3    0    0 -0.72592076859E+01  0.62624459262E+01  0.13777192820E+01  0.96856820042E+01  0.51100000000E-03 0.  1.
        -12    1    3    3    0    0 -0.10320406935E+02 -0.69229040449E-01  0.54927352808E+01  0.11691267375E+02  0.00000000000E+00 0.  1.
</event>
<event>
 7    1  0.5935282E-013  0.5052886E+02  0.7816164E-02  0.1300439E+00
        -11   -1    0    0    0    0  0.00000000000E+00  0.00000000000E+00  0.45593999997E+02  0.45594000000E+02  0.51100000000E-03 0.  1.
         11   -1    0    0    0    0 -0.00000000000E+00 -0.00000000000E+00 -0.45593999997E+02  0.45594000000E+02  0.51100000000E-03 0. -1.
    9900012    2    1    2    0    0 -0.24193586885E+02 -0.41738685964E+01 -0.32410103476E+02  0.50528860404E+02  0.30000001683E+02 0.  0.
        -12    1    1    2    0    0  0.24193586885E+02  0.41738685964E+01  0.32410103476E+02  0.40659139596E+02  0.00000000000E+00 0.  1.
         11    1    3    3    0    0 -0.77662198725E+01 -0.63500778191E+01 -0.63525179720E+01  0.11874011296E+02  0.51100000000E-03 0. -1.
        -11    1    3    3    0    0 -0.18466448893E+02 -0.26728268767E+01 -0.88312900470E+01  0.20643290009E+02  0.51100000000E-03 0.  1.
         12    1    3    3    0    0  0.20390818805E+01  0.48490360994E+01 -0.17226295457E+02  0.18011559099E+02  0.00000000000E+00 0. -1.
</event>
<event>
 7    1  0.5935282E-013  0.5052886E+02  0.7816164E-02  0.1300439E+00
        -11   -1    0    0    0    0  0.00000000000E+00  0.00000000000E+00  0.45593999997E+02  0.45594000000E+02  0.51100000000E-03 0. -1.
         11   -1    0    0    0    0 -0.00000000000E+00 -0.00000000000E+00 -0.45593999997E+02  0.45594000000E+02  0.51100000000E-03 0.  1.
    9900012    2    1    2    0    0  0.36219451419E+02  0.11471674263E+02  0.14481629969E+02  0.50528861076E+02  0.30000003727E+02 0.  0.
        -12    1    1    2    0    0 -0.36219451419E+02 -0.11471674263E+02 -0.14481629969E+02  0.40659138924E+02  0.00000000000E+00 0.  1.
         11    1    3    3    0    0  0.26622853712E+01  0.26245089160E+01  0.13833054441E+01  0.39861440842E+01  0.51100000000E-03 0. -1.
        -11    1    3    3    0    0  0.77052503887E+01  0.14574853768E+02 -0.10524860669E+01  0.16519835746E+02  0.51100000000E-03 0.  1.
         12    1    3    3    0    0  0.25851915659E+02 -0.57276884204E+01  0.14150810591E+02  0.30022881245E+02  0.00000000000E+00 0. -1.
</event>
<event>
 7    1  0.5935282E-013  0.5052885E+02  0.7816164E-02  0.1300439E+00
        -11   -1    0    0    0    0  0.00000000000E+00  0.00000000000E+00  0.45593999997E+02  0.45594000000E+02  0.51100000000E-03 0.  1.
         11   -1    0    0    0    0 -0.00000000000E+00 -0.00000000000E+00 -0.45593999997E+02  0.45594000000E+02  0.51100000000E-03 0. -1.
    9900012    2    1    2    0    0 -0.11558413888E+02  0.15520132883E+02 -0.35758840770E+02  0.50528854048E+02  0.29999982364E+02 0.  0.
        -12    1    1    2    0    0  0.11558413888E+02 -0.15520132883E+02  0.35758840770E+02  0.40659145952E+02  0.00000000000E+00 0.  1.
         11    1    3    3    0    0  0.30107628254E+01  0.41106083862E+01 -0.14064235119E+02  0.14958760104E+02  0.51100000000E-03 0. -1.
        -11    1    3    3    0    0  0.38252244519E+01  0.72599652928E+01 -0.11519069255E+02  0.14143139500E+02  0.51100000000E-03 0.  1.
         12    1    3    3    0    0 -0.18394401165E+02  0.41495592040E+01 -0.10175536396E+02  0.21426954444E+02  0.00000000000E+00 0. -1.
</event>
<event>
 7    1  0.5935282E-013  0.5052886E+02  0.7816164E-02  0.1300439E+00
        -11   -1    0    0    0    0  0.00000000000E+00  0.00000000000E+00  0.45593999997E+02  0.45594000000E+02  0.51100000000E-03 0.  1.
         11   -1    0    0    0    0 -0.00000000000E+00 -0.00000000000E+00 -0.45593999997E+02  0.45594000000E+02  0.51100000000E-03 0. -1.
    9900012    2    1    2    0    0  0.13896288307E+02  0.37992789542E+02 -0.40751008648E+01  0.50528864090E+02  0.30000012889E+02 0.  0.
        -12    1    1    2    0    0 -0.13896288307E+02 -0.37992789542E+02  0.40751008648E+01  0.40659135910E+02  0.00000000000E+00 0.  1.
         11    1    3    3    0    0 -0.25360130260E+01  0.47244285331E-01  0.26961509686E+01  0.37017326210E+01  0.51100000000E-03 0.  1.
        -11    1    3    3    0    0  0.17579847361E+02  0.14324728368E+02 -0.37823241425E+01  0.22990320838E+02  0.51100000000E-03 0. -1.
         12    1    3    3    0    0 -0.11475460271E+01  0.23620816888E+02 -0.29889276909E+01  0.23836810631E+02  0.00000000000E+00 0. -1.
</event>
<event>
 7    1  0.5935282E-013  0.5052885E+02  0.7816164E-02  0.1300439E+00
        -11   -1    0    0    0    0  0.00000000000E+00  0.00000000000E+00  0.45593999997E+02  0.45594000000E+02  0.51100000000E-03 0.  1.
         11   -1    0    0    0    0 -0.00000000000E+00 -0.00000000000E+00 -0.45593999997E+02  0.45594000000E+02  0.51100000000E-03 0. -1.
    9900012    2    1    2    0    0  0.16466083376E+02 -0.28551047924E+02 -0.23809083644E+02  0.50528847239E+02  0.29999961668E+02 0.  0.
        -12    1    1    2    0    0 -0.16466083376E+02  0.28551047924E+02  0.23809083644E+02  0.40659152761E+02  0.00000000000E+00 0.  1.
         11    1    3    3    0    0  0.44438605403E+01 -0.99808036420E-02 -0.38012483901E+01  0.58478616351E+01  0.51100000000E-03 0.  1.
        -11    1    3    3    0    0  0.17426106899E+02 -0.17267233180E+02 -0.20786942478E+02  0.32154681171E+02  0.51100000000E-03 0. -1.
        -12    1    3    3    0    0 -0.54038840636E+01 -0.11273833940E+02  0.77910722471E+00  0.12526304433E+02  0.00000000000E+00 0.  1.
</event>
<event>
 7    1  0.5935282E-013  0.5052885E+02  0.7816164E-02  0.1300439E+00
        -11   -1    0    0    0    0  0.00000000000E+00  0.00000000000E+00  0.45593999997E+02  0.45594000000E+02  0.51100000000E-03 0.  1.
         11   -1    0    0    0    0 -0.00000000000E+00 -0.00000000000E+00 -0.45593999997E+02  0.45594000000E+02  0.51100000000E-03 0. -1.
    9900012    2    1    2    0    0 -0.17652634071E+02 -0.30469919094E+02 -0.20325715452E+02  0.50528853822E+02  0.29999981678E+02 0.  0.
        -12    1    1    2    0    0  0.17652634071E+02  0.30469919094E+02  0.20325715452E+02  0.40659146178E+02  0.00000000000E+00 0.  1.
         11    1    3    3    0    0  0.25964213528E+01 -0.93166485095E+01 -0.89637611341E+01  0.13186749305E+02  0.51100000000E-03 0. -1.
        -11    1    3    3    0    0 -0.35751555145E+01 -0.12808760996E+02  0.32072683540E+01  0.13679644212E+02  0.51100000000E-03 0.  1.
         12    1    3    3    0    0 -0.16673899910E+02 -0.83445095889E+01 -0.14569222672E+02  0.23662460306E+02  0.00000000000E+00 0. -1.
</event>
<event>
 7    1  0.5935282E-013  0.5052887E+02  0.7816164E-02  0.1300439E+00
        -11   -1    0    0    0    0  0.00000000000E+00  0.00000000000E+00  0.45593999997E+02  0.45594000000E+02  0.51100000000E-03 0.  1.
         11   -1    0    0    0    0 -0.00000000000E+00 -0.00000000000E+00 -0.45593999997E+02  0.45594000000E+02  0.51100000000E-03 0. -1.
    9900012    2    1    2    0    0  0.25373051531E+02 -0.31634915404E+02 -0.29334310891E+01  0.50528872678E+02  0.30000038992E+02 0.  0.
        -12    1    1    2    0    0 -0.25373051531E+02  0.31634915404E+02  0.29334310891E+01  0.40659127322E+02  0.00000000000E+00 0.  1.
         11    1    3    3    0    0  0.98311724093E-01 -0.72420739060E+01 -0.55503361999E+01  0.91248853060E+01  0.51100000000E-03 0. -1.
        -11    1    3    3    0    0 -0.34192780783E+01 -0.69181732082E+01  0.17389960778E+00  0.77189911549E+01  0.51100000000E-03 0.  1.
         12    1    3    3    0    0  0.28694017885E+02 -0.17474668290E+02  0.24430055030E+01  0.33684996217E+02  0.00000000000E+00 0. -1.
</event>
<event>
 7    1  0.5935282E-013  0.5052883E+02  0.7816164E-02  0.1300439E+00
        -11   -1    0    0    0    0  0.00000000000E+00  0.00000000000E+00  0.45593999997E+02  0.45594000000E+02  0.51100000000E-03 0.  1.
         11   -1    0    0    0    0 -0.00000000000E+00 -0.00000000000E+00 -0.45593999997E+02  0.45594000000E+02  0.51100000000E-03 0. -1.
    9900012    2    1    2    0    0  0.15547881119E+02 -0.21817627407E+02 -0.30584675338E+02  0.50528833278E+02  0.29999919233E+02 0.  0.
        -12    1    1    2    0    0 -0.15547881119E+02  0.21817627407E+02  0.30584675338E+02  0.40659166722E+02  0.00000000000E+00 0.  1.
         11    1    3    3    0    0 -0.18874117583E+01 -0.48637488031E+00 -0.95763065854E+01  0.97726420045E+01  0.51100000000E-03 0. -1.
        -11    1    3    3    0    0  0.11328585024E+02 -0.25243935529E+02 -0.16449817725E+02  0.32189899395E+02  0.51100000000E-03 0.  1.
         12    1    3    3    0    0  0.61067078539E+01  0.39126830017E+01 -0.45585510279E+01  0.85662918791E+01  0.00000000000E+00 0. -1.
</event>
<event>
 7    1  0.5935282E-013  0.5052884E+02  0.7816164E-02  0.1300439E+00
        -11   -1    0    0    0    0  0.00000000000E+00  0.00000000000E+00  0.45593999997E+02  0.45594000000E+02  0.51100000000E-03 0.  1.
         11   -1    0    0    0    0 -0.00000000000E+00 -0.00000000000E+00 -0.45593999997E+02  0.45594000000E+02  0.51100000000E-03 0. -1.
    9900012    2    1    2    0    0  0.15185980739E+02  0.37070603500E+02  0.69515054549E+01  0.50528842569E+02  0.29999947474E+02 0.  0.
        -12    1    1    2    0    0 -0.15185980739E+02 -0.37070603500E+02 -0.69515054549E+01  0.40659157431E+02  0.00000000000E+00 0.  1.
         11    1    3    3    0    0 -0.29142602244E-01 -0.14803238200E+01  0.26509144847E+01  0.30363721395E+01  0.51100000000E-03 0. -1.
        -11    1    3    3    0    0  0.47136454345E+01  0.41421520852E+01  0.92504213587E+01  0.11177932401E+02  0.51100000000E-03 0.  1.
         12    1    3    3    0    0  0.10501477907E+02  0.34408775235E+02 -0.49498303885E+01  0.36314538029E+02  0.00000000000E+00 0. -1.
</event>
<event>
 7    1  0.5935282E-013  0.5052880E+02  0.7816164E-02  0.1300439E+00
        -11   -1    0    0    0    0  0.00000000000E+00  0.00000000000E+00  0.45593999997E+02  0.45594000000E+02  0.51100000000E-03 0. -1.
         11   -1    0    0    0    0 -0.00000000000E+00 -0.00000000000E+00 -0.45593999997E+02  0.45594000000E+02  0.51100000000E-03 0.  1.
    9900012    2    1    2    0    0  0.19073125026E+02  0.79887237032E+01  0.35008090423E+02  0.50528804242E+02  0.29999830973E+02 0.  0.
        -12    1    1    2    0    0 -0.19073125026E+02 -0.79887237032E+01 -0.35008090423E+02  0.40659195758E+02  0.00000000000E+00 0.  1.
         11    1    3    3    0    0  0.14034972467E+02  0.57771740672E+01  0.91458973704E+01  0.17720147610E+02  0.51100000000E-03 0. -1.
        -11    1    3    3    0    0  0.20587220513E+01 -0.77379184977E+01  0.48279800714E+01  0.93500326733E+01  0.51100000000E-03 0.  1.
         12    1    3    3    0    0  0.29794305074E+01  0.99494681337E+01  0.21034212981E+02  0.23458623958E+02  0.00000000000E+00 0. -1.
</event>
<event>
 7    1  0.5935282E-013  0.5052885E+02  0.7816164E-02  0.1300439E+00
        -11   -1    0    0    0    0  0.00000000000E+00  0.00000000000E+00  0.45593999997E+02  0.45594000000E+02  0.51100000000E-03 0. -1.
         11   -1    0    0    0    0 -0.00000000000E+00 -0.00000000000E+00 -0.45593999997E+02  0.45594000000E+02  0.51100000000E-03 0.  1.
    9900012    2    1    2    0    0  0.63006868473E+01 -0.16032584154E+02  0.36829659437E+02  0.50528853137E+02  0.29999979595E+02 0.  0.
        -12    1    1    2    0    0 -0.63006868473E+01  0.16032584154E+02 -0.36829659437E+02  0.40659146863E+02  0.00000000000E+00 0.  1.
         11    1    3    3    0    0 -0.50260316545E+01 -0.12749993876E+02  0.29225430718E+02  0.32279236963E+02  0.51100000000E-03 0. -1.
        -11    1    3    3    0    0  0.66551169751E+01  0.37628752087E+01  0.14212344129E+01  0.77762278328E+01  0.51100000000E-03 0.  1.
        -12    1    3    3    0    0  0.46716015267E+01 -0.70454654872E+01  0.61829943058E+01  0.10473388341E+02  0.00000000000E+00 0.  1.
</event>
<event>
 7    1  0.5935282E-013  0.5052885E+02  0.7816164E-02  0.1300439E+00
        -11   -1    0    0    0    0  0.00000000000E+00  0.00000000000E+00  0.45593999997E+02  0.45594000000E+02  0.51100000000E-03 0.  1.
         11   -1    0    0    0    0 -0.00000000000E+00 -0.00000000000E+00 -0.45593999997E+02  0.45594000000E+02  0.51100000000E-03 0. -1.
    9900012    2    1    2    0    0 -0.93796327402E+00 -0.40303896602E+02 -0.52804376290E+01  0.50528845090E+02  0.29999955136E+02 0.  0.
        -12    1    1    2    0    0  0.93796327402E+00  0.40303896602E+02  0.52804376290E+01  0.40659154910E+02  0.00000000000E+00 0.  1.
         11    1    3    3    0    0  0.69845650231E+01 -0.26792731770E+01 -0.94027076611E+00  0.75396792169E+01  0.51100000000E-03 0.  1.
        -11    1    3    3    0    0  0.50615321739E+01 -0.35013529915E+01  0.42627303102E+00  0.61693022034E+01  0.51100000000E-03 0. -1.
        -12    1    3    3    0    0 -0.12984060471E+02 -0.34123270434E+02 -0.47664398939E+01  0.36819863670E+02  0.00000000000E+00 0.  1.
</event>
<event>
 7    1  0.5935282E-013  0.5052886E+02  0.7816164E-02  0.1300439E+00
        -11   -1    0    0    0    0  0.00000000000E+00  0.00000000000E+00  0.45593999997E+02  0.45594000000E+02  0.51100000000E-03 0.  1.
         11   -1    0    0    0    0 -0.00000000000E+00 -0.00000000000E+00 -0.45593999997E+02  0.45594000000E+02  0.51100000000E-03 0. -1.
    9900012    2    1    2    0    0  0.68652494992E+01  0.34506278267E+02 -0.20380153247E+02  0.50528861581E+02  0.30000005263E+02 0.  0.
        -12    1    1    2    0    0 -0.68652494992E+01 -0.34506278267E+02  0.20380153247E+02  0.40659138419E+02  0.00000000000E+00 0.  1.
         11    1    3    3    0    0 -0.82920554920E+01  0.12259681917E+02 -0.10736514384E+02  0.18284712914E+02  0.51100000000E-03 0. -1.
        -11    1    3    3    0    0  0.39132035075E+01 -0.16906679352E+01 -0.66132792644E+00  0.43138004875E+01  0.51100000000E-03 0.  1.
         12    1    3    3    0    0  0.11244101484E+02  0.23937264286E+02 -0.89823109365E+01  0.27930348180E+02  0.00000000000E+00 0. -1.
</event>
<event>
 7    1  0.5935282E-013  0.5052886E+02  0.7816164E-02  0.1300439E+00
        -11   -1    0    0    0    0  0.00000000000E+00  0.00000000000E+00  0.45593999997E+02  0.45594000000E+02  0.51100000000E-03 0.  1.
         11   -1    0    0    0    0 -0.00000000000E+00 -0.00000000000E+00 -0.45593999997E+02  0.45594000000E+02  0.51100000000E-03 0. -1.
    9900012    2    1    2    0    0  0.51012365410E+01  0.71624338599E+00 -0.40331502325E+02  0.50528859593E+02  0.29999999218E+02 0.  0.
        -12    1    1    2    0    0 -0.51012365410E+01 -0.71624338599E+00  0.40331502325E+02  0.40659140407E+02  0.00000000000E+00 0.  1.
         11    1    3    3    0    0  0.73679225877E+01 -0.11165584863E+01 -0.55149978552E+01  0.92708245434E+01  0.51100000000E-03 0. -1.
        -11    1    3    3    0    0 -0.11502223701E+01 -0.35424707348E+00  0.30671766652E+01  0.32948559068E+01  0.51100000000E-03 0.  1.
        -12    1    3    3    0    0 -0.11164636766E+01  0.21870489457E+01 -0.37883681135E+02  0.37963179142E+02  0.00000000000E+00 0.  1.
</event>
<event>
 7    1  0.5935282E-013  0.5052884E+02  0.7816164E-02  0.1300439E+00
        -11   -1    0    0    0    0  0.00000000000E+00  0.00000000000E+00  0.45593999997E+02  0.45594000000E+02  0.51100000000E-03 0. -1.
         11   -1    0    0    0    0 -0.00000000000E+00 -0.00000000000E+00 -0.45593999997E+02  0.45594000000E+02  0.51100000000E-03 0.  1.
    9900012    2    1    2    0    0 -0.27281235199E+02 -0.60792808854E+01  0.29528700595E+02  0.50528836102E+02  0.29999927816E+02 0.  0.
        -12    1    1    2    0    0  0.27281235199E+02  0.60792808854E+01 -0.29528700595E+02  0.40659163898E+02  0.00000000000E+00 0.  1.
         11    1    3    3    0    0 -0.80679139073E+01 -0.36123219696E+01  0.52740754077E+01  0.10293491949E+02  0.51100000000E-03 0. -1.
        -11    1    3    3    0    0 -0.19630717129E+02 -0.90012198309E+01  0.85616230136E+01  0.23231194595E+02  0.51100000000E-03 0.  1.
        -12    1    3    3    0    0  0.41739583713E+00  0.65342609151E+01  0.15693002173E+02  0.17004149558E+02  0.00000000000E+00 0.  1.
</event>
<event>
 7    1  0.5935282E-013  0.5052886E+02  0.7816164E-02  0.1300439E+00
        -11   -1    0    0    0    0  0.00000000000E+00  0.00000000000E+00  0.45593999997E+02  0.45594000000E+02  0.51100000000E-03 0.  1.
         11   -1    0    0    0    0 -0.00000000000E+00 -0.00000000000E+00 -0.45593999997E+02  0.45594000000E+02  0.51100000000E-03 0. -1.
    9900012    2    1    2    0    0 -0.14494446063E+02 -0.35646917395E+02  0.13129131160E+02  0.50528858698E+02  0.29999996498E+02 0.  0.
        -12    1    1    2    0    0  0.14494446063E+02  0.35646917395E+02 -0.13129131160E+02  0.40659141302E+02  0.00000000000E+00 0.  1.
         11    1    3    3    0    0 -0.17042310542E+02 -0.14479730777E+02 -0.41067285924E+00  0.22366752210E+02  0.51100000000E-03 0. -1.
        -11    1    3    3    0    0 -0.50028025084E+01 -0.65555035183E+01  0.45135932098E+01  0.94008075845E+01  0.51100000000E-03 0.  1.
        -12    1    3    3    0    0  0.75506669874E+01 -0.14611683100E+02  0.90262108091E+01  0.18761298903E+02  0.00000000000E+00 0.  1.
</event>
<event>
 7    1  0.5935282E-013  0.5052886E+02  0.7816164E-02  0.1300439E+00
        -11   -1    0    0    0    0  0.00000000000E+00  0.00000000000E+00  0.45593999997E+02  0.45594000000E+02  0.51100000000E-03 0.  1.
         11   -1    0    0    0    0 -0.00000000000E+00 -0.00000000000E+00 -0.45593999997E+02  0.45594000000E+02  0.51100000000E-03 0. -1.
    9900012    2    1    2    0    0 -0.13852188440E+02  0.21539440592E+02 -0.31580609132E+02  0.50528862051E+02  0.30000006692E+02 0.  0.
        -12    1    1    2    0    0  0.13852188440E+02 -0.21539440592E+02  0.31580609132E+02  0.40659137949E+02  0.00000000000E+00 0.  1.
         11    1    3    3    0    0  0.47647440884E+01  0.22486207518E+01 -0.47954757125E+01  0.71243013050E+01  0.51100000000E-03 0. -1.
        -11    1    3    3    0    0  0.40146920262E+01  0.12007900608E+01 -0.75274364651E+01  0.86152161222E+01  0.51100000000E-03 0.  1.
        -12    1    3    3    0    0 -0.22631624555E+02  0.18090029779E+02 -0.19257696954E+02  0.34789344624E+02  0.00000000000E+00 0.  1.
</event>
<event>
 7    1  0.5935282E-013  0.5052886E+02  0.7816164E-02  0.1300439E+00
        -11   -1    0    0    0    0  0.00000000000E+00  0.00000000000E+00  0.45593999997E+02  0.45594000000E+02  0.51100000000E-03 0. -1.
         11   -1    0    0    0    0 -0.00000000000E+00 -0.00000000000E+00 -0.45593999997E+02  0.45594000000E+02  0.51100000000E-03 0.  1.
    9900012    2    1    2    0    0 -0.25458088031E+02 -0.28757520271E+02 -0.13343793398E+02  0.50528855388E+02  0.29999986438E+02 0.  0.
        -12    1    1    2    0    0  0.25458088031E+02  0.28757520271E+02  0.13343793398E+02  0.40659144612E+02  0.00000000000E+00 0.  1.
         11    1    3    3    0    0 -0.10231859333E+02 -0.14103907386E+02 -0.13824862808E+02  0.22242706240E+02  0.51100000000E-03 0. -1.
        -11    1    3    3    0    0  0.25553665516E+01 -0.82985157279E+01  0.31051648569E+01  0.92215676839E+01  0.51100000000E-03 0.  1.
         12    1    3    3    0    0 -0.17781595249E+02 -0.63550971577E+01 -0.26240954467E+01  0.19064581464E+02  0.00000000000E+00 0. -1.
</event>
<event>
 7    1  0.5935282E-013  0.5052886E+02  0.7816164E-02  0.1300439E+00
        -11   -1    0    0    0    0  0.00000000000E+00  0.00000000000E+00  0.45593999997E+02  0.45594000000E+02  0.51100000000E-03 0. -1.
         11   -1    0    0    0    0 -0.00000000000E+00 -0.00000000000E+00 -0.45593999997E+02  0.45594000000E+02  0.51100000000E-03 0.  1.
    9900012    2    1    2    0    0  0.14944996055E+02  0.37812679747E+02 -0.11672535521E+00  0.50528864723E+02  0.30000014811E+02 0.  0.
        -12    1    1    2    0    0 -0.14944996055E+02 -0.37812679747E+02  0.11672535521E+00  0.40659135277E+02  0.00000000000E+00 0.  1.
         11    1    3    3    0    0  0.79106560448E+01  0.85254583659E+01  0.10916133347E+02  0.15950670423E+02  0.51100000000E-03 0. -1.
        -11    1    3    3    0    0 -0.11489283092E+01 -0.67533588501E+00  0.53213913549E+00  0.14350216506E+01  0.51100000000E-03 0.  1.
        -12    1    3    3    0    0  0.81832683191E+01  0.29962557266E+02 -0.11564997838E+02  0.33143172650E+02  0.00000000000E+00 0.  1.
</event>
<event>
 7    1  0.5935282E-013  0.5052887E+02  0.7816164E-02  0.1300439E+00
        -11   -1    0    0    0    0  0.00000000000E+00  0.00000000000E+00  0.45593999997E+02  0.45594000000E+02  0.51100000000E-03 0. -1.
         11   -1    0    0    0    0 -0.00000000000E+00 -0.00000000000E+00 -0.45593999997E+02  0.45594000000E+02  0.51100000000E-03 0.  1.
    9900012    2    1    2    0    0  0.17519960152E+02  0.36413052434E+02  0.45062003288E+01  0.50528865323E+02  0.30000016635E+02 0.  0.
        -12    1    1    2    0    0 -0.17519960152E+02 -0.36413052434E+02 -0.45062003288E+01  0.40659134677E+02  0.00000000000E+00 0.  1.
         11    1    3    3    0    0  0.81343659971E+01  0.10028818260E+02  0.13516142061E+02  0.18693078996E+02  0.51100000000E-03 0. -1.
        -11    1    3    3    0    0  0.38659824203E+00 -0.10671846704E+01 -0.16870105387E+01  0.20333091600E+01  0.51100000000E-03 0.  1.
         12    1    3    3    0    0  0.89989959131E+01  0.27451418845E+02 -0.73229311937E+01  0.29802477167E+02  0.00000000000E+00 0. -1.
</event>
<event>
 7    1  0.5935282E-013  0.5052886E+02  0.7816164E-02  0.1300439E+00
        -11   -1    0    0    0    0  0.00000000000E+00  0.00000000000E+00  0.45593999997E+02  0.45594000000E+02  0.51100000000E-03 0. -1.
         11   -1    0    0    0    0 -0.00000000000E+00 -0.00000000000E+00 -0.45593999997E+02  0.45594000000E+02  0.51100000000E-03 0.  1.
    9900012    2    1    2    0    0  0.29850441182E+02 -0.24544533234E+02  0.12636547026E+02  0.50528864850E+02  0.30000015197E+02 0.  0.
        -12    1    1    2    0    0 -0.29850441182E+02  0.24544533234E+02 -0.12636547026E+02  0.40659135150E+02  0.00000000000E+00 0.  1.
         11    1    3    3    0    0  0.24186450518E+00  0.47358662991E+01  0.29007530220E+01  0.55588934508E+01  0.51100000000E-03 0.  1.
        -11    1    3    3    0    0  0.14461931204E+02 -0.16581202965E+02  0.12022273659E+02  0.25072271739E+02  0.51100000000E-03 0. -1.
        -12    1    3    3    0    0  0.15146645473E+02 -0.12699196568E+02 -0.22864796556E+01  0.19897699660E+02  0.00000000000E+00 0.  1.
</event>
<event>
 7    1  0.5935282E-013  0.5052886E+02  0.7816164E-02  0.1300439E+00
        -11   -1    0    0    0    0  0.00000000000E+00  0.00000000000E+00  0.45593999997E+02  0.45594000000E+02  0.51100000000E-03 0. -1.
         11   -1    0    0    0    0 -0.00000000000E+00 -0.00000000000E+00 -0.45593999997E+02  0.45594000000E+02  0.51100000000E-03 0.  1.
    9900012    2    1    2    0    0 -0.14628806173E+02  0.13911392018E+02  0.35293579405E+02  0.50528861481E+02  0.30000004956E+02 0.  0.
        -12    1    1    2    0    0  0.14628806173E+02 -0.13911392018E+02 -0.35293579405E+02  0.40659138519E+02  0.00000000000E+00 0.  1.
         11    1    3    3    0    0  0.76332590058E+01  0.46671608786E+01  0.79576190290E+01  0.11973835417E+02  0.51100000000E-03 0.  1.
        -11    1    3    3    0    0 -0.60944479338E+01 -0.25062493492E+01  0.35441836126E+01  0.74823003922E+01  0.51100000000E-03 0. -1.
        -12    1    3    3    0    0 -0.16167617245E+02  0.11750480489E+02  0.23791776763E+02  0.31072725671E+02  0.00000000000E+00 0.  1.
</event>
<event>
 7    1  0.5935282E-013  0.5052886E+02  0.7816164E-02  0.1300439E+00
        -11   -1    0    0    0    0  0.00000000000E+00  0.00000000000E+00  0.45593999997E+02  0.45594000000E+02  0.51100000000E-03 0.  1.
         11   -1    0    0    0    0 -0.00000000000E+00 -0.00000000000E+00 -0.45593999997E+02  0.45594000000E+02  0.51100000000E-03 0. -1.
    9900012    2    1    2    0    0 -0.20734111317E+02  0.31369549676E+02 -0.15466524210E+02  0.50528863387E+02  0.30000010751E+02 0.  0.
        -12    1    1    2    0    0  0.20734111317E+02 -0.31369549676E+02  0.15466524210E+02  0.40659136613E+02  0.00000000000E+00 0.  1.
         11    1    3    3    0    0 -0.53378925676E+01  0.24925503261E+02 -0.10221517735E+02  0.27463671185E+02  0.51100000000E-03 0. -1.
        -11    1    3    3    0    0  0.30084890684E+01  0.69543082457E+00 -0.14600954930E+01  0.34156272654E+01  0.51100000000E-03 0.  1.
        -12    1    3    3    0    0 -0.18404707818E+02  0.57486155905E+01 -0.37849109818E+01  0.19649564937E+02  0.00000000000E+00 0.  1.
</event>
<event>
 7    1  0.5935282E-013  0.5052887E+02  0.7816164E-02  0.1300439E+00
        -11   -1    0    0    0    0  0.00000000000E+00  0.00000000000E+00  0.45593999997E+02  0.45594000000E+02  0.51100000000E-03 0.  1.
         11   -1    0    0    0    0 -0.00000000000E+00 -0.00000000000E+00 -0.45593999997E+02  0.45594000000E+02  0.51100000000E-03 0. -1.
    9900012    2    1    2    0    0 -0.34276109457E+00  0.13174838220E+02 -0.38463892718E+02  0.50528869533E+02  0.30000029433E+02 0.  0.
        -12    1    1    2    0    0  0.34276109457E+00 -0.13174838220E+02  0.38463892718E+02  0.40659130467E+02  0.00000000000E+00 0.  1.
         11    1    3    3    0    0  0.10183210028E+02  0.18434012960E+01 -0.98836500350E+01  0.14310221280E+02  0.51100000000E-03 0. -1.
        -11    1    3    3    0    0 -0.43311640963E+01 -0.36651306770E+01 -0.48088864066E+01  0.74375771621E+01  0.51100000000E-03 0.  1.
         12    1    3    3    0    0 -0.61948070266E+01  0.14996567601E+02 -0.23771356276E+02  0.28781071091E+02  0.00000000000E+00 0. -1.
</event>
<event>
 7    1  0.5935282E-013  0.5052884E+02  0.7816164E-02  0.1300439E+00
        -11   -1    0    0    0    0  0.00000000000E+00  0.00000000000E+00  0.45593999997E+02  0.45594000000E+02  0.51100000000E-03 0.  1.
         11   -1    0    0    0    0 -0.00000000000E+00 -0.00000000000E+00 -0.45593999997E+02  0.45594000000E+02  0.51100000000E-03 0. -1.
    9900012    2    1    2    0    0  0.39292629236E+02 -0.10027362517E+02 -0.29509804992E+01  0.50528843624E+02  0.29999950679E+02 0.  0.
        -12    1    1    2    0    0 -0.39292629236E+02  0.10027362517E+02  0.29509804992E+01  0.40659156376E+02  0.00000000000E+00 0.  1.
         11    1    3    3    0    0  0.22224139271E+02 -0.29623421478E+01  0.56858845163E+01  0.23130437097E+02  0.51100000000E-03 0. -1.
        -11    1    3    3    0    0  0.86824843861E+01  0.26293796307E+01  0.35212525493E+01  0.97313098879E+01  0.51100000000E-03 0.  1.
        -12    1    3    3    0    0  0.83860055790E+01 -0.96943999997E+01 -0.12158117565E+02  0.17667096639E+02  0.00000000000E+00 0.  1.
</event>
<event>
 7    1  0.5935282E-013  0.5052886E+02  0.7816164E-02  0.1300439E+00
        -11   -1    0    0    0    0  0.00000000000E+00  0.00000000000E+00  0.45593999997E+02  0.45594000000E+02  0.51100000000E-03 0. -1.
         11   -1    0    0    0    0 -0.00000000000E+00 -0.00000000000E+00 -0.45593999997E+02  0.45594000000E+02  0.51100000000E-03 0.  1.
    9900012    2    1    2    0    0  0.37653466581E+02  0.15241104869E+02 -0.17580325857E+01  0.50528862014E+02  0.30000006576E+02 0.  0.
        -12    1    1    2    0    0 -0.37653466581E+02 -0.15241104869E+02  0.17580325857E+01  0.40659137986E+02  0.00000000000E+00 0.  1.
         11    1    3    3    0    0  0.52796386720E+01  0.92073599337E+00  0.83682095355E+01  0.99372667453E+01  0.51100000000E-03 0. -1.
        -11    1    3    3    0    0  0.15136738225E+01  0.64082438540E+01  0.13643195664E+01  0.67244453952E+01  0.51100000000E-03 0.  1.
        -12    1    3    3    0    0  0.30860154087E+02  0.79121250220E+01 -0.11490561687E+02  0.33867149873E+02  0.00000000000E+00 0.  1.
</event>
<event>
 7    1  0.5935282E-013  0.5052886E+02  0.7816164E-02  0.1300439E+00
        -11   -1    0    0    0    0  0.00000000000E+00  0.00000000000E+00  0.45593999997E+02  0.45594000000E+02  0.51100000000E-03 0.  1.
         11   -1    0    0    0    0 -0.00000000000E+00 -0.00000000000E+00 -0.45593999997E+02  0.45594000000E+02  0.51100000000E-03 0. -1.
    9900012    2    1    2    0    0  0.26216383784E+02  0.30508637123E+01 -0.30928296265E+02  0.50528855174E+02  0.29999985788E+02 0.  0.
        -12    1    1    2    0    0 -0.26216383784E+02 -0.30508637123E+01  0.30928296265E+02  0.40659144826E+02  0.00000000000E+00 0.  1.
         11    1    3    3    0    0  0.15047244694E+02  0.12063918670E+02 -0.15433686952E+02  0.24701344088E+02  0.51100000000E-03 0. -1.
        -11    1    3    3    0    0  0.44173702705E+01  0.39454530643E+01 -0.32043606351E+01  0.67340691510E+01  0.51100000000E-03 0.  1.
         12    1    3    3    0    0  0.67517688186E+01 -0.12958508022E+02 -0.12290248679E+02  0.19093441935E+02  0.00000000000E+00 0. -1.
</event>
<event>
 7    1  0.5935282E-013  0.5052886E+02  0.7816164E-02  0.1300439E+00
        -11   -1    0    0    0    0  0.00000000000E+00  0.00000000000E+00  0.45593999997E+02  0.45594000000E+02  0.51100000000E-03 0. -1.
         11   -1    0    0    0    0 -0.00000000000E+00 -0.00000000000E+00 -0.45593999997E+02  0.45594000000E+02  0.51100000000E-03 0.  1.
    9900012    2    1    2    0    0 -0.99578774028E+00 -0.23599137649E+01  0.40578376872E+02  0.50528862579E+02  0.30000008296E+02 0.  0.
        -12    1    1    2    0    0  0.99578774028E+00  0.23599137649E+01 -0.40578376872E+02  0.40659137421E+02  0.00000000000E+00 0.  1.
         11    1    3    3    0    0 -0.51862881984E+01 -0.43577630841E+01  0.12902591132E+01  0.68958286822E+01  0.51100000000E-03 0. -1.
        -11    1    3    3    0    0  0.77571438418E+00 -0.78784621532E+01  0.11649466736E+02  0.14084813602E+02  0.51100000000E-03 0.  1.
         12    1    3    3    0    0  0.34147860739E+01  0.98763114723E+01  0.27638651023E+02  0.29548220295E+02  0.00000000000E+00 0. -1.
</event>
<event>
 7    1  0.5935282E-013  0.5052887E+02  0.7816164E-02  0.1300439E+00
        -11   -1    0    0    0    0  0.00000000000E+00  0.00000000000E+00  0.45593999997E+02  0.45594000000E+02  0.51100000000E-03 0.  1.
         11   -1    0    0    0    0 -0.00000000000E+00 -0.00000000000E+00 -0.45593999997E+02  0.45594000000E+02  0.51100000000E-03 0. -1.
    9900012    2    1    2    0    0  0.22367182774E+02 -0.22641835256E+02 -0.25302588719E+02  0.50528873535E+02  0.30000041597E+02 0.  0.
        -12    1    1    2    0    0 -0.22367182774E+02  0.22641835256E+02  0.25302588719E+02  0.40659126465E+02  0.00000000000E+00 0.  1.
         11    1    3    3    0    0  0.11994645037E+02 -0.30024297609E+01 -0.11841538159E+02  0.17120400704E+02  0.51100000000E-03 0. -1.
        -11    1    3    3    0    0  0.12135001561E+02 -0.81629264482E+01  0.12373071487E+01  0.14677280413E+02  0.51100000000E-03 0.  1.
         12    1    3    3    0    0 -0.17624638248E+01 -0.11476479047E+02 -0.14698357710E+02  0.18731192418E+02  0.00000000000E+00 0. -1.
</event>
<event>
 7    1  0.5935282E-013  0.5052882E+02  0.7816164E-02  0.1300439E+00
        -11   -1    0    0    0    0  0.00000000000E+00  0.00000000000E+00  0.45593999997E+02  0.45594000000E+02  0.51100000000E-03 0.  1.
         11   -1    0    0    0    0 -0.00000000000E+00 -0.00000000000E+00 -0.45593999997E+02  0.45594000000E+02  0.51100000000E-03 0. -1.
    9900012    2    1    2    0    0 -0.28653523250E+02  0.28843034275E+02  0.47358587594E+00  0.50528815251E+02  0.29999864438E+02 0.  0.
        -12    1    1    2    0    0  0.28653523250E+02 -0.28843034275E+02 -0.47358587594E+00  0.40659184749E+02  0.00000000000E+00 0.  1.
         11    1    3    3    0    0 -0.27605749068E-01 -0.72056452794E+00 -0.42217664003E+01  0.42829063865E+01  0.51100000000E-03 0. -1.
        -11    1    3    3    0    0 -0.17925118575E+02  0.43632058659E+01  0.38994839859E+01  0.18856124124E+02  0.51100000000E-03 0.  1.
         12    1    3    3    0    0 -0.10700798927E+02  0.25200392937E+02  0.79586829028E+00  0.27389784741E+02  0.00000000000E+00 0. -1.
</event>
<event>
 7    1  0.5935282E-013  0.5052887E+02  0.7816164E-02  0.1300439E+00
        -11   -1    0    0    0    0  0.00000000000E+00  0.00000000000E+00  0.45593999997E+02  0.45594000000E+02  0.51100000000E-03 0.  1.
         11   -1    0    0    0    0 -0.00000000000E+00 -0.00000000000E+00 -0.45593999997E+02  0.45594000000E+02  0.51100000000E-03 0. -1.
    9900012    2    1    2    0    0 -0.28520784685E+02  0.19392634101E+02 -0.21532667186E+02  0.50528866063E+02  0.30000018884E+02 0.  0.
        -12    1    1    2    0    0  0.28520784685E+02 -0.19392634101E+02  0.21532667186E+02  0.40659133937E+02  0.00000000000E+00 0.  1.
         11    1    3    3    0    0 -0.11712412598E+02  0.41670111928E+01 -0.75201714876E+01  0.14529197177E+02  0.51100000000E-03 0. -1.
        -11    1    3    3    0    0 -0.20130293674E+02  0.11738336848E+02 -0.23975366838E+01  0.23425743484E+02  0.51100000000E-03 0.  1.
         12    1    3    3    0    0  0.33219215872E+01  0.34872860599E+01 -0.11614959014E+02  0.12573925401E+02  0.00000000000E+00 0. -1.
</event>
<event>
 7    1  0.5935282E-013  0.5052886E+02  0.7816164E-02  0.1300439E+00
        -11   -1    0    0    0    0  0.00000000000E+00  0.00000000000E+00  0.45593999997E+02  0.45594000000E+02  0.51100000000E-03 0. -1.
         11   -1    0    0    0    0 -0.00000000000E+00 -0.00000000000E+00 -0.45593999997E+02  0.45594000000E+02  0.51100000000E-03 0.  1.
    9900012    2    1    2    0    0  0.61745645133E+01  0.36286221266E+02  0.17272816299E+02  0.50528864697E+02  0.30000014732E+02 0.  0.
        -12    1    1    2    0    0 -0.61745645133E+01 -0.36286221266E+02 -0.17272816299E+02  0.40659135303E+02  0.00000000000E+00 0.  1.
         11    1    3    3    0    0  0.39499064405E+01  0.18180629443E+01  0.60308212570E+01  0.74349121752E+01  0.51100000000E-03 0. -1.
        -11    1    3    3    0    0  0.79823792159E+01  0.33401382423E+02  0.13385275648E+02  0.36858327827E+02  0.51100000000E-03 0.  1.
         12    1    3    3    0    0 -0.57577211431E+01  0.10667758987E+01 -0.21432806059E+01  0.62356246949E+01  0.00000000000E+00 0. -1.
</event>
<event>
 7    1  0.5935282E-013  0.5052886E+02  0.7816164E-02  0.1300439E+00
        -11   -1    0    0    0    0  0.00000000000E+00  0.00000000000E+00  0.45593999997E+02  0.45594000000E+02  0.51100000000E-03 0.  1.
         11   -1    0    0    0    0 -0.00000000000E+00 -0.00000000000E+00 -0.45593999997E+02  0.45594000000E+02  0.51100000000E-03 0. -1.
    9900012    2    1    2    0    0 -0.25549143192E+02  0.31617447432E+02  0.86234416767E+00  0.50528864035E+02  0.30000012721E+02 0.  0.
        -12    1    1    2    0    0  0.25549143192E+02 -0.31617447432E+02 -0.86234416767E+00  0.40659135965E+02  0.00000000000E+00 0.  1.
         11    1    3    3    0    0 -0.59189410346E+01 -0.26757233707E+01 -0.95664713875E+00  0.65657088373E+01  0.51100000000E-03 0.  1.
        -11    1    3    3    0    0  0.14051954124E+01  0.31802746616E+01 -0.46986601498E+01  0.58451799403E+01  0.51100000000E-03 0. -1.
         12    1    3    3    0    0 -0.21035397570E+02  0.31112896141E+02  0.65176514562E+01  0.38117975257E+02  0.00000000000E+00 0. -1.
</event>
<event>
 7    1  0.5935282E-013  0.5052886E+02  0.7816164E-02  0.1300439E+00
        -11   -1    0    0    0    0  0.00000000000E+00  0.00000000000E+00  0.45593999997E+02  0.45594000000E+02  0.51100000000E-03 0. -1.
         11   -1    0    0    0    0 -0.00000000000E+00 -0.00000000000E+00 -0.45593999997E+02  0.45594000000E+02  0.51100000000E-03 0.  1.
    9900012    2    1    2    0    0  0.32545573085E+02 -0.24320787067E+02 -0.15654135597E+01  0.50528861659E+02  0.30000005500E+02 0.  0.
        -12    1    1    2    0    0 -0.32545573085E+02  0.24320787067E+02  0.15654135597E+01  0.40659138341E+02  0.00000000000E+00 0.  1.
         11    1    3    3    0    0  0.10672159213E+02  0.13423496604E+01  0.33561817992E+01  0.11267690154E+02  0.51100000000E-03 0. -1.
        -11    1    3    3    0    0  0.11764173265E+02 -0.20641709517E+02 -0.11285837887E+02  0.26302967161E+02  0.51100000000E-03 0.  1.
         12    1    3    3    0    0  0.10109240606E+02 -0.50214272101E+01  0.63642425278E+01  0.12958204344E+02  0.00000000000E+00 0. -1.
</event>
<event>
 7    1  0.5935282E-013  0.5052886E+02  0.7816164E-02  0.1300439E+00
        -11   -1    0    0    0    0  0.00000000000E+00  0.00000000000E+00  0.45593999997E+02  0.45594000000E+02  0.51100000000E-03 0.  1.
         11   -1    0    0    0    0 -0.00000000000E+00 -0.00000000000E+00 -0.45593999997E+02  0.45594000000E+02  0.51100000000E-03 0. -1.
    9900012    2    1    2    0    0 -0.24578521194E+02 -0.27348587766E+01 -0.32273559219E+02  0.50528858577E+02  0.29999996129E+02 0.  0.
        -12    1    1    2    0    0  0.24578521194E+02  0.27348587766E+01  0.32273559219E+02  0.40659141423E+02  0.00000000000E+00 0.  1.
         11    1    3    3    0    0 -0.14191006657E+02 -0.50492277573E+01 -0.11355623024E+02  0.18863444685E+02  0.51100000000E-03 0. -1.
        -11    1    3    3    0    0  0.34262544189E+01 -0.56081256099E+01 -0.11270506674E+02  0.13046632253E+02  0.51100000000E-03 0.  1.
         12    1    3    3    0    0 -0.13813768956E+02  0.79224945905E+01 -0.96474295212E+01  0.18618781638E+02  0.00000000000E+00 0. -1.
</event>
<event>
 7    1  0.5935282E-013  0.5052886E+02  0.7816164E-02  0.1300439E+00
        -11   -1    0    0    0    0  0.00000000000E+00  0.00000000000E+00  0.45593999997E+02  0.45594000000E+02  0.51100000000E-03 0. -1.
         11   -1    0    0    0    0 -0.00000000000E+00 -0.00000000000E+00 -0.45593999997E+02  0.45594000000E+02  0.51100000000E-03 0.  1.
    9900012    2    1    2    0    0 -0.87162620371E+01  0.26464026535E+02  0.29611616274E+02  0.50528859051E+02  0.29999997571E+02 0.  0.
        -12    1    1    2    0    0  0.87162620371E+01 -0.26464026535E+02 -0.29611616274E+02  0.40659140949E+02  0.00000000000E+00 0.  1.
         11    1    3    3    0    0  0.21173676958E+01  0.12331414766E+02  0.16901839707E+02  0.21029009055E+02  0.51100000000E-03 0.  1.
        -11    1    3    3    0    0 -0.35003610258E+01  0.16965912054E+02  0.40237466640E+01  0.17784409931E+02  0.51100000000E-03 0. -1.
        -12    1    3    3    0    0 -0.73332687071E+01 -0.28333002844E+01  0.86860299032E+01  0.11715440065E+02  0.00000000000E+00 0.  1.
</event>
<event>
 7    1  0.5935282E-013  0.5052886E+02  0.7816164E-02  0.1300439E+00
        -11   -1    0    0    0    0  0.00000000000E+00  0.00000000000E+00  0.45593999997E+02  0.45594000000E+02  0.51100000000E-03 0. -1.
         11   -1    0    0    0    0 -0.00000000000E+00 -0.00000000000E+00 -0.45593999997E+02  0.45594000000E+02  0.51100000000E-03 0.  1.
    9900012    2    1    2    0    0  0.38188741532E+01  0.19306066884E+02  0.35578888627E+02  0.50528864074E+02  0.30000012838E+02 0.  0.
        -12    1    1    2    0    0 -0.38188741532E+01 -0.19306066884E+02 -0.35578888627E+02  0.40659135926E+02  0.00000000000E+00 0.  1.
         11    1    3    3    0    0  0.11918136003E+02  0.48578948455E+01  0.16986666059E+02  0.21311685344E+02  0.51100000000E-03 0.  1.
        -11    1    3    3    0    0  0.41161936846E+01  0.73112634680E+01  0.70040969021E+01  0.10929547000E+02  0.51100000000E-03 0. -1.
        -12    1    3    3    0    0 -0.12215455534E+02  0.71369085701E+01  0.11588125666E+02  0.18287631730E+02  0.00000000000E+00 0.  1.
</event>
<event>
 7    1  0.5935282E-013  0.5052889E+02  0.7816164E-02  0.1300439E+00
        -11   -1    0    0    0    0  0.00000000000E+00  0.00000000000E+00  0.45593999997E+02  0.45594000000E+02  0.51100000000E-03 0. -1.
         11   -1    0    0    0    0 -0.00000000000E+00 -0.00000000000E+00 -0.45593999997E+02  0.45594000000E+02  0.51100000000E-03 0.  1.
    9900012    2    1    2    0    0 -0.31128770701E+02 -0.83568768652E+01  0.24785592378E+02  0.50528888527E+02  0.30000087166E+02 0.  0.
        -12    1    1    2    0    0  0.31128770701E+02  0.83568768652E+01 -0.24785592378E+02  0.40659111473E+02  0.00000000000E+00 0.  1.
         11    1    3    3    0    0 -0.42632392318E+01 -0.94752327405E+01  0.92342390968E+01  0.13900590498E+02  0.51100000000E-03 0. -1.
        -11    1    3    3    0    0  0.59357017285E+00  0.24692835889E+01 -0.26393182833E+01  0.36627432689E+01  0.51100000000E-03 0.  1.
         12    1    3    3    0    0 -0.27459101642E+02 -0.13509277135E+01  0.18190671564E+02  0.32965554760E+02  0.00000000000E+00 0. -1.
</event>
<event>
 7    1  0.5935282E-013  0.5052886E+02  0.7816164E-02  0.1300439E+00
        -11   -1    0    0    0    0  0.00000000000E+00  0.00000000000E+00  0.45593999997E+02  0.45594000000E+02  0.51100000000E-03 0. -1.
         11   -1    0    0    0    0 -0.00000000000E+00 -0.00000000000E+00 -0.45593999997E+02  0.45594000000E+02  0.51100000000E-03 0.  1.
    9900012    2    1    2    0    0 -0.15586005000E+02 -0.31885519373E+02  0.19838243164E+02  0.50528858477E+02  0.29999995826E+02 0.  0.
        -12    1    1    2    0    0  0.15586005000E+02  0.31885519373E+02 -0.19838243164E+02  0.40659141523E+02  0.00000000000E+00 0.  1.
         11    1    3    3    0    0 -0.12945887801E+02 -0.13834591953E+02  0.61956129135E+01  0.19934331318E+02  0.51100000000E-03 0. -1.
        -11    1    3    3    0    0 -0.35129314725E+01 -0.14229530738E+02  0.18974986125E+02  0.23976453684E+02  0.51100000000E-03 0.  1.
        -12    1    3    3    0    0  0.87281427281E+00 -0.38213966829E+01 -0.53323558741E+01  0.66180734757E+01  0.00000000000E+00 0.  1.
</event>
<event>
 7    1  0.5935282E-013  0.5052886E+02  0.7816164E-02  0.1300439E+00
        -11   -1    0    0    0    0  0.00000000000E+00  0.00000000000E+00  0.45593999997E+02  0.45594000000E+02  0.51100000000E-03 0.  1.
         11   -1    0    0    0    0 -0.00000000000E+00 -0.00000000000E+00 -0.45593999997E+02  0.45594000000E+02  0.51100000000E-03 0. -1.
    9900012    2    1    2    0    0  0.17338982874E+02  0.29259366993E+02 -0.22280372068E+02  0.50528857566E+02  0.29999993058E+02 0.  0.
        -12    1    1    2    0    0 -0.17338982874E+02 -0.29259366993E+02  0.22280372068E+02  0.40659142434E+02  0.00000000000E+00 0.  1.
         11    1    3    3    0    0 -0.32366264343E+01  0.30735426981E+01  0.43939407329E+00  0.44850287407E+01  0.51100000000E-03 0. -1.
        -11    1    3    3    0    0 -0.48176349979E+01  0.51433507394E+01 -0.45895237429E+01  0.84099579220E+01  0.51100000000E-03 0.  1.
         12    1    3    3    0    0  0.25393244307E+02  0.21042473556E+02 -0.18130242398E+02  0.37633870903E+02  0.00000000000E+00 0. -1.
</event>
<event>
 7    1  0.5935282E-013  0.5052885E+02  0.7816164E-02  0.1300439E+00
        -11   -1    0    0    0    0  0.00000000000E+00  0.00000000000E+00  0.45593999997E+02  0.45594000000E+02  0.51100000000E-03 0.  1.
         11   -1    0    0    0    0 -0.00000000000E+00 -0.00000000000E+00 -0.45593999997E+02  0.45594000000E+02  0.51100000000E-03 0. -1.
    9900012    2    1    2    0    0  0.24403908660E+01 -0.69632449468E+01 -0.39984052158E+02  0.50528847097E+02  0.29999961237E+02 0.  0.
        -12    1    1    2    0    0 -0.24403908660E+01  0.69632449468E+01  0.39984052158E+02  0.40659152903E+02  0.00000000000E+00 0.  1.
         11    1    3    3    0    0  0.26747700653E+01 -0.39323832007E+01 -0.32691614854E+02  0.33035733903E+02  0.51100000000E-03 0. -1.
        -11    1    3    3    0    0  0.23327380653E+01 -0.69895699701E+01 -0.97118068533E+01  0.12190773063E+02  0.51100000000E-03 0.  1.
        -12    1    3    3    0    0 -0.25671172646E+01  0.39587082241E+01  0.24193695486E+01  0.53023401312E+01  0.00000000000E+00 0.  1.
</event>
<event>
 7    1  0.5935282E-013  0.5052886E+02  0.7816164E-02  0.1300439E+00
        -11   -1    0    0    0    0  0.00000000000E+00  0.00000000000E+00  0.45593999997E+02  0.45594000000E+02  0.51100000000E-03 0. -1.
         11   -1    0    0    0    0 -0.00000000000E+00 -0.00000000000E+00 -0.45593999997E+02  0.45594000000E+02  0.51100000000E-03 0.  1.
    9900012    2    1    2    0    0  0.15332004482E+02 -0.37653986582E+02 -0.52185560162E+00  0.50528863262E+02  0.30000010373E+02 0.  0.
        -12    1    1    2    0    0 -0.15332004482E+02  0.37653986582E+02  0.52185560162E+00  0.40659136738E+02  0.00000000000E+00 0.  1.
         11    1    3    3    0    0  0.28446578658E+01 -0.26985335017E+02 -0.32258980865E+01  0.27325936454E+02  0.51100000000E-03 0. -1.
        -11    1    3    3    0    0  0.84332834817E+01 -0.81345378335E+01 -0.60810758595E+01  0.13201153734E+02  0.51100000000E-03 0.  1.
         12    1    3    3    0    0  0.40540631349E+01 -0.25341137315E+01  0.87851183443E+01  0.10001773074E+02  0.00000000000E+00 0. -1.
</event>
<event>
 7    1  0.5935282E-013  0.5052885E+02  0.7816164E-02  0.1300439E+00
        -11   -1    0    0    0    0  0.00000000000E+00  0.00000000000E+00  0.45593999997E+02  0.45594000000E+02  0.51100000000E-03 0. -1.
         11   -1    0    0    0    0 -0.00000000000E+00 -0.00000000000E+00 -0.45593999997E+02  0.45594000000E+02  0.51100000000E-03 0.  1.
    9900012    2    1    2    0    0 -0.63109500121E+01  0.38490327084E+02  0.11481844316E+02  0.50528854436E+02  0.29999983544E+02 0.  0.
        -12    1    1    2    0    0  0.63109500121E+01 -0.38490327084E+02 -0.11481844316E+02  0.40659145564E+02  0.00000000000E+00 0.  1.
         11    1    3    3    0    0 -0.25443431070E+01  0.52961383830E+01  0.93264993645E+01  0.11022992074E+02  0.51100000000E-03 0. -1.
        -11    1    3    3    0    0 -0.78762085048E+01  0.22076965697E+02  0.97955144054E+01  0.25404314152E+02  0.51100000000E-03 0.  1.
        -12    1    3    3    0    0  0.41096015997E+01  0.11117223004E+02 -0.76401694538E+01  0.14101548210E+02  0.00000000000E+00 0.  1.
</event>
<event>
 7    1  0.5935282E-013  0.5052882E+02  0.7816164E-02  0.1300439E+00
        -11   -1    0    0    0    0  0.00000000000E+00  0.00000000000E+00  0.45593999997E+02  0.45594000000E+02  0.51100000000E-03 0.  1.
         11   -1    0    0    0    0 -0.00000000000E+00 -0.00000000000E+00 -0.45593999997E+02  0.45594000000E+02  0.51100000000E-03 0. -1.
    9900012    2    1    2    0    0 -0.36645353391E+01  0.29793675180E+02 -0.27424018489E+02  0.50528822806E+02  0.29999887401E+02 0.  0.
        -12    1    1    2    0    0  0.36645353391E+01 -0.29793675180E+02  0.27424018489E+02  0.40659177194E+02  0.00000000000E+00 0.  1.
         11    1    3    3    0    0  0.20023895068E+01 -0.35387217465E+00  0.20301499196E+01  0.28733774918E+01  0.51100000000E-03 0. -1.
        -11    1    3    3    0    0  0.70204432211E+01  0.35114433025E+01 -0.77299881003E+01  0.11016785982E+02  0.51100000000E-03 0.  1.
         12    1    3    3    0    0 -0.12687368067E+02  0.26636104053E+02 -0.21724180308E+02  0.36638659332E+02  0.00000000000E+00 0. -1.
</event>
<event>
 7    1  0.5935282E-013  0.5052889E+02  0.7816164E-02  0.1300439E+00
        -11   -1    0    0    0    0  0.00000000000E+00  0.00000000000E+00  0.45593999997E+02  0.45594000000E+02  0.51100000000E-03 0. -1.
         11   -1    0    0    0    0 -0.00000000000E+00 -0.00000000000E+00 -0.45593999997E+02  0.45594000000E+02  0.51100000000E-03 0.  1.
    9900012    2    1    2    0    0  0.33902554544E+02 -0.59251211880E+01  0.21648863459E+02  0.50528885957E+02  0.30000079356E+02 0.  0.
        -12    1    1    2    0    0 -0.33902554544E+02  0.59251211880E+01 -0.21648863459E+02  0.40659114043E+02  0.00000000000E+00 0.  1.
         11    1    3    3    0    0 -0.50990073051E+00  0.18155326782E+00  0.19719310308E+01  0.20448649333E+01  0.51100000000E-03 0. -1.
        -11    1    3    3    0    0 -0.15574509458E+01 -0.72474482020E+01  0.73614493879E+01  0.10447109468E+02  0.51100000000E-03 0.  1.
         12    1    3    3    0    0  0.35969906220E+02  0.11407737461E+01  0.12315483040E+02  0.38036911556E+02  0.00000000000E+00 0. -1.
</event>
<event>
 7    1  0.5935282E-013  0.5052887E+02  0.7816164E-02  0.1300439E+00
        -11   -1    0    0    0    0  0.00000000000E+00  0.00000000000E+00  0.45593999997E+02  0.45594000000E+02  0.51100000000E-03 0. -1.
         11   -1    0    0    0    0 -0.00000000000E+00 -0.00000000000E+00 -0.45593999997E+02  0.45594000000E+02  0.51100000000E-03 0.  1.
    9900012    2    1    2    0    0  0.18180762754E+02 -0.36100962742E+02  0.43982741875E+01  0.50528874812E+02  0.30000045477E+02 0.  0.
        -12    1    1    2    0    0 -0.18180762754E+02  0.36100962742E+02 -0.43982741875E+01  0.40659125188E+02  0.00000000000E+00 0.  1.
         11    1    3    3    0    0  0.43193915936E+01 -0.97092418640E+01  0.62992226825E+01  0.12353409569E+02  0.51100000000E-03 0. -1.
        -11    1    3    3    0    0 -0.30306329693E+01  0.26104353444E+01 -0.22926052908E+01  0.46103305915E+01  0.51100000000E-03 0.  1.
         12    1    3    3    0    0  0.16892004130E+02 -0.29002156223E+02  0.39165679586E+00  0.33565134651E+02  0.00000000000E+00 0. -1.
</event>
<event>
 7    1  0.5935282E-013  0.5052889E+02  0.7816164E-02  0.1300439E+00
        -11   -1    0    0    0    0  0.00000000000E+00  0.00000000000E+00  0.45593999997E+02  0.45594000000E+02  0.51100000000E-03 0. -1.
         11   -1    0    0    0    0 -0.00000000000E+00 -0.00000000000E+00 -0.45593999997E+02  0.45594000000E+02  0.51100000000E-03 0.  1.
    9900012    2    1    2    0    0  0.29858868879E+02  0.27362823766E+02  0.35898998628E+01  0.50528885939E+02  0.30000079301E+02 0.  0.
        -12    1    1    2    0    0 -0.29858868879E+02 -0.27362823766E+02 -0.35898998628E+01  0.40659114061E+02  0.00000000000E+00 0.  1.
         11    1    3    3    0    0  0.82814776683E+01  0.41872050307E+01  0.76273792310E+01  0.12012180174E+02  0.51100000000E-03 0. -1.
        -11    1    3    3    0    0  0.13978142535E+02  0.22340027771E+00  0.14167609768E+00  0.13980645507E+02  0.51100000000E-03 0.  1.
         12    1    3    3    0    0  0.75992486748E+01  0.22952218458E+02 -0.41791554659E+01  0.24536060258E+02  0.00000000000E+00 0. -1.
</event>
<event>
 7    1  0.5935282E-013  0.5052885E+02  0.7816164E-02  0.1300439E+00
        -11   -1    0    0    0    0  0.00000000000E+00  0.00000000000E+00  0.45593999997E+02  0.45594000000E+02  0.51100000000E-03 0.  1.
         11   -1    0    0    0    0 -0.00000000000E+00 -0.00000000000E+00 -0.45593999997E+02  0.45594000000E+02  0.51100000000E-03 0. -1.
    9900012    2    1    2    0    0  0.27179726147E+02 -0.22165616628E+02  0.20569737029E+02  0.50528853976E+02  0.29999982147E+02 0.  0.
        -12    1    1    2    0    0 -0.27179726147E+02  0.22165616628E+02 -0.20569737029E+02  0.40659146024E+02  0.00000000000E+00 0.  1.
         11    1    3    3    0    0  0.33646939864E+01  0.16551886591E+01  0.12390782767E+01  0.39491936337E+01  0.51100000000E-03 0. -1.
        -11    1    3    3    0    0  0.21343764003E+02 -0.35181865964E+01  0.71908380125E+01  0.22795658585E+02  0.51100000000E-03 0.  1.
        -12    1    3    3    0    0  0.24712681572E+01 -0.20302618691E+02  0.12139820740E+02  0.23784001758E+02  0.00000000000E+00 0.  1.
</event>
<event>
 7    1  0.5935282E-013  0.5052884E+02  0.7816164E-02  0.1300439E+00
        -11   -1    0    0    0    0  0.00000000000E+00  0.00000000000E+00  0.45593999997E+02  0.45594000000E+02  0.51100000000E-03 0.  1.
         11   -1    0    0    0    0 -0.00000000000E+00 -0.00000000000E+00 -0.45593999997E+02  0.45594000000E+02  0.51100000000E-03 0. -1.
    9900012    2    1    2    0    0  0.14317983846E+01  0.21801036556E+02 -0.34290410714E+02  0.50528837337E+02  0.29999931570E+02 0.  0.
        -12    1    1    2    0    0 -0.14317983846E+01 -0.21801036556E+02  0.34290410714E+02  0.40659162663E+02  0.00000000000E+00 0.  1.
         11    1    3    3    0    0  0.13372528948E+02  0.13596882794E+02 -0.18479050935E+02  0.26555132760E+02  0.51100000000E-03 0. -1.
        -11    1    3    3    0    0  0.11776656508E+01 -0.98370045174E+00 -0.99372977523E-01  0.15376729866E+01  0.51100000000E-03 0.  1.
         12    1    3    3    0    0 -0.13118396215E+02  0.91878542141E+01 -0.15711986801E+02  0.22436031591E+02  0.00000000000E+00 0. -1.
</event>
<event>
 7    1  0.5935282E-013  0.5052886E+02  0.7816164E-02  0.1300439E+00
        -11   -1    0    0    0    0  0.00000000000E+00  0.00000000000E+00  0.45593999997E+02  0.45594000000E+02  0.51100000000E-03 0. -1.
         11   -1    0    0    0    0 -0.00000000000E+00 -0.00000000000E+00 -0.45593999997E+02  0.45594000000E+02  0.51100000000E-03 0.  1.
    9900012    2    1    2    0    0  0.70922135648E+01 -0.35502199423E+02  0.18505664716E+02  0.50528864695E+02  0.30000014728E+02 0.  0.
        -12    1    1    2    0    0 -0.70922135648E+01  0.35502199423E+02 -0.18505664716E+02  0.40659135305E+02  0.00000000000E+00 0.  1.
         11    1    3    3    0    0  0.10120666454E+00 -0.22182203701E+02  0.23220680957E+01  0.22303641055E+02  0.51100000000E-03 0. -1.
        -11    1    3    3    0    0  0.93646143294E+01 -0.13436781648E+02  0.54946028393E+01  0.17275235547E+02  0.51100000000E-03 0.  1.
        -12    1    3    3    0    0 -0.23736074291E+01  0.11678592539E+00  0.10688993781E+02  0.10949988093E+02  0.00000000000E+00 0.  1.
</event>
<event>
 7    1  0.5935282E-013  0.5052886E+02  0.7816164E-02  0.1300439E+00
        -11   -1    0    0    0    0  0.00000000000E+00  0.00000000000E+00  0.45593999997E+02  0.45594000000E+02  0.51100000000E-03 0.  1.
         11   -1    0    0    0    0 -0.00000000000E+00 -0.00000000000E+00 -0.45593999997E+02  0.45594000000E+02  0.51100000000E-03 0. -1.
    9900012    2    1    2    0    0  0.28421939896E+02  0.18200648289E+02 -0.22673676678E+02  0.50528857367E+02  0.29999992452E+02 0.  0.
        -12    1    1    2    0    0 -0.28421939896E+02 -0.18200648289E+02  0.22673676678E+02  0.40659142633E+02  0.00000000000E+00 0.  1.
         11    1    3    3    0    0  0.17824161537E+02  0.13305430421E+02 -0.25730270260E+02  0.34011498366E+02  0.51100000000E-03 0. -1.
        -11    1    3    3    0    0  0.39588737394E+01  0.72747032170E+01 -0.10626386030E+01  0.83500412718E+01  0.51100000000E-03 0.  1.
        -12    1    3    3    0    0  0.66389046196E+01 -0.23794853493E+01  0.41192321858E+01  0.81673177284E+01  0.00000000000E+00 0.  1.
</event>
<event>
 7    1  0.5935282E-013  0.5052885E+02  0.7816164E-02  0.1300439E+00
        -11   -1    0    0    0    0  0.00000000000E+00  0.00000000000E+00  0.45593999997E+02  0.45594000000E+02  0.51100000000E-03 0.  1.
         11   -1    0    0    0    0 -0.00000000000E+00 -0.00000000000E+00 -0.45593999997E+02  0.45594000000E+02  0.51100000000E-03 0. -1.
    9900012    2    1    2    0    0 -0.21636948794E+02  0.75110199360E+01 -0.33594540555E+02  0.50528854304E+02  0.29999983142E+02 0.  0.
        -12    1    1    2    0    0  0.21636948794E+02 -0.75110199360E+01  0.33594540555E+02  0.40659145696E+02  0.00000000000E+00 0.  1.
         11    1    3    3    0    0  0.16420907191E-01 -0.24634863401E+01 -0.22335086624E+02  0.22470539143E+02  0.51100000000E-03 0. -1.
        -11    1    3    3    0    0 -0.16619092161E+01  0.47537597564E+01 -0.23551176848E+01  0.55593842855E+01  0.51100000000E-03 0.  1.
        -12    1    3    3    0    0 -0.19991460485E+02  0.52207465197E+01 -0.89043362465E+01  0.22498930876E+02  0.00000000000E+00 0.  1.
</event>
<event>
 7    1  0.5935282E-013  0.5052886E+02  0.7816164E-02  0.1300439E+00
        -11   -1    0    0    0    0  0.00000000000E+00  0.00000000000E+00  0.45593999997E+02  0.45594000000E+02  0.51100000000E-03 0. -1.
         11   -1    0    0    0    0 -0.00000000000E+00 -0.00000000000E+00 -0.45593999997E+02  0.45594000000E+02  0.51100000000E-03 0.  1.
    9900012    2    1    2    0    0 -0.34063130887E+02  0.17810492684E+02  0.13253488638E+02  0.50528862078E+02  0.30000006772E+02 0.  0.
        -12    1    1    2    0    0  0.34063130887E+02 -0.17810492684E+02 -0.13253488638E+02  0.40659137922E+02  0.00000000000E+00 0.  1.
         11    1    3    3    0    0 -0.17504037310E+02  0.87513380994E+01  0.14405695362E+01  0.19622754178E+02  0.51100000000E-03 0. -1.
        -11    1    3    3    0    0 -0.16190117049E+02  0.44959208738E+01 -0.14597459842E+01  0.16866062171E+02  0.51100000000E-03 0.  1.
         12    1    3    3    0    0 -0.36897652800E+00  0.45632337108E+01  0.13272665086E+02  0.14040045728E+02  0.00000000000E+00 0. -1.
</event>
<event>
 7    1  0.5935282E-013  0.5052897E+02  0.7816164E-02  0.1300438E+00
        -11   -1    0    0    0    0  0.00000000000E+00  0.00000000000E+00  0.45593999997E+02  0.45594000000E+02  0.51100000000E-03 0.  1.
         11   -1    0    0    0    0 -0.00000000000E+00 -0.00000000000E+00 -0.45593999997E+02  0.45594000000E+02  0.51100000000E-03 0. -1.
    9900012    2    1    2    0    0  0.34123049160E+02  0.21557912917E+02 -0.49020812220E+01  0.50528972790E+02  0.30000343292E+02 0.  0.
        -12    1    1    2    0    0 -0.34123049160E+02 -0.21557912917E+02  0.49020812220E+01  0.40659027210E+02  0.00000000000E+00 0.  1.
         11    1    3    3    0    0  0.15352818835E+02 -0.28081978686E+01  0.13757566935E+01  0.15668048002E+02  0.51100000000E-03 0. -1.
        -11    1    3    3    0    0  0.78375578152E+01  0.35610391476E+01  0.36461847075E+01  0.93489558508E+01  0.51100000000E-03 0.  1.
         12    1    3    3    0    0  0.10932672510E+02  0.20805071637E+02 -0.99240226229E+01  0.25511968938E+02  0.00000000000E+00 0. -1.
</event>
<event>
 7    1  0.5935282E-013  0.5052891E+02  0.7816164E-02  0.1300439E+00
        -11   -1    0    0    0    0  0.00000000000E+00  0.00000000000E+00  0.45593999997E+02  0.45594000000E+02  0.51100000000E-03 0.  1.
         11   -1    0    0    0    0 -0.00000000000E+00 -0.00000000000E+00 -0.45593999997E+02  0.45594000000E+02  0.51100000000E-03 0. -1.
    9900012    2    1    2    0    0  0.49217693365E+01 -0.34997089135E+02  0.20103275652E+02  0.50528908111E+02  0.30000146692E+02 0.  0.
        -12    1    1    2    0    0 -0.49217693365E+01  0.34997089135E+02 -0.20103275652E+02  0.40659091889E+02  0.00000000000E+00 0.  1.
         11    1    3    3    0    0  0.62355918152E+01 -0.93177339807E+01  0.14531061037E+02  0.18353596567E+02  0.51100000000E-03 0. -1.
        -11    1    3    3    0    0  0.80942463443E+01 -0.85979891968E+01  0.45265022752E+01  0.12646401275E+02  0.51100000000E-03 0.  1.
        -12    1    3    3    0    0 -0.94080688231E+01 -0.17081365957E+02  0.10457123398E+01  0.19528910268E+02  0.00000000000E+00 0.  1.
</event>
<event>
 7    1  0.5935282E-013  0.5052887E+02  0.7816164E-02  0.1300439E+00
        -11   -1    0    0    0    0  0.00000000000E+00  0.00000000000E+00  0.45593999997E+02  0.45594000000E+02  0.51100000000E-03 0.  1.
         11   -1    0    0    0    0 -0.00000000000E+00 -0.00000000000E+00 -0.45593999997E+02  0.45594000000E+02  0.51100000000E-03 0. -1.
    9900012    2    1    2    0    0  0.22285402726E+02  0.23637826752E+02 -0.24449520090E+02  0.50528867436E+02  0.30000023058E+02 0.  0.
        -12    1    1    2    0    0 -0.22285402726E+02 -0.23637826752E+02  0.24449520090E+02  0.40659132564E+02  0.00000000000E+00 0.  1.
         11    1    3    3    0    0  0.20100651371E+01  0.10829517361E+01  0.60788740969E+00  0.23627682243E+01  0.51100000000E-03 0. -1.
        -11    1    3    3    0    0  0.86301991630E+01  0.14272725915E+02  0.27476937170E+01  0.16903871262E+02  0.51100000000E-03 0.  1.
         12    1    3    3    0    0  0.11645138426E+02  0.82821491017E+01 -0.27805101216E+02  0.31262227949E+02  0.00000000000E+00 0. -1.
</event>
<event>
 7    1  0.5935282E-013  0.5052882E+02  0.7816164E-02  0.1300439E+00
        -11   -1    0    0    0    0  0.00000000000E+00  0.00000000000E+00  0.45593999997E+02  0.45594000000E+02  0.51100000000E-03 0. -1.
         11   -1    0    0    0    0 -0.00000000000E+00 -0.00000000000E+00 -0.45593999997E+02  0.45594000000E+02  0.51100000000E-03 0.  1.
    9900012    2    1    2    0    0  0.38526841037E+02  0.12758951112E+02  0.24617928338E+01  0.50528822221E+02  0.29999885621E+02 0.  0.
        -12    1    1    2    0    0 -0.38526841037E+02 -0.12758951112E+02 -0.24617928338E+01  0.40659177779E+02  0.00000000000E+00 0.  1.
         11    1    3    3    0    0  0.89343353607E+01  0.26848414758E+01  0.35773956023E+01  0.99914204018E+01  0.51100000000E-03 0. -1.
        -11    1    3    3    0    0  0.18803439988E+02  0.64573570452E+01  0.11961775144E+02  0.23202389537E+02  0.51100000000E-03 0.  1.
        -12    1    3    3    0    0  0.10789065688E+02  0.36167525909E+01 -0.13077377913E+02  0.17335012281E+02  0.00000000000E+00 0.  1.
</event>
<event>
 7    1  0.5935282E-013  0.5052885E+02  0.7816164E-02  0.1300439E+00
        -11   -1    0    0    0    0  0.00000000000E+00  0.00000000000E+00  0.45593999997E+02  0.45594000000E+02  0.51100000000E-03 0.  1.
         11   -1    0    0    0    0 -0.00000000000E+00 -0.00000000000E+00 -0.45593999997E+02  0.45594000000E+02  0.51100000000E-03 0. -1.
    9900012    2    1    2    0    0  0.27756290711E+02 -0.23337571734E+02 -0.18387836234E+02  0.50528850355E+02  0.29999971139E+02 0.  0.
        -12    1    1    2    0    0 -0.27756290711E+02  0.23337571734E+02  0.18387836234E+02  0.40659149645E+02  0.00000000000E+00 0.  1.
         11    1    3    3    0    0  0.17273856388E+01 -0.79815640903E+01 -0.12553367084E+02  0.14975855631E+02  0.51100000000E-03 0. -1.
        -11    1    3    3    0    0  0.33875000184E+01 -0.11529812920E+02 -0.32278121589E+01  0.12443091012E+02  0.51100000000E-03 0.  1.
         12    1    3    3    0    0  0.22641405054E+02 -0.38261947237E+01 -0.26066569908E+01  0.23109903711E+02  0.00000000000E+00 0. -1.
</event>
<event>
 7    1  0.5935282E-013  0.5052887E+02  0.7816164E-02  0.1300439E+00
        -11   -1    0    0    0    0  0.00000000000E+00  0.00000000000E+00  0.45593999997E+02  0.45594000000E+02  0.51100000000E-03 0.  1.
         11   -1    0    0    0    0 -0.00000000000E+00 -0.00000000000E+00 -0.45593999997E+02  0.45594000000E+02  0.51100000000E-03 0. -1.
    9900012    2    1    2    0    0 -0.34425911040E+02  0.21442663131E+02  0.28694959519E+01  0.50528866215E+02  0.30000019348E+02 0.  0.
        -12    1    1    2    0    0  0.34425911040E+02 -0.21442663131E+02 -0.28694959519E+01  0.40659133785E+02  0.00000000000E+00 0.  1.
         11    1    3    3    0    0 -0.81540782308E+01  0.90438252303E+01 -0.22824173602E+01  0.12389075666E+02  0.51100000000E-03 0. -1.
        -11    1    3    3    0    0 -0.28629281892E+01  0.12416143122E+02 -0.34495483849E+01  0.13200619386E+02  0.51100000000E-03 0.  1.
         12    1    3    3    0    0 -0.23408904620E+02 -0.17305221448E-01  0.86014616971E+01  0.24939171163E+02  0.00000000000E+00 0. -1.
</event>
<event>
 7    1  0.5935282E-013  0.5052885E+02  0.7816164E-02  0.1300439E+00
        -11   -1    0    0    0    0  0.00000000000E+00  0.00000000000E+00  0.45593999997E+02  0.45594000000E+02  0.51100000000E-03 0. -1.
         11   -1    0    0    0    0 -0.00000000000E+00 -0.00000000000E+00 -0.45593999997E+02  0.45594000000E+02  0.51100000000E-03 0.  1.
    9900012    2    1    2    0    0  0.53427062008E+01  0.51755790851E+01  0.39972929675E+02  0.50528852994E+02  0.29999979161E+02 0.  0.
        -12    1    1    2    0    0 -0.53427062008E+01 -0.51755790851E+01 -0.39972929675E+02  0.40659147006E+02  0.00000000000E+00 0.  1.
         11    1    3    3    0    0 -0.69069796145E+01  0.36947786865E+01  0.46101377449E+01  0.90890663561E+01  0.51100000000E-03 0.  1.
        -11    1    3    3    0    0  0.59270190567E+01  0.90894359326E+01  0.12652454458E+02  0.16668293391E+02  0.51100000000E-03 0. -1.
        -12    1    3    3    0    0  0.63226667586E+01 -0.76086355340E+01  0.22710337472E+02  0.24771493248E+02  0.00000000000E+00 0.  1.
</event>
<event>
 7    1  0.5935282E-013  0.5052886E+02  0.7816164E-02  0.1300439E+00
        -11   -1    0    0    0    0  0.00000000000E+00  0.00000000000E+00  0.45593999997E+02  0.45594000000E+02  0.51100000000E-03 0.  1.
         11   -1    0    0    0    0 -0.00000000000E+00 -0.00000000000E+00 -0.45593999997E+02  0.45594000000E+02  0.51100000000E-03 0. -1.
    9900012    2    1    2    0    0 -0.16199010369E+02 -0.20312195284E+02 -0.31275754215E+02  0.50528855691E+02  0.29999987358E+02 0.  0.
        -12    1    1    2    0    0  0.16199010369E+02  0.20312195284E+02  0.31275754215E+02  0.40659144309E+02  0.00000000000E+00 0.  1.
         11    1    3    3    0    0 -0.18989805448E+02 -0.18349562165E+02 -0.24330951586E+02  0.35907023657E+02  0.51100000000E-03 0. -1.
        -11    1    3    3    0    0 -0.70658410444E+00 -0.60092559253E+01 -0.70265252926E+01  0.92726736070E+01  0.51100000000E-03 0.  1.
        -12    1    3    3    0    0  0.34973791833E+01  0.40466228058E+01  0.81722662906E-01  0.53491584270E+01  0.00000000000E+00 0.  1.
</event>
<event>
 7    1  0.5935282E-013  0.5052885E+02  0.7816164E-02  0.1300439E+00
        -11   -1    0    0    0    0  0.00000000000E+00  0.00000000000E+00  0.45593999997E+02  0.45594000000E+02  0.51100000000E-03 0.  1.
         11   -1    0    0    0    0 -0.00000000000E+00 -0.00000000000E+00 -0.45593999997E+02  0.45594000000E+02  0.51100000000E-03 0. -1.
    9900012    2    1    2    0    0  0.28821166071E+02 -0.21233317664E+01 -0.28600663558E+02  0.50528854565E+02  0.29999983937E+02 0.  0.
        -12    1    1    2    0    0 -0.28821166071E+02  0.21233317664E+01  0.28600663558E+02  0.40659145435E+02  0.00000000000E+00 0.  1.
         11    1    3    3    0    0  0.73949271664E+01 -0.38088248102E+00 -0.75055800668E+01  0.10543422199E+02  0.51100000000E-03 0. -1.
        -11    1    3    3    0    0  0.15722045834E+01 -0.11410036441E+02 -0.45147622679E+01  0.12371088773E+02  0.51100000000E-03 0.  1.
         12    1    3    3    0    0  0.19854034322E+02  0.96675871552E+01 -0.16580321223E+02  0.27614343594E+02  0.00000000000E+00 0. -1.
</event>
<event>
 7    1  0.5935282E-013  0.5052886E+02  0.7816164E-02  0.1300439E+00
        -11   -1    0    0    0    0  0.00000000000E+00  0.00000000000E+00  0.45593999997E+02  0.45594000000E+02  0.51100000000E-03 0. -1.
         11   -1    0    0    0    0 -0.00000000000E+00 -0.00000000000E+00 -0.45593999997E+02  0.45594000000E+02  0.51100000000E-03 0.  1.
    9900012    2    1    2    0    0  0.13618611206E+02  0.23696889629E+02  0.30102434019E+02  0.50528859784E+02  0.29999999798E+02 0.  0.
        -12    1    1    2    0    0 -0.13618611206E+02 -0.23696889629E+02 -0.30102434019E+02  0.40659140216E+02  0.00000000000E+00 0.  1.
         11    1    3    3    0    0 -0.71711259252E+00  0.10693799923E+02  0.22487829649E+02  0.24911324530E+02  0.51100000000E-03 0. -1.
        -11    1    3    3    0    0  0.12738202839E+01 -0.32414204866E+01  0.18215154979E+00  0.34874925570E+01  0.51100000000E-03 0.  1.
        -12    1    3    3    0    0  0.13061903514E+02  0.16244510193E+02  0.74324528199E+01  0.22130042696E+02  0.00000000000E+00 0.  1.
</event>
<event>
 7    1  0.5935282E-013  0.5052886E+02  0.7816164E-02  0.1300439E+00
        -11   -1    0    0    0    0  0.00000000000E+00  0.00000000000E+00  0.45593999997E+02  0.45594000000E+02  0.51100000000E-03 0.  1.
         11   -1    0    0    0    0 -0.00000000000E+00 -0.00000000000E+00 -0.45593999997E+02  0.45594000000E+02  0.51100000000E-03 0. -1.
    9900012    2    1    2    0    0  0.12945812218E+02  0.22212154976E+02 -0.31499072949E+02  0.50528862290E+02  0.30000007416E+02 0.  0.
        -12    1    1    2    0    0 -0.12945812218E+02 -0.22212154976E+02  0.31499072949E+02  0.40659137710E+02  0.00000000000E+00 0.  1.
         11    1    3    3    0    0  0.16063598657E+01  0.25474027250E+01 -0.16758617021E+02  0.17027063675E+02  0.51100000000E-03 0. -1.
        -11    1    3    3    0    0  0.70948425924E+01 -0.17464603872E+01 -0.75830199149E+01  0.10530389669E+02  0.51100000000E-03 0.  1.
        -12    1    3    3    0    0  0.42446097601E+01  0.21411212638E+02 -0.71574360133E+01  0.22971408946E+02  0.00000000000E+00 0.  1.
</event>
<event>
 7    1  0.5935282E-013  0.5052886E+02  0.7816164E-02  0.1300439E+00
        -11   -1    0    0    0    0  0.00000000000E+00  0.00000000000E+00  0.45593999997E+02  0.45594000000E+02  0.51100000000E-03 0. -1.
         11   -1    0    0    0    0 -0.00000000000E+00 -0.00000000000E+00 -0.45593999997E+02  0.45594000000E+02  0.51100000000E-03 0.  1.
    9900012    2    1    2    0    0  0.56381911829E+01  0.18965664321E+02  0.35520141451E+02  0.50528855006E+02  0.29999985275E+02 0.  0.
        -12    1    1    2    0    0 -0.56381911829E+01 -0.18965664321E+02 -0.35520141451E+02  0.40659144994E+02  0.00000000000E+00 0.  1.
         11    1    3    3    0    0 -0.82002607658E+00  0.15245763398E+02  0.11578378715E+02  0.19161539559E+02  0.51100000000E-03 0.  1.
        -11    1    3    3    0    0  0.13153615030E+02  0.16995173303E+01  0.16121888560E+02  0.20876332018E+02  0.51100000000E-03 0. -1.
         12    1    3    3    0    0 -0.66953977705E+01  0.20203835929E+01  0.78198741760E+01  0.10490983428E+02  0.00000000000E+00 0. -1.
</event>
<event>
 7    1  0.5935282E-013  0.5052886E+02  0.7816164E-02  0.1300439E+00
        -11   -1    0    0    0    0  0.00000000000E+00  0.00000000000E+00  0.45593999997E+02  0.45594000000E+02  0.51100000000E-03 0.  1.
         11   -1    0    0    0    0 -0.00000000000E+00 -0.00000000000E+00 -0.45593999997E+02  0.45594000000E+02  0.51100000000E-03 0. -1.
    9900012    2    1    2    0    0  0.91955136418E+01  0.10557397349E+02 -0.38172631884E+02  0.50528856688E+02  0.29999990388E+02 0.  0.
        -12    1    1    2    0    0 -0.91955136418E+01 -0.10557397349E+02  0.38172631884E+02  0.40659143312E+02  0.00000000000E+00 0.  1.
         11    1    3    3    0    0  0.41310963864E+01  0.12910233308E+02 -0.32475125160E+02  0.35190536169E+02  0.51100000000E-03 0. -1.
        -11    1    3    3    0    0 -0.13418449764E+01  0.45647980386E+01 -0.25518025794E+01  0.53990393349E+01  0.51100000000E-03 0.  1.
        -12    1    3    3    0    0  0.64062622319E+01 -0.69176339968E+01 -0.31457041446E+01  0.99392811844E+01  0.00000000000E+00 0.  1.
</event>
<event>
 7    1  0.5935282E-013  0.5052890E+02  0.7816164E-02  0.1300439E+00
        -11   -1    0    0    0    0  0.00000000000E+00  0.00000000000E+00  0.45593999997E+02  0.45594000000E+02  0.51100000000E-03 0. -1.
         11   -1    0    0    0    0 -0.00000000000E+00 -0.00000000000E+00 -0.45593999997E+02  0.45594000000E+02  0.51100000000E-03 0.  1.
    9900012    2    1    2    0    0  0.35823038889E+02  0.17733687268E+02  0.74423292615E+01  0.50528904533E+02  0.30000135817E+02 0.  0.
        -12    1    1    2    0    0 -0.35823038889E+02 -0.17733687268E+02 -0.74423292615E+01  0.40659095467E+02  0.00000000000E+00 0.  1.
         11    1    3    3    0    0  0.12677271291E+02  0.55449585038E+01  0.43595569934E+01  0.14507429464E+02  0.51100000000E-03 0. -1.
        -11    1    3    3    0    0 -0.27781082503E+01  0.70649993586E+01  0.56620538768E+01  0.94705309119E+01  0.51100000000E-03 0.  1.
         12    1    3    3    0    0  0.25923875848E+02  0.51237294056E+01 -0.25792816087E+01  0.26550944157E+02  0.00000000000E+00 0. -1.
</event>
<event>
 7    1  0.5935282E-013  0.5052886E+02  0.7816164E-02  0.1300439E+00
        -11   -1    0    0    0    0  0.00000000000E+00  0.00000000000E+00  0.45593999997E+02  0.45594000000E+02  0.51100000000E-03 0.  1.
         11   -1    0    0    0    0 -0.00000000000E+00 -0.00000000000E+00 -0.45593999997E+02  0.45594000000E+02  0.51100000000E-03 0. -1.
    9900012    2    1    2    0    0 -0.11589885436E+02 -0.56438415734E+01 -0.38561476321E+02  0.50528857754E+02  0.29999993629E+02 0.  0.
        -12    1    1    2    0    0  0.11589885436E+02  0.56438415734E+01  0.38561476321E+02  0.40659142246E+02  0.00000000000E+00 0.  1.
         11    1    3    3    0    0  0.65590386070E+00  0.41300969341E+01  0.10962417391E+01  0.43231535679E+01  0.51100000000E-03 0. -1.
        -11    1    3    3    0    0 -0.70473280603E+01 -0.58366798055E+00 -0.23795743734E+01  0.74610907755E+01  0.51100000000E-03 0.  1.
         12    1    3    3    0    0 -0.51984612363E+01 -0.91902705270E+01 -0.37278143687E+02  0.38744613410E+02  0.00000000000E+00 0. -1.
</event>
<event>
 7    1  0.5935282E-013  0.5052886E+02  0.7816164E-02  0.1300439E+00
        -11   -1    0    0    0    0  0.00000000000E+00  0.00000000000E+00  0.45593999997E+02  0.45594000000E+02  0.51100000000E-03 0.  1.
         11   -1    0    0    0    0 -0.00000000000E+00 -0.00000000000E+00 -0.45593999997E+02  0.45594000000E+02  0.51100000000E-03 0. -1.
    9900012    2    1    2    0    0  0.92285680235E+01  0.25510220584E+02 -0.30285767219E+02  0.50528861814E+02  0.30000005969E+02 0.  0.
        -12    1    1    2    0    0 -0.92285680235E+01 -0.25510220584E+02  0.30285767219E+02  0.40659138186E+02  0.00000000000E+00 0.  1.
         11    1    3    3    0    0 -0.29715594829E+01 -0.20007205066E+01 -0.60867527037E+01  0.70626912040E+01  0.51100000000E-03 0.  1.
        -11    1    3    3    0    0  0.48312251510E+01 -0.20312078771E+01 -0.13875289328E+01  0.54214185136E+01  0.51100000000E-03 0. -1.
         12    1    3    3    0    0  0.73689023554E+01  0.29542148968E+02 -0.22811485582E+02  0.38044752096E+02  0.00000000000E+00 0. -1.
</event>
<event>
 7    1  0.5935282E-013  0.5052885E+02  0.7816164E-02  0.1300439E+00
        -11   -1    0    0    0    0  0.00000000000E+00  0.00000000000E+00  0.45593999997E+02  0.45594000000E+02  0.51100000000E-03 0.  1.
         11   -1    0    0    0    0 -0.00000000000E+00 -0.00000000000E+00 -0.45593999997E+02  0.45594000000E+02  0.51100000000E-03 0. -1.
    9900012    2    1    2    0    0  0.26224106798E+01 -0.23857851881E+02 -0.32819081887E+02  0.50528852566E+02  0.29999977860E+02 0.  0.
        -12    1    1    2    0    0 -0.26224106798E+01  0.23857851881E+02  0.32819081887E+02  0.40659147434E+02  0.00000000000E+00 0.  1.
         11    1    3    3    0    0 -0.85614360315E+01 -0.11841393457E+02 -0.89548004278E+01  0.17137830577E+02  0.51100000000E-03 0. -1.
        -11    1    3    3    0    0 -0.85285320578E+00 -0.31991670991E+01  0.17521831360E+01  0.37459544474E+01  0.51100000000E-03 0.  1.
        -12    1    3    3    0    0  0.12036699917E+02 -0.88172913251E+01 -0.25616464595E+02  0.29645067542E+02  0.00000000000E+00 0.  1.
</event>
<event>
 7    1  0.5935282E-013  0.5052883E+02  0.7816164E-02  0.1300439E+00
        -11   -1    0    0    0    0  0.00000000000E+00  0.00000000000E+00  0.45593999997E+02  0.45594000000E+02  0.51100000000E-03 0.  1.
         11   -1    0    0    0    0 -0.00000000000E+00 -0.00000000000E+00 -0.45593999997E+02  0.45594000000E+02  0.51100000000E-03 0. -1.
    9900012    2    1    2    0    0 -0.15963522796E+02 -0.21426214262E+02 -0.30647214240E+02  0.50528825656E+02  0.29999896064E+02 0.  0.
        -12    1    1    2    0    0  0.15963522796E+02  0.21426214262E+02  0.30647214240E+02  0.40659174344E+02  0.00000000000E+00 0.  1.
         11    1    3    3    0    0 -0.16913790229E+01 -0.61823968473E+01  0.10067958361E+01  0.64881763149E+01  0.51100000000E-03 0. -1.
        -11    1    3    3    0    0 -0.38042691434E+01 -0.41192459995E+01  0.28621799641E+01  0.62954527818E+01  0.51100000000E-03 0.  1.
        -12    1    3    3    0    0 -0.10467874630E+02 -0.11124571415E+02 -0.34516190040E+02  0.37745196559E+02  0.00000000000E+00 0.  1.
</event>
<event>
 7    1  0.5935282E-013  0.5052886E+02  0.7816164E-02  0.1300439E+00
        -11   -1    0    0    0    0  0.00000000000E+00  0.00000000000E+00  0.45593999997E+02  0.45594000000E+02  0.51100000000E-03 0.  1.
         11   -1    0    0    0    0 -0.00000000000E+00 -0.00000000000E+00 -0.45593999997E+02  0.45594000000E+02  0.51100000000E-03 0. -1.
    9900012    2    1    2    0    0  0.90907825953E+01  0.90836357045E+01 -0.38574740647E+02  0.50528863490E+02  0.30000011063E+02 0.  0.
        -12    1    1    2    0    0 -0.90907825953E+01 -0.90836357045E+01  0.38574740647E+02  0.40659136510E+02  0.00000000000E+00 0.  1.
         11    1    3    3    0    0  0.25471703678E+01 -0.52528191269E+01 -0.97826494288E+01  0.11392120776E+02  0.51100000000E-03 0. -1.
        -11    1    3    3    0    0 -0.26856775193E+01 -0.42606422679E+01 -0.97087224006E+01  0.10937331813E+02  0.51100000000E-03 0.  1.
         12    1    3    3    0    0  0.92292897468E+01  0.18597097099E+02 -0.19083368817E+02  0.28199410901E+02  0.00000000000E+00 0. -1.
</event>
<event>
 7    1  0.5935282E-013  0.5052887E+02  0.7816164E-02  0.1300439E+00
        -11   -1    0    0    0    0  0.00000000000E+00  0.00000000000E+00  0.45593999997E+02  0.45594000000E+02  0.51100000000E-03 0.  1.
         11   -1    0    0    0    0 -0.00000000000E+00 -0.00000000000E+00 -0.45593999997E+02  0.45594000000E+02  0.51100000000E-03 0. -1.
    9900012    2    1    2    0    0 -0.28942250034E+02  0.11327546691E+01 -0.28534683510E+02  0.50528866546E+02  0.30000020353E+02 0.  0.
        -12    1    1    2    0    0  0.28942250034E+02 -0.11327546691E+01  0.28534683510E+02  0.40659133454E+02  0.00000000000E+00 0.  1.
         11    1    3    3    0    0 -0.17092981506E+02  0.88719880474E+00 -0.21943190868E+02  0.27829135168E+02  0.51100000000E-03 0. -1.
        -11    1    3    3    0    0 -0.89152555513E+01 -0.70682213809E+00 -0.12888703296E+02  0.15687576358E+02  0.51100000000E-03 0.  1.
        -12    1    3    3    0    0 -0.29340129770E+01  0.95237800247E+00  0.62972106532E+01  0.70121550196E+01  0.00000000000E+00 0.  1.
</event>
<event>
 7    1  0.5935282E-013  0.5052887E+02  0.7816164E-02  0.1300439E+00
        -11   -1    0    0    0    0  0.00000000000E+00  0.00000000000E+00  0.45593999997E+02  0.45594000000E+02  0.51100000000E-03 0.  1.
         11   -1    0    0    0    0 -0.00000000000E+00 -0.00000000000E+00 -0.45593999997E+02  0.45594000000E+02  0.51100000000E-03 0. -1.
    9900012    2    1    2    0    0  0.18442046512E+02 -0.25416639663E+02 -0.25827314351E+02  0.50528870424E+02  0.30000032141E+02 0.  0.
        -12    1    1    2    0    0 -0.18442046512E+02  0.25416639663E+02  0.25827314351E+02  0.40659129576E+02  0.00000000000E+00 0.  1.
         11    1    3    3    0    0  0.66382819233E+01  0.12136106489E+01 -0.27666348805E+01  0.72934152853E+01  0.51100000000E-03 0. -1.
        -11    1    3    3    0    0  0.21342097788E+01 -0.23256848339E+01  0.43318017543E+01  0.53598664187E+01  0.51100000000E-03 0.  1.
         12    1    3    3    0    0  0.96695548100E+01 -0.24304565478E+02 -0.27392481224E+02  0.37875588720E+02  0.00000000000E+00 0. -1.
</event>
<event>
 7    1  0.5935282E-013  0.5052887E+02  0.7816164E-02  0.1300439E+00
        -11   -1    0    0    0    0  0.00000000000E+00  0.00000000000E+00  0.45593999997E+02  0.45594000000E+02  0.51100000000E-03 0.  1.
         11   -1    0    0    0    0 -0.00000000000E+00 -0.00000000000E+00 -0.45593999997E+02  0.45594000000E+02  0.51100000000E-03 0. -1.
    9900012    2    1    2    0    0 -0.39401804630E+02  0.35595649254E+00  0.10026759017E+02  0.50528870527E+02  0.30000032455E+02 0.  0.
        -12    1    1    2    0    0  0.39401804630E+02 -0.35595649254E+00 -0.10026759017E+02  0.40659129473E+02  0.00000000000E+00 0.  1.
         11    1    3    3    0    0 -0.99321563275E+01  0.83159546709E+01  0.57865158522E+01  0.14187550788E+02  0.51100000000E-03 0. -1.
        -11    1    3    3    0    0 -0.20511737359E+00  0.33520553655E+01  0.36515167181E+01  0.49610405072E+01  0.51100000000E-03 0.  1.
         12    1    3    3    0    0 -0.29264530928E+02 -0.11312053544E+02  0.58872644666E+00  0.31380279232E+02  0.00000000000E+00 0. -1.
</event>
<event>
 7    1  0.5935282E-013  0.5052886E+02  0.7816164E-02  0.1300439E+00
        -11   -1    0    0    0    0  0.00000000000E+00  0.00000000000E+00  0.45593999997E+02  0.45594000000E+02  0.51100000000E-03 0.  1.
         11   -1    0    0    0    0 -0.00000000000E+00 -0.00000000000E+00 -0.45593999997E+02  0.45594000000E+02  0.51100000000E-03 0. -1.
    9900012    2    1    2    0    0 -0.34653049511E+02  0.10409714006E+02 -0.18546419333E+02  0.50528860115E+02  0.30000000806E+02 0.  0.
        -12    1    1    2    0    0  0.34653049511E+02 -0.10409714006E+02  0.18546419333E+02  0.40659139885E+02  0.00000000000E+00 0.  1.
         11    1    3    3    0    0 -0.30959046384E+01 -0.25070507281E+01 -0.93999032497E+01  0.10209216926E+02  0.51100000000E-03 0. -1.
        -11    1    3    3    0    0 -0.12838762636E+02  0.10163232095E+02  0.45120077742E+01  0.16984796939E+02  0.51100000000E-03 0.  1.
         12    1    3    3    0    0 -0.18718382236E+02  0.27535326396E+01 -0.13658523858E+02  0.23334846250E+02  0.00000000000E+00 0. -1.
</event>
<event>
 7    1  0.5935282E-013  0.5052883E+02  0.7816164E-02  0.1300439E+00
        -11   -1    0    0    0    0  0.00000000000E+00  0.00000000000E+00  0.45593999997E+02  0.45594000000E+02  0.51100000000E-03 0. -1.
         11   -1    0    0    0    0 -0.00000000000E+00 -0.00000000000E+00 -0.45593999997E+02  0.45594000000E+02  0.51100000000E-03 0.  1.
    9900012    2    1    2    0    0  0.53164309507E+01 -0.40239149937E+02  0.23904196586E+01  0.50528834590E+02  0.29999923218E+02 0.  0.
        -12    1    1    2    0    0 -0.53164309507E+01  0.40239149937E+02 -0.23904196586E+01  0.40659165410E+02  0.00000000000E+00 0.  1.
         11    1    3    3    0    0 -0.65145615872E+01 -0.21980091734E+02  0.64155673175E+01  0.23805954079E+02  0.51100000000E-03 0. -1.
        -11    1    3    3    0    0 -0.31367011036E+01 -0.51456528747E+01 -0.31598313270E+01  0.68044964249E+01  0.51100000000E-03 0.  1.
         12    1    3    3    0    0  0.14967693642E+02 -0.13113405328E+02 -0.86531633189E+00  0.19918384086E+02  0.00000000000E+00 0. -1.
</event>
<event>
 7    1  0.5935282E-013  0.5052888E+02  0.7816164E-02  0.1300439E+00
        -11   -1    0    0    0    0  0.00000000000E+00  0.00000000000E+00  0.45593999997E+02  0.45594000000E+02  0.51100000000E-03 0. -1.
         11   -1    0    0    0    0 -0.00000000000E+00 -0.00000000000E+00 -0.45593999997E+02  0.45594000000E+02  0.51100000000E-03 0.  1.
    9900012    2    1    2    0    0 -0.22377461924E+02 -0.33397511659E+02 -0.60843542357E+01  0.50528881052E+02  0.30000064445E+02 0.  0.
        -12    1    1    2    0    0  0.22377461924E+02  0.33397511659E+02  0.60843542357E+01  0.40659118948E+02  0.00000000000E+00 0.  1.
         11    1    3    3    0    0 -0.12440994659E+02 -0.18545322943E+02  0.62750424509E+01  0.23196627108E+02  0.51100000000E-03 0. -1.
        -11    1    3    3    0    0 -0.55891430932E+01 -0.17678734782E+02 -0.68491943591E+01  0.19765820186E+02  0.51100000000E-03 0.  1.
        -12    1    3    3    0    0 -0.43473241724E+01  0.28265460656E+01 -0.55102023274E+01  0.75664337577E+01  0.00000000000E+00 0.  1.
</event>
<event>
 7    1  0.5935282E-013  0.5052886E+02  0.7816164E-02  0.1300439E+00
        -11   -1    0    0    0    0  0.00000000000E+00  0.00000000000E+00  0.45593999997E+02  0.45594000000E+02  0.51100000000E-03 0. -1.
         11   -1    0    0    0    0 -0.00000000000E+00 -0.00000000000E+00 -0.45593999997E+02  0.45594000000E+02  0.51100000000E-03 0.  1.
    9900012    2    1    2    0    0 -0.16346662367E+02 -0.10445363882E+02  0.35732996520E+02  0.50528855427E+02  0.29999986555E+02 0.  0.
        -12    1    1    2    0    0  0.16346662367E+02  0.10445363882E+02 -0.35732996520E+02  0.40659144573E+02  0.00000000000E+00 0.  1.
         11    1    3    3    0    0 -0.91484431688E+00 -0.62624904918E+01  0.87777122110E+01  0.10821458275E+02  0.51100000000E-03 0. -1.
        -11    1    3    3    0    0  0.50513747796E+01 -0.39780101701E+01  0.14170267050E+02  0.15560765425E+02  0.51100000000E-03 0.  1.
        -12    1    3    3    0    0 -0.20483192829E+02 -0.20486321978E+00  0.12785017258E+02  0.24146631726E+02  0.00000000000E+00 0.  1.
</event>
<event>
 7    1  0.5935282E-013  0.5052886E+02  0.7816164E-02  0.1300439E+00
        -11   -1    0    0    0    0  0.00000000000E+00  0.00000000000E+00  0.45593999997E+02  0.45594000000E+02  0.51100000000E-03 0.  1.
         11   -1    0    0    0    0 -0.00000000000E+00 -0.00000000000E+00 -0.45593999997E+02  0.45594000000E+02  0.51100000000E-03 0. -1.
    9900012    2    1    2    0    0 -0.33504506580E+02 -0.70910565021E+01 -0.21916455294E+02  0.50528855197E+02  0.29999985857E+02 0.  0.
        -12    1    1    2    0    0  0.33504506580E+02  0.70910565021E+01  0.21916455294E+02  0.40659144803E+02  0.00000000000E+00 0.  1.
         11    1    3    3    0    0 -0.25592650935E+02  0.48361668858E+01 -0.13164995590E+02  0.29183718084E+02  0.51100000000E-03 0. -1.
        -11    1    3    3    0    0 -0.21911931445E+01  0.18431284900E+01 -0.53237312081E+01  0.60448791770E+01  0.51100000000E-03 0.  1.
         12    1    3    3    0    0 -0.57206625000E+01 -0.13770351878E+02 -0.34277284957E+01  0.15300257936E+02  0.00000000000E+00 0. -1.
</event>
<event>
 7    1  0.5935282E-013  0.5052886E+02  0.7816164E-02  0.1300439E+00
        -11   -1    0    0    0    0  0.00000000000E+00  0.00000000000E+00  0.45593999997E+02  0.45594000000E+02  0.51100000000E-03 0.  1.
         11   -1    0    0    0    0 -0.00000000000E+00 -0.00000000000E+00 -0.45593999997E+02  0.45594000000E+02  0.51100000000E-03 0. -1.
    9900012    2    1    2    0    0  0.17748630007E+02  0.25209326639E+02 -0.26507391782E+02  0.50528857906E+02  0.29999994091E+02 0.  0.
        -12    1    1    2    0    0 -0.17748630007E+02 -0.25209326639E+02  0.26507391782E+02  0.40659142094E+02  0.00000000000E+00 0.  1.
         11    1    3    3    0    0 -0.55990981503E+01  0.59898477914E+01 -0.33792520765E+01  0.88683437867E+01  0.51100000000E-03 0. -1.
        -11    1    3    3    0    0  0.10025102270E+02  0.17313733317E+02 -0.83689147692E+01  0.21686557394E+02  0.51100000000E-03 0.  1.
         12    1    3    3    0    0  0.13322625887E+02  0.19057455302E+01 -0.14759224936E+02  0.19973956726E+02  0.00000000000E+00 0. -1.
</event>
<event>
 7    1  0.5935282E-013  0.5052881E+02  0.7816164E-02  0.1300439E+00
        -11   -1    0    0    0    0  0.00000000000E+00  0.00000000000E+00  0.45593999997E+02  0.45594000000E+02  0.51100000000E-03 0.  1.
         11   -1    0    0    0    0 -0.00000000000E+00 -0.00000000000E+00 -0.45593999997E+02  0.45594000000E+02  0.51100000000E-03 0. -1.
    9900012    2    1    2    0    0 -0.15197295795E+02 -0.13857798227E+00 -0.37711966085E+02  0.50528814207E+02  0.29999861265E+02 0.  0.
        -12    1    1    2    0    0  0.15197295795E+02  0.13857798227E+00  0.37711966085E+02  0.40659185793E+02  0.00000000000E+00 0.  1.
         11    1    3    3    0    0 -0.71192706371E+01 -0.63840291646E+01 -0.10788736487E+02  0.14416541819E+02  0.51100000000E-03 0. -1.
        -11    1    3    3    0    0  0.68406469972E+00 -0.51256375524E+01 -0.19050530566E+02  0.19739878925E+02  0.51100000000E-03 0.  1.
         12    1    3    3    0    0 -0.87620898581E+01  0.11371088735E+02 -0.78726990311E+01  0.16372393464E+02  0.00000000000E+00 0. -1.
</event>
<event>
 7    1  0.5935282E-013  0.5052886E+02  0.7816164E-02  0.1300439E+00
        -11   -1    0    0    0    0  0.00000000000E+00  0.00000000000E+00  0.45593999997E+02  0.45594000000E+02  0.51100000000E-03 0. -1.
         11   -1    0    0    0    0 -0.00000000000E+00 -0.00000000000E+00 -0.45593999997E+02  0.45594000000E+02  0.51100000000E-03 0.  1.
    9900012    2    1    2    0    0 -0.34279551401E+02 -0.16690768484E+02  0.14124319861E+02  0.50528858244E+02  0.29999995117E+02 0.  0.
        -12    1    1    2    0    0  0.34279551401E+02  0.16690768484E+02 -0.14124319861E+02  0.40659141756E+02  0.00000000000E+00 0.  1.
         11    1    3    3    0    0 -0.67832635951E+01 -0.26078452679E+01  0.20491472080E+01  0.75506639763E+01  0.51100000000E-03 0.  1.
        -11    1    3    3    0    0 -0.31288629341E+02 -0.11763671109E+02  0.15990190894E+02  0.37054668925E+02  0.51100000000E-03 0. -1.
        -12    1    3    3    0    0  0.37923415352E+01 -0.23192521066E+01 -0.39150182416E+01  0.59235253427E+01  0.00000000000E+00 0.  1.
</event>
<event>
 7    1  0.5935282E-013  0.5052886E+02  0.7816164E-02  0.1300439E+00
        -11   -1    0    0    0    0  0.00000000000E+00  0.00000000000E+00  0.45593999997E+02  0.45594000000E+02  0.51100000000E-03 0.  1.
         11   -1    0    0    0    0 -0.00000000000E+00 -0.00000000000E+00 -0.45593999997E+02  0.45594000000E+02  0.51100000000E-03 0. -1.
    9900012    2    1    2    0    0  0.19503024530E+02  0.33970466672E+02 -0.10899764554E+02  0.50528862785E+02  0.30000008921E+02 0.  0.
        -12    1    1    2    0    0 -0.19503024530E+02 -0.33970466672E+02  0.10899764554E+02  0.40659137215E+02  0.00000000000E+00 0.  1.
         11    1    3    3    0    0  0.15212074442E+02  0.20728660120E+01 -0.27373786183E+01  0.15594781957E+02  0.51100000000E-03 0.  1.
        -11    1    3    3    0    0  0.27350756116E+01  0.13884057591E+02  0.18418731454E+01  0.14270255454E+02  0.51100000000E-03 0. -1.
        -12    1    3    3    0    0  0.15558744768E+01  0.18013543070E+02 -0.10004259081E+02  0.20663825373E+02  0.00000000000E+00 0.  1.
</event>
<event>
 7    1  0.5935282E-013  0.5052874E+02  0.7816164E-02  0.1300439E+00
        -11   -1    0    0    0    0  0.00000000000E+00  0.00000000000E+00  0.45593999997E+02  0.45594000000E+02  0.51100000000E-03 0. -1.
         11   -1    0    0    0    0 -0.00000000000E+00 -0.00000000000E+00 -0.45593999997E+02  0.45594000000E+02  0.51100000000E-03 0.  1.
    9900012    2    1    2    0    0  0.37225145459E+02 -0.15900072391E+02 -0.38277063929E+01  0.50528744071E+02  0.29999648075E+02 0.  0.
        -12    1    1    2    0    0 -0.37225145459E+02  0.15900072391E+02  0.38277063929E+01  0.40659255929E+02  0.00000000000E+00 0.  1.
         11    1    3    3    0    0  0.22573190149E+02 -0.18976904556E+02 -0.18857778537E+01  0.29550431103E+02  0.51100000000E-03 0. -1.
        -11    1    3    3    0    0  0.33920301841E+01 -0.54022826223E+01  0.13113625741E+01  0.65123112919E+01  0.51100000000E-03 0.  1.
        -12    1    3    3    0    0  0.11259925126E+02  0.84791147864E+01 -0.32532911133E+01  0.14466001675E+02  0.00000000000E+00 0.  1.
</event>
<event>
 7    1  0.5935282E-013  0.5052885E+02  0.7816164E-02  0.1300439E+00
        -11   -1    0    0    0    0  0.00000000000E+00  0.00000000000E+00  0.45593999997E+02  0.45594000000E+02  0.51100000000E-03 0.  1.
         11   -1    0    0    0    0 -0.00000000000E+00 -0.00000000000E+00 -0.45593999997E+02  0.45594000000E+02  0.51100000000E-03 0. -1.
    9900012    2    1    2    0    0 -0.21634251986E+02  0.10233454282E+02 -0.32869475636E+02  0.50528845138E+02  0.29999955281E+02 0.  0.
        -12    1    1    2    0    0  0.21634251986E+02 -0.10233454282E+02  0.32869475636E+02  0.40659154862E+02  0.00000000000E+00 0.  1.
         11    1    3    3    0    0 -0.19362398529E+02  0.41592247149E+01 -0.66177009364E+01  0.20880507488E+02  0.51100000000E-03 0. -1.
        -11    1    3    3    0    0 -0.54741340057E+01  0.81954512348E+01 -0.17362425116E+02  0.19964602932E+02  0.51100000000E-03 0.  1.
        -12    1    3    3    0    0  0.32022805481E+01 -0.21212216681E+01 -0.88893495835E+01  0.96837347181E+01  0.00000000000E+00 0.  1.
</event>
<event>
 7    1  0.5935282E-013  0.5052896E+02  0.7816164E-02  0.1300438E+00
        -11   -1    0    0    0    0  0.00000000000E+00  0.00000000000E+00  0.45593999997E+02  0.45594000000E+02  0.51100000000E-03 0.  1.
         11   -1    0    0    0    0 -0.00000000000E+00 -0.00000000000E+00 -0.45593999997E+02  0.45594000000E+02  0.51100000000E-03 0. -1.
    9900012    2    1    2    0    0  0.26441120973E+02  0.13177404286E+01 -0.30859173355E+02  0.50528955516E+02  0.30000290786E+02 0.  0.
        -12    1    1    2    0    0 -0.26441120973E+02 -0.13177404286E+01  0.30859173355E+02  0.40659044484E+02  0.00000000000E+00 0.  1.
         11    1    3    3    0    0 -0.21282991226E+01  0.33913963529E+01 -0.64749752550E+01  0.76129187039E+01  0.51100000000E-03 0. -1.
        -11    1    3    3    0    0  0.26099720348E+01  0.50240328254E+01  0.11958166254E+01  0.57864356487E+01  0.51100000000E-03 0.  1.
         12    1    3    3    0    0  0.25959448061E+02 -0.70976887497E+01 -0.25580014726E+02  0.37129601164E+02  0.00000000000E+00 0. -1.
</event>
<event>
 7    1  0.5935282E-013  0.5052886E+02  0.7816164E-02  0.1300439E+00
        -11   -1    0    0    0    0  0.00000000000E+00  0.00000000000E+00  0.45593999997E+02  0.45594000000E+02  0.51100000000E-03 0.  1.
         11   -1    0    0    0    0 -0.00000000000E+00 -0.00000000000E+00 -0.45593999997E+02  0.45594000000E+02  0.51100000000E-03 0. -1.
    9900012    2    1    2    0    0 -0.19883844609E+02  0.35195396807E+01 -0.35290383401E+02  0.50528860848E+02  0.30000003033E+02 0.  0.
        -12    1    1    2    0    0  0.19883844609E+02 -0.35195396807E+01  0.35290383401E+02  0.40659139152E+02  0.00000000000E+00 0.  1.
         11    1    3    3    0    0  0.92063531661E-01 -0.13019178696E+01 -0.10745908606E+02  0.10824879577E+02  0.51100000000E-03 0. -1.
        -11    1    3    3    0    0 -0.98591974236E+01 -0.86891126379E+01 -0.16245794143E+02  0.20895700033E+02  0.51100000000E-03 0.  1.
        -12    1    3    3    0    0 -0.10116710717E+02  0.13510570188E+02 -0.82986806525E+01  0.18808281238E+02  0.00000000000E+00 0.  1.
</event>
<event>
 7    1  0.5935282E-013  0.5052886E+02  0.7816164E-02  0.1300439E+00
        -11   -1    0    0    0    0  0.00000000000E+00  0.00000000000E+00  0.45593999997E+02  0.45594000000E+02  0.51100000000E-03 0. -1.
         11   -1    0    0    0    0 -0.00000000000E+00 -0.00000000000E+00 -0.45593999997E+02  0.45594000000E+02  0.51100000000E-03 0.  1.
    9900012    2    1    2    0    0 -0.38508844710E+02  0.51777381907E+00  0.13037108685E+02  0.50528863099E+02  0.30000009877E+02 0.  0.
        -12    1    1    2    0    0  0.38508844710E+02 -0.51777381907E+00 -0.13037108685E+02  0.40659136901E+02  0.00000000000E+00 0.  1.
         11    1    3    3    0    0  0.66782150537E+00  0.61703051174E+00  0.91107896782E+00  0.12871586391E+01  0.51100000000E-03 0. -1.
        -11    1    3    3    0    0  0.40782084902E+00 -0.32734410958E+01 -0.50036648238E+01  0.59931958405E+01  0.51100000000E-03 0.  1.
         12    1    3    3    0    0 -0.39584487065E+02  0.31741844032E+01  0.17129694541E+02  0.43248508620E+02  0.00000000000E+00 0. -1.
</event>
<event>
 7    1  0.5935282E-013  0.5052886E+02  0.7816164E-02  0.1300439E+00
        -11   -1    0    0    0    0  0.00000000000E+00  0.00000000000E+00  0.45593999997E+02  0.45594000000E+02  0.51100000000E-03 0.  1.
         11   -1    0    0    0    0 -0.00000000000E+00 -0.00000000000E+00 -0.45593999997E+02  0.45594000000E+02  0.51100000000E-03 0. -1.
    9900012    2    1    2    0    0 -0.24432980794E+02 -0.69052945428E+01 -0.31757079425E+02  0.50528859123E+02  0.29999997792E+02 0.  0.
        -12    1    1    2    0    0  0.24432980794E+02  0.69052945428E+01  0.31757079425E+02  0.40659140877E+02  0.00000000000E+00 0.  1.
         11    1    3    3    0    0 -0.11776331810E+02 -0.75400730763E+01 -0.13953257877E+02  0.19754191923E+02  0.51100000000E-03 0. -1.
        -11    1    3    3    0    0 -0.16569099000E+02 -0.34611886350E+01 -0.18491347603E+02  0.25068801425E+02  0.51100000000E-03 0.  1.
        -12    1    3    3    0    0  0.39124500159E+01  0.40959671684E+01  0.68752605487E+00  0.57058657754E+01  0.00000000000E+00 0.  1.
</event>
<event>
 7    1  0.5935282E-013  0.5052886E+02  0.7816164E-02  0.1300439E+00
        -11   -1    0    0    0    0  0.00000000000E+00  0.00000000000E+00  0.45593999997E+02  0.45594000000E+02  0.51100000000E-03 0.  1.
         11   -1    0    0    0    0 -0.00000000000E+00 -0.00000000000E+00 -0.45593999997E+02  0.45594000000E+02  0.51100000000E-03 0. -1.
    9900012    2    1    2    0    0  0.40263837164E+02 -0.29042807739E+01 -0.48533051226E+01  0.50528855880E+02  0.29999987933E+02 0.  0.
        -12    1    1    2    0    0 -0.40263837164E+02  0.29042807739E+01  0.48533051226E+01  0.40659144120E+02  0.00000000000E+00 0.  1.
         11    1    3    3    0    0  0.49018170487E+01  0.14452339888E+01 -0.35074376854E+01  0.61982764572E+01  0.51100000000E-03 0. -1.
        -11    1    3    3    0    0  0.86999775876E+01 -0.10313198634E+02 -0.86786526488E+01  0.16042776821E+02  0.51100000000E-03 0.  1.
        -12    1    3    3    0    0  0.26662042528E+02  0.59636838709E+01  0.73327852116E+01  0.28287802601E+02  0.00000000000E+00 0.  1.
</event>
<event>
 7    1  0.5935282E-013  0.5052887E+02  0.7816164E-02  0.1300439E+00
        -11   -1    0    0    0    0  0.00000000000E+00  0.00000000000E+00  0.45593999997E+02  0.45594000000E+02  0.51100000000E-03 0.  1.
         11   -1    0    0    0    0 -0.00000000000E+00 -0.00000000000E+00 -0.45593999997E+02  0.45594000000E+02  0.51100000000E-03 0. -1.
    9900012    2    1    2    0    0  0.13865361279E+02  0.85529636530E+01 -0.37252700069E+02  0.50528867040E+02  0.30000021854E+02 0.  0.
        -12    1    1    2    0    0 -0.13865361279E+02 -0.85529636530E+01  0.37252700069E+02  0.40659132960E+02  0.00000000000E+00 0.  1.
         11    1    3    3    0    0  0.72936590789E+00  0.95669389026E+01 -0.30051885489E+01  0.10054325093E+02  0.51100000000E-03 0. -1.
        -11    1    3    3    0    0 -0.33348297974E+01  0.12198273766E+01 -0.17185150788E+01  0.39449160883E+01  0.51100000000E-03 0.  1.
         12    1    3    3    0    0  0.16470825168E+02 -0.22338026262E+01 -0.32528996441E+02  0.36529625859E+02  0.00000000000E+00 0. -1.
</event>
<event>
 7    1  0.5935282E-013  0.5052886E+02  0.7816164E-02  0.1300439E+00
        -11   -1    0    0    0    0  0.00000000000E+00  0.00000000000E+00  0.45593999997E+02  0.45594000000E+02  0.51100000000E-03 0.  1.
         11   -1    0    0    0    0 -0.00000000000E+00 -0.00000000000E+00 -0.45593999997E+02  0.45594000000E+02  0.51100000000E-03 0. -1.
    9900012    2    1    2    0    0 -0.40588490789E+02 -0.23186397479E+01 -0.60311192289E+00  0.50528863034E+02  0.30000009678E+02 0.  0.
        -12    1    1    2    0    0  0.40588490789E+02  0.23186397479E+01  0.60311192289E+00  0.40659136966E+02  0.00000000000E+00 0.  1.
         11    1    3    3    0    0 -0.14092826448E+02  0.34537407243E+01  0.54277887720E+01  0.15491835704E+02  0.51100000000E-03 0. -1.
        -11    1    3    3    0    0 -0.50512926211E+01  0.42264411925E+01 -0.90408099868E+01  0.11185464129E+02  0.51100000000E-03 0.  1.
        -12    1    3    3    0    0 -0.21444371721E+02 -0.99988216647E+01  0.30099092918E+01  0.23851563201E+02  0.00000000000E+00 0.  1.
</event>
<event>
 7    1  0.5935282E-013  0.5052887E+02  0.7816164E-02  0.1300439E+00
        -11   -1    0    0    0    0  0.00000000000E+00  0.00000000000E+00  0.45593999997E+02  0.45594000000E+02  0.51100000000E-03 0.  1.
         11   -1    0    0    0    0 -0.00000000000E+00 -0.00000000000E+00 -0.45593999997E+02  0.45594000000E+02  0.51100000000E-03 0. -1.
    9900012    2    1    2    0    0  0.64158692956E+01 -0.32492973945E+02 -0.23584072490E+02  0.50528865604E+02  0.30000017489E+02 0.  0.
        -12    1    1    2    0    0 -0.64158692956E+01  0.32492973945E+02  0.23584072490E+02  0.40659134396E+02  0.00000000000E+00 0.  1.
         11    1    3    3    0    0  0.44429884069E+01 -0.88405145636E+01  0.38405758246E+00  0.99016334117E+01  0.51100000000E-03 0. -1.
        -11    1    3    3    0    0 -0.66411141241E+01 -0.11136316628E+02 -0.89019271254E+00  0.12996706821E+02  0.51100000000E-03 0.  1.
         12    1    3    3    0    0  0.86139950128E+01 -0.12516142753E+02 -0.23077937360E+02  0.27630525371E+02  0.00000000000E+00 0. -1.
</event>
<event>
 7    1  0.5935282E-013  0.5052886E+02  0.7816164E-02  0.1300439E+00
        -11   -1    0    0    0    0  0.00000000000E+00  0.00000000000E+00  0.45593999997E+02  0.45594000000E+02  0.51100000000E-03 0.  1.
         11   -1    0    0    0    0 -0.00000000000E+00 -0.00000000000E+00 -0.45593999997E+02  0.45594000000E+02  0.51100000000E-03 0. -1.
    9900012    2    1    2    0    0  0.75100726875E+01 -0.39954943334E+02  0.60602530341E+00  0.50528856437E+02  0.29999989626E+02 0.  0.
        -12    1    1    2    0    0 -0.75100726875E+01  0.39954943334E+02 -0.60602530341E+00  0.40659143563E+02  0.00000000000E+00 0.  1.
         11    1    3    3    0    0  0.69762535961E+01 -0.13893009761E+02  0.44813592739E+00  0.15552641593E+02  0.51100000000E-03 0. -1.
        -11    1    3    3    0    0  0.10422478323E+02 -0.12079365266E+02  0.57524339831E+01  0.16959646712E+02  0.51100000000E-03 0.  1.
         12    1    3    3    0    0 -0.98886592315E+01 -0.13982568307E+02 -0.55945446071E+01  0.18016568131E+02  0.00000000000E+00 0. -1.
</event>
<event>
 7    1  0.5935282E-013  0.5052887E+02  0.7816164E-02  0.1300439E+00
        -11   -1    0    0    0    0  0.00000000000E+00  0.00000000000E+00  0.45593999997E+02  0.45594000000E+02  0.51100000000E-03 0.  1.
         11   -1    0    0    0    0 -0.00000000000E+00 -0.00000000000E+00 -0.45593999997E+02  0.45594000000E+02  0.51100000000E-03 0. -1.
    9900012    2    1    2    0    0  0.17149378657E+02  0.37458397358E+01 -0.36674686939E+02  0.50528866146E+02  0.30000019138E+02 0.  0.
        -12    1    1    2    0    0 -0.17149378657E+02 -0.37458397358E+01  0.36674686939E+02  0.40659133854E+02  0.00000000000E+00 0.  1.
         11    1    3    3    0    0  0.57071694030E+01  0.33687808238E+01 -0.15046873337E+02  0.16441680703E+02  0.51100000000E-03 0. -1.
        -11    1    3    3    0    0  0.18211671792E+02  0.40267945435E+01 -0.15010488968E+02  0.23941487905E+02  0.51100000000E-03 0.  1.
        -12    1    3    3    0    0 -0.67694625385E+01 -0.36497356315E+01 -0.66173246340E+01  0.10145697539E+02  0.00000000000E+00 0.  1.
</event>
<event>
 7    1  0.5935282E-013  0.5052886E+02  0.7816164E-02  0.1300439E+00
        -11   -1    0    0    0    0  0.00000000000E+00  0.00000000000E+00  0.45593999997E+02  0.45594000000E+02  0.51100000000E-03 0.  1.
         11   -1    0    0    0    0 -0.00000000000E+00 -0.00000000000E+00 -0.45593999997E+02  0.45594000000E+02  0.51100000000E-03 0. -1.
    9900012    2    1    2    0    0 -0.11175887811E+02  0.10232461839E+02 -0.37730124591E+02  0.50528855330E+02  0.29999986260E+02 0.  0.
        -12    1    1    2    0    0  0.11175887811E+02 -0.10232461839E+02  0.37730124591E+02  0.40659144670E+02  0.00000000000E+00 0.  1.
         11    1    3    3    0    0 -0.11328571031E+02 -0.60575000530E+01 -0.88845557401E+01  0.15619384093E+02  0.51100000000E-03 0. -1.
        -11    1    3    3    0    0 -0.50326645991E+01  0.87864098839E+01 -0.11578678674E+02  0.15381629033E+02  0.51100000000E-03 0.  1.
        -12    1    3    3    0    0  0.51853478186E+01  0.75035520080E+01 -0.17266890177E+02  0.19527842204E+02  0.00000000000E+00 0.  1.
</event>
<event>
 7    1  0.5935282E-013  0.5052886E+02  0.7816164E-02  0.1300439E+00
        -11   -1    0    0    0    0  0.00000000000E+00  0.00000000000E+00  0.45593999997E+02  0.45594000000E+02  0.51100000000E-03 0.  1.
         11   -1    0    0    0    0 -0.00000000000E+00 -0.00000000000E+00 -0.45593999997E+02  0.45594000000E+02  0.51100000000E-03 0. -1.
    9900012    2    1    2    0    0  0.38919618562E+02  0.35469709391E+01 -0.11218204576E+02  0.50528858030E+02  0.29999994468E+02 0.  0.
        -12    1    1    2    0    0 -0.38919618562E+02 -0.35469709391E+01  0.11218204576E+02  0.40659141970E+02  0.00000000000E+00 0.  1.
         11    1    3    3    0    0  0.27929196911E+02  0.94116065522E+01 -0.13724523433E+02  0.32511243004E+02  0.51100000000E-03 0. -1.
        -11    1    3    3    0    0  0.69551123106E+00  0.17854097227E+01 -0.33955099800E+01  0.38988347023E+01  0.51100000000E-03 0.  1.
         12    1    3    3    0    0  0.10294910420E+02 -0.76500453358E+01  0.59018288369E+01  0.14118780323E+02  0.00000000000E+00 0. -1.
</event>
<event>
 7    1  0.5935282E-013  0.5052886E+02  0.7816164E-02  0.1300439E+00
        -11   -1    0    0    0    0  0.00000000000E+00  0.00000000000E+00  0.45593999997E+02  0.45594000000E+02  0.51100000000E-03 0. -1.
         11   -1    0    0    0    0 -0.00000000000E+00 -0.00000000000E+00 -0.45593999997E+02  0.45594000000E+02  0.51100000000E-03 0.  1.
    9900012    2    1    2    0    0 -0.15501037610E+02  0.15033854667E+02  0.34450934745E+02  0.50528857634E+02  0.29999993264E+02 0.  0.
        -12    1    1    2    0    0  0.15501037610E+02 -0.15033854667E+02 -0.34450934745E+02  0.40659142366E+02  0.00000000000E+00 0.  1.
         11    1    3    3    0    0 -0.16586735000E+01  0.94577690910E+01  0.16423882726E+02  0.19024839500E+02  0.51100000000E-03 0.  1.
        -11    1    3    3    0    0 -0.33117993970E+01 -0.74631393165E+01  0.10030678685E+02  0.12933714812E+02  0.51100000000E-03 0. -1.
        -12    1    3    3    0    0 -0.10530564713E+02  0.13039224892E+02  0.79963733350E+01  0.18570303322E+02  0.00000000000E+00 0.  1.
</event>
<event>
 7    1  0.5935282E-013  0.5052886E+02  0.7816164E-02  0.1300439E+00
        -11   -1    0    0    0    0  0.00000000000E+00  0.00000000000E+00  0.45593999997E+02  0.45594000000E+02  0.51100000000E-03 0. -1.
         11   -1    0    0    0    0 -0.00000000000E+00 -0.00000000000E+00 -0.45593999997E+02  0.45594000000E+02  0.51100000000E-03 0.  1.
    9900012    2    1    2    0    0 -0.30266130383E+02  0.25166862269E+02  0.10186078870E+02  0.50528858253E+02  0.29999995147E+02 0.  0.
        -12    1    1    2    0    0  0.30266130383E+02 -0.25166862269E+02 -0.10186078870E+02  0.40659141747E+02  0.00000000000E+00 0.  1.
         11    1    3    3    0    0 -0.45995135194E+01 -0.23411123389E+01  0.56106156668E+00  0.51914469988E+01  0.51100000000E-03 0. -1.
        -11    1    3    3    0    0 -0.56208853020E+01 -0.18194948279E+01 -0.41676268955E+01  0.72300779531E+01  0.51100000000E-03 0.  1.
         12    1    3    3    0    0 -0.20045731561E+02  0.29327469436E+02  0.13792644199E+02  0.38107333301E+02  0.00000000000E+00 0. -1.
</event>
<event>
 7    1  0.5935282E-013  0.5052886E+02  0.7816164E-02  0.1300439E+00
        -11   -1    0    0    0    0  0.00000000000E+00  0.00000000000E+00  0.45593999997E+02  0.45594000000E+02  0.51100000000E-03 0. -1.
         11   -1    0    0    0    0 -0.00000000000E+00 -0.00000000000E+00 -0.45593999997E+02  0.45594000000E+02  0.51100000000E-03 0.  1.
    9900012    2    1    2    0    0 -0.59004342818E+01 -0.25660844556E+02  0.30981791500E+02  0.50528862373E+02  0.30000007669E+02 0.  0.
        -12    1    1    2    0    0  0.59004342818E+01  0.25660844556E+02 -0.30981791500E+02  0.40659137627E+02  0.00000000000E+00 0.  1.
         11    1    3    3    0    0 -0.67465833445E+01 -0.25929411511E+02  0.30539220975E+02  0.40626281963E+02  0.51100000000E-03 0. -1.
        -11    1    3    3    0    0  0.47193792737E+01  0.16494389226E+01  0.21604201323E+01  0.54461550564E+01  0.51100000000E-03 0.  1.
        -12    1    3    3    0    0 -0.38732302111E+01 -0.13808719680E+01 -0.17178496072E+01  0.44564253537E+01  0.00000000000E+00 0.  1.
</event>
<event>
 7    1  0.5935282E-013  0.5052886E+02  0.7816164E-02  0.1300439E+00
        -11   -1    0    0    0    0  0.00000000000E+00  0.00000000000E+00  0.45593999997E+02  0.45594000000E+02  0.51100000000E-03 0.  1.
         11   -1    0    0    0    0 -0.00000000000E+00 -0.00000000000E+00 -0.45593999997E+02  0.45594000000E+02  0.51100000000E-03 0. -1.
    9900012    2    1    2    0    0  0.13186634991E+02 -0.20869413124E+02 -0.32307050827E+02  0.50528864745E+02  0.30000014879E+02 0.  0.
        -12    1    1    2    0    0 -0.13186634991E+02  0.20869413124E+02  0.32307050827E+02  0.40659135255E+02  0.00000000000E+00 0.  1.
         11    1    3    3    0    0  0.57642574348E+01 -0.95928249080E+01 -0.44845321297E+01  0.12056532759E+02  0.51100000000E-03 0. -1.
        -11    1    3    3    0    0 -0.18538102422E+01 -0.98848261672E+01 -0.10591088442E+01  0.10112769778E+02  0.51100000000E-03 0.  1.
        -12    1    3    3    0    0  0.92761877983E+01 -0.13917620491E+01 -0.26763409853E+02  0.28359562208E+02  0.00000000000E+00 0.  1.
</event>
<event>
 7    1  0.5935282E-013  0.5052886E+02  0.7816164E-02  0.1300439E+00
        -11   -1    0    0    0    0  0.00000000000E+00  0.00000000000E+00  0.45593999997E+02  0.45594000000E+02  0.51100000000E-03 0.  1.
         11   -1    0    0    0    0 -0.00000000000E+00 -0.00000000000E+00 -0.45593999997E+02  0.45594000000E+02  0.51100000000E-03 0. -1.
    9900012    2    1    2    0    0  0.96942182990E+01  0.34789370096E+02 -0.18678540640E+02  0.50528855634E+02  0.29999987186E+02 0.  0.
        -12    1    1    2    0    0 -0.96942182990E+01 -0.34789370096E+02  0.18678540640E+02  0.40659144366E+02  0.00000000000E+00 0.  1.
         11    1    3    3    0    0  0.11626689430E+02  0.13446906350E+02  0.26898049026E+01  0.17978716532E+02  0.51100000000E-03 0. -1.
        -11    1    3    3    0    0  0.71194046529E+00 -0.13839543033E+01 -0.66007026126E+00  0.16905270629E+01  0.51100000000E-03 0.  1.
         12    1    3    3    0    0 -0.26444115963E+01  0.22726418050E+02 -0.20708275281E+02  0.30859612039E+02  0.00000000000E+00 0. -1.
</event>
<event>
 7    1  0.5935282E-013  0.5052887E+02  0.7816164E-02  0.1300439E+00
        -11   -1    0    0    0    0  0.00000000000E+00  0.00000000000E+00  0.45593999997E+02  0.45594000000E+02  0.51100000000E-03 0.  1.
         11   -1    0    0    0    0 -0.00000000000E+00 -0.00000000000E+00 -0.45593999997E+02  0.45594000000E+02  0.51100000000E-03 0. -1.
    9900012    2    1    2    0    0 -0.13558124122E+02 -0.37343080906E+02 -0.86508247926E+01  0.50528865838E+02  0.30000018201E+02 0.  0.
        -12    1    1    2    0    0  0.13558124122E+02  0.37343080906E+02  0.86508247926E+01  0.40659134162E+02  0.00000000000E+00 0.  1.
         11    1    3    3    0    0 -0.71305749294E+01 -0.48698360682E+01 -0.50190846360E+00  0.86494112240E+01  0.51100000000E-03 0. -1.
        -11    1    3    3    0    0 -0.42770686285E+01 -0.42462825763E+01  0.74300070654E+01  0.95670913565E+01  0.51100000000E-03 0.  1.
         12    1    3    3    0    0 -0.21504805637E+01 -0.28226962261E+02 -0.15578923394E+02  0.32312363257E+02  0.00000000000E+00 0. -1.
</event>
<event>
 7    1  0.5935282E-013  0.5052886E+02  0.7816164E-02  0.1300439E+00
        -11   -1    0    0    0    0  0.00000000000E+00  0.00000000000E+00  0.45593999997E+02  0.45594000000E+02  0.51100000000E-03 0.  1.
         11   -1    0    0    0    0 -0.00000000000E+00 -0.00000000000E+00 -0.45593999997E+02  0.45594000000E+02  0.51100000000E-03 0. -1.
    9900012    2    1    2    0    0  0.33834755109E+02  0.18244289360E+02 -0.13248432123E+02  0.50528859561E+02  0.29999999121E+02 0.  0.
        -12    1    1    2    0    0 -0.33834755109E+02 -0.18244289360E+02  0.13248432123E+02  0.40659140439E+02  0.00000000000E+00 0.  1.
         11    1    3    3    0    0  0.61551406169E+01 -0.33207992882E+01 -0.17258832836E+01  0.72036197357E+01  0.51100000000E-03 0. -1.
        -11    1    3    3    0    0  0.40788620839E+01  0.15007726176E+02  0.14281405201E+01  0.15617571722E+02  0.51100000000E-03 0.  1.
         12    1    3    3    0    0  0.23600752408E+02  0.65573624720E+01 -0.12950689360E+02  0.27707668103E+02  0.00000000000E+00 0. -1.
</event>
<event>
 7    1  0.5935282E-013  0.5052886E+02  0.7816164E-02  0.1300439E+00
        -11   -1    0    0    0    0  0.00000000000E+00  0.00000000000E+00  0.45593999997E+02  0.45594000000E+02  0.51100000000E-03 0.  1.
         11   -1    0    0    0    0 -0.00000000000E+00 -0.00000000000E+00 -0.45593999997E+02  0.45594000000E+02  0.51100000000E-03 0. -1.
    9900012    2    1    2    0    0  0.77996330949E+01  0.39028894212E+02  0.83112673995E+01  0.50528855572E+02  0.29999986996E+02 0.  0.
        -12    1    1    2    0    0 -0.77996330949E+01 -0.39028894212E+02 -0.83112673995E+01  0.40659144428E+02  0.00000000000E+00 0.  1.
         11    1    3    3    0    0 -0.59758567349E+01  0.40104181972E+01 -0.13310446590E+01  0.73188795575E+01  0.51100000000E-03 0. -1.
        -11    1    3    3    0    0 -0.26673551549E+01  0.18618479128E+01  0.49227689747E+01  0.59004165795E+01  0.51100000000E-03 0.  1.
         12    1    3    3    0    0  0.16442844985E+02  0.33156628102E+02  0.47195430838E+01  0.37309559435E+02  0.00000000000E+00 0. -1.
</event>
<event>
 7    1  0.5935282E-013  0.5052886E+02  0.7816164E-02  0.1300439E+00
        -11   -1    0    0    0    0  0.00000000000E+00  0.00000000000E+00  0.45593999997E+02  0.45594000000E+02  0.51100000000E-03 0.  1.
         11   -1    0    0    0    0 -0.00000000000E+00 -0.00000000000E+00 -0.45593999997E+02  0.45594000000E+02  0.51100000000E-03 0. -1.
    9900012    2    1    2    0    0 -0.37855539511E+00 -0.38139384234E+02  0.14085806813E+02  0.50528857271E+02  0.29999992160E+02 0.  0.
        -12    1    1    2    0    0  0.37855539511E+00  0.38139384234E+02 -0.14085806813E+02  0.40659142729E+02  0.00000000000E+00 0.  1.
         11    1    3    3    0    0  0.39595077093E+01 -0.65463411270E+01  0.67940958021E+01  0.10231911917E+02  0.51100000000E-03 0. -1.
        -11    1    3    3    0    0  0.50137219094E+01 -0.24644612629E+02 -0.22331229145E+01  0.25248389597E+02  0.51100000000E-03 0.  1.
         12    1    3    3    0    0 -0.93517850138E+01 -0.69484304776E+01  0.95248339255E+01  0.15048555756E+02  0.00000000000E+00 0. -1.
</event>
<event>
 7    1  0.5935282E-013  0.5052886E+02  0.7816164E-02  0.1300439E+00
        -11   -1    0    0    0    0  0.00000000000E+00  0.00000000000E+00  0.45593999997E+02  0.45594000000E+02  0.51100000000E-03 0. -1.
         11   -1    0    0    0    0 -0.00000000000E+00 -0.00000000000E+00 -0.45593999997E+02  0.45594000000E+02  0.51100000000E-03 0.  1.
    9900012    2    1    2    0    0 -0.14703816010E+02  0.14923215139E+02  0.34846245041E+02  0.50528863895E+02  0.30000012296E+02 0.  0.
        -12    1    1    2    0    0  0.14703816010E+02 -0.14923215139E+02 -0.34846245041E+02  0.40659136105E+02  0.00000000000E+00 0.  1.
         11    1    3    3    0    0  0.35868949495E+00  0.84291632752E+01  0.11836459929E+02  0.14535516351E+02  0.51100000000E-03 0. -1.
        -11    1    3    3    0    0  0.21816838695E+01 -0.59970677778E+01  0.50682521837E+01  0.81493402737E+01  0.51100000000E-03 0.  1.
         12    1    3    3    0    0 -0.17244189374E+02  0.12491119641E+02  0.17941532928E+02  0.27844007271E+02  0.00000000000E+00 0. -1.
</event>
<event>
 7    1  0.5935282E-013  0.5052886E+02  0.7816164E-02  0.1300439E+00
        -11   -1    0    0    0    0  0.00000000000E+00  0.00000000000E+00  0.45593999997E+02  0.45594000000E+02  0.51100000000E-03 0. -1.
         11   -1    0    0    0    0 -0.00000000000E+00 -0.00000000000E+00 -0.45593999997E+02  0.45594000000E+02  0.51100000000E-03 0.  1.
    9900012    2    1    2    0    0  0.17504956454E+02  0.12537150163E+02  0.34490028280E+02  0.50528859755E+02  0.29999999712E+02 0.  0.
        -12    1    1    2    0    0 -0.17504956454E+02 -0.12537150163E+02 -0.34490028280E+02  0.40659140245E+02  0.00000000000E+00 0.  1.
         11    1    3    3    0    0  0.97458508044E+01 -0.91135948720E+01  0.11034974028E+02  0.17315018668E+02  0.51100000000E-03 0.  1.
        -11    1    3    3    0    0  0.60734830117E+01  0.10458381637E+02  0.10554885155E+02  0.16052119587E+02  0.51100000000E-03 0. -1.
        -12    1    3    3    0    0  0.16856226381E+01  0.11192363398E+02  0.12900169097E+02  0.17161721500E+02  0.00000000000E+00 0.  1.
</event>
<event>
 7    1  0.5935282E-013  0.5052885E+02  0.7816164E-02  0.1300439E+00
        -11   -1    0    0    0    0  0.00000000000E+00  0.00000000000E+00  0.45593999997E+02  0.45594000000E+02  0.51100000000E-03 0.  1.
         11   -1    0    0    0    0 -0.00000000000E+00 -0.00000000000E+00 -0.45593999997E+02  0.45594000000E+02  0.51100000000E-03 0. -1.
    9900012    2    1    2    0    0  0.65082435602E+01 -0.11391616993E+02 -0.38484284598E+02  0.50528851792E+02  0.29999975508E+02 0.  0.
        -12    1    1    2    0    0 -0.65082435602E+01  0.11391616993E+02  0.38484284598E+02  0.40659148208E+02  0.00000000000E+00 0.  1.
         11    1    3    3    0    0  0.92841611985E+01 -0.28365990842E+01 -0.29543572495E+02  0.31097662606E+02  0.51100000000E-03 0. -1.
        -11    1    3    3    0    0  0.32772583522E+01 -0.36521031119E+01 -0.10405954179E+02  0.11504875579E+02  0.51100000000E-03 0.  1.
        -12    1    3    3    0    0 -0.60531759905E+01 -0.49029147968E+01  0.14652420755E+01  0.79263136082E+01  0.00000000000E+00 0.  1.
</event>
<event>
 7    1  0.5935282E-013  0.5052886E+02  0.7816164E-02  0.1300439E+00
        -11   -1    0    0    0    0  0.00000000000E+00  0.00000000000E+00  0.45593999997E+02  0.45594000000E+02  0.51100000000E-03 0.  1.
         11   -1    0    0    0    0 -0.00000000000E+00 -0.00000000000E+00 -0.45593999997E+02  0.45594000000E+02  0.51100000000E-03 0. -1.
    9900012    2    1    2    0    0 -0.97425901084E+01  0.36587631807E+02 -0.14818668076E+02  0.50528858509E+02  0.29999995924E+02 0.  0.
        -12    1    1    2    0    0  0.97425901084E+01 -0.36587631807E+02  0.14818668076E+02  0.40659141491E+02  0.00000000000E+00 0.  1.
         11    1    3    3    0    0  0.15221638520E+01  0.15938732298E+02 -0.48410265853E+01  0.16727095048E+02  0.51100000000E-03 0. -1.
        -11    1    3    3    0    0 -0.10644410206E+02  0.12988418475E+02  0.45220506738E+01  0.17391130661E+02  0.51100000000E-03 0.  1.
         12    1    3    3    0    0 -0.62034375447E+00  0.76604810333E+01 -0.14499692165E+02  0.16410632800E+02  0.00000000000E+00 0. -1.
</event>
<event>
 7    1  0.5935282E-013  0.5052894E+02  0.7816164E-02  0.1300439E+00
        -11   -1    0    0    0    0  0.00000000000E+00  0.00000000000E+00  0.45593999997E+02  0.45594000000E+02  0.51100000000E-03 0.  1.
         11   -1    0    0    0    0 -0.00000000000E+00 -0.00000000000E+00 -0.45593999997E+02  0.45594000000E+02  0.51100000000E-03 0. -1.
    9900012    2    1    2    0    0 -0.14038890148E+01 -0.52605975142E+01 -0.40292855902E+02  0.50528941633E+02  0.30000248587E+02 0.  0.
        -12    1    1    2    0    0  0.14038890148E+01  0.52605975142E+01  0.40292855902E+02  0.40659058367E+02  0.00000000000E+00 0.  1.
         11    1    3    3    0    0 -0.68413232320E+01 -0.26639379562E+01 -0.38448693357E+01  0.82875382032E+01  0.51100000000E-03 0. -1.
        -11    1    3    3    0    0 -0.20770706465E+01 -0.20841682210E+01  0.16720854154E+01  0.33843536372E+01  0.51100000000E-03 0.  1.
        -12    1    3    3    0    0  0.75145048637E+01 -0.51249133709E+00 -0.38120071981E+02  0.38857049793E+02  0.00000000000E+00 0.  1.
</event>
<event>
 7    1  0.5935282E-013  0.5052885E+02  0.7816164E-02  0.1300439E+00
        -11   -1    0    0    0    0  0.00000000000E+00  0.00000000000E+00  0.45593999997E+02  0.45594000000E+02  0.51100000000E-03 0.  1.
         11   -1    0    0    0    0 -0.00000000000E+00 -0.00000000000E+00 -0.45593999997E+02  0.45594000000E+02  0.51100000000E-03 0. -1.
    9900012    2    1    2    0    0 -0.22618612521E+02  0.28006715295E+02 -0.18899433313E+02  0.50528852031E+02  0.29999976234E+02 0.  0.
        -12    1    1    2    0    0  0.22618612521E+02 -0.28006715295E+02  0.18899433313E+02  0.40659147969E+02  0.00000000000E+00 0.  1.
         11    1    3    3    0    0 -0.70423458251E+01  0.25433961614E+02 -0.13234078375E+02  0.29523242857E+02  0.51100000000E-03 0. -1.
        -11    1    3    3    0    0 -0.63640851810E+01  0.58479762043E+01 -0.70205982921E+01  0.11135044073E+02  0.51100000000E-03 0.  1.
        -12    1    3    3    0    0 -0.92121815152E+01 -0.32752225238E+01  0.13552433540E+01  0.98705651002E+01  0.00000000000E+00 0.  1.
</event>
<event>
 7    1  0.5935282E-013  0.5052886E+02  0.7816164E-02  0.1300439E+00
        -11   -1    0    0    0    0  0.00000000000E+00  0.00000000000E+00  0.45593999997E+02  0.45594000000E+02  0.51100000000E-03 0. -1.
         11   -1    0    0    0    0 -0.00000000000E+00 -0.00000000000E+00 -0.45593999997E+02  0.45594000000E+02  0.51100000000E-03 0.  1.
    9900012    2    1    2    0    0 -0.51492654817E+01 -0.34085264835E+02  0.21560276594E+02  0.50528859076E+02  0.29999997647E+02 0.  0.
        -12    1    1    2    0    0  0.51492654817E+01  0.34085264835E+02 -0.21560276594E+02  0.40659140924E+02  0.00000000000E+00 0.  1.
         11    1    3    3    0    0 -0.64386144493E+01 -0.16193404954E+02  0.57526321033E+01  0.18351427639E+02  0.51100000000E-03 0. -1.
        -11    1    3    3    0    0 -0.36832713403E+01 -0.14848213960E+02 -0.32665326226E-01  0.15298268296E+02  0.51100000000E-03 0.  1.
        -12    1    3    3    0    0  0.49726203079E+01 -0.30436459209E+01  0.15840309817E+02  0.16879163140E+02  0.00000000000E+00 0.  1.
</event>
<event>
 7    1  0.5935282E-013  0.5052885E+02  0.7816164E-02  0.1300439E+00
        -11   -1    0    0    0    0  0.00000000000E+00  0.00000000000E+00  0.45593999997E+02  0.45594000000E+02  0.51100000000E-03 0.  1.
         11   -1    0    0    0    0 -0.00000000000E+00 -0.00000000000E+00 -0.45593999997E+02  0.45594000000E+02  0.51100000000E-03 0. -1.
    9900012    2    1    2    0    0 -0.21561937967E+01  0.58880432086E+01 -0.40172725541E+02  0.50528854634E+02  0.29999984145E+02 0.  0.
        -12    1    1    2    0    0  0.21561937967E+01 -0.58880432086E+01  0.40172725541E+02  0.40659145366E+02  0.00000000000E+00 0.  1.
         11    1    3    3    0    0 -0.32649139058E+01 -0.67900575530E+00 -0.20083509995E+01  0.38928377344E+01  0.51100000000E-03 0.  1.
        -11    1    3    3    0    0 -0.93177415918E+01  0.11677851108E+02 -0.18266188940E+02  0.23597588299E+02  0.51100000000E-03 0. -1.
         12    1    3    3    0    0  0.10426461701E+02 -0.51108021443E+01 -0.19898185601E+02  0.23038428600E+02  0.00000000000E+00 0. -1.
</event>
<event>
 7    1  0.5935282E-013  0.5052886E+02  0.7816164E-02  0.1300439E+00
        -11   -1    0    0    0    0  0.00000000000E+00  0.00000000000E+00  0.45593999997E+02  0.45594000000E+02  0.51100000000E-03 0.  1.
         11   -1    0    0    0    0 -0.00000000000E+00 -0.00000000000E+00 -0.45593999997E+02  0.45594000000E+02  0.51100000000E-03 0. -1.
    9900012    2    1    2    0    0 -0.23173150248E+02 -0.10883244976E+01 -0.33391409140E+02  0.50528861457E+02  0.30000004886E+02 0.  0.
        -12    1    1    2    0    0  0.23173150248E+02  0.10883244976E+01  0.33391409140E+02  0.40659138543E+02  0.00000000000E+00 0.  1.
         11    1    3    3    0    0 -0.64485298463E+01  0.78192337160E+01 -0.54060197047E+01  0.11486905693E+02  0.51100000000E-03 0. -1.
        -11    1    3    3    0    0 -0.21098139093E+02 -0.63311120045E+01 -0.24096828876E+02  0.32647689268E+02  0.51100000000E-03 0.  1.
         12    1    3    3    0    0  0.43735186908E+01 -0.25764462091E+01 -0.38885605598E+01  0.63942664970E+01  0.00000000000E+00 0. -1.
</event>
<event>
 7    1  0.5935282E-013  0.5052886E+02  0.7816164E-02  0.1300439E+00
        -11   -1    0    0    0    0  0.00000000000E+00  0.00000000000E+00  0.45593999997E+02  0.45594000000E+02  0.51100000000E-03 0. -1.
         11   -1    0    0    0    0 -0.00000000000E+00 -0.00000000000E+00 -0.45593999997E+02  0.45594000000E+02  0.51100000000E-03 0.  1.
    9900012    2    1    2    0    0 -0.10447318126E+02 -0.56783480799E+01  0.38881560303E+02  0.50528858045E+02  0.29999994513E+02 0.  0.
        -12    1    1    2    0    0  0.10447318126E+02  0.56783480799E+01 -0.38881560303E+02  0.40659141955E+02  0.00000000000E+00 0.  1.
         11    1    3    3    0    0  0.48514981583E+01  0.75078187634E+01  0.15794889797E+02  0.18148909635E+02  0.51100000000E-03 0. -1.
        -11    1    3    3    0    0 -0.17340389208E+01 -0.79528077694E+01  0.75653482623E+01  0.11112539628E+02  0.51100000000E-03 0.  1.
        -12    1    3    3    0    0 -0.13564777363E+02 -0.52333590740E+01  0.15521322244E+02  0.21267408782E+02  0.00000000000E+00 0.  1.
</event>
<event>
 7    1  0.5935282E-013  0.5052886E+02  0.7816164E-02  0.1300439E+00
        -11   -1    0    0    0    0  0.00000000000E+00  0.00000000000E+00  0.45593999997E+02  0.45594000000E+02  0.51100000000E-03 0.  1.
         11   -1    0    0    0    0 -0.00000000000E+00 -0.00000000000E+00 -0.45593999997E+02  0.45594000000E+02  0.51100000000E-03 0. -1.
    9900012    2    1    2    0    0  0.13899404867E+02  0.32355083904E+02 -0.20325372001E+02  0.50528860104E+02  0.30000000773E+02 0.  0.
        -12    1    1    2    0    0 -0.13899404867E+02 -0.32355083904E+02  0.20325372001E+02  0.40659139896E+02  0.00000000000E+00 0.  1.
         11    1    3    3    0    0  0.98912988707E+01  0.22299992814E+01  0.15900554479E+01  0.10263477322E+02  0.51100000000E-03 0. -1.
        -11    1    3    3    0    0  0.31558058127E+01  0.60873809064E+01  0.11358758910E+01  0.69502180490E+01  0.51100000000E-03 0.  1.
         12    1    3    3    0    0  0.85230018357E+00  0.24037703716E+02 -0.23051303340E+02  0.33315164733E+02  0.00000000000E+00 0. -1.
</event>
<event>
 7    1  0.5935282E-013  0.5052886E+02  0.7816164E-02  0.1300439E+00
        -11   -1    0    0    0    0  0.00000000000E+00  0.00000000000E+00  0.45593999997E+02  0.45594000000E+02  0.51100000000E-03 0.  1.
         11   -1    0    0    0    0 -0.00000000000E+00 -0.00000000000E+00 -0.45593999997E+02  0.45594000000E+02  0.51100000000E-03 0. -1.
    9900012    2    1    2    0    0 -0.32711948962E+02  0.24081383579E+02 -0.17836515507E+01  0.50528855238E+02  0.29999985981E+02 0.  0.
        -12    1    1    2    0    0  0.32711948962E+02 -0.24081383579E+02  0.17836515507E+01  0.40659144762E+02  0.00000000000E+00 0.  1.
         11    1    3    3    0    0 -0.26859736107E+02  0.18105132268E+02  0.28327868762E+01  0.32515625781E+02  0.51100000000E-03 0. -1.
        -11    1    3    3    0    0 -0.52746160357E+01  0.57305845437E+01  0.44198044945E+01  0.89552133178E+01  0.51100000000E-03 0.  1.
        -12    1    3    3    0    0 -0.57759681915E+00  0.24566676674E+00 -0.90362429213E+01  0.90580161392E+01  0.00000000000E+00 0.  1.
</event>
<event>
 7    1  0.5935282E-013  0.5052886E+02  0.7816164E-02  0.1300439E+00
        -11   -1    0    0    0    0  0.00000000000E+00  0.00000000000E+00  0.45593999997E+02  0.45594000000E+02  0.51100000000E-03 0. -1.
         11   -1    0    0    0    0 -0.00000000000E+00 -0.00000000000E+00 -0.45593999997E+02  0.45594000000E+02  0.51100000000E-03 0.  1.
    9900012    2    1    2    0    0 -0.21603986239E+02  0.31255353040E+02 -0.14475383575E+02  0.50528855337E+02  0.29999986284E+02 0.  0.
        -12    1    1    2    0    0  0.21603986239E+02 -0.31255353040E+02  0.14475383575E+02  0.40659144663E+02  0.00000000000E+00 0.  1.
         11    1    3    3    0    0  0.24726626685E+01  0.47613211709E+00  0.48021889981E-01  0.25185449824E+01  0.51100000000E-03 0.  1.
        -11    1    3    3    0    0 -0.64409044166E+01 -0.12070482995E+01 -0.89027896299E+01  0.11054495862E+02  0.51100000000E-03 0. -1.
         12    1    3    3    0    0 -0.17635744490E+02  0.31986269222E+02 -0.56206158354E+01  0.36955814493E+02  0.00000000000E+00 0. -1.
</event>
<event>
 7    1  0.5935282E-013  0.5052887E+02  0.7816164E-02  0.1300439E+00
        -11   -1    0    0    0    0  0.00000000000E+00  0.00000000000E+00  0.45593999997E+02  0.45594000000E+02  0.51100000000E-03 0.  1.
         11   -1    0    0    0    0 -0.00000000000E+00 -0.00000000000E+00 -0.45593999997E+02  0.45594000000E+02  0.51100000000E-03 0. -1.
    9900012    2    1    2    0    0  0.29477801572E+02  0.10636292329E+02 -0.25905472466E+02  0.50528868139E+02  0.30000025194E+02 0.  0.
        -12    1    1    2    0    0 -0.29477801572E+02 -0.10636292329E+02  0.25905472466E+02  0.40659131861E+02  0.00000000000E+00 0.  1.
         11    1    3    3    0    0  0.10688162902E+02 -0.36665682709E+01 -0.37736735455E+01  0.11913066834E+02  0.51100000000E-03 0. -1.
        -11    1    3    3    0    0  0.12746443024E+01 -0.50746462430E+01 -0.57942983483E+01  0.78070894832E+01  0.51100000000E-03 0.  1.
        -12    1    3    3    0    0  0.17514994368E+02  0.19377506843E+02 -0.16337500572E+02  0.30808711821E+02  0.00000000000E+00 0.  1.
</event>
<event>
 7    1  0.5935282E-013  0.5052883E+02  0.7816164E-02  0.1300439E+00
        -11   -1    0    0    0    0  0.00000000000E+00  0.00000000000E+00  0.45593999997E+02  0.45594000000E+02  0.51100000000E-03 0. -1.
         11   -1    0    0    0    0 -0.00000000000E+00 -0.00000000000E+00 -0.45593999997E+02  0.45594000000E+02  0.51100000000E-03 0.  1.
    9900012    2    1    2    0    0  0.21303571259E+02 -0.86085730153E+01 -0.33544275393E+02  0.50528830193E+02  0.29999909856E+02 0.  0.
        -12    1    1    2    0    0 -0.21303571259E+02  0.86085730153E+01  0.33544275393E+02  0.40659169807E+02  0.00000000000E+00 0.  1.
         11    1    3    3    0    0  0.19727084641E+02 -0.10761674999E+02 -0.16231434137E+02  0.27720587505E+02  0.51100000000E-03 0.  1.
        -11    1    3    3    0    0  0.74834248836E+01  0.87309257830E+00 -0.48587116408E+01  0.89649884388E+01  0.51100000000E-03 0. -1.
        -12    1    3    3    0    0 -0.59069382657E+01  0.12800094056E+01 -0.12454129615E+02  0.13843254250E+02  0.00000000000E+00 0.  1.
</event>
<event>
 7    1  0.5935282E-013  0.5052884E+02  0.7816164E-02  0.1300439E+00
        -11   -1    0    0    0    0  0.00000000000E+00  0.00000000000E+00  0.45593999997E+02  0.45594000000E+02  0.51100000000E-03 0. -1.
         11   -1    0    0    0    0 -0.00000000000E+00 -0.00000000000E+00 -0.45593999997E+02  0.45594000000E+02  0.51100000000E-03 0.  1.
    9900012    2    1    2    0    0 -0.23908182427E+02 -0.65124568448E+01  0.32235914657E+02  0.50528837749E+02  0.29999932823E+02 0.  0.
        -12    1    1    2    0    0  0.23908182427E+02  0.65124568448E+01 -0.32235914657E+02  0.40659162251E+02  0.00000000000E+00 0.  1.
         11    1    3    3    0    0 -0.25242741577E+01 -0.60861253121E+00  0.64335151652E+01  0.69377580586E+01  0.51100000000E-03 0. -1.
        -11    1    3    3    0    0 -0.18283038706E+02 -0.15898695548E+02  0.21057824650E+02  0.32100934623E+02  0.51100000000E-03 0.  1.
         12    1    3    3    0    0 -0.31008695635E+01  0.99948512342E+01  0.47445748422E+01  0.11490145068E+02  0.00000000000E+00 0. -1.
</event>
<event>
 7    1  0.5935282E-013  0.5052886E+02  0.7816164E-02  0.1300439E+00
        -11   -1    0    0    0    0  0.00000000000E+00  0.00000000000E+00  0.45593999997E+02  0.45594000000E+02  0.51100000000E-03 0.  1.
         11   -1    0    0    0    0 -0.00000000000E+00 -0.00000000000E+00 -0.45593999997E+02  0.45594000000E+02  0.51100000000E-03 0. -1.
    9900012    2    1    2    0    0  0.29913517687E+02 -0.25933441369E+02 -0.92630460295E+01  0.50528856583E+02  0.29999990070E+02 0.  0.
        -12    1    1    2    0    0 -0.29913517687E+02  0.25933441369E+02  0.92630460295E+01  0.40659143417E+02  0.00000000000E+00 0.  1.
         11    1    3    3    0    0  0.90366835147E+01 -0.83520126005E+01 -0.15175043566E+02  0.19537136712E+02  0.51100000000E-03 0. -1.
        -11    1    3    3    0    0  0.17913835082E+02 -0.15881796156E+02 -0.25529646880E+00  0.23941639732E+02  0.51100000000E-03 0.  1.
        -12    1    3    3    0    0  0.29629990899E+01 -0.16996326125E+01  0.61672940048E+01  0.70500801390E+01  0.00000000000E+00 0.  1.
</event>
<event>
 7    1  0.5935282E-013  0.5052887E+02  0.7816164E-02  0.1300439E+00
        -11   -1    0    0    0    0  0.00000000000E+00  0.00000000000E+00  0.45593999997E+02  0.45594000000E+02  0.51100000000E-03 0. -1.
         11   -1    0    0    0    0 -0.00000000000E+00 -0.00000000000E+00 -0.45593999997E+02  0.45594000000E+02  0.51100000000E-03 0.  1.
    9900012    2    1    2    0    0 -0.33850265623E+02 -0.15259175272E+02  0.16567503596E+02  0.50528867101E+02  0.30000022040E+02 0.  0.
        -12    1    1    2    0    0  0.33850265623E+02  0.15259175272E+02 -0.16567503596E+02  0.40659132899E+02  0.00000000000E+00 0.  1.
         11    1    3    3    0    0 -0.24595379516E+02 -0.14412632174E+02 -0.18723168413E+01  0.28568553172E+02  0.51100000000E-03 0. -1.
        -11    1    3    3    0    0 -0.20122249282E+01 -0.36326352701E+01  0.69260765771E+01  0.80756191825E+01  0.51100000000E-03 0.  1.
        -12    1    3    3    0    0 -0.72426611789E+01  0.27860921718E+01  0.11513743860E+02  0.13884694747E+02  0.00000000000E+00 0.  1.
</event>
<event>
 7    1  0.5935282E-013  0.5052886E+02  0.7816164E-02  0.1300439E+00
        -11   -1    0    0    0    0  0.00000000000E+00  0.00000000000E+00  0.45593999997E+02  0.45594000000E+02  0.51100000000E-03 0.  1.
         11   -1    0    0    0    0 -0.00000000000E+00 -0.00000000000E+00 -0.45593999997E+02  0.45594000000E+02  0.51100000000E-03 0. -1.
    9900012    2    1    2    0    0  0.15666358695E+02 -0.37376784376E+02 -0.32721366857E+01  0.50528859779E+02  0.29999999783E+02 0.  0.
        -12    1    1    2    0    0 -0.15666358695E+02  0.37376784376E+02  0.32721366857E+01  0.40659140221E+02  0.00000000000E+00 0.  1.
         11    1    3    3    0    0  0.16708414931E+01 -0.27034659391E+02  0.97185958692E+01  0.28776998203E+02  0.51100000000E-03 0.  1.
        -11    1    3    3    0    0  0.63243727705E+01 -0.39079484476E+01 -0.55434396075E+01  0.92735901868E+01  0.51100000000E-03 0. -1.
        -12    1    3    3    0    0  0.76711444310E+01 -0.64341765377E+01 -0.74472929474E+01  0.12478271388E+02  0.00000000000E+00 0.  1.
</event>
<event>
 7    1  0.5935282E-013  0.5052886E+02  0.7816164E-02  0.1300439E+00
        -11   -1    0    0    0    0  0.00000000000E+00  0.00000000000E+00  0.45593999997E+02  0.45594000000E+02  0.51100000000E-03 0.  1.
         11   -1    0    0    0    0 -0.00000000000E+00 -0.00000000000E+00 -0.45593999997E+02  0.45594000000E+02  0.51100000000E-03 0. -1.
    9900012    2    1    2    0    0 -0.13774911559E+02 -0.35487935369E+02 -0.14283685820E+02  0.50528862948E+02  0.30000009418E+02 0.  0.
        -12    1    1    2    0    0  0.13774911559E+02  0.35487935369E+02  0.14283685820E+02  0.40659137052E+02  0.00000000000E+00 0.  1.
         11    1    3    3    0    0 -0.10404635511E+01 -0.13091227566E+02  0.12043930820E+01  0.13187621716E+02  0.51100000000E-03 0. -1.
        -11    1    3    3    0    0 -0.13012290706E+01 -0.45174134542E+01 -0.15418011122E+02  0.16118786822E+02  0.51100000000E-03 0.  1.
         12    1    3    3    0    0 -0.11433218938E+02 -0.17879294349E+02 -0.70067780039E-01  0.21222454410E+02  0.00000000000E+00 0. -1.
</event>
<event>
 7    1  0.5935282E-013  0.5052886E+02  0.7816164E-02  0.1300439E+00
        -11   -1    0    0    0    0  0.00000000000E+00  0.00000000000E+00  0.45593999997E+02  0.45594000000E+02  0.51100000000E-03 0.  1.
         11   -1    0    0    0    0 -0.00000000000E+00 -0.00000000000E+00 -0.45593999997E+02  0.45594000000E+02  0.51100000000E-03 0. -1.
    9900012    2    1    2    0    0 -0.27669311155E+02 -0.22762004994E+02 -0.19221506740E+02  0.50528856225E+02  0.29999988983E+02 0.  0.
        -12    1    1    2    0    0  0.27669311155E+02  0.22762004994E+02  0.19221506740E+02  0.40659143775E+02  0.00000000000E+00 0.  1.
         11    1    3    3    0    0 -0.16308435335E+01  0.71438464719E+00 -0.33827506664E+01  0.38226951731E+01  0.51100000000E-03 0. -1.
        -11    1    3    3    0    0 -0.10854570383E+02  0.47800445560E+01 -0.43700283817E+01  0.12639923753E+02  0.51100000000E-03 0.  1.
        -12    1    3    3    0    0 -0.15183897239E+02 -0.28256434197E+02 -0.11468727692E+02  0.34066237300E+02  0.00000000000E+00 0.  1.
</event>
<event>
 7    1  0.5935282E-013  0.5052886E+02  0.7816164E-02  0.1300439E+00
        -11   -1    0    0    0    0  0.00000000000E+00  0.00000000000E+00  0.45593999997E+02  0.45594000000E+02  0.51100000000E-03 0. -1.
         11   -1    0    0    0    0 -0.00000000000E+00 -0.00000000000E+00 -0.45593999997E+02  0.45594000000E+02  0.51100000000E-03 0.  1.
    9900012    2    1    2    0    0 -0.33723405501E+02 -0.83583066635E+00  0.22697994722E+02  0.50528860119E+02  0.30000000817E+02 0.  0.
        -12    1    1    2    0    0  0.33723405501E+02  0.83583066635E+00 -0.22697994722E+02  0.40659139881E+02  0.00000000000E+00 0.  1.
         11    1    3    3    0    0 -0.25069710697E+02  0.10428827647E+02  0.14420472776E+02  0.30744119370E+02  0.51100000000E-03 0. -1.
        -11    1    3    3    0    0 -0.10527898739E+02 -0.58269967603E+01  0.68986269912E+01  0.13870169348E+02  0.51100000000E-03 0.  1.
        -12    1    3    3    0    0  0.18742039356E+01 -0.54376615527E+01  0.13788949550E+01  0.59145714004E+01  0.00000000000E+00 0.  1.
</event>
<event>
 7    1  0.5935282E-013  0.5052885E+02  0.7816164E-02  0.1300439E+00
        -11   -1    0    0    0    0  0.00000000000E+00  0.00000000000E+00  0.45593999997E+02  0.45594000000E+02  0.51100000000E-03 0.  1.
         11   -1    0    0    0    0 -0.00000000000E+00 -0.00000000000E+00 -0.45593999997E+02  0.45594000000E+02  0.51100000000E-03 0. -1.
    9900012    2    1    2    0    0  0.24080340811E+02  0.17431062040E+02 -0.27739172036E+02  0.50528850936E+02  0.29999972905E+02 0.  0.
        -12    1    1    2    0    0 -0.24080340811E+02 -0.17431062040E+02  0.27739172036E+02  0.40659149064E+02  0.00000000000E+00 0.  1.
         11    1    3    3    0    0  0.59969520739E+01  0.75403290480E+01 -0.22549380236E+02  0.24521307992E+02  0.51100000000E-03 0. -1.
        -11    1    3    3    0    0  0.16447294824E+02  0.55209861130E+01 -0.93919499829E+01  0.19728241671E+02  0.51100000000E-03 0.  1.
         12    1    3    3    0    0  0.16360939122E+01  0.43697468790E+01  0.42021581833E+01  0.62793012727E+01  0.00000000000E+00 0. -1.
</event>
<event>
 7    1  0.5935282E-013  0.5052886E+02  0.7816164E-02  0.1300439E+00
        -11   -1    0    0    0    0  0.00000000000E+00  0.00000000000E+00  0.45593999997E+02  0.45594000000E+02  0.51100000000E-03 0.  1.
         11   -1    0    0    0    0 -0.00000000000E+00 -0.00000000000E+00 -0.45593999997E+02  0.45594000000E+02  0.51100000000E-03 0. -1.
    9900012    2    1    2    0    0  0.10095987234E+02 -0.24090006790E+02 -0.31159396920E+02  0.50528863244E+02  0.30000010315E+02 0.  0.
        -12    1    1    2    0    0 -0.10095987234E+02  0.24090006790E+02  0.31159396920E+02  0.40659136756E+02  0.00000000000E+00 0.  1.
         11    1    3    3    0    0 -0.21975943774E+01 -0.55932674706E+01 -0.16563115260E+01  0.62335728261E+01  0.51100000000E-03 0. -1.
        -11    1    3    3    0    0  0.27495381913E+01  0.20479522343E+01  0.30816228114E+01  0.46098229936E+01  0.51100000000E-03 0.  1.
         12    1    3    3    0    0  0.95440434197E+01 -0.20544691554E+02 -0.32584708205E+02  0.39685467424E+02  0.00000000000E+00 0. -1.
</event>
<event>
 7    1  0.5935282E-013  0.5052886E+02  0.7816164E-02  0.1300439E+00
        -11   -1    0    0    0    0  0.00000000000E+00  0.00000000000E+00  0.45593999997E+02  0.45594000000E+02  0.51100000000E-03 0. -1.
         11   -1    0    0    0    0 -0.00000000000E+00 -0.00000000000E+00 -0.45593999997E+02  0.45594000000E+02  0.51100000000E-03 0.  1.
    9900012    2    1    2    0    0 -0.39599940535E+02  0.32662793261E+01  0.86221884065E+01  0.50528855839E+02  0.29999987808E+02 0.  0.
        -12    1    1    2    0    0  0.39599940535E+02 -0.32662793261E+01 -0.86221884065E+01  0.40659144161E+02  0.00000000000E+00 0.  1.
         11    1    3    3    0    0 -0.19281356008E+01 -0.34441903336E+01  0.54334017189E+01  0.67158028894E+01  0.51100000000E-03 0. -1.
        -11    1    3    3    0    0 -0.22930593432E+02 -0.65646814834E+01  0.21427206281E+01  0.23947826834E+02  0.51100000000E-03 0.  1.
         12    1    3    3    0    0 -0.14741211502E+02  0.13275151143E+02  0.10460660594E+01  0.19865226115E+02  0.00000000000E+00 0. -1.
</event>
<event>
 7    1  0.5935282E-013  0.5052886E+02  0.7816164E-02  0.1300439E+00
        -11   -1    0    0    0    0  0.00000000000E+00  0.00000000000E+00  0.45593999997E+02  0.45594000000E+02  0.51100000000E-03 0. -1.
         11   -1    0    0    0    0 -0.00000000000E+00 -0.00000000000E+00 -0.45593999997E+02  0.45594000000E+02  0.51100000000E-03 0.  1.
    9900012    2    1    2    0    0 -0.31022403346E+02  0.16358909567E+02  0.20570902160E+02  0.50528862684E+02  0.30000008615E+02 0.  0.
        -12    1    1    2    0    0  0.31022403346E+02 -0.16358909567E+02 -0.20570902160E+02  0.40659137316E+02  0.00000000000E+00 0.  1.
         11    1    3    3    0    0 -0.16291541426E+02  0.16546004973E+02  0.21947445070E+02  0.31951133751E+02  0.51100000000E-03 0. -1.
        -11    1    3    3    0    0 -0.24992469797E+01  0.23865453992E+01 -0.45194379943E+01  0.56892138695E+01  0.51100000000E-03 0.  1.
        -12    1    3    3    0    0 -0.12231614940E+02 -0.25736408052E+01  0.31428950837E+01  0.12888515064E+02  0.00000000000E+00 0.  1.
</event>
<event>
 7    1  0.5935282E-013  0.5052886E+02  0.7816164E-02  0.1300439E+00
        -11   -1    0    0    0    0  0.00000000000E+00  0.00000000000E+00  0.45593999997E+02  0.45594000000E+02  0.51100000000E-03 0. -1.
         11   -1    0    0    0    0 -0.00000000000E+00 -0.00000000000E+00 -0.45593999997E+02  0.45594000000E+02  0.51100000000E-03 0.  1.
    9900012    2    1    2    0    0 -0.20847124157E+02 -0.31306898416E+02 -0.15441543192E+02  0.50528859205E+02  0.29999998040E+02 0.  0.
        -12    1    1    2    0    0  0.20847124157E+02  0.31306898416E+02  0.15441543192E+02  0.40659140795E+02  0.00000000000E+00 0.  1.
         11    1    3    3    0    0 -0.12237472534E+02 -0.96541310092E+01  0.15067940576E+01  0.15659770374E+02  0.51100000000E-03 0. -1.
        -11    1    3    3    0    0 -0.13635669215E+01 -0.84562197643E+01  0.36872304775E+01  0.93253759338E+01  0.51100000000E-03 0.  1.
        -12    1    3    3    0    0 -0.72460847011E+01 -0.13196547642E+02 -0.20635567727E+02  0.25543712898E+02  0.00000000000E+00 0.  1.
</event>
<event>
 7    1  0.5935282E-013  0.5052884E+02  0.7816164E-02  0.1300439E+00
        -11   -1    0    0    0    0  0.00000000000E+00  0.00000000000E+00  0.45593999997E+02  0.45594000000E+02  0.51100000000E-03 0.  1.
         11   -1    0    0    0    0 -0.00000000000E+00 -0.00000000000E+00 -0.45593999997E+02  0.45594000000E+02  0.51100000000E-03 0. -1.
    9900012    2    1    2    0    0  0.16283968667E+02  0.33212449867E+02 -0.16879958158E+02  0.50528838067E+02  0.29999933787E+02 0.  0.
        -12    1    1    2    0    0 -0.16283968667E+02 -0.33212449867E+02  0.16879958158E+02  0.40659161933E+02  0.00000000000E+00 0.  1.
         11    1    3    3    0    0 -0.22058705501E+01  0.72474383019E+01  0.36166362838E+01  0.83947176899E+01  0.51100000000E-03 0.  1.
        -11    1    3    3    0    0  0.90017771413E+01  0.22005641857E+02 -0.62826402906E+01  0.24591702555E+02  0.51100000000E-03 0. -1.
        -12    1    3    3    0    0  0.94880620755E+01  0.39593697080E+01 -0.14213954151E+02  0.17542417822E+02  0.00000000000E+00 0.  1.
</event>
<event>
 7    1  0.5935282E-013  0.5052886E+02  0.7816164E-02  0.1300439E+00
        -11   -1    0    0    0    0  0.00000000000E+00  0.00000000000E+00  0.45593999997E+02  0.45594000000E+02  0.51100000000E-03 0.  1.
         11   -1    0    0    0    0 -0.00000000000E+00 -0.00000000000E+00 -0.45593999997E+02  0.45594000000E+02  0.51100000000E-03 0. -1.
    9900012    2    1    2    0    0 -0.83079451559E+01 -0.36816261445E+02 -0.15123052413E+02  0.50528858668E+02  0.29999996409E+02 0.  0.
        -12    1    1    2    0    0  0.83079451559E+01  0.36816261445E+02  0.15123052413E+02  0.40659141332E+02  0.00000000000E+00 0.  1.
         11    1    3    3    0    0 -0.97774054297E+01 -0.10596973525E+02 -0.11999908212E+01  0.14468361451E+02  0.51100000000E-03 0. -1.
        -11    1    3    3    0    0 -0.46633885160E+01 -0.93709058645E+01  0.35224931247E+01  0.11043958858E+02  0.51100000000E-03 0.  1.
         12    1    3    3    0    0  0.61328487897E+01 -0.16848382056E+02 -0.17445554716E+02  0.25016538360E+02  0.00000000000E+00 0. -1.
</event>
<event>
 7    1  0.5935282E-013  0.5052885E+02  0.7816164E-02  0.1300439E+00
        -11   -1    0    0    0    0  0.00000000000E+00  0.00000000000E+00  0.45593999997E+02  0.45594000000E+02  0.51100000000E-03 0. -1.
         11   -1    0    0    0    0 -0.00000000000E+00 -0.00000000000E+00 -0.45593999997E+02  0.45594000000E+02  0.51100000000E-03 0.  1.
    9900012    2    1    2    0    0 -0.29435608220E+02 -0.24408023184E+02  0.13818814465E+02  0.50528852687E+02  0.29999978227E+02 0.  0.
        -12    1    1    2    0    0  0.29435608220E+02  0.24408023184E+02 -0.13818814465E+02  0.40659147313E+02  0.00000000000E+00 0.  1.
         11    1    3    3    0    0 -0.13288805595E+01  0.49988967501E+01 -0.13334542482E+01  0.53416282866E+01  0.51100000000E-03 0. -1.
        -11    1    3    3    0    0 -0.23498658121E+01 -0.35266923371E+01 -0.21840538363E+01  0.47675485940E+01  0.51100000000E-03 0.  1.
         12    1    3    3    0    0 -0.25756861848E+02 -0.25880227597E+02  0.17336322550E+02  0.40419675806E+02  0.00000000000E+00 0. -1.
</event>
<event>
 7    1  0.5935282E-013  0.5052886E+02  0.7816164E-02  0.1300439E+00
        -11   -1    0    0    0    0  0.00000000000E+00  0.00000000000E+00  0.45593999997E+02  0.45594000000E+02  0.51100000000E-03 0.  1.
         11   -1    0    0    0    0 -0.00000000000E+00 -0.00000000000E+00 -0.45593999997E+02  0.45594000000E+02  0.51100000000E-03 0. -1.
    9900012    2    1    2    0    0 -0.12081982075E+02  0.31054472578E+02 -0.23298300057E+02  0.50528863960E+02  0.30000012493E+02 0.  0.
        -12    1    1    2    0    0  0.12081982075E+02 -0.31054472578E+02  0.23298300057E+02  0.40659136040E+02  0.00000000000E+00 0.  1.
         11    1    3    3    0    0 -0.11074956089E+01  0.18135496315E+02 -0.16592118010E+01  0.18244883041E+02  0.51100000000E-03 0. -1.
        -11    1    3    3    0    0 -0.67782529010E+01  0.12150494904E+02 -0.45014333700E+01  0.14623342348E+02  0.51100000000E-03 0.  1.
        -12    1    3    3    0    0 -0.41962335656E+01  0.76848135956E+00 -0.17137654886E+02  0.17660638571E+02  0.00000000000E+00 0.  1.
</event>
<event>
 7    1  0.5935282E-013  0.5052893E+02  0.7816164E-02  0.1300439E+00
        -11   -1    0    0    0    0  0.00000000000E+00  0.00000000000E+00  0.45593999997E+02  0.45594000000E+02  0.51100000000E-03 0.  1.
         11   -1    0    0    0    0 -0.00000000000E+00 -0.00000000000E+00 -0.45593999997E+02  0.45594000000E+02  0.51100000000E-03 0. -1.
    9900012    2    1    2    0    0 -0.27966738008E+02  0.13882728781E+02 -0.26044020993E+02  0.50528934311E+02  0.30000226331E+02 0.  0.
        -12    1    1    2    0    0  0.27966738008E+02 -0.13882728781E+02  0.26044020993E+02  0.40659065689E+02  0.00000000000E+00 0.  1.
         11    1    3    3    0    0 -0.53314664851E+01  0.29885043147E+01 -0.15678743162E+02  0.16827913724E+02  0.51100000000E-03 0. -1.
        -11    1    3    3    0    0 -0.10654356590E+02 -0.17655504804E+01 -0.12059824284E+02  0.16188633199E+02  0.51100000000E-03 0.  1.
        -12    1    3    3    0    0 -0.11980914933E+02  0.12659774947E+02  0.16945464525E+01  0.17512387388E+02  0.00000000000E+00 0.  1.
</event>
<event>
 7    1  0.6463736E-013  0.5052887E+02  0.7816164E-02  0.1300439E+00
        -11   -1    0    0    0    0  0.00000000000E+00  0.00000000000E+00  0.45593999997E+02  0.45594000000E+02  0.51100000000E-03 0. -1.
         11   -1    0    0    0    0 -0.00000000000E+00 -0.00000000000E+00 -0.45593999997E+02  0.45594000000E+02  0.51100000000E-03 0.  1.
    9900012    2    1    2    0    0 -0.21880254556E+01 -0.21112271433E+02  0.34679239052E+02  0.50528867180E+02  0.30000022281E+02 0.  0.
        -12    1    1    2    0    0  0.21880254556E+01  0.21112271433E+02 -0.34679239052E+02  0.40659132820E+02  0.00000000000E+00 0.  1.
         11    1    3    3    0    0  0.26288305651E+01 -0.16775375061E+02  0.26963348477E+02  0.31864496229E+02  0.51100000000E-03 0. -1.
        -11    1    3    3    0    0  0.47880854167E+01  0.82847876810E+00  0.58420265820E+01  0.75987771301E+01  0.51100000000E-03 0.  1.
        -12    1    3    3    0    0 -0.96049414374E+01 -0.51653751400E+01  0.18738639929E+01  0.11065593821E+02  0.00000000000E+00 0.  1.
</event>
<event>
 7    1  0.5935282E-013  0.5052886E+02  0.7816164E-02  0.1300439E+00
        -11   -1    0    0    0    0  0.00000000000E+00  0.00000000000E+00  0.45593999997E+02  0.45594000000E+02  0.51100000000E-03 0.  1.
         11   -1    0    0    0    0 -0.00000000000E+00 -0.00000000000E+00 -0.45593999997E+02  0.45594000000E+02  0.51100000000E-03 0. -1.
    9900012    2    1    2    0    0 -0.10008865084E+02  0.21060692914E+02 -0.33308188500E+02  0.50528860961E+02  0.30000003376E+02 0.  0.
        -12    1    1    2    0    0  0.10008865084E+02 -0.21060692914E+02  0.33308188500E+02  0.40659139039E+02  0.00000000000E+00 0.  1.
         11    1    3    3    0    0  0.18578907759E-01  0.22845732073E+01 -0.15626188444E+02  0.15792320459E+02  0.51100000000E-03 0. -1.
        -11    1    3    3    0    0 -0.10517395182E+02  0.16871659864E+02 -0.22204803795E+02  0.29804728145E+02  0.51100000000E-03 0.  1.
        -12    1    3    3    0    0  0.48995119016E+00  0.19044598427E+01  0.45228037392E+01  0.49318123569E+01  0.00000000000E+00 0.  1.
</event>
<event>
 7    1  0.5935282E-013  0.5052887E+02  0.7816164E-02  0.1300439E+00
        -11   -1    0    0    0    0  0.00000000000E+00  0.00000000000E+00  0.45593999997E+02  0.45594000000E+02  0.51100000000E-03 0.  1.
         11   -1    0    0    0    0 -0.00000000000E+00 -0.00000000000E+00 -0.45593999997E+02  0.45594000000E+02  0.51100000000E-03 0. -1.
    9900012    2    1    2    0    0  0.31522656564E+02  0.89658152235E+01 -0.24064528320E+02  0.50528865199E+02  0.30000016259E+02 0.  0.
        -12    1    1    2    0    0 -0.31522656564E+02 -0.89658152235E+01  0.24064528320E+02  0.40659134801E+02  0.00000000000E+00 0.  1.
         11    1    3    3    0    0  0.10689284256E+02  0.10824379698E+02 -0.45496463054E+01  0.15878516162E+02  0.51100000000E-03 0. -1.
        -11    1    3    3    0    0 -0.37490784745E+01  0.10106198410E+01 -0.26910458603E+01  0.47242639590E+01  0.51100000000E-03 0.  1.
        -12    1    3    3    0    0  0.24582450783E+02 -0.28691843158E+01 -0.16823836155E+02  0.29926085078E+02  0.00000000000E+00 0.  1.
</event>
<event>
 7    1  0.5935282E-013  0.5052884E+02  0.7816164E-02  0.1300439E+00
        -11   -1    0    0    0    0  0.00000000000E+00  0.00000000000E+00  0.45593999997E+02  0.45594000000E+02  0.51100000000E-03 0. -1.
         11   -1    0    0    0    0 -0.00000000000E+00 -0.00000000000E+00 -0.45593999997E+02  0.45594000000E+02  0.51100000000E-03 0.  1.
    9900012    2    1    2    0    0  0.34963124798E+02 -0.10681396214E+02  0.17794807798E+02  0.50528837376E+02  0.29999931688E+02 0.  0.
        -12    1    1    2    0    0 -0.34963124798E+02  0.10681396214E+02 -0.17794807798E+02  0.40659162624E+02  0.00000000000E+00 0.  1.
         11    1    3    3    0    0  0.46626480387E+01  0.18313122013E+01  0.33026901412E+01  0.60001461267E+01  0.51100000000E-03 0. -1.
        -11    1    3    3    0    0 -0.35819811299E+01  0.92776604669E+00  0.60836479130E+01  0.71205414712E+01  0.51100000000E-03 0.  1.
        -12    1    3    3    0    0  0.33882457889E+02 -0.13440474462E+02  0.84084697436E+01  0.37408149778E+02  0.00000000000E+00 0.  1.
</event>
<event>
 7    1  0.5935282E-013  0.5052889E+02  0.7816164E-02  0.1300439E+00
        -11   -1    0    0    0    0  0.00000000000E+00  0.00000000000E+00  0.45593999997E+02  0.45594000000E+02  0.51100000000E-03 0.  1.
         11   -1    0    0    0    0 -0.00000000000E+00 -0.00000000000E+00 -0.45593999997E+02  0.45594000000E+02  0.51100000000E-03 0. -1.
    9900012    2    1    2    0    0  0.35377803086E+02  0.15371343912E+02 -0.12856765196E+02  0.50528885694E+02  0.30000078555E+02 0.  0.
        -12    1    1    2    0    0 -0.35377803086E+02 -0.15371343912E+02  0.12856765196E+02  0.40659114306E+02  0.00000000000E+00 0.  1.
         11    1    3    3    0    0  0.15589707289E+02 -0.69199192320E+01  0.20874881687E+00  0.17057779219E+02  0.51100000000E-03 0.  1.
        -11    1    3    3    0    0  0.98555226160E+01  0.88359132449E+01 -0.97033749281E+01  0.16412195897E+02  0.51100000000E-03 0. -1.
        -12    1    3    3    0    0  0.99325731807E+01  0.13455349899E+02 -0.33621390852E+01  0.17058910578E+02  0.00000000000E+00 0.  1.
</event>
<event>
 7    1  0.5935282E-013  0.5052885E+02  0.7816164E-02  0.1300439E+00
        -11   -1    0    0    0    0  0.00000000000E+00  0.00000000000E+00  0.45593999997E+02  0.45594000000E+02  0.51100000000E-03 0.  1.
         11   -1    0    0    0    0 -0.00000000000E+00 -0.00000000000E+00 -0.45593999997E+02  0.45594000000E+02  0.51100000000E-03 0. -1.
    9900012    2    1    2    0    0  0.39377805278E+02  0.92077827819E+01 -0.42156674290E+01  0.50528847720E+02  0.29999963129E+02 0.  0.
        -12    1    1    2    0    0 -0.39377805278E+02 -0.92077827819E+01  0.42156674290E+01  0.40659152280E+02  0.00000000000E+00 0.  1.
         11    1    3    3    0    0  0.46561263979E+01  0.63730173279E+01  0.84180686161E+01  0.11539442897E+02  0.51100000000E-03 0.  1.
        -11    1    3    3    0    0  0.24188582898E+00 -0.17857124163E+01  0.38946724004E+00  0.18436275601E+01  0.51100000000E-03 0. -1.
         12    1    3    3    0    0  0.34479793051E+02  0.46204778703E+01 -0.13023203285E+02  0.37145777262E+02  0.00000000000E+00 0. -1.
</event>
<event>
 7    1  0.5935282E-013  0.5052886E+02  0.7816164E-02  0.1300439E+00
        -11   -1    0    0    0    0  0.00000000000E+00  0.00000000000E+00  0.45593999997E+02  0.45594000000E+02  0.51100000000E-03 0.  1.
         11   -1    0    0    0    0 -0.00000000000E+00 -0.00000000000E+00 -0.45593999997E+02  0.45594000000E+02  0.51100000000E-03 0. -1.
    9900012    2    1    2    0    0  0.21165245800E+02 -0.34644102089E+02 -0.22325517969E+01  0.50528859246E+02  0.29999998164E+02 0.  0.
        -12    1    1    2    0    0 -0.21165245800E+02  0.34644102089E+02  0.22325517969E+01  0.40659140754E+02  0.00000000000E+00 0.  1.
         11    1    3    3    0    0  0.56210118304E+01 -0.35954568829E+00 -0.55308348179E+01  0.78939965254E+01  0.51100000000E-03 0. -1.
        -11    1    3    3    0    0  0.21002590872E+01 -0.15783737372E+01  0.66155335163E+01  0.71181202472E+01  0.51100000000E-03 0.  1.
         12    1    3    3    0    0  0.13443974882E+02 -0.32706182664E+02 -0.33172504953E+01  0.35516742473E+02  0.00000000000E+00 0. -1.
</event>
<event>
 7    1  0.5935282E-013  0.5052884E+02  0.7816164E-02  0.1300439E+00
        -11   -1    0    0    0    0  0.00000000000E+00  0.00000000000E+00  0.45593999997E+02  0.45594000000E+02  0.51100000000E-03 0. -1.
         11   -1    0    0    0    0 -0.00000000000E+00 -0.00000000000E+00 -0.45593999997E+02  0.45594000000E+02  0.51100000000E-03 0.  1.
    9900012    2    1    2    0    0 -0.15774237876E+02  0.24689436418E+02  0.28191708806E+02  0.50528839942E+02  0.29999939488E+02 0.  0.
        -12    1    1    2    0    0  0.15774237876E+02 -0.24689436418E+02 -0.28191708806E+02  0.40659160058E+02  0.00000000000E+00 0.  1.
         11    1    3    3    0    0  0.18847267288E+01  0.13080110833E+02  0.77492941041E+01  0.15319694959E+02  0.51100000000E-03 0. -1.
        -11    1    3    3    0    0  0.31296709491E+01  0.59622397463E+01  0.25316039080E+01  0.71938975285E+01  0.51100000000E-03 0.  1.
        -12    1    3    3    0    0 -0.20788635554E+02  0.56470858381E+01  0.17910810794E+02  0.28015247455E+02  0.00000000000E+00 0.  1.
</event>
<event>
 7    1  0.5935282E-013  0.5052883E+02  0.7816164E-02  0.1300439E+00
        -11   -1    0    0    0    0  0.00000000000E+00  0.00000000000E+00  0.45593999997E+02  0.45594000000E+02  0.51100000000E-03 0. -1.
         11   -1    0    0    0    0 -0.00000000000E+00 -0.00000000000E+00 -0.45593999997E+02  0.45594000000E+02  0.51100000000E-03 0.  1.
    9900012    2    1    2    0    0  0.15156114776E+02  0.25405759348E+02 -0.27892794580E+02  0.50528826218E+02  0.29999897773E+02 0.  0.
        -12    1    1    2    0    0 -0.15156114776E+02 -0.25405759348E+02  0.27892794580E+02  0.40659173782E+02  0.00000000000E+00 0.  1.
         11    1    3    3    0    0 -0.38984591047E+01 -0.16305257770E+01 -0.22389039766E+01  0.47821845403E+01  0.51100000000E-03 0. -1.
        -11    1    3    3    0    0  0.44273195337E+01 -0.23028988520E+01 -0.22961651746E+01  0.54933483547E+01  0.51100000000E-03 0.  1.
         12    1    3    3    0    0  0.14627254347E+02  0.29339183977E+02 -0.23357725429E+02  0.40253293323E+02  0.00000000000E+00 0. -1.
</event>
<event>
 7    1  0.5935282E-013  0.5052887E+02  0.7816164E-02  0.1300439E+00
        -11   -1    0    0    0    0  0.00000000000E+00  0.00000000000E+00  0.45593999997E+02  0.45594000000E+02  0.51100000000E-03 0.  1.
         11   -1    0    0    0    0 -0.00000000000E+00 -0.00000000000E+00 -0.45593999997E+02  0.45594000000E+02  0.51100000000E-03 0. -1.
    9900012    2    1    2    0    0 -0.20830084303E+02 -0.22575764952E+02 -0.26638448844E+02  0.50528873939E+02  0.30000042824E+02 0.  0.
        -12    1    1    2    0    0  0.20830084303E+02  0.22575764952E+02  0.26638448844E+02  0.40659126061E+02  0.00000000000E+00 0.  1.
         11    1    3    3    0    0 -0.35160873689E+01 -0.62203449595E+01 -0.10670835997E+02  0.12842207868E+02  0.51100000000E-03 0. -1.
        -11    1    3    3    0    0  0.24511186200E+01 -0.12982966144E+02 -0.10575421593E+02  0.16923502430E+02  0.51100000000E-03 0.  1.
         12    1    3    3    0    0 -0.19765115554E+02 -0.33724538493E+01 -0.53921912546E+01  0.20763163640E+02  0.00000000000E+00 0. -1.
</event>
<event>
 7    1  0.5935282E-013  0.5052886E+02  0.7816164E-02  0.1300439E+00
        -11   -1    0    0    0    0  0.00000000000E+00  0.00000000000E+00  0.45593999997E+02  0.45594000000E+02  0.51100000000E-03 0.  1.
         11   -1    0    0    0    0 -0.00000000000E+00 -0.00000000000E+00 -0.45593999997E+02  0.45594000000E+02  0.51100000000E-03 0. -1.
    9900012    2    1    2    0    0 -0.72278521268E+01 -0.27680497917E+02 -0.28891410644E+02  0.50528863016E+02  0.30000009623E+02 0.  0.
        -12    1    1    2    0    0  0.72278521268E+01  0.27680497917E+02  0.28891410644E+02  0.40659136984E+02  0.00000000000E+00 0.  1.
         11    1    3    3    0    0 -0.20749235414E+01 -0.44454899320E+01 -0.21338773467E+01  0.53498711415E+01  0.51100000000E-03 0. -1.
        -11    1    3    3    0    0 -0.67932642347E+01 -0.27261679553E+02 -0.13391652051E+02  0.31123688019E+02  0.51100000000E-03 0.  1.
        -12    1    3    3    0    0  0.16403356493E+01  0.40266715683E+01 -0.13365881246E+02  0.14055303855E+02  0.00000000000E+00 0.  1.
</event>
<event>
 7    1  0.5935282E-013  0.5052886E+02  0.7816164E-02  0.1300439E+00
        -11   -1    0    0    0    0  0.00000000000E+00  0.00000000000E+00  0.45593999997E+02  0.45594000000E+02  0.51100000000E-03 0. -1.
         11   -1    0    0    0    0 -0.00000000000E+00 -0.00000000000E+00 -0.45593999997E+02  0.45594000000E+02  0.51100000000E-03 0.  1.
    9900012    2    1    2    0    0  0.24249719572E+02  0.27937217677E+02 -0.16870952474E+02  0.50528855048E+02  0.29999985405E+02 0.  0.
        -12    1    1    2    0    0 -0.24249719572E+02 -0.27937217677E+02  0.16870952474E+02  0.40659144952E+02  0.00000000000E+00 0.  1.
         11    1    3    3    0    0  0.19535067054E+01  0.24903350323E+01 -0.41973648505E+01  0.52569790726E+01  0.51100000000E-03 0. -1.
        -11    1    3    3    0    0  0.46915143051E+01  0.12738591318E+02  0.76070099055E+01  0.15561125127E+02  0.51100000000E-03 0.  1.
         12    1    3    3    0    0  0.17604698561E+02  0.12708291326E+02 -0.20280597529E+02  0.29710750849E+02  0.00000000000E+00 0. -1.
</event>
<event>
 7    1  0.5935282E-013  0.5052887E+02  0.7816164E-02  0.1300439E+00
        -11   -1    0    0    0    0  0.00000000000E+00  0.00000000000E+00  0.45593999997E+02  0.45594000000E+02  0.51100000000E-03 0.  1.
         11   -1    0    0    0    0 -0.00000000000E+00 -0.00000000000E+00 -0.45593999997E+02  0.45594000000E+02  0.51100000000E-03 0. -1.
    9900012    2    1    2    0    0  0.34938873256E+02  0.92958959237E+01 -0.18601785157E+02  0.50528868720E+02  0.30000026960E+02 0.  0.
        -12    1    1    2    0    0 -0.34938873256E+02 -0.92958959237E+01  0.18601785157E+02  0.40659131280E+02  0.00000000000E+00 0.  1.
         11    1    3    3    0    0  0.64024103431E+01 -0.14269916984E+01 -0.12957926380E+01  0.66862726785E+01  0.51100000000E-03 0. -1.
        -11    1    3    3    0    0  0.21726011463E+02 -0.12423621919E+01 -0.42639795456E-01  0.21761545357E+02  0.51100000000E-03 0.  1.
        -12    1    3    3    0    0  0.68104514501E+01  0.11965249814E+02 -0.17263352723E+02  0.22081050684E+02  0.00000000000E+00 0.  1.
</event>
<event>
 7    1  0.5935282E-013  0.5052886E+02  0.7816164E-02  0.1300439E+00
        -11   -1    0    0    0    0  0.00000000000E+00  0.00000000000E+00  0.45593999997E+02  0.45594000000E+02  0.51100000000E-03 0. -1.
         11   -1    0    0    0    0 -0.00000000000E+00 -0.00000000000E+00 -0.45593999997E+02  0.45594000000E+02  0.51100000000E-03 0.  1.
    9900012    2    1    2    0    0 -0.30521811099E+02 -0.13023104660E+02  0.23494319908E+02  0.50528864794E+02  0.30000015028E+02 0.  0.
        -12    1    1    2    0    0  0.30521811099E+02  0.13023104660E+02 -0.23494319908E+02  0.40659135206E+02  0.00000000000E+00 0.  1.
         11    1    3    3    0    0 -0.17057484031E+02 -0.83596014348E+01  0.14795205203E+02  0.24077765570E+02  0.51100000000E-03 0. -1.
        -11    1    3    3    0    0 -0.72973856617E+00 -0.66512831583E+01 -0.44521811701E+01  0.80370394710E+01  0.51100000000E-03 0.  1.
         12    1    3    3    0    0 -0.12734588502E+02  0.19877799326E+01  0.13151295876E+02  0.18414059753E+02  0.00000000000E+00 0. -1.
</event>
<event>
 7    1  0.5935282E-013  0.5052885E+02  0.7816164E-02  0.1300439E+00
        -11   -1    0    0    0    0  0.00000000000E+00  0.00000000000E+00  0.45593999997E+02  0.45594000000E+02  0.51100000000E-03 0.  1.
         11   -1    0    0    0    0 -0.00000000000E+00 -0.00000000000E+00 -0.45593999997E+02  0.45594000000E+02  0.51100000000E-03 0. -1.
    9900012    2    1    2    0    0 -0.38210619852E+02 -0.11229877295E+02 -0.81856436378E+01  0.50528851272E+02  0.29999973926E+02 0.  0.
        -12    1    1    2    0    0  0.38210619852E+02  0.11229877295E+02  0.81856436378E+01  0.40659148728E+02  0.00000000000E+00 0.  1.
         11    1    3    3    0    0 -0.18438491488E+01 -0.13389595943E+01 -0.41572381807E+01  0.47408039435E+01  0.51100000000E-03 0. -1.
        -11    1    3    3    0    0 -0.25634397504E+02 -0.15413260575E+02 -0.10975825621E+02  0.31861570665E+02  0.51100000000E-03 0.  1.
         12    1    3    3    0    0 -0.10732373199E+02  0.55223428744E+01  0.69474201636E+01  0.13926476663E+02  0.00000000000E+00 0. -1.
</event>
<event>
 7    1  0.5935282E-013  0.5052887E+02  0.7816164E-02  0.1300439E+00
        -11   -1    0    0    0    0  0.00000000000E+00  0.00000000000E+00  0.45593999997E+02  0.45594000000E+02  0.51100000000E-03 0.  1.
         11   -1    0    0    0    0 -0.00000000000E+00 -0.00000000000E+00 -0.45593999997E+02  0.45594000000E+02  0.51100000000E-03 0. -1.
    9900012    2    1    2    0    0 -0.27126622507E+02  0.19060351900E+02 -0.23537512078E+02  0.50528866487E+02  0.30000020174E+02 0.  0.
        -12    1    1    2    0    0  0.27126622507E+02 -0.19060351900E+02  0.23537512078E+02  0.40659133513E+02  0.00000000000E+00 0.  1.
         11    1    3    3    0    0 -0.63760991853E+01 -0.12210394339E+01 -0.34542890858E+01  0.73537535633E+01  0.51100000000E-03 0. -1.
        -11    1    3    3    0    0 -0.89043218078E+01 -0.45077350401E+01 -0.93590347508E+01  0.13682037632E+02  0.51100000000E-03 0.  1.
         12    1    3    3    0    0 -0.11846201514E+02  0.24789126374E+02 -0.10724188242E+02  0.29493075291E+02  0.00000000000E+00 0. -1.
</event>
<event>
 7    1  0.5935282E-013  0.5052888E+02  0.7816164E-02  0.1300439E+00
        -11   -1    0    0    0    0  0.00000000000E+00  0.00000000000E+00  0.45593999997E+02  0.45594000000E+02  0.51100000000E-03 0.  1.
         11   -1    0    0    0    0 -0.00000000000E+00 -0.00000000000E+00 -0.45593999997E+02  0.45594000000E+02  0.51100000000E-03 0. -1.
    9900012    2    1    2    0    0  0.42891059210E+01 -0.40100582891E+02  0.51682797954E+01  0.50528876868E+02  0.30000051728E+02 0.  0.
        -12    1    1    2    0    0 -0.42891059210E+01  0.40100582891E+02 -0.51682797954E+01  0.40659123132E+02  0.00000000000E+00 0.  1.
         11    1    3    3    0    0 -0.44932515424E+01 -0.24172903877E+02  0.13830436090E+02  0.28209919426E+02  0.51100000000E-03 0. -1.
        -11    1    3    3    0    0  0.32297672334E+01 -0.42694652228E+01  0.18541683660E+01  0.56654805852E+01  0.51100000000E-03 0.  1.
        -12    1    3    3    0    0  0.55525902300E+01 -0.11658213791E+02 -0.10516324661E+02  0.16653476857E+02  0.00000000000E+00 0.  1.
</event>
<event>
 7    1  0.5935282E-013  0.5052886E+02  0.7816164E-02  0.1300439E+00
        -11   -1    0    0    0    0  0.00000000000E+00  0.00000000000E+00  0.45593999997E+02  0.45594000000E+02  0.51100000000E-03 0.  1.
         11   -1    0    0    0    0 -0.00000000000E+00 -0.00000000000E+00 -0.45593999997E+02  0.45594000000E+02  0.51100000000E-03 0. -1.
    9900012    2    1    2    0    0  0.24796648414E+02  0.50580069940E+01 -0.31823074282E+02  0.50528864937E+02  0.30000015462E+02 0.  0.
        -12    1    1    2    0    0 -0.24796648414E+02 -0.50580069940E+01  0.31823074282E+02  0.40659135063E+02  0.00000000000E+00 0.  1.
         11    1    3    3    0    0  0.14133222194E+02 -0.66543274372E+01 -0.76077430755E+01  0.17375436633E+02  0.51100000000E-03 0. -1.
        -11    1    3    3    0    0  0.21833567887E+01  0.25109772470E+00  0.22166164210E+01  0.31214556785E+01  0.51100000000E-03 0.  1.
         12    1    3    3    0    0  0.84800694316E+01  0.11461236707E+02 -0.26431947627E+02  0.30031972626E+02  0.00000000000E+00 0. -1.
</event>
<event>
 7    1  0.5935282E-013  0.5052886E+02  0.7816164E-02  0.1300439E+00
        -11   -1    0    0    0    0  0.00000000000E+00  0.00000000000E+00  0.45593999997E+02  0.45594000000E+02  0.51100000000E-03 0.  1.
         11   -1    0    0    0    0 -0.00000000000E+00 -0.00000000000E+00 -0.45593999997E+02  0.45594000000E+02  0.51100000000E-03 0. -1.
    9900012    2    1    2    0    0 -0.29630783670E+02 -0.89621715639E+01 -0.26360237396E+02  0.50528856187E+02  0.29999988865E+02 0.  0.
        -12    1    1    2    0    0  0.29630783670E+02  0.89621715639E+01  0.26360237396E+02  0.40659143813E+02  0.00000000000E+00 0.  1.
         11    1    3    3    0    0 -0.69430242360E+01  0.64025202938E+00 -0.12925220033E+02  0.14685939581E+02  0.51100000000E-03 0.  1.
        -11    1    3    3    0    0 -0.18128021468E+02 -0.10256007112E+02 -0.19293068332E+02  0.28390726129E+02  0.51100000000E-03 0. -1.
        -12    1    3    3    0    0 -0.45597379662E+01  0.65358351887E+00  0.58580509692E+01  0.74521904762E+01  0.00000000000E+00 0.  1.
</event>
<event>
 7    1  0.5935282E-013  0.5052889E+02  0.7816164E-02  0.1300439E+00
        -11   -1    0    0    0    0  0.00000000000E+00  0.00000000000E+00  0.45593999997E+02  0.45594000000E+02  0.51100000000E-03 0. -1.
         11   -1    0    0    0    0 -0.00000000000E+00 -0.00000000000E+00 -0.45593999997E+02  0.45594000000E+02  0.51100000000E-03 0.  1.
    9900012    2    1    2    0    0 -0.15525475108E+02 -0.37397221892E+02 -0.36838630520E+01  0.50528887497E+02  0.30000084034E+02 0.  0.
        -12    1    1    2    0    0  0.15525475108E+02  0.37397221892E+02  0.36838630520E+01  0.40659112503E+02  0.00000000000E+00 0.  1.
         11    1    3    3    0    0 -0.71782295911E+01 -0.10385370062E+02 -0.12068181017E+02  0.17464933001E+02  0.51100000000E-03 0. -1.
        -11    1    3    3    0    0 -0.10330861296E+02 -0.95984339447E+01  0.61924251149E+01  0.15401388197E+02  0.51100000000E-03 0.  1.
         12    1    3    3    0    0  0.19836157791E+01 -0.17413417885E+02  0.21918928505E+01  0.17662566299E+02  0.00000000000E+00 0. -1.
</event>
<event>
 7    1  0.5935282E-013  0.5052884E+02  0.7816164E-02  0.1300439E+00
        -11   -1    0    0    0    0  0.00000000000E+00  0.00000000000E+00  0.45593999997E+02  0.45594000000E+02  0.51100000000E-03 0. -1.
         11   -1    0    0    0    0 -0.00000000000E+00 -0.00000000000E+00 -0.45593999997E+02  0.45594000000E+02  0.51100000000E-03 0.  1.
    9900012    2    1    2    0    0 -0.37656986841E+02  0.13773685723E+02 -0.67382751375E+01  0.50528838324E+02  0.29999934570E+02 0.  0.
        -12    1    1    2    0    0  0.37656986841E+02 -0.13773685723E+02  0.67382751375E+01  0.40659161676E+02  0.00000000000E+00 0.  1.
         11    1    3    3    0    0 -0.13720763754E+02  0.96613203554E+01 -0.12779020079E+01  0.16829542561E+02  0.51100000000E-03 0. -1.
        -11    1    3    3    0    0 -0.11993718535E+02  0.72636152651E+01  0.74115336101E+01  0.15860019601E+02  0.51100000000E-03 0.  1.
         12    1    3    3    0    0 -0.11942504551E+02 -0.31512498972E+01 -0.12871906740E+02  0.17839276162E+02  0.00000000000E+00 0. -1.
</event>
<event>
 7    1  0.5935282E-013  0.5052886E+02  0.7816164E-02  0.1300439E+00
        -11   -1    0    0    0    0  0.00000000000E+00  0.00000000000E+00  0.45593999997E+02  0.45594000000E+02  0.51100000000E-03 0.  1.
         11   -1    0    0    0    0 -0.00000000000E+00 -0.00000000000E+00 -0.45593999997E+02  0.45594000000E+02  0.51100000000E-03 0. -1.
    9900012    2    1    2    0    0 -0.87483419195E+01  0.38514287719E+02 -0.96582392850E+01  0.50528862885E+02  0.30000009225E+02 0.  0.
        -12    1    1    2    0    0  0.87483419195E+01 -0.38514287719E+02  0.96582392850E+01  0.40659137115E+02  0.00000000000E+00 0.  1.
         11    1    3    3    0    0  0.33214798292E+00  0.24042559325E+02  0.33934064196E+01  0.24283125593E+02  0.51100000000E-03 0. -1.
        -11    1    3    3    0    0  0.37615542508E+01  0.70585267663E+00 -0.12486711287E+01  0.40257543680E+01  0.51100000000E-03 0.  1.
        -12    1    3    3    0    0 -0.12842044153E+02  0.13765875718E+02 -0.11802974576E+02  0.22219982924E+02  0.00000000000E+00 0.  1.
</event>
<event>
 7    1  0.5935282E-013  0.5052886E+02  0.7816164E-02  0.1300439E+00
        -11   -1    0    0    0    0  0.00000000000E+00  0.00000000000E+00  0.45593999997E+02  0.45594000000E+02  0.51100000000E-03 0.  1.
         11   -1    0    0    0    0 -0.00000000000E+00 -0.00000000000E+00 -0.45593999997E+02  0.45594000000E+02  0.51100000000E-03 0. -1.
    9900012    2    1    2    0    0 -0.16557516197E+02 -0.53006045074E+01 -0.36754839884E+02  0.50528855818E+02  0.29999987743E+02 0.  0.
        -12    1    1    2    0    0  0.16557516197E+02  0.53006045074E+01  0.36754839884E+02  0.40659144182E+02  0.00000000000E+00 0.  1.
         11    1    3    3    0    0 -0.26319455816E+01  0.59408104992E+01 -0.15398075897E+02  0.16712902456E+02  0.51100000000E-03 0.  1.
        -11    1    3    3    0    0 -0.95140007977E+01  0.37275159302E+01 -0.11378125528E+02  0.15292884848E+02  0.51100000000E-03 0. -1.
        -12    1    3    3    0    0 -0.44115698173E+01 -0.14968930937E+02 -0.99786384591E+01  0.18523068513E+02  0.00000000000E+00 0.  1.
</event>
<event>
 7    1  0.5935282E-013  0.5052891E+02  0.7816164E-02  0.1300439E+00
        -11   -1    0    0    0    0  0.00000000000E+00  0.00000000000E+00  0.45593999997E+02  0.45594000000E+02  0.51100000000E-03 0. -1.
         11   -1    0    0    0    0 -0.00000000000E+00 -0.00000000000E+00 -0.45593999997E+02  0.45594000000E+02  0.51100000000E-03 0.  1.
    9900012    2    1    2    0    0 -0.62825218466E+01  0.18212215443E+02  0.35805116668E+02  0.50528914278E+02  0.30000165439E+02 0.  0.
        -12    1    1    2    0    0  0.62825218466E+01 -0.18212215443E+02 -0.35805116668E+02  0.40659085722E+02  0.00000000000E+00 0.  1.
         11    1    3    3    0    0  0.53988196549E+01  0.10755426742E+01  0.87107687536E+01  0.10304442646E+02  0.51100000000E-03 0. -1.
        -11    1    3    3    0    0 -0.90969599070E+01 -0.17709878065E+01  0.35665743959E+01  0.99303338586E+01  0.51100000000E-03 0.  1.
         12    1    3    3    0    0 -0.25843815944E+01  0.18907660576E+02  0.23527773519E+02  0.30294137773E+02  0.00000000000E+00 0. -1.
</event>
<event>
 7    1  0.5935282E-013  0.5052886E+02  0.7816164E-02  0.1300439E+00
        -11   -1    0    0    0    0  0.00000000000E+00  0.00000000000E+00  0.45593999997E+02  0.45594000000E+02  0.51100000000E-03 0. -1.
         11   -1    0    0    0    0 -0.00000000000E+00 -0.00000000000E+00 -0.45593999997E+02  0.45594000000E+02  0.51100000000E-03 0.  1.
    9900012    2    1    2    0    0  0.14224251968E+02  0.26830847091E+02  0.27035933847E+02  0.50528863036E+02  0.30000009684E+02 0.  0.
        -12    1    1    2    0    0 -0.14224251968E+02 -0.26830847091E+02 -0.27035933847E+02  0.40659136964E+02  0.00000000000E+00 0.  1.
         11    1    3    3    0    0 -0.60734313327E+00  0.26207964983E+01 -0.10685007384E+01  0.28946733937E+01  0.51100000000E-03 0. -1.
        -11    1    3    3    0    0 -0.53865887020E+01 -0.14310090146E+01  0.60769465959E+01  0.82457507138E+01  0.51100000000E-03 0.  1.
         12    1    3    3    0    0  0.20218183803E+02  0.25641059607E+02  0.22027487990E+02  0.39388438929E+02  0.00000000000E+00 0. -1.
</event>
<event>
 7    1  0.5935282E-013  0.5052885E+02  0.7816164E-02  0.1300439E+00
        -11   -1    0    0    0    0  0.00000000000E+00  0.00000000000E+00  0.45593999997E+02  0.45594000000E+02  0.51100000000E-03 0.  1.
         11   -1    0    0    0    0 -0.00000000000E+00 -0.00000000000E+00 -0.45593999997E+02  0.45594000000E+02  0.51100000000E-03 0. -1.
    9900012    2    1    2    0    0 -0.34572145370E+02  0.21005621934E+02 -0.40861644140E+01  0.50528854314E+02  0.29999983172E+02 0.  0.
        -12    1    1    2    0    0  0.34572145370E+02 -0.21005621934E+02  0.40861644140E+01  0.40659145686E+02  0.00000000000E+00 0.  1.
         11    1    3    3    0    0 -0.24399702246E+02  0.59821746251E+01 -0.44776331836E+01  0.25518249982E+02  0.51100000000E-03 0. -1.
        -11    1    3    3    0    0  0.63310704959E+00  0.90876795487E+01 -0.62108358894E+01  0.11025480798E+02  0.51100000000E-03 0.  1.
         12    1    3    3    0    0 -0.10805550174E+02  0.59357677601E+01  0.66023046590E+01  0.13985123534E+02  0.00000000000E+00 0. -1.
</event>
<event>
 7    1  0.5935282E-013  0.5052888E+02  0.7816164E-02  0.1300439E+00
        -11   -1    0    0    0    0  0.00000000000E+00  0.00000000000E+00  0.45593999997E+02  0.45594000000E+02  0.51100000000E-03 0.  1.
         11   -1    0    0    0    0 -0.00000000000E+00 -0.00000000000E+00 -0.45593999997E+02  0.45594000000E+02  0.51100000000E-03 0. -1.
    9900012    2    1    2    0    0 -0.19318609896E+02  0.20364628487E+02 -0.29414921612E+02  0.50528875622E+02  0.30000047940E+02 0.  0.
        -12    1    1    2    0    0  0.19318609896E+02 -0.20364628487E+02  0.29414921612E+02  0.40659124378E+02  0.00000000000E+00 0.  1.
         11    1    3    3    0    0  0.25759270109E+01  0.86268685905E+00 -0.16818098508E+01  0.31950138056E+01  0.51100000000E-03 0. -1.
        -11    1    3    3    0    0 -0.37286442622E+01  0.83114672679E+01 -0.24003976913E+02  0.25674387706E+02  0.51100000000E-03 0.  1.
        -12    1    3    3    0    0 -0.18165892645E+02  0.11190474360E+02 -0.37291348484E+01  0.21659474110E+02  0.00000000000E+00 0.  1.
</event>
<event>
 7    1  0.5935282E-013  0.5052882E+02  0.7816164E-02  0.1300439E+00
        -11   -1    0    0    0    0  0.00000000000E+00  0.00000000000E+00  0.45593999997E+02  0.45594000000E+02  0.51100000000E-03 0. -1.
         11   -1    0    0    0    0 -0.00000000000E+00 -0.00000000000E+00 -0.45593999997E+02  0.45594000000E+02  0.51100000000E-03 0.  1.
    9900012    2    1    2    0    0 -0.96451799537E+01 -0.25027606844E+02 -0.30557457685E+02  0.50528821198E+02  0.29999882514E+02 0.  0.
        -12    1    1    2    0    0  0.96451799537E+01  0.25027606844E+02  0.30557457685E+02  0.40659178802E+02  0.00000000000E+00 0.  1.
         11    1    3    3    0    0 -0.50525367063E+01 -0.13619651678E+02 -0.45643641448E+01  0.15226833529E+02  0.51100000000E-03 0. -1.
        -11    1    3    3    0    0  0.31903457345E+01 -0.79682395379E+01 -0.69513637938E+00  0.86112927071E+01  0.51100000000E-03 0.  1.
         12    1    3    3    0    0 -0.77829889820E+01 -0.34397156285E+01 -0.25297957160E+02  0.26690694963E+02  0.00000000000E+00 0. -1.
</event>
<event>
 7    1  0.5935282E-013  0.5052886E+02  0.7816164E-02  0.1300439E+00
        -11   -1    0    0    0    0  0.00000000000E+00  0.00000000000E+00  0.45593999997E+02  0.45594000000E+02  0.51100000000E-03 0.  1.
         11   -1    0    0    0    0 -0.00000000000E+00 -0.00000000000E+00 -0.45593999997E+02  0.45594000000E+02  0.51100000000E-03 0. -1.
    9900012    2    1    2    0    0 -0.31301774909E+02  0.19515732924E+02  0.17102650032E+02  0.50528861025E+02  0.30000003573E+02 0.  0.
        -12    1    1    2    0    0  0.31301774909E+02 -0.19515732924E+02 -0.17102650032E+02  0.40659138975E+02  0.00000000000E+00 0.  1.
         11    1    3    3    0    0 -0.11046834992E+02  0.99751681631E+01  0.34006374280E+01  0.15267641547E+02  0.51100000000E-03 0. -1.
        -11    1    3    3    0    0 -0.21330118978E+02  0.14125615936E+02  0.60706841998E+01  0.26293729445E+02  0.51100000000E-03 0.  1.
        -12    1    3    3    0    0  0.10751790615E+01 -0.45850511745E+01  0.76313284046E+01  0.89674900338E+01  0.00000000000E+00 0.  1.
</event>
<event>
 7    1  0.5935282E-013  0.5052886E+02  0.7816164E-02  0.1300439E+00
        -11   -1    0    0    0    0  0.00000000000E+00  0.00000000000E+00  0.45593999997E+02  0.45594000000E+02  0.51100000000E-03 0. -1.
         11   -1    0    0    0    0 -0.00000000000E+00 -0.00000000000E+00 -0.45593999997E+02  0.45594000000E+02  0.51100000000E-03 0.  1.
    9900012    2    1    2    0    0  0.83766849574E+01 -0.39785316080E+02  0.35445157755E+00  0.50528857579E+02  0.29999993098E+02 0.  0.
        -12    1    1    2    0    0 -0.83766849574E+01  0.39785316080E+02 -0.35445157755E+00  0.40659142421E+02  0.00000000000E+00 0.  1.
         11    1    3    3    0    0  0.44247327895E+01 -0.25911192993E+02  0.84869905490E+01  0.27622403795E+02  0.51100000000E-03 0. -1.
        -11    1    3    3    0    0  0.94962011619E+01 -0.91487722014E+01 -0.19060889970E+01  0.13323327093E+02  0.51100000000E-03 0.  1.
        -12    1    3    3    0    0 -0.55442489939E+01 -0.47253508857E+01 -0.62264499744E+01  0.95831266914E+01  0.00000000000E+00 0.  1.
</event>
<event>
 7    1  0.5935282E-013  0.5052887E+02  0.7816164E-02  0.1300439E+00
        -11   -1    0    0    0    0  0.00000000000E+00  0.00000000000E+00  0.45593999997E+02  0.45594000000E+02  0.51100000000E-03 0.  1.
         11   -1    0    0    0    0 -0.00000000000E+00 -0.00000000000E+00 -0.45593999997E+02  0.45594000000E+02  0.51100000000E-03 0. -1.
    9900012    2    1    2    0    0 -0.32760565873E+02  0.57860551554E+00 -0.24074375437E+02  0.50528868020E+02  0.30000024835E+02 0.  0.
        -12    1    1    2    0    0  0.32760565873E+02 -0.57860551554E+00  0.24074375437E+02  0.40659131980E+02  0.00000000000E+00 0.  1.
         11    1    3    3    0    0 -0.17090272599E+01  0.20899221811E+01 -0.13477654736E+02  0.13745389276E+02  0.51100000000E-03 0. -1.
        -11    1    3    3    0    0 -0.14167984008E+02 -0.83113723431E+01 -0.16693817491E+01  0.16510527453E+02  0.51100000000E-03 0.  1.
         12    1    3    3    0    0 -0.16883554605E+02  0.68000556776E+01 -0.89273389519E+01  0.20272951292E+02  0.00000000000E+00 0. -1.
</event>
