<event>
 8    1  0.5250708E-010  0.9118800E+02  0.7816164E-02  0.1184000E+00
        -11   -1    0    0    0    0  0.00000000000E+00  0.00000000000E+00  0.45593999997E+02  0.45594000000E+02  0.51100000000E-03 0. -1.
         11   -1    0    0    0    0 -0.00000000000E+00 -0.00000000000E+00 -0.45593999997E+02  0.45594000000E+02  0.51100000000E-03 0.  1.
         23    2    1    2    0    0  0.00000000000E+00  0.00000000000E+00  0.00000000000E+00  0.91188000000E+02  0.91188000000E+02 0.  0.
    9900012    2    3    3    0    0  0.16168363864E+01 -0.83397087654E+01  0.42561233098E+02  0.47787268843E+02  0.19999989961E+02 0.  0.
        -12    1    3    3    0    0 -0.16168363864E+01  0.83397087654E+01 -0.42561233098E+02  0.43400731157E+02  0.00000000000E+00 0.  1.
         11    1    4    4    0    0  0.25445465931E+01 -0.56624342931E+01  0.11429897270E+02  0.13006937816E+02  0.51100000000E-03 0. -1.
        -11    1    4    4    0    0  0.11011571894E+01  0.61786307724E+01  0.10422695886E+02  0.12166372309E+02  0.51100000000E-03 0.  1.
        -12    1    4    4    0    0 -0.20288673962E+01 -0.88559052447E+01  0.20708639942E+02  0.22613958717E+02  0.00000000000E+00 0.  1.
</event>
<event>
 8    1  0.5250708E-010  0.9118800E+02  0.7816164E-02  0.1184000E+00
        -11   -1    0    0    0    0  0.00000000000E+00  0.00000000000E+00  0.45593999997E+02  0.45594000000E+02  0.51100000000E-03 0. -1.
         11   -1    0    0    0    0 -0.00000000000E+00 -0.00000000000E+00 -0.45593999997E+02  0.45594000000E+02  0.51100000000E-03 0.  1.
         23    2    1    2    0    0 -0.44408920985E-15  0.00000000000E+00  0.00000000000E+00  0.91188000000E+02  0.91188000000E+02 0.  0.
    9900012    2    3    3    0    0 -0.12399498956E+01  0.10891570873E+02  0.41993565229E+02  0.47787270600E+02  0.19999997975E+02 0.  0.
        -12    1    3    3    0    0  0.12399498956E+01 -0.10891570873E+02 -0.41993565229E+02  0.43400729400E+02  0.00000000000E+00 0.  1.
         11    1    4    4    0    0  0.32512824168E+01  0.82563703112E+01  0.34437713540E+02  0.35562544934E+02  0.51100000000E-03 0. -1.
        -11    1    4    4    0    0 -0.87341978042E+00 -0.28507907823E+01  0.29913915932E+01  0.42235404724E+01  0.51100000000E-03 0.  1.
        -12    1    4    4    0    0 -0.36178125320E+01  0.54859913438E+01  0.45644600956E+01  0.80011851938E+01  0.00000000000E+00 0.  1.
</event>
<event>
 8    1  0.5250708E-010  0.9118800E+02  0.7816164E-02  0.1184000E+00
        -11   -1    0    0    0    0  0.00000000000E+00  0.00000000000E+00  0.45593999997E+02  0.45594000000E+02  0.51100000000E-03 0. -1.
         11   -1    0    0    0    0 -0.00000000000E+00 -0.00000000000E+00 -0.45593999997E+02  0.45594000000E+02  0.51100000000E-03 0.  1.
         23    2    1    2    0    0  0.17763568394E-14  0.00000000000E+00  0.00000000000E+00  0.91188000000E+02  0.91188000000E+02 0.  0.
    9900012    2    3    3    0    0 -0.15236639429E+02 -0.11474402919E+02  0.38984696441E+02  0.47787266596E+02  0.19999979716E+02 0.  0.
        -12    1    3    3    0    0  0.15236639429E+02  0.11474402919E+02 -0.38984696441E+02  0.43400733404E+02  0.00000000000E+00 0.  1.
         11    1    4    4    0    0 -0.64812766071E+01 -0.93814612160E+01  0.26518217597E+02  0.28865803744E+02  0.51100000000E-03 0. -1.
        -11    1    4    4    0    0 -0.65820096639E+01 -0.56515200227E+01  0.41472266675E+01  0.96157172939E+01  0.51100000000E-03 0.  1.
        -12    1    4    4    0    0 -0.21733531576E+01  0.35585783195E+01  0.83192521770E+01  0.93057455579E+01  0.00000000000E+00 0.  1.
</event>
<event>
 8    1  0.5250708E-010  0.9118800E+02  0.7816164E-02  0.1184000E+00
        -11   -1    0    0    0    0  0.00000000000E+00  0.00000000000E+00  0.45593999997E+02  0.45594000000E+02  0.51100000000E-03 0. -1.
         11   -1    0    0    0    0 -0.00000000000E+00 -0.00000000000E+00 -0.45593999997E+02  0.45594000000E+02  0.51100000000E-03 0.  1.
         23    2    1    2    0    0 -0.44408920985E-15  0.00000000000E+00  0.00000000000E+00  0.91188000000E+02  0.91188000000E+02 0.  0.
    9900012    2    3    3    0    0 -0.36001501302E+01  0.36817348016E+02 -0.22696816760E+02  0.47787266286E+02  0.19999978304E+02 0.  0.
         12    1    3    3    0    0  0.36001501302E+01 -0.36817348016E+02  0.22696816760E+02  0.43400733714E+02  0.00000000000E+00 0. -1.
         11    1    4    4    0    0 -0.34123148819E+01  0.24712587608E+02 -0.13199858773E+02  0.28223964126E+02  0.51100000000E-03 0. -1.
        -11    1    4    4    0    0 -0.36496140330E+01  0.38880495228E+01 -0.92101258983E+01  0.10642510559E+02  0.51100000000E-03 0.  1.
         12    1    4    4    0    0  0.34617787847E+01  0.82167108854E+01 -0.28683208873E+00  0.89207916003E+01  0.00000000000E+00 0. -1.
</event>
<event>
 8    1  0.5250708E-010  0.9118800E+02  0.7816164E-02  0.1184000E+00
        -11   -1    0    0    0    0  0.00000000000E+00  0.00000000000E+00  0.45593999997E+02  0.45594000000E+02  0.51100000000E-03 0. -1.
         11   -1    0    0    0    0 -0.00000000000E+00 -0.00000000000E+00 -0.45593999997E+02  0.45594000000E+02  0.51100000000E-03 0.  1.
         23    2    1    2    0    0  0.00000000000E+00  0.00000000000E+00  0.00000000000E+00  0.91188000000E+02  0.91188000000E+02 0.  0.
    9900012    2    3    3    0    0 -0.10914641037E+02  0.88366165191E+01  0.41065876096E+02  0.47787293093E+02  0.20000100528E+02 0.  0.
        -12    1    3    3    0    0  0.10914641037E+02 -0.88366165191E+01 -0.41065876096E+02  0.43400706907E+02  0.00000000000E+00 0.  1.
         11    1    4    4    0    0  0.18985979288E+00 -0.58138487136E+01  0.12396962398E+02  0.13693851196E+02  0.51100000000E-03 0.  1.
        -11    1    4    4    0    0 -0.22436075794E+01  0.40546826763E+01  0.75463551348E+01  0.88556028963E+01  0.51100000000E-03 0. -1.
        -12    1    4    4    0    0 -0.88608932501E+01  0.10595782556E+02  0.21122558564E+02  0.25237839001E+02  0.00000000000E+00 0.  1.
</event>
<event>
 8    1  0.5250708E-010  0.9118800E+02  0.7816164E-02  0.1184000E+00
        -11   -1    0    0    0    0  0.00000000000E+00  0.00000000000E+00  0.45593999997E+02  0.45594000000E+02  0.51100000000E-03 0. -1.
         11   -1    0    0    0    0 -0.00000000000E+00 -0.00000000000E+00 -0.45593999997E+02  0.45594000000E+02  0.51100000000E-03 0.  1.
         23    2    1    2    0    0 -0.71054273576E-14  0.00000000000E+00 -0.17763568394E-14  0.91188000000E+02  0.91188000000E+02 0.  0.
    9900012    2    3    3    0    0  0.42343172592E+02  0.24790568498E+01  0.91941962859E+01  0.47787271511E+02  0.20000002128E+02 0.  0.
        -12    1    3    3    0    0 -0.42343172592E+02 -0.24790568498E+01 -0.91941962859E+01  0.43400728489E+02  0.00000000000E+00 0.  1.
         11    1    4    4    0    0  0.14384013083E+02  0.86186718362E+01  0.35981652108E+01  0.17150164131E+02  0.51100000000E-03 0. -1.
        -11    1    4    4    0    0  0.18231003782E+02 -0.12828862493E+01  0.72060716319E+01  0.19645426049E+02  0.51100000000E-03 0.  1.
         12    1    4    4    0    0  0.97281557276E+01 -0.48567287371E+01 -0.16100405568E+01  0.10991681331E+02  0.00000000000E+00 0. -1.
</event>
<event>
 8    1  0.5250708E-010  0.9118800E+02  0.7816164E-02  0.1184000E+00
        -11   -1    0    0    0    0  0.00000000000E+00  0.00000000000E+00  0.45593999997E+02  0.45594000000E+02  0.51100000000E-03 0. -1.
         11   -1    0    0    0    0 -0.00000000000E+00 -0.00000000000E+00 -0.45593999997E+02  0.45594000000E+02  0.51100000000E-03 0.  1.
         23    2    1    2    0    0 -0.88817841970E-15  0.00000000000E+00  0.00000000000E+00  0.91188000000E+02  0.91188000000E+02 0.  0.
    9900012    2    3    3    0    0 -0.58068386265E+01  0.38179909323E+02 -0.19803994621E+02  0.47787273581E+02  0.20000011567E+02 0.  0.
         12    1    3    3    0    0  0.58068386265E+01 -0.38179909323E+02  0.19803994621E+02  0.43400726419E+02  0.00000000000E+00 0. -1.
         11    1    4    4    0    0  0.34396782959E+01  0.10078792502E+01 -0.58095493439E+01  0.68262779905E+01  0.51100000000E-03 0. -1.
        -11    1    4    4    0    0 -0.22907039305E+01  0.17011540023E+02 -0.59320860095E+01  0.18161207645E+02  0.51100000000E-03 0.  1.
        -12    1    4    4    0    0 -0.69558129919E+01  0.20160490049E+02 -0.80623592675E+01  0.22799787946E+02  0.00000000000E+00 0.  1.
</event>
<event>
 8    1  0.5250708E-010  0.9118800E+02  0.7816164E-02  0.1184000E+00
        -11   -1    0    0    0    0  0.00000000000E+00  0.00000000000E+00  0.45593999997E+02  0.45594000000E+02  0.51100000000E-03 0.  1.
         11   -1    0    0    0    0 -0.00000000000E+00 -0.00000000000E+00 -0.45593999997E+02  0.45594000000E+02  0.51100000000E-03 0. -1.
         23    2    1    2    0    0  0.71054273576E-14  0.00000000000E+00  0.00000000000E+00  0.91188000000E+02  0.91188000000E+02 0.  0.
    9900012    2    3    3    0    0 -0.36451227254E+02 -0.86670585607E+01  0.21904646414E+02  0.47787269512E+02  0.19999993012E+02 0.  0.
        -12    1    3    3    0    0  0.36451227254E+02  0.86670585607E+01 -0.21904646414E+02  0.43400730488E+02  0.00000000000E+00 0.  1.
         11    1    4    4    0    0 -0.21865116965E+02 -0.11353867929E+02  0.57866910324E+01  0.25307695474E+02  0.51100000000E-03 0.  1.
        -11    1    4    4    0    0 -0.73033322549E+01 -0.17437500403E+00  0.48781842156E+01  0.87844038027E+01  0.51100000000E-03 0. -1.
        -12    1    4    4    0    0 -0.72827780340E+01  0.28611843726E+01  0.11239771166E+02  0.13695170235E+02  0.00000000000E+00 0.  1.
</event>
<event>
 8    1  0.5250708E-010  0.9118800E+02  0.7816164E-02  0.1184000E+00
        -11   -1    0    0    0    0  0.00000000000E+00  0.00000000000E+00  0.45593999997E+02  0.45594000000E+02  0.51100000000E-03 0. -1.
         11   -1    0    0    0    0 -0.00000000000E+00 -0.00000000000E+00 -0.45593999997E+02  0.45594000000E+02  0.51100000000E-03 0.  1.
         23    2    1    2    0    0 -0.17763568394E-14  0.00000000000E+00  0.00000000000E+00  0.91188000000E+02  0.91188000000E+02 0.  0.
    9900012    2    3    3    0    0 -0.14771928665E+02  0.15168581250E+02 -0.37885718105E+02  0.47787269938E+02  0.19999994954E+02 0.  0.
         12    1    3    3    0    0  0.14771928665E+02 -0.15168581250E+02  0.37885718105E+02  0.43400730062E+02  0.00000000000E+00 0. -1.
         11    1    4    4    0    0 -0.75253293956E+01 -0.13881347550E+01 -0.22427313531E+02  0.23696875175E+02  0.51100000000E-03 0. -1.
        -11    1    4    4    0    0 -0.48788646729E+01  0.66422856972E+01 -0.61093124184E+01  0.10258994993E+02  0.51100000000E-03 0.  1.
         12    1    4    4    0    0 -0.23677345963E+01  0.99144303078E+01 -0.93490921557E+01  0.13831399769E+02  0.00000000000E+00 0. -1.
</event>
<event>
 8    1  0.5250708E-010  0.9118800E+02  0.7816164E-02  0.1184000E+00
        -11   -1    0    0    0    0  0.00000000000E+00  0.00000000000E+00  0.45593999997E+02  0.45594000000E+02  0.51100000000E-03 0. -1.
         11   -1    0    0    0    0 -0.00000000000E+00 -0.00000000000E+00 -0.45593999997E+02  0.45594000000E+02  0.51100000000E-03 0.  1.
         23    2    1    2    0    0 -0.71054273576E-14 -0.22204460493E-15 -0.35527136788E-14  0.91188000000E+02  0.91188000000E+02 0.  0.
    9900012    2    3    3    0    0  0.38616045123E+02  0.19732187600E+01  0.19711187819E+02  0.47787268918E+02  0.19999990306E+02 0.  0.
         12    1    3    3    0    0 -0.38616045123E+02 -0.19732187600E+01 -0.19711187819E+02  0.43400731082E+02  0.00000000000E+00 0. -1.
         11    1    4    4    0    0  0.70465169581E+01 -0.26280149561E+01  0.83034923969E+01  0.11203028613E+02  0.51100000000E-03 0.  1.
        -11    1    4    4    0    0  0.13897428599E+02 -0.10850866755E+01  0.11419203010E+02  0.18019826092E+02  0.51100000000E-03 0. -1.
         12    1    4    4    0    0  0.17672099565E+02  0.56863203917E+01 -0.11507587656E-01  0.18564414213E+02  0.00000000000E+00 0. -1.
</event>
<event>
 8    1  0.5250708E-010  0.9118800E+02  0.7816164E-02  0.1184000E+00
        -11   -1    0    0    0    0  0.00000000000E+00  0.00000000000E+00  0.45593999997E+02  0.45594000000E+02  0.51100000000E-03 0. -1.
         11   -1    0    0    0    0 -0.00000000000E+00 -0.00000000000E+00 -0.45593999997E+02  0.45594000000E+02  0.51100000000E-03 0.  1.
         23    2    1    2    0    0  0.00000000000E+00  0.00000000000E+00 -0.35527136788E-14  0.91188000000E+02  0.91188000000E+02 0.  0.
    9900012    2    3    3    0    0  0.30887037731E+02 -0.14713731889E+02 -0.26704305903E+02  0.47787274664E+02  0.20000016504E+02 0.  0.
         12    1    3    3    0    0 -0.30887037731E+02  0.14713731889E+02  0.26704305903E+02  0.43400725336E+02  0.00000000000E+00 0. -1.
         11    1    4    4    0    0  0.62291740816E+01 -0.12795737594E+00 -0.58750490904E+01  0.85635964936E+01  0.51100000000E-03 0.  1.
        -11    1    4    4    0    0  0.18697788086E+02 -0.15213391530E+01 -0.13416748684E+02  0.23063627157E+02  0.51100000000E-03 0. -1.
         12    1    4    4    0    0  0.59600755635E+01 -0.13064435360E+02 -0.74125081283E+01  0.16160051013E+02  0.00000000000E+00 0. -1.
</event>
<event>
 8    1  0.5250708E-010  0.9118800E+02  0.7816164E-02  0.1184000E+00
        -11   -1    0    0    0    0  0.00000000000E+00  0.00000000000E+00  0.45593999997E+02  0.45594000000E+02  0.51100000000E-03 0.  1.
         11   -1    0    0    0    0 -0.00000000000E+00 -0.00000000000E+00 -0.45593999997E+02  0.45594000000E+02  0.51100000000E-03 0. -1.
         23    2    1    2    0    0  0.00000000000E+00  0.00000000000E+00  0.88817841970E-15  0.91188000000E+02  0.91188000000E+02 0.  0.
    9900012    2    3    3    0    0  0.13870340686E+02  0.40344751595E+02 -0.79711355930E+01  0.47787258824E+02  0.19999944280E+02 0.  0.
        -12    1    3    3    0    0 -0.13870340686E+02 -0.40344751595E+02  0.79711355930E+01  0.43400741176E+02  0.00000000000E+00 0.  1.
         11    1    4    4    0    0  0.69121552527E+01  0.37441625056E+01 -0.62935498839E+01  0.10070025497E+02  0.51100000000E-03 0. -1.
        -11    1    4    4    0    0  0.67227236823E+01  0.21767098692E+02  0.49680310527E-01  0.22781660773E+02  0.51100000000E-03 0.  1.
        -12    1    4    4    0    0  0.23546175085E+00  0.14833490397E+02 -0.17272660196E+01  0.14935572554E+02  0.00000000000E+00 0.  1.
</event>
<event>
 8    1  0.5250708E-010  0.9118800E+02  0.7816164E-02  0.1184000E+00
        -11   -1    0    0    0    0  0.00000000000E+00  0.00000000000E+00  0.45593999997E+02  0.45594000000E+02  0.51100000000E-03 0. -1.
         11   -1    0    0    0    0 -0.00000000000E+00 -0.00000000000E+00 -0.45593999997E+02  0.45594000000E+02  0.51100000000E-03 0.  1.
         23    2    1    2    0    0  0.17763568394E-14  0.17763568394E-14  0.71054273576E-14  0.91188000000E+02  0.91188000000E+02 0.  0.
    9900012    2    3    3    0    0 -0.11468362839E+02 -0.90069868515E+01 -0.40877548804E+02  0.47787272419E+02  0.20000006267E+02 0.  0.
         12    1    3    3    0    0  0.11468362839E+02  0.90069868515E+01  0.40877548804E+02  0.43400727581E+02  0.00000000000E+00 0. -1.
         11    1    4    4    0    0  0.41905459560E+00  0.24307870196E+01 -0.13909754333E+02  0.14126768850E+02  0.51100000000E-03 0. -1.
        -11    1    4    4    0    0 -0.38669997779E+01  0.16209696557E+01 -0.27950757898E+01  0.50392141093E+01  0.51100000000E-03 0.  1.
        -12    1    4    4    0    0 -0.80204176569E+01 -0.13058743527E+02 -0.24172718681E+02  0.28621289460E+02  0.00000000000E+00 0.  1.
</event>
<event>
 8    1  0.5250708E-010  0.9118800E+02  0.7816164E-02  0.1184000E+00
        -11   -1    0    0    0    0  0.00000000000E+00  0.00000000000E+00  0.45593999997E+02  0.45594000000E+02  0.51100000000E-03 0. -1.
         11   -1    0    0    0    0 -0.00000000000E+00 -0.00000000000E+00 -0.45593999997E+02  0.45594000000E+02  0.51100000000E-03 0.  1.
         23    2    1    2    0    0  0.00000000000E+00  0.00000000000E+00  0.00000000000E+00  0.91188000000E+02  0.91188000000E+02 0.  0.
    9900012    2    3    3    0    0 -0.17957660983E+02 -0.31197171275E+02 -0.24246279723E+02  0.47787272311E+02  0.20000005773E+02 0.  0.
         12    1    3    3    0    0  0.17957660983E+02  0.31197171275E+02  0.24246279723E+02  0.43400727689E+02  0.00000000000E+00 0. -1.
         11    1    4    4    0    0 -0.71805769208E+01 -0.18876424163E+01 -0.11461694906E+02  0.13656292659E+02  0.51100000000E-03 0. -1.
        -11    1    4    4    0    0 -0.23754948973E+01 -0.10220580637E+02 -0.65229337035E+01  0.12355238117E+02  0.51100000000E-03 0.  1.
         12    1    4    4    0    0 -0.84015891651E+01 -0.19088948222E+02 -0.62616511133E+01  0.21775741535E+02  0.00000000000E+00 0. -1.
</event>
<event>
 8    1  0.5250708E-010  0.9118800E+02  0.7816164E-02  0.1184000E+00
        -11   -1    0    0    0    0  0.00000000000E+00  0.00000000000E+00  0.45593999997E+02  0.45594000000E+02  0.51100000000E-03 0. -1.
         11   -1    0    0    0    0 -0.00000000000E+00 -0.00000000000E+00 -0.45593999997E+02  0.45594000000E+02  0.51100000000E-03 0.  1.
         23    2    1    2    0    0  0.00000000000E+00  0.00000000000E+00  0.00000000000E+00  0.91188000000E+02  0.91188000000E+02 0.  0.
    9900012    2    3    3    0    0 -0.17310971848E+02  0.33180547248E+02  0.21977368953E+02  0.47787271802E+02  0.20000003456E+02 0.  0.
        -12    1    3    3    0    0  0.17310971848E+02 -0.33180547248E+02 -0.21977368953E+02  0.43400728198E+02  0.00000000000E+00 0.  1.
         11    1    4    4    0    0 -0.12978529978E+02  0.18259657123E+02  0.16383346083E+02  0.27753762768E+02  0.51100000000E-03 0. -1.
        -11    1    4    4    0    0 -0.60988336870E+01  0.37847576999E+01 -0.53925820420E+00  0.71979832495E+01  0.51100000000E-03 0.  1.
        -12    1    4    4    0    0  0.17663918173E+01  0.11136132424E+02  0.61332810746E+01  0.12835525785E+02  0.00000000000E+00 0.  1.
</event>
<event>
 8    1  0.5250708E-010  0.9118800E+02  0.7816164E-02  0.1184000E+00
        -11   -1    0    0    0    0  0.00000000000E+00  0.00000000000E+00  0.45593999997E+02  0.45594000000E+02  0.51100000000E-03 0. -1.
         11   -1    0    0    0    0 -0.00000000000E+00 -0.00000000000E+00 -0.45593999997E+02  0.45594000000E+02  0.51100000000E-03 0.  1.
         23    2    1    2    0    0  0.00000000000E+00  0.35527136788E-14 -0.17763568394E-14  0.91188000000E+02  0.91188000000E+02 0.  0.
    9900012    2    3    3    0    0  0.32653525660E+02 -0.24789933894E+02 -0.14241829400E+02  0.47787271145E+02  0.20000000460E+02 0.  0.
         12    1    3    3    0    0 -0.32653525660E+02  0.24789933894E+02  0.14241829400E+02  0.43400728855E+02  0.00000000000E+00 0. -1.
         11    1    4    4    0    0  0.20810477479E+02 -0.16442408331E+02 -0.95242953343E+01  0.28180506853E+02  0.51100000000E-03 0. -1.
        -11    1    4    4    0    0  0.42562161418E+01  0.43718153308E+00 -0.65821748364E+01  0.78505750984E+01  0.51100000000E-03 0.  1.
         12    1    4    4    0    0  0.75868320389E+01 -0.87847070965E+01  0.18646407708E+01  0.11756189194E+02  0.00000000000E+00 0. -1.
</event>
<event>
 8    1  0.5250708E-010  0.9118800E+02  0.7816164E-02  0.1184000E+00
        -11   -1    0    0    0    0  0.00000000000E+00  0.00000000000E+00  0.45593999997E+02  0.45594000000E+02  0.51100000000E-03 0. -1.
         11   -1    0    0    0    0 -0.00000000000E+00 -0.00000000000E+00 -0.45593999997E+02  0.45594000000E+02  0.51100000000E-03 0.  1.
         23    2    1    2    0    0  0.00000000000E+00  0.00000000000E+00  0.00000000000E+00  0.91188000000E+02  0.91188000000E+02 0.  0.
    9900012    2    3    3    0    0 -0.19264719034E+01 -0.21325530949E+02  0.37750940719E+02  0.47787273169E+02  0.20000009687E+02 0.  0.
        -12    1    3    3    0    0  0.19264719034E+01  0.21325530949E+02 -0.37750940719E+02  0.43400726831E+02  0.00000000000E+00 0.  1.
         11    1    4    4    0    0 -0.34392756769E+01 -0.11945125303E+02  0.15194649843E+02  0.19631403918E+02  0.51100000000E-03 0. -1.
        -11    1    4    4    0    0 -0.27826721015E+01 -0.20923807188E+00 -0.62437993439E+00  0.28595270866E+01  0.51100000000E-03 0.  1.
         12    1    4    4    0    0  0.42954758751E+01 -0.91711675751E+01  0.23180670811E+02  0.25296342165E+02  0.00000000000E+00 0. -1.
</event>
<event>
 8    1  0.5250708E-010  0.9118800E+02  0.7816164E-02  0.1184000E+00
        -11   -1    0    0    0    0  0.00000000000E+00  0.00000000000E+00  0.45593999997E+02  0.45594000000E+02  0.51100000000E-03 0. -1.
         11   -1    0    0    0    0 -0.00000000000E+00 -0.00000000000E+00 -0.45593999997E+02  0.45594000000E+02  0.51100000000E-03 0.  1.
         23    2    1    2    0    0  0.00000000000E+00 -0.35527136788E-14 -0.71054273576E-14  0.91188000000E+02  0.91188000000E+02 0.  0.
    9900012    2    3    3    0    0  0.81173849889E+01  0.28550050524E+02  0.31664264755E+02  0.47787274356E+02  0.20000015098E+02 0.  0.
        -12    1    3    3    0    0 -0.81173849889E+01 -0.28550050524E+02 -0.31664264755E+02  0.43400725644E+02  0.00000000000E+00 0.  1.
         11    1    4    4    0    0  0.27979539156E+01  0.78008732951E+01  0.15353613656E+02  0.17447510506E+02  0.51100000000E-03 0. -1.
        -11    1    4    4    0    0  0.73869170811E+01  0.20174285358E+02  0.17654855859E+02  0.27807593735E+02  0.51100000000E-03 0.  1.
        -12    1    4    4    0    0 -0.20674860077E+01  0.57489187112E+00 -0.13442047604E+01  0.25321701155E+01  0.00000000000E+00 0.  1.
</event>
<event>
 8    1  0.5250708E-010  0.9118800E+02  0.7816164E-02  0.1184000E+00
        -11   -1    0    0    0    0  0.00000000000E+00  0.00000000000E+00  0.45593999997E+02  0.45594000000E+02  0.51100000000E-03 0. -1.
         11   -1    0    0    0    0 -0.00000000000E+00 -0.00000000000E+00 -0.45593999997E+02  0.45594000000E+02  0.51100000000E-03 0.  1.
         23    2    1    2    0    0  0.00000000000E+00  0.00000000000E+00  0.00000000000E+00  0.91188000000E+02  0.91188000000E+02 0.  0.
    9900012    2    3    3    0    0 -0.31876031484E+02 -0.18788393249E+01 -0.29394078535E+02  0.47787271051E+02  0.20000000031E+02 0.  0.
         12    1    3    3    0    0  0.31876031484E+02  0.18788393249E+01  0.29394078535E+02  0.43400728949E+02  0.00000000000E+00 0. -1.
         11    1    4    4    0    0 -0.39109418634E+00  0.41414975158E+00  0.17199536971E+01  0.18118266089E+01  0.51100000000E-03 0. -1.
        -11    1    4    4    0    0 -0.27186521647E+01  0.12726819387E+00 -0.95840321044E+01  0.99629783913E+01  0.51100000000E-03 0.  1.
        -12    1    4    4    0    0 -0.28766285132E+02 -0.24202572704E+01 -0.21530000128E+02  0.36012466051E+02  0.00000000000E+00 0.  1.
</event>
<event>
 8    1  0.5250708E-010  0.9118800E+02  0.7816164E-02  0.1184000E+00
        -11   -1    0    0    0    0  0.00000000000E+00  0.00000000000E+00  0.45593999997E+02  0.45594000000E+02  0.51100000000E-03 0. -1.
         11   -1    0    0    0    0 -0.00000000000E+00 -0.00000000000E+00 -0.45593999997E+02  0.45594000000E+02  0.51100000000E-03 0.  1.
         23    2    1    2    0    0  0.17763568394E-14  0.00000000000E+00  0.00000000000E+00  0.91188000000E+02  0.91188000000E+02 0.  0.
    9900012    2    3    3    0    0 -0.12873509462E+02  0.11642914821E+02 -0.39778618538E+02  0.47787271847E+02  0.20000003660E+02 0.  0.
         12    1    3    3    0    0  0.12873509462E+02 -0.11642914821E+02  0.39778618538E+02  0.43400728153E+02  0.00000000000E+00 0. -1.
         11    1    4    4    0    0 -0.25116783717E+01 -0.17279930605E+01 -0.98413534480E+01  0.10302753332E+02  0.51100000000E-03 0.  1.
        -11    1    4    4    0    0  0.85302309340E+00  0.50437867375E+01 -0.19190203305E+02  0.19860295471E+02  0.51100000000E-03 0. -1.
         12    1    4    4    0    0 -0.11214854184E+02  0.83271211439E+01 -0.10747061785E+02  0.17624223044E+02  0.00000000000E+00 0. -1.
</event>
<event>
 8    1  0.5250708E-010  0.9118800E+02  0.7816164E-02  0.1184000E+00
        -11   -1    0    0    0    0  0.00000000000E+00  0.00000000000E+00  0.45593999997E+02  0.45594000000E+02  0.51100000000E-03 0. -1.
         11   -1    0    0    0    0 -0.00000000000E+00 -0.00000000000E+00 -0.45593999997E+02  0.45594000000E+02  0.51100000000E-03 0.  1.
         23    2    1    2    0    0 -0.11102230246E-15  0.35527136788E-14  0.00000000000E+00  0.91188000000E+02  0.91188000000E+02 0.  0.
    9900012    2    3    3    0    0 -0.30532455368E+00  0.27786066868E+02  0.33338636076E+02  0.47787269701E+02  0.19999993876E+02 0.  0.
        -12    1    3    3    0    0  0.30532455368E+00 -0.27786066868E+02 -0.33338636076E+02  0.43400730299E+02  0.00000000000E+00 0.  1.
         11    1    4    4    0    0 -0.34492399252E+00  0.15518241252E+02  0.19180304246E+02  0.24674254910E+02  0.51100000000E-03 0. -1.
        -11    1    4    4    0    0  0.28407811440E+01 -0.34559551657E-01  0.90766072925E+01  0.95108376116E+01  0.51100000000E-03 0.  1.
        -12    1    4    4    0    0 -0.28011817052E+01  0.12302385168E+02  0.50817245369E+01  0.13602177180E+02  0.00000000000E+00 0.  1.
</event>
<event>
 8    1  0.5250708E-010  0.9118800E+02  0.7816164E-02  0.1184000E+00
        -11   -1    0    0    0    0  0.00000000000E+00  0.00000000000E+00  0.45593999997E+02  0.45594000000E+02  0.51100000000E-03 0.  1.
         11   -1    0    0    0    0 -0.00000000000E+00 -0.00000000000E+00 -0.45593999997E+02  0.45594000000E+02  0.51100000000E-03 0. -1.
         23    2    1    2    0    0  0.35527136788E-14  0.00000000000E+00  0.00000000000E+00  0.91188000000E+02  0.91188000000E+02 0.  0.
    9900012    2    3    3    0    0  0.31303009328E+02  0.26741336975E+02 -0.13734836203E+02  0.47787271645E+02  0.20000002740E+02 0.  0.
         12    1    3    3    0    0 -0.31303009328E+02 -0.26741336975E+02  0.13734836203E+02  0.43400728355E+02  0.00000000000E+00 0. -1.
         11    1    4    4    0    0  0.68207113325E+01  0.11836717018E+02  0.13317987580E+01  0.13726021311E+02  0.51100000000E-03 0. -1.
        -11    1    4    4    0    0  0.17013667942E+02  0.15551842890E+02 -0.11273254258E+02  0.25659520182E+02  0.51100000000E-03 0.  1.
        -12    1    4    4    0    0  0.74686300536E+01 -0.64722293339E+00 -0.37933807026E+01  0.84017301527E+01  0.00000000000E+00 0.  1.
</event>
<event>
 8    1  0.5250708E-010  0.9118800E+02  0.7816164E-02  0.1184000E+00
        -11   -1    0    0    0    0  0.00000000000E+00  0.00000000000E+00  0.45593999997E+02  0.45594000000E+02  0.51100000000E-03 0. -1.
         11   -1    0    0    0    0 -0.00000000000E+00 -0.00000000000E+00 -0.45593999997E+02  0.45594000000E+02  0.51100000000E-03 0.  1.
         23    2    1    2    0    0  0.35527136788E-14  0.00000000000E+00  0.00000000000E+00  0.91188000000E+02  0.91188000000E+02 0.  0.
    9900012    2    3    3    0    0  0.21322440311E+02 -0.16272996476E+02  0.34119883132E+02  0.47787270743E+02  0.19999998624E+02 0.  0.
        -12    1    3    3    0    0 -0.21322440311E+02  0.16272996476E+02 -0.34119883132E+02  0.43400729257E+02  0.00000000000E+00 0.  1.
         11    1    4    4    0    0  0.85054013107E+00 -0.63084620120E+01  0.96369191747E+01  0.11549472841E+02  0.51100000000E-03 0. -1.
        -11    1    4    4    0    0  0.70469134008E+01  0.33543084166E+01  0.70150922472E+01  0.10493897890E+02  0.51100000000E-03 0.  1.
         12    1    4    4    0    0  0.13424986779E+02 -0.13318842881E+02  0.17467871710E+02  0.25743900011E+02  0.00000000000E+00 0. -1.
</event>
<event>
 8    1  0.1249404E-009  0.9118800E+02  0.7816164E-02  0.1184000E+00
        -11   -1    0    0    0    0  0.00000000000E+00  0.00000000000E+00  0.45593999997E+02  0.45594000000E+02  0.51100000000E-03 0. -1.
         11   -1    0    0    0    0 -0.00000000000E+00 -0.00000000000E+00 -0.45593999997E+02  0.45594000000E+02  0.51100000000E-03 0.  1.
         23    2    1    2    0    0 -0.22204460493E-15 -0.44408920985E-15  0.00000000000E+00  0.91188000000E+02  0.91188000000E+02 0.  0.
    9900012    2    3    3    0    0 -0.11573782047E+01 -0.39866845003E+01 -0.43201737456E+02  0.47787270780E+02  0.19999998792E+02 0.  0.
         12    1    3    3    0    0  0.11573782047E+01  0.39866845003E+01  0.43201737456E+02  0.43400729220E+02  0.00000000000E+00 0. -1.
         11    1    4    4    0    0 -0.32313018953E+01 -0.58783459147E+01 -0.24159943375E+02  0.25073873390E+02  0.51100000000E-03 0. -1.
        -11    1    4    4    0    0  0.37723661208E+01  0.29167946177E+01 -0.19964072872E+02  0.20525658159E+02  0.51100000000E-03 0.  1.
         12    1    4    4    0    0 -0.16984424303E+01 -0.10251332033E+01  0.92227879001E+00  0.21877392303E+01  0.00000000000E+00 0. -1.
</event>
<event>
 8    1  0.5250708E-010  0.9118800E+02  0.7816164E-02  0.1184000E+00
        -11   -1    0    0    0    0  0.00000000000E+00  0.00000000000E+00  0.45593999997E+02  0.45594000000E+02  0.51100000000E-03 0. -1.
         11   -1    0    0    0    0 -0.00000000000E+00 -0.00000000000E+00 -0.45593999997E+02  0.45594000000E+02  0.51100000000E-03 0.  1.
         23    2    1    2    0    0  0.00000000000E+00  0.88817841970E-15  0.00000000000E+00  0.91188000000E+02  0.91188000000E+02 0.  0.
    9900012    2    3    3    0    0 -0.19123114453E+02 -0.65222619645E+01 -0.38410803486E+02  0.47787271527E+02  0.20000002202E+02 0.  0.
         12    1    3    3    0    0  0.19123114453E+02  0.65222619645E+01  0.38410803486E+02  0.43400728473E+02  0.00000000000E+00 0. -1.
         11    1    4    4    0    0  0.15870767300E+01 -0.97383812691E+00 -0.11777437711E+01  0.22032371402E+01  0.51100000000E-03 0. -1.
        -11    1    4    4    0    0 -0.18310331885E+02 -0.10218348118E+02 -0.28292195261E+02  0.35215496659E+02  0.51100000000E-03 0.  1.
        -12    1    4    4    0    0 -0.23998592987E+01  0.46699242806E+01 -0.89408644542E+01  0.10368537729E+02  0.00000000000E+00 0.  1.
</event>
<event>
 8    1  0.5250708E-010  0.9118800E+02  0.7816164E-02  0.1184000E+00
        -11   -1    0    0    0    0  0.00000000000E+00  0.00000000000E+00  0.45593999997E+02  0.45594000000E+02  0.51100000000E-03 0.  1.
         11   -1    0    0    0    0 -0.00000000000E+00 -0.00000000000E+00 -0.45593999997E+02  0.45594000000E+02  0.51100000000E-03 0. -1.
         23    2    1    2    0    0  0.35527136788E-14  0.00000000000E+00  0.00000000000E+00  0.91188000000E+02  0.91188000000E+02 0.  0.
    9900012    2    3    3    0    0  0.14590137268E+02  0.39455588384E+02 -0.10677446281E+02  0.47787269369E+02  0.19999992361E+02 0.  0.
        -12    1    3    3    0    0 -0.14590137268E+02 -0.39455588384E+02  0.10677446281E+02  0.43400730631E+02  0.00000000000E+00 0.  1.
         11    1    4    4    0    0  0.89106291635E+01  0.22554061480E+02 -0.35494619060E+01  0.24508849043E+02  0.51100000000E-03 0. -1.
        -11    1    4    4    0    0  0.98931961640E+01  0.10445541988E+02 -0.54769375480E+01  0.15394204199E+02  0.51100000000E-03 0.  1.
         12    1    4    4    0    0 -0.42136880600E+01  0.64559849171E+01 -0.16510468271E+01  0.78842161273E+01  0.00000000000E+00 0. -1.
</event>
<event>
 8    1  0.5250708E-010  0.9118800E+02  0.7816164E-02  0.1184000E+00
        -11   -1    0    0    0    0  0.00000000000E+00  0.00000000000E+00  0.45593999997E+02  0.45594000000E+02  0.51100000000E-03 0. -1.
         11   -1    0    0    0    0 -0.00000000000E+00 -0.00000000000E+00 -0.45593999997E+02  0.45594000000E+02  0.51100000000E-03 0.  1.
         23    2    1    2    0    0  0.00000000000E+00  0.00000000000E+00  0.00000000000E+00  0.91188000000E+02  0.91188000000E+02 0.  0.
    9900012    2    3    3    0    0  0.18114944165E+01  0.85430053082E+01 -0.42513041248E+02  0.47787272726E+02  0.20000007669E+02 0.  0.
         12    1    3    3    0    0 -0.18114944165E+01 -0.85430053082E+01  0.42513041248E+02  0.43400727274E+02  0.00000000000E+00 0. -1.
         11    1    4    4    0    0  0.45853978770E+00  0.10289213898E+02 -0.28078292099E+02  0.29907669064E+02  0.51100000000E-03 0. -1.
        -11    1    4    4    0    0 -0.17748663005E+01 -0.22150372492E+01 -0.14440523878E+02  0.14716836295E+02  0.51100000000E-03 0.  1.
         12    1    4    4    0    0  0.31278209293E+01  0.46882865906E+00  0.57747284941E-02  0.31627673681E+01  0.00000000000E+00 0. -1.
</event>
<event>
 8    1  0.5250708E-010  0.9118800E+02  0.7816164E-02  0.1184000E+00
        -11   -1    0    0    0    0  0.00000000000E+00  0.00000000000E+00  0.45593999997E+02  0.45594000000E+02  0.51100000000E-03 0. -1.
         11   -1    0    0    0    0 -0.00000000000E+00 -0.00000000000E+00 -0.45593999997E+02  0.45594000000E+02  0.51100000000E-03 0.  1.
         23    2    1    2    0    0  0.11102230246E-15  0.00000000000E+00  0.14210854715E-13  0.91188000000E+02  0.91188000000E+02 0.  0.
    9900012    2    3    3    0    0  0.63242831099E+00 -0.53228408798E+01  0.43068443400E+02  0.47787269390E+02  0.19999992456E+02 0.  0.
        -12    1    3    3    0    0 -0.63242831099E+00  0.53228408798E+01 -0.43068443400E+02  0.43400730610E+02  0.00000000000E+00 0.  1.
         11    1    4    4    0    0  0.11966349597E+01  0.33488131657E+01  0.10280805670E+02  0.10878485663E+02  0.51100000000E-03 0.  1.
        -11    1    4    4    0    0  0.26499081651E+01 -0.11460955612E+02  0.28660108712E+02  0.30980273537E+02  0.51100000000E-03 0. -1.
         12    1    4    4    0    0 -0.32141148138E+01  0.27893015665E+01  0.41275290185E+01  0.59285101893E+01  0.00000000000E+00 0. -1.
</event>
<event>
 8    1  0.5250708E-010  0.9118800E+02  0.7816164E-02  0.1184000E+00
        -11   -1    0    0    0    0  0.00000000000E+00  0.00000000000E+00  0.45593999997E+02  0.45594000000E+02  0.51100000000E-03 0. -1.
         11   -1    0    0    0    0 -0.00000000000E+00 -0.00000000000E+00 -0.45593999997E+02  0.45594000000E+02  0.51100000000E-03 0.  1.
         23    2    1    2    0    0 -0.35527136788E-14 -0.35527136788E-14  0.00000000000E+00  0.91188000000E+02  0.91188000000E+02 0.  0.
    9900012    2    3    3    0    0 -0.28517806476E+02 -0.19025875294E+02 -0.26615296616E+02  0.47787271540E+02  0.20000002260E+02 0.  0.
         12    1    3    3    0    0  0.28517806476E+02  0.19025875294E+02  0.26615296616E+02  0.43400728460E+02  0.00000000000E+00 0. -1.
         11    1    4    4    0    0 -0.16933469789E+01  0.10085258873E+00  0.10850452008E+01  0.20136828411E+01  0.51100000000E-03 0. -1.
        -11    1    4    4    0    0 -0.13617558337E+02 -0.13855114343E+02 -0.24375433956E+02  0.31169919302E+02  0.51100000000E-03 0.  1.
         12    1    4    4    0    0 -0.13206901161E+02 -0.52716135395E+01 -0.33249078608E+01  0.14603669397E+02  0.00000000000E+00 0. -1.
</event>
<event>
 8    1  0.5250708E-010  0.9118800E+02  0.7816164E-02  0.1184000E+00
        -11   -1    0    0    0    0  0.00000000000E+00  0.00000000000E+00  0.45593999997E+02  0.45594000000E+02  0.51100000000E-03 0. -1.
         11   -1    0    0    0    0 -0.00000000000E+00 -0.00000000000E+00 -0.45593999997E+02  0.45594000000E+02  0.51100000000E-03 0.  1.
         23    2    1    2    0    0  0.71054273576E-14  0.00000000000E+00 -0.17763568394E-14  0.91188000000E+02  0.91188000000E+02 0.  0.
    9900012    2    3    3    0    0  0.36269644917E+02 -0.21809629786E+02 -0.96164592840E+01  0.47787269788E+02  0.19999994271E+02 0.  0.
         12    1    3    3    0    0 -0.36269644917E+02  0.21809629786E+02  0.96164592840E+01  0.43400730212E+02  0.00000000000E+00 0. -1.
         11    1    4    4    0    0  0.96271206877E+00 -0.55930900101E+01  0.89053722895E+00  0.57447826073E+01  0.51100000000E-03 0. -1.
        -11    1    4    4    0    0  0.29033521481E+02 -0.15988777382E+02 -0.46732428898E+01  0.33472758642E+02  0.51100000000E-03 0.  1.
         12    1    4    4    0    0  0.62734113671E+01 -0.22776239378E+00 -0.58337536231E+01  0.85697285385E+01  0.00000000000E+00 0. -1.
</event>
<event>
 8    1  0.5250708E-010  0.9118800E+02  0.7816164E-02  0.1184000E+00
        -11   -1    0    0    0    0  0.00000000000E+00  0.00000000000E+00  0.45593999997E+02  0.45594000000E+02  0.51100000000E-03 0. -1.
         11   -1    0    0    0    0 -0.00000000000E+00 -0.00000000000E+00 -0.45593999997E+02  0.45594000000E+02  0.51100000000E-03 0.  1.
         23    2    1    2    0    0  0.00000000000E+00  0.00000000000E+00  0.00000000000E+00  0.91188000000E+02  0.91188000000E+02 0.  0.
    9900012    2    3    3    0    0 -0.21706096531E+02 -0.11155067871E+02  0.35889174480E+02  0.47787274076E+02  0.20000013824E+02 0.  0.
        -12    1    3    3    0    0  0.21706096531E+02  0.11155067871E+02 -0.35889174480E+02  0.43400725924E+02  0.00000000000E+00 0.  1.
         11    1    4    4    0    0 -0.61895770495E+01 -0.53125739171E+01  0.15964892571E+02  0.17927969789E+02  0.51100000000E-03 0. -1.
        -11    1    4    4    0    0 -0.97151859128E+01  0.42153179641E+01  0.86299764565E+01  0.13661267758E+02  0.51100000000E-03 0.  1.
         12    1    4    4    0    0 -0.58013335685E+01 -0.10057811918E+02  0.11294305452E+02  0.16198036529E+02  0.00000000000E+00 0. -1.
</event>
<event>
 8    1  0.5250708E-010  0.9118800E+02  0.7816164E-02  0.1184000E+00
        -11   -1    0    0    0    0  0.00000000000E+00  0.00000000000E+00  0.45593999997E+02  0.45594000000E+02  0.51100000000E-03 0. -1.
         11   -1    0    0    0    0 -0.00000000000E+00 -0.00000000000E+00 -0.45593999997E+02  0.45594000000E+02  0.51100000000E-03 0.  1.
         23    2    1    2    0    0  0.00000000000E+00  0.00000000000E+00  0.35527136788E-14  0.91188000000E+02  0.91188000000E+02 0.  0.
    9900012    2    3    3    0    0  0.27832965965E+02 -0.24968868386E+02  0.22034171956E+02  0.47787272856E+02  0.20000008257E+02 0.  0.
        -12    1    3    3    0    0 -0.27832965965E+02  0.24968868386E+02 -0.22034171956E+02  0.43400727144E+02  0.00000000000E+00 0.  1.
         11    1    4    4    0    0  0.10987829645E+02 -0.88942861168E+01  0.65988459424E+01  0.15600817089E+02  0.51100000000E-03 0. -1.
        -11    1    4    4    0    0  0.39915982213E+01  0.26496396826E+01  0.11792066316E+00  0.47924265620E+01  0.51100000000E-03 0.  1.
         12    1    4    4    0    0  0.12853538099E+02 -0.18724221951E+02  0.15317405351E+02  0.27394029204E+02  0.00000000000E+00 0. -1.
</event>
<event>
 8    1  0.5250708E-010  0.9118800E+02  0.7816164E-02  0.1184000E+00
        -11   -1    0    0    0    0  0.00000000000E+00  0.00000000000E+00  0.45593999997E+02  0.45594000000E+02  0.51100000000E-03 0. -1.
         11   -1    0    0    0    0 -0.00000000000E+00 -0.00000000000E+00 -0.45593999997E+02  0.45594000000E+02  0.51100000000E-03 0.  1.
         23    2    1    2    0    0  0.00000000000E+00  0.00000000000E+00  0.00000000000E+00  0.91188000000E+02  0.91188000000E+02 0.  0.
    9900012    2    3    3    0    0  0.35346677718E+02  0.65839886457E+01 -0.24308158782E+02  0.47787272868E+02  0.20000008314E+02 0.  0.
         12    1    3    3    0    0 -0.35346677718E+02 -0.65839886457E+01  0.24308158782E+02  0.43400727132E+02  0.00000000000E+00 0. -1.
         11    1    4    4    0    0  0.22856005704E+01  0.34192314380E+01  0.67787803972E+00  0.41682889166E+01  0.51100000000E-03 0. -1.
        -11    1    4    4    0    0  0.32761727088E+02  0.30999538940E+01 -0.19761837139E+02  0.38385813569E+02  0.51100000000E-03 0.  1.
         12    1    4    4    0    0  0.29935005954E+00  0.64803313706E-01 -0.52241996826E+01  0.52331703824E+01  0.00000000000E+00 0. -1.
</event>
<event>
 8    1  0.5250708E-010  0.9118800E+02  0.7816164E-02  0.1184000E+00
        -11   -1    0    0    0    0  0.00000000000E+00  0.00000000000E+00  0.45593999997E+02  0.45594000000E+02  0.51100000000E-03 0. -1.
         11   -1    0    0    0    0 -0.00000000000E+00 -0.00000000000E+00 -0.45593999997E+02  0.45594000000E+02  0.51100000000E-03 0.  1.
         23    2    1    2    0    0  0.00000000000E+00  0.00000000000E+00  0.00000000000E+00  0.91188000000E+02  0.91188000000E+02 0.  0.
    9900012    2    3    3    0    0  0.29619647723E+02  0.81208215973E+01 -0.30665165562E+02  0.47787266670E+02  0.19999980054E+02 0.  0.
         12    1    3    3    0    0 -0.29619647723E+02 -0.81208215973E+01  0.30665165562E+02  0.43400733330E+02  0.00000000000E+00 0. -1.
         11    1    4    4    0    0  0.60897046180E+01  0.10201020200E+02 -0.67990680207E+01  0.13688412679E+02  0.51100000000E-03 0. -1.
        -11    1    4    4    0    0  0.12735982317E+02  0.17400944686E+01 -0.13710983276E+02  0.18794260746E+02  0.51100000000E-03 0.  1.
         12    1    4    4    0    0  0.10793960788E+02 -0.38202930715E+01 -0.10155114266E+02  0.15304593245E+02  0.00000000000E+00 0. -1.
</event>
<event>
 8    1  0.5250708E-010  0.9118800E+02  0.7816164E-02  0.1184000E+00
        -11   -1    0    0    0    0  0.00000000000E+00  0.00000000000E+00  0.45593999997E+02  0.45594000000E+02  0.51100000000E-03 0. -1.
         11   -1    0    0    0    0 -0.00000000000E+00 -0.00000000000E+00 -0.45593999997E+02  0.45594000000E+02  0.51100000000E-03 0.  1.
         23    2    1    2    0    0  0.00000000000E+00  0.35527136788E-14 -0.71054273576E-14  0.91188000000E+02  0.91188000000E+02 0.  0.
    9900012    2    3    3    0    0  0.80586095914E+01 -0.11468894665E+02  0.41074892247E+02  0.47787268365E+02  0.19999987781E+02 0.  0.
        -12    1    3    3    0    0 -0.80586095914E+01  0.11468894665E+02 -0.41074892247E+02  0.43400731635E+02  0.00000000000E+00 0.  1.
         11    1    4    4    0    0 -0.29308314874E+01 -0.74848227330E+01  0.21987707386E+02  0.23410929519E+02  0.51100000000E-03 0. -1.
        -11    1    4    4    0    0  0.93099715763E+01 -0.59053207372E+01  0.18818788050E+02  0.21810437127E+02  0.51100000000E-03 0.  1.
        -12    1    4    4    0    0  0.16794695025E+01  0.19212488051E+01  0.26839681066E+00  0.25659017184E+01  0.00000000000E+00 0.  1.
</event>
<event>
 8    1  0.5250708E-010  0.9118800E+02  0.7816164E-02  0.1184000E+00
        -11   -1    0    0    0    0  0.00000000000E+00  0.00000000000E+00  0.45593999997E+02  0.45594000000E+02  0.51100000000E-03 0. -1.
         11   -1    0    0    0    0 -0.00000000000E+00 -0.00000000000E+00 -0.45593999997E+02  0.45594000000E+02  0.51100000000E-03 0.  1.
         23    2    1    2    0    0  0.00000000000E+00  0.00000000000E+00  0.17763568394E-14  0.91188000000E+02  0.91188000000E+02 0.  0.
    9900012    2    3    3    0    0  0.14909426320E+02  0.38174332815E+02 -0.14284695188E+02  0.47787271946E+02  0.20000004109E+02 0.  0.
         12    1    3    3    0    0 -0.14909426320E+02 -0.38174332815E+02  0.14284695188E+02  0.43400728054E+02  0.00000000000E+00 0. -1.
         11    1    4    4    0    0  0.38419844786E+01  0.95107385214E+01  0.16432231013E+01  0.10388222869E+02  0.51100000000E-03 0. -1.
        -11    1    4    4    0    0 -0.27310534786E+01  0.11436694755E+02 -0.59156385064E+01  0.13162500493E+02  0.51100000000E-03 0.  1.
        -12    1    4    4    0    0  0.13798495320E+02  0.17226899538E+02 -0.10012279783E+02  0.24236548584E+02  0.00000000000E+00 0.  1.
</event>
<event>
 8    1  0.5250708E-010  0.9118800E+02  0.7816164E-02  0.1184000E+00
        -11   -1    0    0    0    0  0.00000000000E+00  0.00000000000E+00  0.45593999997E+02  0.45594000000E+02  0.51100000000E-03 0.  1.
         11   -1    0    0    0    0 -0.00000000000E+00 -0.00000000000E+00 -0.45593999997E+02  0.45594000000E+02  0.51100000000E-03 0. -1.
         23    2    1    2    0    0  0.00000000000E+00  0.00000000000E+00  0.00000000000E+00  0.91188000000E+02  0.91188000000E+02 0.  0.
    9900012    2    3    3    0    0 -0.88101226352E+01  0.42059398048E+02  0.60837624129E+01  0.47787269706E+02  0.19999993896E+02 0.  0.
        -12    1    3    3    0    0  0.88101226352E+01 -0.42059398048E+02 -0.60837624129E+01  0.43400730294E+02  0.00000000000E+00 0.  1.
         11    1    4    4    0    0 -0.66650235633E+01  0.56796146187E+01  0.13412028470E+01  0.88588592186E+01  0.51100000000E-03 0. -1.
        -11    1    4    4    0    0  0.42642097891E+01  0.48381587159E+01  0.97534566530E+00  0.65224661221E+01  0.51100000000E-03 0.  1.
         12    1    4    4    0    0 -0.64093088610E+01  0.31541624713E+02  0.37672139006E+01  0.32405944365E+02  0.00000000000E+00 0. -1.
</event>
<event>
 8    1  0.5250708E-010  0.9118800E+02  0.7816164E-02  0.1184000E+00
        -11   -1    0    0    0    0  0.00000000000E+00  0.00000000000E+00  0.45593999997E+02  0.45594000000E+02  0.51100000000E-03 0. -1.
         11   -1    0    0    0    0 -0.00000000000E+00 -0.00000000000E+00 -0.45593999997E+02  0.45594000000E+02  0.51100000000E-03 0.  1.
         23    2    1    2    0    0  0.00000000000E+00  0.00000000000E+00 -0.71054273576E-14  0.91188000000E+02  0.91188000000E+02 0.  0.
    9900012    2    3    3    0    0  0.13856727211E+02  0.22029495436E+02  0.34732055274E+02  0.47787271645E+02  0.20000002739E+02 0.  0.
        -12    1    3    3    0    0 -0.13856727211E+02 -0.22029495436E+02 -0.34732055274E+02  0.43400728355E+02  0.00000000000E+00 0.  1.
         11    1    4    4    0    0 -0.14475971633E+01 -0.45680963030E+00  0.12570281936E+02  0.12661603405E+02  0.51100000000E-03 0.  1.
        -11    1    4    4    0    0  0.49956305189E+01  0.83524822258E+01  0.86586615282E+01  0.13026615191E+02  0.51100000000E-03 0. -1.
        -12    1    4    4    0    0  0.10308693856E+02  0.14133822841E+02  0.13503111810E+02  0.22099053049E+02  0.00000000000E+00 0.  1.
</event>
<event>
 8    1  0.5250708E-010  0.9118800E+02  0.7816164E-02  0.1184000E+00
        -11   -1    0    0    0    0  0.00000000000E+00  0.00000000000E+00  0.45593999997E+02  0.45594000000E+02  0.51100000000E-03 0. -1.
         11   -1    0    0    0    0 -0.00000000000E+00 -0.00000000000E+00 -0.45593999997E+02  0.45594000000E+02  0.51100000000E-03 0.  1.
         23    2    1    2    0    0  0.00000000000E+00  0.00000000000E+00  0.00000000000E+00  0.91188000000E+02  0.91188000000E+02 0.  0.
    9900012    2    3    3    0    0 -0.38599406967E+02  0.19389385001E+02 -0.42143769737E+01  0.47787269105E+02  0.19999991159E+02 0.  0.
         12    1    3    3    0    0  0.38599406967E+02 -0.19389385001E+02  0.42143769737E+01  0.43400730895E+02  0.00000000000E+00 0. -1.
         11    1    4    4    0    0 -0.11575656959E+02  0.50385081829E-01  0.69632950999E+00  0.11596691241E+02  0.51100000000E-03 0. -1.
        -11    1    4    4    0    0 -0.42744558099E+01 -0.15895696165E+01 -0.24605454226E+01  0.51818903958E+01  0.51100000000E-03 0.  1.
        -12    1    4    4    0    0 -0.22749294198E+02  0.20928569535E+02 -0.24501610612E+01  0.31008687469E+02  0.00000000000E+00 0.  1.
</event>
<event>
 8    1  0.5250708E-010  0.9118800E+02  0.7816164E-02  0.1184000E+00
        -11   -1    0    0    0    0  0.00000000000E+00  0.00000000000E+00  0.45593999997E+02  0.45594000000E+02  0.51100000000E-03 0. -1.
         11   -1    0    0    0    0 -0.00000000000E+00 -0.00000000000E+00 -0.45593999997E+02  0.45594000000E+02  0.51100000000E-03 0.  1.
         23    2    1    2    0    0  0.00000000000E+00  0.00000000000E+00  0.00000000000E+00  0.91188000000E+02  0.91188000000E+02 0.  0.
    9900012    2    3    3    0    0  0.36244893165E+02  0.20457581480E+02 -0.12305222635E+02  0.47787269307E+02  0.19999992080E+02 0.  0.
         12    1    3    3    0    0 -0.36244893165E+02 -0.20457581480E+02  0.12305222635E+02  0.43400730693E+02  0.00000000000E+00 0. -1.
         11    1    4    4    0    0  0.78832357824E+01 -0.10656460590E+01 -0.59448282236E+00  0.79771184027E+01  0.51100000000E-03 0. -1.
        -11    1    4    4    0    0  0.16827950510E+02  0.44179619401E+01 -0.47146209611E+01  0.18025702681E+02  0.51100000000E-03 0.  1.
         12    1    4    4    0    0  0.11533706873E+02  0.17105265599E+02 -0.69961188510E+01  0.21784448224E+02  0.00000000000E+00 0. -1.
</event>
<event>
 8    1  0.5250708E-010  0.9118800E+02  0.7816164E-02  0.1184000E+00
        -11   -1    0    0    0    0  0.00000000000E+00  0.00000000000E+00  0.45593999997E+02  0.45594000000E+02  0.51100000000E-03 0. -1.
         11   -1    0    0    0    0 -0.00000000000E+00 -0.00000000000E+00 -0.45593999997E+02  0.45594000000E+02  0.51100000000E-03 0.  1.
         23    2    1    2    0    0  0.00000000000E+00  0.17763568394E-14 -0.71054273576E-14  0.91188000000E+02  0.91188000000E+02 0.  0.
    9900012    2    3    3    0    0  0.15101881639E+02  0.11008124805E+02 -0.39171134562E+02  0.47787269320E+02  0.19999992136E+02 0.  0.
         12    1    3    3    0    0 -0.15101881639E+02 -0.11008124805E+02  0.39171134562E+02  0.43400730680E+02  0.00000000000E+00 0. -1.
         11    1    4    4    0    0  0.76390279863E+01  0.81599730871E+01 -0.14898438592E+02  0.18625342470E+02  0.51100000000E-03 0. -1.
        -11    1    4    4    0    0  0.78498521049E+01  0.76731921490E+01 -0.19420307125E+02  0.22307989262E+02  0.51100000000E-03 0.  1.
         12    1    4    4    0    0 -0.38699845227E+00 -0.48250404312E+01 -0.48523888442E+01  0.68539375880E+01  0.00000000000E+00 0. -1.
</event>
<event>
 8    1  0.5250708E-010  0.9118800E+02  0.7816164E-02  0.1184000E+00
        -11   -1    0    0    0    0  0.00000000000E+00  0.00000000000E+00  0.45593999997E+02  0.45594000000E+02  0.51100000000E-03 0. -1.
         11   -1    0    0    0    0 -0.00000000000E+00 -0.00000000000E+00 -0.45593999997E+02  0.45594000000E+02  0.51100000000E-03 0.  1.
         23    2    1    2    0    0  0.00000000000E+00  0.00000000000E+00  0.00000000000E+00  0.91188000000E+02  0.91188000000E+02 0.  0.
    9900012    2    3    3    0    0 -0.98111044239E+01  0.82327669115E+01  0.41467907188E+02  0.47787267891E+02  0.19999985623E+02 0.  0.
        -12    1    3    3    0    0  0.98111044239E+01 -0.82327669115E+01 -0.41467907188E+02  0.43400732109E+02  0.00000000000E+00 0.  1.
         11    1    4    4    0    0 -0.76915819764E+01 -0.50646249403E+00  0.88649788905E+01  0.11747543937E+02  0.51100000000E-03 0. -1.
        -11    1    4    4    0    0  0.14291358146E+01 -0.34419775724E+00  0.20240879221E+02  0.20294188655E+02  0.51100000000E-03 0.  1.
         12    1    4    4    0    0 -0.35486582621E+01  0.90834271628E+01  0.12362049077E+02  0.15745535299E+02  0.00000000000E+00 0. -1.
</event>
<event>
 8    1  0.5250708E-010  0.9118800E+02  0.7816164E-02  0.1184000E+00
        -11   -1    0    0    0    0  0.00000000000E+00  0.00000000000E+00  0.45593999997E+02  0.45594000000E+02  0.51100000000E-03 0. -1.
         11   -1    0    0    0    0 -0.00000000000E+00 -0.00000000000E+00 -0.45593999997E+02  0.45594000000E+02  0.51100000000E-03 0.  1.
         23    2    1    2    0    0  0.88817841970E-15  0.00000000000E+00  0.00000000000E+00  0.91188000000E+02  0.91188000000E+02 0.  0.
    9900012    2    3    3    0    0 -0.64784024061E+01  0.33994807580E+02  0.26191726243E+02  0.47787272314E+02  0.20000005788E+02 0.  0.
        -12    1    3    3    0    0  0.64784024061E+01 -0.33994807580E+02 -0.26191726243E+02  0.43400727686E+02  0.00000000000E+00 0.  1.
         11    1    4    4    0    0  0.34006223261E+01  0.18593836784E+02  0.12959340734E+02  0.22918104439E+02  0.51100000000E-03 0. -1.
        -11    1    4    4    0    0 -0.70355354076E+01  0.11176137597E+02  0.14508709211E+02  0.19619058420E+02  0.51100000000E-03 0.  1.
        -12    1    4    4    0    0 -0.28434893246E+01  0.42248331988E+01 -0.12763237021E+01  0.52501094550E+01  0.00000000000E+00 0.  1.
</event>
<event>
 8    1  0.5363807E-010  0.9118800E+02  0.7816164E-02  0.1184000E+00
        -11   -1    0    0    0    0  0.00000000000E+00  0.00000000000E+00  0.45593999997E+02  0.45594000000E+02  0.51100000000E-03 0. -1.
         11   -1    0    0    0    0 -0.00000000000E+00 -0.00000000000E+00 -0.45593999997E+02  0.45594000000E+02  0.51100000000E-03 0.  1.
         23    2    1    2    0    0  0.17763568394E-14  0.00000000000E+00  0.00000000000E+00  0.91188000000E+02  0.91188000000E+02 0.  0.
    9900012    2    3    3    0    0 -0.13584345941E+02 -0.21969946824E+02 -0.34877079728E+02  0.47787266038E+02  0.19999977172E+02 0.  0.
         12    1    3    3    0    0  0.13584345941E+02  0.21969946824E+02  0.34877079728E+02  0.43400733962E+02  0.00000000000E+00 0. -1.
         11    1    4    4    0    0 -0.21776274369E+01 -0.13954194005E+01  0.15639939353E+01  0.30224714801E+01  0.51100000000E-03 0. -1.
        -11    1    4    4    0    0 -0.19221720439E+01 -0.29541559460E+01 -0.15114647246E+02  0.15520127073E+02  0.51100000000E-03 0.  1.
         12    1    4    4    0    0 -0.94845464606E+01 -0.17620371477E+02 -0.21326426418E+02  0.29244667485E+02  0.00000000000E+00 0. -1.
</event>
<event>
 8    1  0.5250708E-010  0.9118800E+02  0.7816164E-02  0.1184000E+00
        -11   -1    0    0    0    0  0.00000000000E+00  0.00000000000E+00  0.45593999997E+02  0.45594000000E+02  0.51100000000E-03 0. -1.
         11   -1    0    0    0    0 -0.00000000000E+00 -0.00000000000E+00 -0.45593999997E+02  0.45594000000E+02  0.51100000000E-03 0.  1.
         23    2    1    2    0    0  0.35527136788E-14 -0.35527136788E-14  0.00000000000E+00  0.91188000000E+02  0.91188000000E+02 0.  0.
    9900012    2    3    3    0    0 -0.27070496259E+02  0.16945260760E+02  0.29388252490E+02  0.47787274035E+02  0.20000013634E+02 0.  0.
        -12    1    3    3    0    0  0.27070496259E+02 -0.16945260760E+02 -0.29388252490E+02  0.43400725965E+02  0.00000000000E+00 0.  1.
         11    1    4    4    0    0 -0.38213383608E+01  0.80588932153E+01  0.39253820943E+01  0.97445888354E+01  0.51100000000E-03 0.  1.
        -11    1    4    4    0    0 -0.12008224591E+02  0.74237177193E+01  0.22089771299E+02  0.26215778434E+02  0.51100000000E-03 0. -1.
         12    1    4    4    0    0 -0.11240933307E+02  0.14626498253E+01  0.33730990966E+01  0.11826906765E+02  0.00000000000E+00 0. -1.
</event>
<event>
 8    1  0.6036304E-010  0.9118800E+02  0.7816164E-02  0.1184000E+00
        -11   -1    0    0    0    0  0.00000000000E+00  0.00000000000E+00  0.45593999997E+02  0.45594000000E+02  0.51100000000E-03 0. -1.
         11   -1    0    0    0    0 -0.00000000000E+00 -0.00000000000E+00 -0.45593999997E+02  0.45594000000E+02  0.51100000000E-03 0.  1.
         23    2    1    2    0    0  0.00000000000E+00  0.00000000000E+00  0.00000000000E+00  0.91188000000E+02  0.91188000000E+02 0.  0.
    9900012    2    3    3    0    0  0.75661931414E+01 -0.25459064567E+02 -0.34325097968E+02  0.47787267312E+02  0.19999982984E+02 0.  0.
         12    1    3    3    0    0 -0.75661931414E+01  0.25459064567E+02  0.34325097968E+02  0.43400732688E+02  0.00000000000E+00 0. -1.
         11    1    4    4    0    0 -0.17179763456E+01 -0.15694895993E+01 -0.13142891761E+02  0.13347297270E+02  0.51100000000E-03 0. -1.
        -11    1    4    4    0    0  0.35409623640E+01 -0.14790264676E+02 -0.17217893994E+02  0.22972727690E+02  0.51100000000E-03 0.  1.
         12    1    4    4    0    0  0.57432071230E+01 -0.90993102917E+01 -0.39643122136E+01  0.11467242352E+02  0.00000000000E+00 0. -1.
</event>
<event>
 8    1  0.5250708E-010  0.9118800E+02  0.7816164E-02  0.1184000E+00
        -11   -1    0    0    0    0  0.00000000000E+00  0.00000000000E+00  0.45593999997E+02  0.45594000000E+02  0.51100000000E-03 0. -1.
         11   -1    0    0    0    0 -0.00000000000E+00 -0.00000000000E+00 -0.45593999997E+02  0.45594000000E+02  0.51100000000E-03 0.  1.
         23    2    1    2    0    0  0.00000000000E+00  0.00000000000E+00  0.00000000000E+00  0.91188000000E+02  0.91188000000E+02 0.  0.
    9900012    2    3    3    0    0  0.13708602155E+02  0.14228887118E+02 -0.38642412281E+02  0.47787273871E+02  0.20000012888E+02 0.  0.
         12    1    3    3    0    0 -0.13708602155E+02 -0.14228887118E+02  0.38642412281E+02  0.43400726129E+02  0.00000000000E+00 0. -1.
         11    1    4    4    0    0 -0.57155927065E+00  0.18107807688E+01 -0.15822573033E+02  0.15936104437E+02  0.51100000000E-03 0. -1.
        -11    1    4    4    0    0  0.47089895905E+01  0.18896232348E+01 -0.14514641711E+02  0.15375957960E+02  0.51100000000E-03 0.  1.
         12    1    4    4    0    0  0.95711718347E+01  0.10528483114E+02 -0.83051975362E+01  0.16475211473E+02  0.00000000000E+00 0. -1.
</event>
<event>
 8    1  0.5250708E-010  0.9118800E+02  0.7816164E-02  0.1184000E+00
        -11   -1    0    0    0    0  0.00000000000E+00  0.00000000000E+00  0.45593999997E+02  0.45594000000E+02  0.51100000000E-03 0. -1.
         11   -1    0    0    0    0 -0.00000000000E+00 -0.00000000000E+00 -0.45593999997E+02  0.45594000000E+02  0.51100000000E-03 0.  1.
         23    2    1    2    0    0  0.22204460493E-15  0.00000000000E+00 -0.35527136788E-14  0.91188000000E+02  0.91188000000E+02 0.  0.
    9900012    2    3    3    0    0 -0.14675073348E+01 -0.35572267373E+02 -0.24821029296E+02  0.47787270983E+02  0.19999999721E+02 0.  0.
         12    1    3    3    0    0  0.14675073348E+01  0.35572267373E+02  0.24821029296E+02  0.43400729017E+02  0.00000000000E+00 0. -1.
         11    1    4    4    0    0  0.27262710425E+01  0.18862412644E+00 -0.22836346450E+01  0.35613368714E+01  0.51100000000E-03 0. -1.
        -11    1    4    4    0    0 -0.31600367699E+01 -0.81692526050E+01 -0.11581348630E+02  0.14520680317E+02  0.51100000000E-03 0.  1.
         12    1    4    4    0    0 -0.10337416074E+01 -0.27591638895E+02 -0.10956046022E+02  0.29705253795E+02  0.00000000000E+00 0. -1.
</event>
<event>
 8    1  0.5250708E-010  0.9118800E+02  0.7816164E-02  0.1184000E+00
        -11   -1    0    0    0    0  0.00000000000E+00  0.00000000000E+00  0.45593999997E+02  0.45594000000E+02  0.51100000000E-03 0. -1.
         11   -1    0    0    0    0 -0.00000000000E+00 -0.00000000000E+00 -0.45593999997E+02  0.45594000000E+02  0.51100000000E-03 0.  1.
         23    2    1    2    0    0 -0.17763568394E-14  0.00000000000E+00  0.00000000000E+00  0.91188000000E+02  0.91188000000E+02 0.  0.
    9900012    2    3    3    0    0  0.12307011297E+02  0.23875572218E+01  0.41550690274E+02  0.47787276287E+02  0.20000023903E+02 0.  0.
        -12    1    3    3    0    0 -0.12307011297E+02 -0.23875572218E+01 -0.41550690274E+02  0.43400723713E+02  0.00000000000E+00 0.  1.
         11    1    4    4    0    0  0.52240439509E+01 -0.19302413046E+01  0.49671268513E+01  0.74624939607E+01  0.51100000000E-03 0. -1.
        -11    1    4    4    0    0  0.56419373407E+01 -0.49841722553E+01  0.15252687172E+02  0.17009347320E+02  0.51100000000E-03 0.  1.
        -12    1    4    4    0    0  0.14410300055E+01  0.93019707817E+01  0.21330876250E+02  0.23315435006E+02  0.00000000000E+00 0.  1.
</event>
<event>
 8    1  0.7273669E-010  0.9118800E+02  0.7816164E-02  0.1184000E+00
        -11   -1    0    0    0    0  0.00000000000E+00  0.00000000000E+00  0.45593999997E+02  0.45594000000E+02  0.51100000000E-03 0. -1.
         11   -1    0    0    0    0 -0.00000000000E+00 -0.00000000000E+00 -0.45593999997E+02  0.45594000000E+02  0.51100000000E-03 0.  1.
         23    2    1    2    0    0  0.88817841970E-15 -0.38857805862E-15  0.71054273576E-14  0.91188000000E+02  0.91188000000E+02 0.  0.
    9900012    2    3    3    0    0  0.71334403952E+01 -0.25426728403E+00 -0.42809748475E+02  0.47787248991E+02  0.19999899447E+02 0.  0.
         12    1    3    3    0    0 -0.71334403952E+01  0.25426728403E+00  0.42809748475E+02  0.43400751009E+02  0.00000000000E+00 0. -1.
         11    1    4    4    0    0  0.55383513746E+01  0.76590135316E+00 -0.27269364846E+02  0.27836634139E+02  0.51100000000E-03 0. -1.
        -11    1    4    4    0    0  0.34613196559E+01  0.42207392958E+01 -0.29930365912E+01  0.62252423455E+01  0.51100000000E-03 0.  1.
         12    1    4    4    0    0 -0.18662306354E+01 -0.52409079330E+01 -0.12547347038E+02  0.13725372506E+02  0.00000000000E+00 0. -1.
</event>
<event>
 8    1  0.5250708E-010  0.9118800E+02  0.7816164E-02  0.1184000E+00
        -11   -1    0    0    0    0  0.00000000000E+00  0.00000000000E+00  0.45593999997E+02  0.45594000000E+02  0.51100000000E-03 0. -1.
         11   -1    0    0    0    0 -0.00000000000E+00 -0.00000000000E+00 -0.45593999997E+02  0.45594000000E+02  0.51100000000E-03 0.  1.
         23    2    1    2    0    0  0.17763568394E-14  0.11102230246E-14  0.00000000000E+00  0.91188000000E+02  0.91188000000E+02 0.  0.
    9900012    2    3    3    0    0  0.85461280865E+01 -0.10587734019E+01 -0.42537810833E+02  0.47787278153E+02  0.20000032412E+02 0.  0.
         12    1    3    3    0    0 -0.85461280865E+01  0.10587734019E+01  0.42537810833E+02  0.43400721847E+02  0.00000000000E+00 0. -1.
         11    1    4    4    0    0  0.26872430450E+01  0.46700884669E+01 -0.13714399498E+02  0.14734848331E+02  0.51100000000E-03 0. -1.
        -11    1    4    4    0    0  0.58524143129E+01  0.34214243555E+01 -0.15176794704E+02  0.16622033440E+02  0.51100000000E-03 0.  1.
         12    1    4    4    0    0  0.64707285999E-02 -0.91502862243E+01 -0.13646616630E+02  0.16430396383E+02  0.00000000000E+00 0. -1.
</event>
<event>
 8    1  0.5250708E-010  0.9118800E+02  0.7816164E-02  0.1184000E+00
        -11   -1    0    0    0    0  0.00000000000E+00  0.00000000000E+00  0.45593999997E+02  0.45594000000E+02  0.51100000000E-03 0.  1.
         11   -1    0    0    0    0 -0.00000000000E+00 -0.00000000000E+00 -0.45593999997E+02  0.45594000000E+02  0.51100000000E-03 0. -1.
         23    2    1    2    0    0  0.71054273576E-14 -0.17763568394E-14  0.35527136788E-14  0.91188000000E+02  0.91188000000E+02 0.  0.
    9900012    2    3    3    0    0 -0.37916295262E+02  0.12900136693E+02  0.16720177866E+02  0.47787270502E+02  0.19999997527E+02 0.  0.
        -12    1    3    3    0    0  0.37916295262E+02 -0.12900136693E+02 -0.16720177866E+02  0.43400729498E+02  0.00000000000E+00 0.  1.
         11    1    4    4    0    0 -0.25788952624E+02  0.77011450959E+01  0.10990299768E+02  0.29071711378E+02  0.51100000000E-03 0. -1.
        -11    1    4    4    0    0 -0.78454261516E+01  0.90008141085E+01  0.27175988399E+01  0.12245436286E+02  0.51100000000E-03 0.  1.
        -12    1    4    4    0    0 -0.42819164868E+01 -0.38018225113E+01  0.30122792583E+01  0.64701228379E+01  0.00000000000E+00 0.  1.
</event>
<event>
 8    1  0.5250708E-010  0.9118800E+02  0.7816164E-02  0.1184000E+00
        -11   -1    0    0    0    0  0.00000000000E+00  0.00000000000E+00  0.45593999997E+02  0.45594000000E+02  0.51100000000E-03 0. -1.
         11   -1    0    0    0    0 -0.00000000000E+00 -0.00000000000E+00 -0.45593999997E+02  0.45594000000E+02  0.51100000000E-03 0.  1.
         23    2    1    2    0    0  0.00000000000E+00  0.00000000000E+00 -0.17763568394E-14  0.91188000000E+02  0.91188000000E+02 0.  0.
    9900012    2    3    3    0    0  0.38477983535E+02 -0.16791468418E+02  0.11005195266E+02  0.47787274760E+02  0.20000016939E+02 0.  0.
        -12    1    3    3    0    0 -0.38477983535E+02  0.16791468418E+02 -0.11005195266E+02  0.43400725240E+02  0.00000000000E+00 0.  1.
         11    1    4    4    0    0  0.17783696779E+02 -0.10745304559E+02  0.83300153381E+01  0.22385499704E+02  0.51100000000E-03 0. -1.
        -11    1    4    4    0    0  0.22175682211E+02 -0.42632878875E+01  0.11182856159E+01  0.22609446435E+02  0.51100000000E-03 0.  1.
         12    1    4    4    0    0 -0.14813954551E+01 -0.17828759719E+01  0.15568943123E+01  0.27923286206E+01  0.00000000000E+00 0. -1.
</event>
<event>
 8    1  0.5250708E-010  0.9118800E+02  0.7816164E-02  0.1184000E+00
        -11   -1    0    0    0    0  0.00000000000E+00  0.00000000000E+00  0.45593999997E+02  0.45594000000E+02  0.51100000000E-03 0. -1.
         11   -1    0    0    0    0 -0.00000000000E+00 -0.00000000000E+00 -0.45593999997E+02  0.45594000000E+02  0.51100000000E-03 0.  1.
         23    2    1    2    0    0  0.00000000000E+00  0.00000000000E+00  0.22204460493E-15  0.91188000000E+02  0.91188000000E+02 0.  0.
    9900012    2    3    3    0    0  0.37029438609E+02 -0.22567268725E+02  0.17782827696E+01  0.47787271538E+02  0.20000002252E+02 0.  0.
        -12    1    3    3    0    0 -0.37029438609E+02  0.22567268725E+02 -0.17782827696E+01  0.43400728462E+02  0.00000000000E+00 0.  1.
         11    1    4    4    0    0  0.22761832992E+02 -0.15645149077E+02  0.58261158365E+01  0.28227918039E+02  0.51100000000E-03 0. -1.
        -11    1    4    4    0    0  0.13799553955E+02 -0.19991852851E+01 -0.15806220132E+01  0.14032918348E+02  0.51100000000E-03 0.  1.
         12    1    4    4    0    0  0.46805166174E+00 -0.49229343629E+01 -0.24672110537E+01  0.55264351515E+01  0.00000000000E+00 0. -1.
</event>
<event>
 8    1  0.5250708E-010  0.9118800E+02  0.7816164E-02  0.1184000E+00
        -11   -1    0    0    0    0  0.00000000000E+00  0.00000000000E+00  0.45593999997E+02  0.45594000000E+02  0.51100000000E-03 0. -1.
         11   -1    0    0    0    0 -0.00000000000E+00 -0.00000000000E+00 -0.45593999997E+02  0.45594000000E+02  0.51100000000E-03 0.  1.
         23    2    1    2    0    0  0.00000000000E+00 -0.44408920985E-15  0.88817841970E-15  0.91188000000E+02  0.91188000000E+02 0.  0.
    9900012    2    3    3    0    0  0.42907158178E+02 -0.29736530076E+01 -0.58100418025E+01  0.47787269351E+02  0.19999992278E+02 0.  0.
         12    1    3    3    0    0 -0.42907158178E+02  0.29736530076E+01  0.58100418025E+01  0.43400730649E+02  0.00000000000E+00 0. -1.
         11    1    4    4    0    0  0.26484351488E+01 -0.37545615160E+01 -0.21475233277E+01  0.50717647440E+01  0.51100000000E-03 0. -1.
        -11    1    4    4    0    0  0.29473109675E+02 -0.19514792049E+01 -0.82690385713E+01  0.30673269538E+02  0.51100000000E-03 0.  1.
        -12    1    4    4    0    0  0.10785613354E+02  0.27323877132E+01  0.46065200965E+01  0.12042235068E+02  0.00000000000E+00 0.  1.
</event>
<event>
 8    1  0.5250708E-010  0.9118800E+02  0.7816164E-02  0.1184000E+00
        -11   -1    0    0    0    0  0.00000000000E+00  0.00000000000E+00  0.45593999997E+02  0.45594000000E+02  0.51100000000E-03 0. -1.
         11   -1    0    0    0    0 -0.00000000000E+00 -0.00000000000E+00 -0.45593999997E+02  0.45594000000E+02  0.51100000000E-03 0.  1.
         23    2    1    2    0    0 -0.35527136788E-14 -0.88817841970E-15  0.00000000000E+00  0.91188000000E+02  0.91188000000E+02 0.  0.
    9900012    2    3    3    0    0  0.23603035430E+02  0.58774634142E+01  0.35944059111E+02  0.47787271399E+02  0.20000001618E+02 0.  0.
        -12    1    3    3    0    0 -0.23603035430E+02 -0.58774634142E+01 -0.35944059111E+02  0.43400728601E+02  0.00000000000E+00 0.  1.
         11    1    4    4    0    0  0.17915950724E+02  0.51216314939E+00  0.13782389414E+02  0.22609685086E+02  0.51100000000E-03 0. -1.
        -11    1    4    4    0    0  0.40974748814E+01 -0.12478621360E+01  0.13508497750E+02  0.14171308056E+02  0.51100000000E-03 0.  1.
        -12    1    4    4    0    0  0.15896098241E+01  0.66131624007E+01  0.86531719473E+01  0.11006278258E+02  0.00000000000E+00 0.  1.
</event>
<event>
 8    1  0.5250708E-010  0.9118800E+02  0.7816164E-02  0.1184000E+00
        -11   -1    0    0    0    0  0.00000000000E+00  0.00000000000E+00  0.45593999997E+02  0.45594000000E+02  0.51100000000E-03 0. -1.
         11   -1    0    0    0    0 -0.00000000000E+00 -0.00000000000E+00 -0.45593999997E+02  0.45594000000E+02  0.51100000000E-03 0.  1.
         23    2    1    2    0    0  0.00000000000E+00  0.00000000000E+00  0.00000000000E+00  0.91188000000E+02  0.91188000000E+02 0.  0.
    9900012    2    3    3    0    0 -0.21892985217E+02  0.52200785943E+01  0.37108908843E+02  0.47787272612E+02  0.20000007148E+02 0.  0.
        -12    1    3    3    0    0  0.21892985217E+02 -0.52200785943E+01 -0.37108908843E+02  0.43400727388E+02  0.00000000000E+00 0.  1.
         11    1    4    4    0    0 -0.19550253582E+02  0.66202569635E+01  0.29679753396E+02  0.36151458882E+02  0.51100000000E-03 0. -1.
        -11    1    4    4    0    0  0.89661764394E+00 -0.30977285820E+00  0.80977182935E+01  0.81530929251E+01  0.51100000000E-03 0.  1.
        -12    1    4    4    0    0 -0.32393492782E+01 -0.10904055110E+01 -0.66856284631E+00  0.34827208048E+01  0.00000000000E+00 0.  1.
</event>
<event>
 8    1  0.7645853E-010  0.9118800E+02  0.7816164E-02  0.1184000E+00
        -11   -1    0    0    0    0  0.00000000000E+00  0.00000000000E+00  0.45593999997E+02  0.45594000000E+02  0.51100000000E-03 0. -1.
         11   -1    0    0    0    0 -0.00000000000E+00 -0.00000000000E+00 -0.45593999997E+02  0.45594000000E+02  0.51100000000E-03 0.  1.
         23    2    1    2    0    0 -0.66613381478E-15  0.71054273576E-14 -0.35527136788E-14  0.91188000000E+02  0.91188000000E+02 0.  0.
    9900012    2    3    3    0    0 -0.55348869835E+00 -0.33580407004E+02  0.27489511086E+02  0.47787270697E+02  0.19999998415E+02 0.  0.
        -12    1    3    3    0    0  0.55348869835E+00  0.33580407004E+02 -0.27489511086E+02  0.43400729303E+02  0.00000000000E+00 0.  1.
         11    1    4    4    0    0  0.30202874575E+01 -0.13214118990E+02  0.13744168392E+02  0.19303814184E+02  0.51100000000E-03 0. -1.
        -11    1    4    4    0    0 -0.92159077332E-01 -0.59587490952E+01 -0.25263604494E+01  0.64728418377E+01  0.51100000000E-03 0.  1.
         12    1    4    4    0    0 -0.34816170786E+01 -0.14407538919E+02  0.16271703144E+02  0.22010614675E+02  0.00000000000E+00 0. -1.
</event>
<event>
 8    1  0.5250708E-010  0.9118800E+02  0.7816164E-02  0.1184000E+00
        -11   -1    0    0    0    0  0.00000000000E+00  0.00000000000E+00  0.45593999997E+02  0.45594000000E+02  0.51100000000E-03 0. -1.
         11   -1    0    0    0    0 -0.00000000000E+00 -0.00000000000E+00 -0.45593999997E+02  0.45594000000E+02  0.51100000000E-03 0.  1.
         23    2    1    2    0    0  0.71054273576E-14  0.35527136788E-14  0.00000000000E+00  0.91188000000E+02  0.91188000000E+02 0.  0.
    9900012    2    3    3    0    0 -0.35653579667E+02 -0.23852528885E+02  0.65956353636E+01  0.47787270938E+02  0.19999999514E+02 0.  0.
        -12    1    3    3    0    0  0.35653579667E+02  0.23852528885E+02 -0.65956353636E+01  0.43400729062E+02  0.00000000000E+00 0.  1.
         11    1    4    4    0    0 -0.18629510754E+02 -0.71261440907E+01 -0.10763884293E+01  0.19974964652E+02  0.51100000000E-03 0. -1.
        -11    1    4    4    0    0 -0.63990451658E+01 -0.35706769865E+01  0.80655357063E+01  0.10897264779E+02  0.51100000000E-03 0.  1.
        -12    1    4    4    0    0 -0.10625023747E+02 -0.13155707807E+02 -0.39351191344E+00  0.16915041507E+02  0.00000000000E+00 0.  1.
</event>
<event>
 8    1  0.5250708E-010  0.9118800E+02  0.7816164E-02  0.1184000E+00
        -11   -1    0    0    0    0  0.00000000000E+00  0.00000000000E+00  0.45593999997E+02  0.45594000000E+02  0.51100000000E-03 0. -1.
         11   -1    0    0    0    0 -0.00000000000E+00 -0.00000000000E+00 -0.45593999997E+02  0.45594000000E+02  0.51100000000E-03 0.  1.
         23    2    1    2    0    0  0.00000000000E+00  0.00000000000E+00  0.00000000000E+00  0.91188000000E+02  0.91188000000E+02 0.  0.
    9900012    2    3    3    0    0  0.10843423981E+02  0.12575656918E+02 -0.40098569794E+02  0.47787282378E+02  0.20000051676E+02 0.  0.
         12    1    3    3    0    0 -0.10843423981E+02 -0.12575656918E+02  0.40098569794E+02  0.43400717622E+02  0.00000000000E+00 0. -1.
         11    1    4    4    0    0  0.38609921912E+01 -0.21214793933E+01 -0.62797613997E+00  0.44499763831E+01  0.51100000000E-03 0. -1.
        -11    1    4    4    0    0 -0.39207202985E+00  0.59039599813E+01 -0.89369122877E+01  0.10718155878E+02  0.51100000000E-03 0.  1.
        -12    1    4    4    0    0  0.73745038199E+01  0.87931763305E+01 -0.30533681366E+02  0.32619150117E+02  0.00000000000E+00 0.  1.
</event>
<event>
 8    1  0.5250708E-010  0.9118800E+02  0.7816164E-02  0.1184000E+00
        -11   -1    0    0    0    0  0.00000000000E+00  0.00000000000E+00  0.45593999997E+02  0.45594000000E+02  0.51100000000E-03 0. -1.
         11   -1    0    0    0    0 -0.00000000000E+00 -0.00000000000E+00 -0.45593999997E+02  0.45594000000E+02  0.51100000000E-03 0.  1.
         23    2    1    2    0    0 -0.35527136788E-14  0.35527136788E-14 -0.35527136788E-14  0.91188000000E+02  0.91188000000E+02 0.  0.
    9900012    2    3    3    0    0  0.19948181037E+02 -0.22012514338E+02  0.31640836510E+02  0.47787271328E+02  0.20000001294E+02 0.  0.
        -12    1    3    3    0    0 -0.19948181037E+02  0.22012514338E+02 -0.31640836510E+02  0.43400728672E+02  0.00000000000E+00 0.  1.
         11    1    4    4    0    0  0.37276722030E+01  0.13967313626E+01  0.13969496689E+01  0.42187518523E+01  0.51100000000E-03 0. -1.
        -11    1    4    4    0    0 -0.32723938897E+00  0.11880750691E+01  0.19988187453E-01  0.12324803351E+01  0.51100000000E-03 0.  1.
         12    1    4    4    0    0  0.16547748223E+02 -0.24597320770E+02  0.30223898654E+02  0.42336039141E+02  0.00000000000E+00 0. -1.
</event>
<event>
 8    1  0.5250708E-010  0.9118800E+02  0.7816164E-02  0.1184000E+00
        -11   -1    0    0    0    0  0.00000000000E+00  0.00000000000E+00  0.45593999997E+02  0.45594000000E+02  0.51100000000E-03 0. -1.
         11   -1    0    0    0    0 -0.00000000000E+00 -0.00000000000E+00 -0.45593999997E+02  0.45594000000E+02  0.51100000000E-03 0.  1.
         23    2    1    2    0    0  0.00000000000E+00  0.00000000000E+00  0.00000000000E+00  0.91188000000E+02  0.91188000000E+02 0.  0.
    9900012    2    3    3    0    0  0.12330665981E+01 -0.32196501843E+02 -0.29077280201E+02  0.47787269499E+02  0.19999992952E+02 0.  0.
         12    1    3    3    0    0 -0.12330665981E+01  0.32196501843E+02  0.29077280201E+02  0.43400730501E+02  0.00000000000E+00 0. -1.
         11    1    4    4    0    0  0.84096739689E+01 -0.20530665375E+02 -0.10841169674E+02  0.24693355325E+02  0.51100000000E-03 0. -1.
        -11    1    4    4    0    0 -0.12064182567E+01 -0.36808974932E+01 -0.30627374187E+01  0.49380980269E+01  0.51100000000E-03 0.  1.
        -12    1    4    4    0    0 -0.59701891141E+01 -0.79849389743E+01 -0.15173373108E+02  0.18155816147E+02  0.00000000000E+00 0.  1.
</event>
<event>
 8    1  0.5250708E-010  0.9118800E+02  0.7816164E-02  0.1184000E+00
        -11   -1    0    0    0    0  0.00000000000E+00  0.00000000000E+00  0.45593999997E+02  0.45594000000E+02  0.51100000000E-03 0. -1.
         11   -1    0    0    0    0 -0.00000000000E+00 -0.00000000000E+00 -0.45593999997E+02  0.45594000000E+02  0.51100000000E-03 0.  1.
         23    2    1    2    0    0  0.00000000000E+00  0.00000000000E+00  0.00000000000E+00  0.91188000000E+02  0.91188000000E+02 0.  0.
    9900012    2    3    3    0    0 -0.26900816392E+02 -0.96055379423E+01 -0.32675725694E+02  0.47787270383E+02  0.19999996983E+02 0.  0.
         12    1    3    3    0    0  0.26900816392E+02  0.96055379423E+01  0.32675725694E+02  0.43400729617E+02  0.00000000000E+00 0. -1.
         11    1    4    4    0    0 -0.15724164781E+00 -0.45852081764E+01 -0.69499042053E+01  0.83276664007E+01  0.51100000000E-03 0. -1.
        -11    1    4    4    0    0 -0.19283601645E+02  0.12569598660E+01 -0.12448076336E+02  0.22986775442E+02  0.51100000000E-03 0.  1.
        -12    1    4    4    0    0 -0.74599730990E+01 -0.62772896320E+01 -0.13277745153E+02  0.16472828540E+02  0.00000000000E+00 0.  1.
</event>
<event>
 8    1  0.5250708E-010  0.9118800E+02  0.7816164E-02  0.1184000E+00
        -11   -1    0    0    0    0  0.00000000000E+00  0.00000000000E+00  0.45593999997E+02  0.45594000000E+02  0.51100000000E-03 0. -1.
         11   -1    0    0    0    0 -0.00000000000E+00 -0.00000000000E+00 -0.45593999997E+02  0.45594000000E+02  0.51100000000E-03 0.  1.
         23    2    1    2    0    0 -0.35527136788E-14  0.35527136788E-14 -0.71054273576E-14  0.91188000000E+02  0.91188000000E+02 0.  0.
    9900012    2    3    3    0    0  0.26256473857E+02 -0.19004056564E+02  0.28862895033E+02  0.47787270802E+02  0.19999998893E+02 0.  0.
        -12    1    3    3    0    0 -0.26256473857E+02  0.19004056564E+02 -0.28862895033E+02  0.43400729198E+02  0.00000000000E+00 0.  1.
         11    1    4    4    0    0  0.23496693941E+01 -0.52814060885E+01  0.12990993386E+01  0.59246819228E+01  0.51100000000E-03 0. -1.
        -11    1    4    4    0    0  0.18201114542E+02 -0.14283307261E+02  0.27745858719E+02  0.36126529216E+02  0.51100000000E-03 0.  1.
        -12    1    4    4    0    0  0.57056899212E+01  0.56065678618E+00 -0.18206302494E+00  0.57360596627E+01  0.00000000000E+00 0.  1.
</event>
<event>
 8    1  0.5250708E-010  0.9118800E+02  0.7816164E-02  0.1184000E+00
        -11   -1    0    0    0    0  0.00000000000E+00  0.00000000000E+00  0.45593999997E+02  0.45594000000E+02  0.51100000000E-03 0.  1.
         11   -1    0    0    0    0 -0.00000000000E+00 -0.00000000000E+00 -0.45593999997E+02  0.45594000000E+02  0.51100000000E-03 0. -1.
         23    2    1    2    0    0  0.00000000000E+00  0.00000000000E+00  0.17763568394E-14  0.91188000000E+02  0.91188000000E+02 0.  0.
    9900012    2    3    3    0    0  0.33546431110E+02  0.23160786223E+02 -0.14894236976E+02  0.47787270124E+02  0.19999995802E+02 0.  0.
         12    1    3    3    0    0 -0.33546431110E+02 -0.23160786223E+02  0.14894236976E+02  0.43400729876E+02  0.00000000000E+00 0. -1.
         11    1    4    4    0    0  0.42738388023E+01 -0.34888976333E+01 -0.28366713372E+01  0.62036126039E+01  0.51100000000E-03 0. -1.
        -11    1    4    4    0    0  0.16140654200E+02  0.13822878296E+02 -0.44433059553E+01  0.21710266015E+02  0.51100000000E-03 0.  1.
         12    1    4    4    0    0  0.13131938108E+02  0.12826805560E+02 -0.76142596837E+01  0.19873391504E+02  0.00000000000E+00 0. -1.
</event>
<event>
 8    1  0.5250708E-010  0.9118800E+02  0.7816164E-02  0.1184000E+00
        -11   -1    0    0    0    0  0.00000000000E+00  0.00000000000E+00  0.45593999997E+02  0.45594000000E+02  0.51100000000E-03 0. -1.
         11   -1    0    0    0    0 -0.00000000000E+00 -0.00000000000E+00 -0.45593999997E+02  0.45594000000E+02  0.51100000000E-03 0.  1.
         23    2    1    2    0    0 -0.88817841970E-15 -0.35527136788E-14  0.00000000000E+00  0.91188000000E+02  0.91188000000E+02 0.  0.
    9900012    2    3    3    0    0 -0.60840502901E+01  0.30696365647E+02 -0.30072251335E+02  0.47787276132E+02  0.20000023198E+02 0.  0.
         12    1    3    3    0    0  0.60840502901E+01 -0.30696365647E+02  0.30072251335E+02  0.43400723868E+02  0.00000000000E+00 0. -1.
         11    1    4    4    0    0  0.14395731039E+01  0.13345793578E+02 -0.81894988940E+01  0.15724200118E+02  0.51100000000E-03 0. -1.
        -11    1    4    4    0    0 -0.25333500959E+01  0.31092139499E+01 -0.14909379339E+02  0.15439386861E+02  0.51100000000E-03 0.  1.
         12    1    4    4    0    0 -0.49902732981E+01  0.14241358119E+02 -0.69733731019E+01  0.16623689154E+02  0.00000000000E+00 0. -1.
</event>
<event>
 8    1  0.5250708E-010  0.9118800E+02  0.7816164E-02  0.1184000E+00
        -11   -1    0    0    0    0  0.00000000000E+00  0.00000000000E+00  0.45593999997E+02  0.45594000000E+02  0.51100000000E-03 0. -1.
         11   -1    0    0    0    0 -0.00000000000E+00 -0.00000000000E+00 -0.45593999997E+02  0.45594000000E+02  0.51100000000E-03 0.  1.
         23    2    1    2    0    0  0.00000000000E+00 -0.35527136788E-14  0.00000000000E+00  0.91188000000E+02  0.91188000000E+02 0.  0.
    9900012    2    3    3    0    0 -0.22752919854E+02 -0.31713555939E+02  0.18978370357E+02  0.47787268052E+02  0.19999986358E+02 0.  0.
        -12    1    3    3    0    0  0.22752919854E+02  0.31713555939E+02 -0.18978370357E+02  0.43400731948E+02  0.00000000000E+00 0.  1.
         11    1    4    4    0    0  0.27494094300E+00 -0.16515057065E+01  0.30016293011E+01  0.34369815745E+01  0.51100000000E-03 0. -1.
        -11    1    4    4    0    0 -0.37360389226E+01  0.61020469772E+00 -0.15605963233E+01  0.40946059334E+01  0.51100000000E-03 0.  1.
         12    1    4    4    0    0 -0.19291821875E+02 -0.30672254930E+02  0.17537337379E+02  0.40255680544E+02  0.00000000000E+00 0. -1.
</event>
<event>
 8    1  0.6816241E-010  0.9118800E+02  0.7816164E-02  0.1184000E+00
        -11   -1    0    0    0    0  0.00000000000E+00  0.00000000000E+00  0.45593999997E+02  0.45594000000E+02  0.51100000000E-03 0. -1.
         11   -1    0    0    0    0 -0.00000000000E+00 -0.00000000000E+00 -0.45593999997E+02  0.45594000000E+02  0.51100000000E-03 0.  1.
         23    2    1    2    0    0 -0.35527136788E-14 -0.17763568394E-14  0.00000000000E+00  0.91188000000E+02  0.91188000000E+02 0.  0.
    9900012    2    3    3    0    0 -0.26547778747E+02 -0.12045868524E+02  0.32151766908E+02  0.47787267055E+02  0.19999981810E+02 0.  0.
        -12    1    3    3    0    0  0.26547778747E+02  0.12045868524E+02 -0.32151766908E+02  0.43400732945E+02  0.00000000000E+00 0.  1.
         11    1    4    4    0    0 -0.60973251935E+01 -0.97384240435E+01  0.72893638376E+01  0.13606950532E+02  0.51100000000E-03 0. -1.
        -11    1    4    4    0    0 -0.94659649988E+00  0.16219398452E+01  0.76350014925E+01  0.78625684001E+01  0.51100000000E-03 0.  1.
         12    1    4    4    0    0 -0.19503857053E+02 -0.39293843256E+01  0.17227401578E+02  0.26317748123E+02  0.00000000000E+00 0. -1.
</event>
<event>
 8    1  0.5250708E-010  0.9118800E+02  0.7816164E-02  0.1184000E+00
        -11   -1    0    0    0    0  0.00000000000E+00  0.00000000000E+00  0.45593999997E+02  0.45594000000E+02  0.51100000000E-03 0. -1.
         11   -1    0    0    0    0 -0.00000000000E+00 -0.00000000000E+00 -0.45593999997E+02  0.45594000000E+02  0.51100000000E-03 0.  1.
         23    2    1    2    0    0  0.71054273576E-14  0.00000000000E+00 -0.35527136788E-14  0.91188000000E+02  0.91188000000E+02 0.  0.
    9900012    2    3    3    0    0 -0.25073861734E+02  0.27176152701E+02  0.22724055506E+02  0.47787256728E+02  0.19999934726E+02 0.  0.
        -12    1    3    3    0    0  0.25073861734E+02 -0.27176152701E+02 -0.22724055506E+02  0.43400743272E+02  0.00000000000E+00 0.  1.
         11    1    4    4    0    0  0.10576411757E+01  0.23455323625E+00  0.25004339978E+01  0.27250303696E+01  0.51100000000E-03 0. -1.
        -11    1    4    4    0    0 -0.24297133220E+02  0.18492309156E+02  0.11090318927E+02  0.32485556095E+02  0.51100000000E-03 0.  1.
         12    1    4    4    0    0 -0.18343696902E+01  0.84492903089E+01  0.91333025815E+01  0.12576670264E+02  0.00000000000E+00 0. -1.
</event>
<event>
 8    1  0.5250708E-010  0.9118800E+02  0.7816164E-02  0.1184000E+00
        -11   -1    0    0    0    0  0.00000000000E+00  0.00000000000E+00  0.45593999997E+02  0.45594000000E+02  0.51100000000E-03 0. -1.
         11   -1    0    0    0    0 -0.00000000000E+00 -0.00000000000E+00 -0.45593999997E+02  0.45594000000E+02  0.51100000000E-03 0.  1.
         23    2    1    2    0    0  0.88817841970E-15  0.71054273576E-14  0.00000000000E+00  0.91188000000E+02  0.91188000000E+02 0.  0.
    9900012    2    3    3    0    0 -0.68569126399E+01 -0.35889673141E+02  0.23420827114E+02  0.47787296874E+02  0.20000117768E+02 0.  0.
        -12    1    3    3    0    0  0.68569126399E+01  0.35889673141E+02 -0.23420827114E+02  0.43400703126E+02  0.00000000000E+00 0.  1.
         11    1    4    4    0    0 -0.78678221534E+01 -0.15000910004E+02  0.19071642619E+02  0.25507988530E+02  0.51100000000E-03 0. -1.
        -11    1    4    4    0    0 -0.17199003286E+01 -0.47151359257E+01 -0.81121687043E+00  0.50841554864E+01  0.51100000000E-03 0.  1.
        -12    1    4    4    0    0  0.27308098421E+01 -0.16173627211E+02  0.51604013653E+01  0.17195152858E+02  0.00000000000E+00 0.  1.
</event>
<event>
 8    1  0.5250708E-010  0.9118800E+02  0.7816164E-02  0.1184000E+00
        -11   -1    0    0    0    0  0.00000000000E+00  0.00000000000E+00  0.45593999997E+02  0.45594000000E+02  0.51100000000E-03 0.  1.
         11   -1    0    0    0    0 -0.00000000000E+00 -0.00000000000E+00 -0.45593999997E+02  0.45594000000E+02  0.51100000000E-03 0. -1.
         23    2    1    2    0    0 -0.17763568394E-14  0.00000000000E+00  0.44408920985E-15  0.91188000000E+02  0.91188000000E+02 0.  0.
    9900012    2    3    3    0    0 -0.13098473861E+02 -0.41352470601E+02 -0.14235446819E+01  0.47787270493E+02  0.19999997484E+02 0.  0.
         12    1    3    3    0    0  0.13098473861E+02  0.41352470601E+02  0.14235446819E+01  0.43400729507E+02  0.00000000000E+00 0. -1.
         11    1    4    4    0    0 -0.43882073586E+01 -0.14862086656E+02  0.53051272265E+01  0.16379327176E+02  0.51100000000E-03 0. -1.
        -11    1    4    4    0    0 -0.96923943842E+01 -0.27064147107E+02 -0.47663714436E+01  0.29139815794E+02  0.51100000000E-03 0.  1.
         12    1    4    4    0    0  0.98212788224E+00  0.57376316153E+00 -0.19623004648E+01  0.22681275221E+01  0.00000000000E+00 0. -1.
</event>
<event>
 8    1  0.5250708E-010  0.9118800E+02  0.7816164E-02  0.1184000E+00
        -11   -1    0    0    0    0  0.00000000000E+00  0.00000000000E+00  0.45593999997E+02  0.45594000000E+02  0.51100000000E-03 0. -1.
         11   -1    0    0    0    0 -0.00000000000E+00 -0.00000000000E+00 -0.45593999997E+02  0.45594000000E+02  0.51100000000E-03 0.  1.
         23    2    1    2    0    0  0.17763568394E-14 -0.35527136788E-14  0.00000000000E+00  0.91188000000E+02  0.91188000000E+02 0.  0.
    9900012    2    3    3    0    0 -0.10114502503E+02  0.20894633951E+02  0.36670619195E+02  0.47787271884E+02  0.20000003828E+02 0.  0.
        -12    1    3    3    0    0  0.10114502503E+02 -0.20894633951E+02 -0.36670619195E+02  0.43400728116E+02  0.00000000000E+00 0.  1.
         11    1    4    4    0    0 -0.75231521803E+01  0.13504700571E+01  0.75665088276E+01  0.10755168255E+02  0.51100000000E-03 0. -1.
        -11    1    4    4    0    0  0.40903303828E+01  0.77512658998E+01  0.15633320264E+02  0.17922433663E+02  0.51100000000E-03 0.  1.
         12    1    4    4    0    0 -0.66816807058E+01  0.11792897994E+02  0.13470790104E+02  0.19109669965E+02  0.00000000000E+00 0. -1.
</event>
<event>
 8    1  0.5250708E-010  0.9118800E+02  0.7816164E-02  0.1184000E+00
        -11   -1    0    0    0    0  0.00000000000E+00  0.00000000000E+00  0.45593999997E+02  0.45594000000E+02  0.51100000000E-03 0. -1.
         11   -1    0    0    0    0 -0.00000000000E+00 -0.00000000000E+00 -0.45593999997E+02  0.45594000000E+02  0.51100000000E-03 0.  1.
         23    2    1    2    0    0  0.00000000000E+00  0.88817841970E-15  0.71054273576E-14  0.91188000000E+02  0.91188000000E+02 0.  0.
    9900012    2    3    3    0    0  0.16695374407E+02 -0.42977633175E+01 -0.39829852547E+02  0.47787269015E+02  0.19999990749E+02 0.  0.
         12    1    3    3    0    0 -0.16695374407E+02  0.42977633175E+01  0.39829852547E+02  0.43400730985E+02  0.00000000000E+00 0. -1.
         11    1    4    4    0    0  0.36263144057E+01 -0.24754684280E+01  0.28022955660E+00  0.43996169120E+01  0.51100000000E-03 0. -1.
        -11    1    4    4    0    0  0.10579692848E+02 -0.35021104105E+01 -0.18706974336E+02  0.21774883861E+02  0.51100000000E-03 0.  1.
        -12    1    4    4    0    0  0.24893671527E+01  0.16798155209E+01 -0.21403107767E+02  0.21612768242E+02  0.00000000000E+00 0.  1.
</event>
<event>
 8    1  0.5250708E-010  0.9118800E+02  0.7816164E-02  0.1184000E+00
        -11   -1    0    0    0    0  0.00000000000E+00  0.00000000000E+00  0.45593999997E+02  0.45594000000E+02  0.51100000000E-03 0. -1.
         11   -1    0    0    0    0 -0.00000000000E+00 -0.00000000000E+00 -0.45593999997E+02  0.45594000000E+02  0.51100000000E-03 0.  1.
         23    2    1    2    0    0  0.00000000000E+00  0.00000000000E+00  0.00000000000E+00  0.91188000000E+02  0.91188000000E+02 0.  0.
    9900012    2    3    3    0    0  0.23135157559E+02 -0.25375327328E+02  0.26542052698E+02  0.47787270586E+02  0.19999997909E+02 0.  0.
        -12    1    3    3    0    0 -0.23135157559E+02  0.25375327328E+02 -0.26542052698E+02  0.43400729414E+02  0.00000000000E+00 0.  1.
         11    1    4    4    0    0  0.53292446781E+01 -0.10818016249E+02  0.70747179382E+01  0.13981486279E+02  0.51100000000E-03 0. -1.
        -11    1    4    4    0    0 -0.34220137805E+00 -0.57023971366E+01 -0.63172106479E-01  0.57130049767E+01  0.51100000000E-03 0.  1.
         12    1    4    4    0    0  0.18148114258E+02 -0.88549139429E+01  0.19530506866E+02  0.28092779331E+02  0.00000000000E+00 0. -1.
</event>
<event>
 8    1  0.5250708E-010  0.9118800E+02  0.7816164E-02  0.1184000E+00
        -11   -1    0    0    0    0  0.00000000000E+00  0.00000000000E+00  0.45593999997E+02  0.45594000000E+02  0.51100000000E-03 0. -1.
         11   -1    0    0    0    0 -0.00000000000E+00 -0.00000000000E+00 -0.45593999997E+02  0.45594000000E+02  0.51100000000E-03 0.  1.
         23    2    1    2    0    0  0.00000000000E+00  0.00000000000E+00 -0.35527136788E-14  0.91188000000E+02  0.91188000000E+02 0.  0.
    9900012    2    3    3    0    0 -0.37410280220E+02 -0.96593772380E+00  0.21980925042E+02  0.47787272269E+02  0.20000005585E+02 0.  0.
        -12    1    3    3    0    0  0.37410280220E+02  0.96593772380E+00 -0.21980925042E+02  0.43400727731E+02  0.00000000000E+00 0.  1.
         11    1    4    4    0    0 -0.28195855433E+02 -0.33867780254E+01  0.11097425090E+02  0.30489824088E+02  0.51100000000E-03 0.  1.
        -11    1    4    4    0    0 -0.10442938473E+02 -0.27884358875E+00  0.79696845192E+01  0.13139581017E+02  0.51100000000E-03 0. -1.
        -12    1    4    4    0    0  0.12285136863E+01  0.26996838903E+01  0.29138154328E+01  0.41578671650E+01  0.00000000000E+00 0.  1.
</event>
<event>
 8    1  0.5250708E-010  0.9118800E+02  0.7816164E-02  0.1184000E+00
        -11   -1    0    0    0    0  0.00000000000E+00  0.00000000000E+00  0.45593999997E+02  0.45594000000E+02  0.51100000000E-03 0. -1.
         11   -1    0    0    0    0 -0.00000000000E+00 -0.00000000000E+00 -0.45593999997E+02  0.45594000000E+02  0.51100000000E-03 0.  1.
         23    2    1    2    0    0  0.35527136788E-14  0.00000000000E+00 -0.71054273576E-14  0.91188000000E+02  0.91188000000E+02 0.  0.
    9900012    2    3    3    0    0  0.26925572618E+02  0.10310594803E+02 -0.32439605978E+02  0.47787275789E+02  0.20000021632E+02 0.  0.
         12    1    3    3    0    0 -0.26925572618E+02 -0.10310594803E+02  0.32439605978E+02  0.43400724211E+02  0.00000000000E+00 0. -1.
         11    1    4    4    0    0  0.91422653493E+01 -0.33009038689E+01 -0.16291370841E+02  0.18970654871E+02  0.51100000000E-03 0. -1.
        -11    1    4    4    0    0  0.12350342473E+02  0.67403032366E+01 -0.13889041031E+02  0.19770384618E+02  0.51100000000E-03 0.  1.
        -12    1    4    4    0    0  0.54329647959E+01  0.68711954358E+01 -0.22591941057E+01  0.90462363001E+01  0.00000000000E+00 0.  1.
</event>
<event>
 8    1  0.5250708E-010  0.9118800E+02  0.7816164E-02  0.1184000E+00
        -11   -1    0    0    0    0  0.00000000000E+00  0.00000000000E+00  0.45593999997E+02  0.45594000000E+02  0.51100000000E-03 0. -1.
         11   -1    0    0    0    0 -0.00000000000E+00 -0.00000000000E+00 -0.45593999997E+02  0.45594000000E+02  0.51100000000E-03 0.  1.
         23    2    1    2    0    0  0.35527136788E-14  0.35527136788E-14 -0.35527136788E-14  0.91188000000E+02  0.91188000000E+02 0.  0.
    9900012    2    3    3    0    0 -0.24241478349E+02 -0.26950152738E+02  0.23867622872E+02  0.47787269284E+02  0.19999991973E+02 0.  0.
        -12    1    3    3    0    0  0.24241478349E+02  0.26950152738E+02 -0.23867622872E+02  0.43400730716E+02  0.00000000000E+00 0.  1.
         11    1    4    4    0    0 -0.84262190734E+01 -0.12766899850E+02  0.58455194278E+01  0.16375744175E+02  0.51100000000E-03 0. -1.
        -11    1    4    4    0    0 -0.13445599478E+02 -0.73927184854E+01  0.43263649456E+01  0.15942203920E+02  0.51100000000E-03 0.  1.
         12    1    4    4    0    0 -0.23696597983E+01 -0.67905344025E+01  0.13695738498E+02  0.15469321189E+02  0.00000000000E+00 0. -1.
</event>
<event>
 8    1  0.5250708E-010  0.9118800E+02  0.7816164E-02  0.1184000E+00
        -11   -1    0    0    0    0  0.00000000000E+00  0.00000000000E+00  0.45593999997E+02  0.45594000000E+02  0.51100000000E-03 0. -1.
         11   -1    0    0    0    0 -0.00000000000E+00 -0.00000000000E+00 -0.45593999997E+02  0.45594000000E+02  0.51100000000E-03 0.  1.
         23    2    1    2    0    0  0.00000000000E+00 -0.35527136788E-14  0.00000000000E+00  0.91188000000E+02  0.91188000000E+02 0.  0.
    9900012    2    3    3    0    0  0.28954560904E+02  0.29413582621E+02 -0.13420006423E+02  0.47787285581E+02  0.20000066276E+02 0.  0.
         12    1    3    3    0    0 -0.28954560904E+02 -0.29413582621E+02  0.13420006423E+02  0.43400714419E+02  0.00000000000E+00 0. -1.
         11    1    4    4    0    0  0.16217289071E+02  0.23666997248E+02 -0.14407123090E+01  0.28726344629E+02  0.51100000000E-03 0. -1.
        -11    1    4    4    0    0  0.17489968206E+01  0.15170164030E+01 -0.46429340087E+01  0.51881755094E+01  0.51100000000E-03 0.  1.
        -12    1    4    4    0    0  0.10988275012E+02  0.42295689698E+01 -0.73363601052E+01  0.13872765442E+02  0.00000000000E+00 0.  1.
</event>
<event>
 8    1  0.5250708E-010  0.9118800E+02  0.7816164E-02  0.1184000E+00
        -11   -1    0    0    0    0  0.00000000000E+00  0.00000000000E+00  0.45593999997E+02  0.45594000000E+02  0.51100000000E-03 0. -1.
         11   -1    0    0    0    0 -0.00000000000E+00 -0.00000000000E+00 -0.45593999997E+02  0.45594000000E+02  0.51100000000E-03 0.  1.
         23    2    1    2    0    0 -0.22204460493E-15  0.00000000000E+00  0.00000000000E+00  0.91188000000E+02  0.91188000000E+02 0.  0.
    9900012    2    3    3    0    0  0.17371302702E+01 -0.46928278701E+01  0.43111283770E+02  0.47787273701E+02  0.20000012113E+02 0.  0.
        -12    1    3    3    0    0 -0.17371302702E+01  0.46928278701E+01 -0.43111283770E+02  0.43400726299E+02  0.00000000000E+00 0.  1.
         11    1    4    4    0    0 -0.50442669080E-01 -0.59761163924E+00 -0.13293628173E+01  0.14583860584E+01  0.51100000000E-03 0. -1.
        -11    1    4    4    0    0  0.13053658323E+01  0.69187311927E+00 -0.14491709956E+00  0.14844762027E+01  0.51100000000E-03 0.  1.
         12    1    4    4    0    0  0.48220710691E+00 -0.47870893501E+01  0.44585563687E+02  0.44844411440E+02  0.00000000000E+00 0. -1.
</event>
<event>
 8    1  0.5250708E-010  0.9118800E+02  0.7816164E-02  0.1184000E+00
        -11   -1    0    0    0    0  0.00000000000E+00  0.00000000000E+00  0.45593999997E+02  0.45594000000E+02  0.51100000000E-03 0. -1.
         11   -1    0    0    0    0 -0.00000000000E+00 -0.00000000000E+00 -0.45593999997E+02  0.45594000000E+02  0.51100000000E-03 0.  1.
         23    2    1    2    0    0  0.00000000000E+00  0.00000000000E+00  0.00000000000E+00  0.91188000000E+02  0.91188000000E+02 0.  0.
    9900012    2    3    3    0    0  0.23619786259E+02 -0.24792293504E+02  0.26665915913E+02  0.47787271992E+02  0.20000004322E+02 0.  0.
        -12    1    3    3    0    0 -0.23619786259E+02  0.24792293504E+02 -0.26665915913E+02  0.43400728008E+02  0.00000000000E+00 0.  1.
         11    1    4    4    0    0  0.10260232751E+02 -0.39741116826E+01  0.23854653329E+01  0.11258613809E+02  0.51100000000E-03 0. -1.
        -11    1    4    4    0    0  0.35328483874E+01 -0.16047871859E+01 -0.21089113465E+00  0.38859792810E+01  0.51100000000E-03 0.  1.
        -12    1    4    4    0    0  0.98267051203E+01 -0.19213394635E+02  0.24491341715E+02  0.32642678903E+02  0.00000000000E+00 0.  1.
</event>
<event>
 8    1  0.5250708E-010  0.9118800E+02  0.7816164E-02  0.1184000E+00
        -11   -1    0    0    0    0  0.00000000000E+00  0.00000000000E+00  0.45593999997E+02  0.45594000000E+02  0.51100000000E-03 0. -1.
         11   -1    0    0    0    0 -0.00000000000E+00 -0.00000000000E+00 -0.45593999997E+02  0.45594000000E+02  0.51100000000E-03 0.  1.
         23    2    1    2    0    0  0.00000000000E+00 -0.35527136788E-14  0.00000000000E+00  0.91188000000E+02  0.91188000000E+02 0.  0.
    9900012    2    3    3    0    0 -0.19985700077E+02  0.22847207147E+02 -0.31019376752E+02  0.47787253277E+02  0.19999918992E+02 0.  0.
         12    1    3    3    0    0  0.19985700077E+02 -0.22847207147E+02  0.31019376752E+02  0.43400746723E+02  0.00000000000E+00 0. -1.
         11    1    4    4    0    0 -0.13918592528E+02  0.87371111132E+01 -0.10064007382E+02  0.19270406675E+02  0.51100000000E-03 0.  1.
        -11    1    4    4    0    0 -0.72191945529E+01  0.15029006343E+02 -0.15152138931E+02  0.22529427780E+02  0.51100000000E-03 0. -1.
        -12    1    4    4    0    0  0.11520870039E+01 -0.91891030896E+00 -0.58032304392E+01  0.59874188221E+01  0.00000000000E+00 0.  1.
</event>
<event>
 8    1  0.5250708E-010  0.9118800E+02  0.7816164E-02  0.1184000E+00
        -11   -1    0    0    0    0  0.00000000000E+00  0.00000000000E+00  0.45593999997E+02  0.45594000000E+02  0.51100000000E-03 0. -1.
         11   -1    0    0    0    0 -0.00000000000E+00 -0.00000000000E+00 -0.45593999997E+02  0.45594000000E+02  0.51100000000E-03 0.  1.
         23    2    1    2    0    0 -0.71054273576E-14 -0.35527136788E-14  0.00000000000E+00  0.91188000000E+02  0.91188000000E+02 0.  0.
    9900012    2    3    3    0    0 -0.33299200515E+02 -0.15133314718E+02 -0.23361691316E+02  0.47787278918E+02  0.20000035899E+02 0.  0.
         12    1    3    3    0    0  0.33299200515E+02  0.15133314718E+02  0.23361691316E+02  0.43400721082E+02  0.00000000000E+00 0. -1.
         11    1    4    4    0    0 -0.74481884003E+01 -0.12994908919E+02 -0.12644993534E+02  0.19602015968E+02  0.51100000000E-03 0. -1.
        -11    1    4    4    0    0 -0.69744824302E+01  0.29638129315E+00 -0.20770378581E+01  0.72832227459E+01  0.51100000000E-03 0.  1.
         12    1    4    4    0    0 -0.18876529684E+02 -0.24347870917E+01 -0.86396599243E+01  0.20902040204E+02  0.00000000000E+00 0. -1.
</event>
<event>
 8    1  0.5250708E-010  0.9118800E+02  0.7816164E-02  0.1184000E+00
        -11   -1    0    0    0    0  0.00000000000E+00  0.00000000000E+00  0.45593999997E+02  0.45594000000E+02  0.51100000000E-03 0. -1.
         11   -1    0    0    0    0 -0.00000000000E+00 -0.00000000000E+00 -0.45593999997E+02  0.45594000000E+02  0.51100000000E-03 0.  1.
         23    2    1    2    0    0 -0.35527136788E-14  0.44408920985E-15  0.00000000000E+00  0.91188000000E+02  0.91188000000E+02 0.  0.
    9900012    2    3    3    0    0 -0.17338089717E+02 -0.22587420677E+01  0.39722945554E+02  0.47787266432E+02  0.19999978970E+02 0.  0.
        -12    1    3    3    0    0  0.17338089717E+02  0.22587420677E+01 -0.39722945554E+02  0.43400733568E+02  0.00000000000E+00 0.  1.
         11    1    4    4    0    0 -0.18179134889E+02 -0.59670401709E+01  0.27300595024E+02  0.33337801407E+02  0.51100000000E-03 0. -1.
        -11    1    4    4    0    0 -0.77232076274E+00  0.24748969316E+01  0.89218776943E+00  0.27418230175E+01  0.51100000000E-03 0.  1.
         12    1    4    4    0    0  0.16133659351E+01  0.12334011716E+01  0.11530162760E+02  0.11707642007E+02  0.00000000000E+00 0. -1.
</event>
<event>
 8    1  0.5250708E-010  0.9118800E+02  0.7816164E-02  0.1184000E+00
        -11   -1    0    0    0    0  0.00000000000E+00  0.00000000000E+00  0.45593999997E+02  0.45594000000E+02  0.51100000000E-03 0. -1.
         11   -1    0    0    0    0 -0.00000000000E+00 -0.00000000000E+00 -0.45593999997E+02  0.45594000000E+02  0.51100000000E-03 0.  1.
         23    2    1    2    0    0 -0.35527136788E-14  0.00000000000E+00  0.00000000000E+00  0.91188000000E+02  0.91188000000E+02 0.  0.
    9900012    2    3    3    0    0 -0.22160625131E+02  0.35355511566E+02 -0.11938154556E+02  0.47787250715E+02  0.19999907311E+02 0.  0.
         12    1    3    3    0    0  0.22160625131E+02 -0.35355511566E+02  0.11938154556E+02  0.43400749285E+02  0.00000000000E+00 0. -1.
         11    1    4    4    0    0 -0.77940399140E+01  0.79863928545E+01  0.20966205356E+01  0.11354529798E+02  0.51100000000E-03 0. -1.
        -11    1    4    4    0    0  0.23611976519E+01  0.39077559134E+01 -0.35009784654E+01  0.57534912103E+01  0.51100000000E-03 0.  1.
        -12    1    4    4    0    0 -0.16727782869E+02  0.23461362798E+02 -0.10533796626E+02  0.30679229707E+02  0.00000000000E+00 0.  1.
</event>
<event>
 8    1  0.5250708E-010  0.9118800E+02  0.7816164E-02  0.1184000E+00
        -11   -1    0    0    0    0  0.00000000000E+00  0.00000000000E+00  0.45593999997E+02  0.45594000000E+02  0.51100000000E-03 0. -1.
         11   -1    0    0    0    0 -0.00000000000E+00 -0.00000000000E+00 -0.45593999997E+02  0.45594000000E+02  0.51100000000E-03 0.  1.
         23    2    1    2    0    0  0.00000000000E+00 -0.71054273576E-14  0.35527136788E-14  0.91188000000E+02  0.91188000000E+02 0.  0.
    9900012    2    3    3    0    0  0.19222499311E+02 -0.34475558463E+02 -0.18043135979E+02  0.47787269971E+02  0.19999995105E+02 0.  0.
         12    1    3    3    0    0 -0.19222499311E+02  0.34475558463E+02  0.18043135979E+02  0.43400730029E+02  0.00000000000E+00 0. -1.
         11    1    4    4    0    0  0.98328060927E+01 -0.16282714217E+02 -0.35827588704E+01  0.19355800663E+02  0.51100000000E-03 0. -1.
        -11    1    4    4    0    0  0.96749648181E+01 -0.17755133580E+02 -0.16642162712E+02  0.26187999020E+02  0.51100000000E-03 0.  1.
         12    1    4    4    0    0 -0.28527159955E+00 -0.43771066590E+00  0.21817856035E+01  0.22434702877E+01  0.00000000000E+00 0. -1.
</event>
<event>
 8    1  0.5250708E-010  0.9118800E+02  0.7816164E-02  0.1184000E+00
        -11   -1    0    0    0    0  0.00000000000E+00  0.00000000000E+00  0.45593999997E+02  0.45594000000E+02  0.51100000000E-03 0. -1.
         11   -1    0    0    0    0 -0.00000000000E+00 -0.00000000000E+00 -0.45593999997E+02  0.45594000000E+02  0.51100000000E-03 0.  1.
         23    2    1    2    0    0  0.71054273576E-14  0.00000000000E+00  0.00000000000E+00  0.91188000000E+02  0.91188000000E+02 0.  0.
    9900012    2    3    3    0    0 -0.20308069616E+02  0.17223434860E+02  0.34271838587E+02  0.47787270513E+02  0.19999997575E+02 0.  0.
        -12    1    3    3    0    0  0.20308069616E+02 -0.17223434860E+02 -0.34271838587E+02  0.43400729487E+02  0.00000000000E+00 0.  1.
         11    1    4    4    0    0 -0.32601510011E+01 -0.11353082729E+01  0.70210849740E+01  0.78238829170E+01  0.51100000000E-03 0. -1.
        -11    1    4    4    0    0 -0.19018836509E+02  0.18535873279E+02  0.22464955423E+02  0.34784608130E+02  0.51100000000E-03 0.  1.
        -12    1    4    4    0    0  0.19709178944E+01 -0.17713014548E+00  0.47857981900E+01  0.51787794653E+01  0.00000000000E+00 0.  1.
</event>
<event>
 8    1  0.5250708E-010  0.9118800E+02  0.7816164E-02  0.1184000E+00
        -11   -1    0    0    0    0  0.00000000000E+00  0.00000000000E+00  0.45593999997E+02  0.45594000000E+02  0.51100000000E-03 0.  1.
         11   -1    0    0    0    0 -0.00000000000E+00 -0.00000000000E+00 -0.45593999997E+02  0.45594000000E+02  0.51100000000E-03 0. -1.
         23    2    1    2    0    0  0.35527136788E-14  0.00000000000E+00  0.17763568394E-14  0.91188000000E+02  0.91188000000E+02 0.  0.
    9900012    2    3    3    0    0 -0.29354834063E+02  0.30048095683E+02 -0.10910029117E+02  0.47787273366E+02  0.20000010585E+02 0.  0.
         12    1    3    3    0    0  0.29354834063E+02 -0.30048095683E+02  0.10910029117E+02  0.43400726634E+02  0.00000000000E+00 0. -1.
         11    1    4    4    0    0 -0.10395253973E+01 -0.10233284607E+01  0.85069207761E-03  0.14587032512E+01  0.51100000000E-03 0. -1.
        -11    1    4    4    0    0 -0.28873265531E+02  0.31176720397E+02 -0.78456548705E+01  0.43211198291E+02  0.51100000000E-03 0.  1.
        -12    1    4    4    0    0  0.55795686532E+00 -0.10529625384E+00 -0.30652249381E+01  0.31173718235E+01  0.00000000000E+00 0.  1.
</event>
<event>
 8    1  0.5250708E-010  0.9118800E+02  0.7816164E-02  0.1184000E+00
        -11   -1    0    0    0    0  0.00000000000E+00  0.00000000000E+00  0.45593999997E+02  0.45594000000E+02  0.51100000000E-03 0. -1.
         11   -1    0    0    0    0 -0.00000000000E+00 -0.00000000000E+00 -0.45593999997E+02  0.45594000000E+02  0.51100000000E-03 0.  1.
         23    2    1    2    0    0  0.00000000000E+00  0.00000000000E+00  0.71054273576E-14  0.91188000000E+02  0.91188000000E+02 0.  0.
    9900012    2    3    3    0    0  0.22906221155E+02 -0.14916712664E+02  0.33710846679E+02  0.47787257286E+02  0.19999937270E+02 0.  0.
        -12    1    3    3    0    0 -0.22906221155E+02  0.14916712664E+02 -0.33710846679E+02  0.43400742714E+02  0.00000000000E+00 0.  1.
         11    1    4    4    0    0  0.18065743555E+02 -0.16503291844E+02  0.24033506280E+02  0.34297801041E+02  0.51100000000E-03 0. -1.
        -11    1    4    4    0    0  0.14898373338E+01 -0.14596232498E+00 -0.12368374666E+01  0.19418258061E+01  0.51100000000E-03 0.  1.
         12    1    4    4    0    0  0.33506402658E+01  0.17325415055E+01  0.10914177866E+02  0.11547630439E+02  0.00000000000E+00 0. -1.
</event>
<event>
 8    1  0.5250708E-010  0.9118800E+02  0.7816164E-02  0.1184000E+00
        -11   -1    0    0    0    0  0.00000000000E+00  0.00000000000E+00  0.45593999997E+02  0.45594000000E+02  0.51100000000E-03 0. -1.
         11   -1    0    0    0    0 -0.00000000000E+00 -0.00000000000E+00 -0.45593999997E+02  0.45594000000E+02  0.51100000000E-03 0.  1.
         23    2    1    2    0    0 -0.44408920985E-15  0.88817841970E-15 -0.71054273576E-14  0.91188000000E+02  0.91188000000E+02 0.  0.
    9900012    2    3    3    0    0  0.10900404714E+01 -0.79235032879E+01  0.42657392952E+02  0.47787271134E+02  0.20000000410E+02 0.  0.
        -12    1    3    3    0    0 -0.10900404714E+01  0.79235032879E+01 -0.42657392952E+02  0.43400728866E+02  0.00000000000E+00 0.  1.
         11    1    4    4    0    0 -0.46289853038E+01 -0.22483255344E+01  0.55667637747E+01  0.75809848856E+01  0.51100000000E-03 0. -1.
        -11    1    4    4    0    0  0.65818799538E+00  0.40741910907E+00  0.28561627912E+02  0.28572115620E+02  0.51100000000E-03 0.  1.
        -12    1    4    4    0    0  0.50608377798E+01 -0.60825968626E+01  0.85290012652E+01  0.11634170628E+02  0.00000000000E+00 0.  1.
</event>
<event>
 8    1  0.5250708E-010  0.9118800E+02  0.7816164E-02  0.1184000E+00
        -11   -1    0    0    0    0  0.00000000000E+00  0.00000000000E+00  0.45593999997E+02  0.45594000000E+02  0.51100000000E-03 0. -1.
         11   -1    0    0    0    0 -0.00000000000E+00 -0.00000000000E+00 -0.45593999997E+02  0.45594000000E+02  0.51100000000E-03 0.  1.
         23    2    1    2    0    0  0.00000000000E+00 -0.35527136788E-14 -0.35527136788E-14  0.91188000000E+02  0.91188000000E+02 0.  0.
    9900012    2    3    3    0    0  0.20793673731E+02  0.23447926835E+02  0.30024038141E+02  0.47787251085E+02  0.19999908996E+02 0.  0.
        -12    1    3    3    0    0 -0.20793673731E+02 -0.23447926835E+02 -0.30024038141E+02  0.43400748915E+02  0.00000000000E+00 0.  1.
         11    1    4    4    0    0  0.16610299202E+02  0.17001163521E+02  0.11317716923E+02  0.26325506971E+02  0.51100000000E-03 0. -1.
        -11    1    4    4    0    0  0.42490984864E+01  0.73898832138E+01  0.12176238084E+02  0.14863579179E+02  0.51100000000E-03 0.  1.
        -12    1    4    4    0    0 -0.65723956980E-01 -0.94311989959E+00  0.65300831332E+01  0.65981649351E+01  0.00000000000E+00 0.  1.
</event>
<event>
 8    1  0.5250708E-010  0.9118800E+02  0.7816164E-02  0.1184000E+00
        -11   -1    0    0    0    0  0.00000000000E+00  0.00000000000E+00  0.45593999997E+02  0.45594000000E+02  0.51100000000E-03 0. -1.
         11   -1    0    0    0    0 -0.00000000000E+00 -0.00000000000E+00 -0.45593999997E+02  0.45594000000E+02  0.51100000000E-03 0.  1.
         23    2    1    2    0    0  0.00000000000E+00  0.00000000000E+00  0.00000000000E+00  0.91188000000E+02  0.91188000000E+02 0.  0.
    9900012    2    3    3    0    0  0.30416783315E+02  0.10961594854E+02  0.28953158670E+02  0.47787278048E+02  0.20000031932E+02 0.  0.
        -12    1    3    3    0    0 -0.30416783315E+02 -0.10961594854E+02 -0.28953158670E+02  0.43400721952E+02  0.00000000000E+00 0.  1.
         11    1    4    4    0    0  0.54868597912E+00 -0.13918128680E+01 -0.51027963381E+00  0.15806912820E+01  0.51100000000E-03 0. -1.
        -11    1    4    4    0    0  0.18486303384E+01 -0.23269401085E+01 -0.91811429086E-02  0.29718965243E+01  0.51100000000E-03 0.  1.
         12    1    4    4    0    0  0.28019466997E+02  0.14680347830E+02  0.29472619447E+02  0.43234690242E+02  0.00000000000E+00 0. -1.
</event>
<event>
 8    1  0.5250708E-010  0.9118800E+02  0.7816164E-02  0.1184000E+00
        -11   -1    0    0    0    0  0.00000000000E+00  0.00000000000E+00  0.45593999997E+02  0.45594000000E+02  0.51100000000E-03 0. -1.
         11   -1    0    0    0    0 -0.00000000000E+00 -0.00000000000E+00 -0.45593999997E+02  0.45594000000E+02  0.51100000000E-03 0.  1.
         23    2    1    2    0    0  0.00000000000E+00  0.35527136788E-14 -0.17763568394E-14  0.91188000000E+02  0.91188000000E+02 0.  0.
    9900012    2    3    3    0    0 -0.31251901640E+02 -0.28654990878E+02 -0.92646359268E+01  0.47787270315E+02  0.19999996675E+02 0.  0.
         12    1    3    3    0    0  0.31251901640E+02  0.28654990878E+02  0.92646359268E+01  0.43400729685E+02  0.00000000000E+00 0. -1.
         11    1    4    4    0    0 -0.14572622055E+02 -0.37328235035E+01 -0.74120675205E+01  0.16770033693E+02  0.51100000000E-03 0.  1.
        -11    1    4    4    0    0 -0.77164044646E+01 -0.53434531272E+01  0.18992878060E+00  0.93878358735E+01  0.51100000000E-03 0. -1.
        -12    1    4    4    0    0 -0.89628751195E+01 -0.19578714247E+02 -0.20424971869E+01  0.21629400749E+02  0.00000000000E+00 0.  1.
</event>
<event>
 8    1  0.5250708E-010  0.9118800E+02  0.7816164E-02  0.1184000E+00
        -11   -1    0    0    0    0  0.00000000000E+00  0.00000000000E+00  0.45593999997E+02  0.45594000000E+02  0.51100000000E-03 0. -1.
         11   -1    0    0    0    0 -0.00000000000E+00 -0.00000000000E+00 -0.45593999997E+02  0.45594000000E+02  0.51100000000E-03 0.  1.
         23    2    1    2    0    0 -0.17763568394E-14  0.00000000000E+00  0.35527136788E-14  0.91188000000E+02  0.91188000000E+02 0.  0.
    9900012    2    3    3    0    0 -0.81600224989E+01  0.29529750616E+02  0.30741359596E+02  0.47787270416E+02  0.19999997135E+02 0.  0.
        -12    1    3    3    0    0  0.81600224989E+01 -0.29529750616E+02 -0.30741359596E+02  0.43400729584E+02  0.00000000000E+00 0.  1.
         11    1    4    4    0    0 -0.49207485509E+01  0.16650895682E+02  0.15755848939E+02  0.23445956355E+02  0.51100000000E-03 0. -1.
        -11    1    4    4    0    0 -0.50436517989E+01  0.50223982270E+01 -0.23096462076E+00  0.71215344088E+01  0.51100000000E-03 0.  1.
        -12    1    4    4    0    0  0.18043778509E+01  0.78564567061E+01  0.15216475278E+02  0.17219779652E+02  0.00000000000E+00 0.  1.
</event>
<event>
 8    1  0.5250708E-010  0.9118800E+02  0.7816164E-02  0.1184000E+00
        -11   -1    0    0    0    0  0.00000000000E+00  0.00000000000E+00  0.45593999997E+02  0.45594000000E+02  0.51100000000E-03 0.  1.
         11   -1    0    0    0    0 -0.00000000000E+00 -0.00000000000E+00 -0.45593999997E+02  0.45594000000E+02  0.51100000000E-03 0. -1.
         23    2    1    2    0    0  0.00000000000E+00  0.00000000000E+00  0.00000000000E+00  0.91188000000E+02  0.91188000000E+02 0.  0.
    9900012    2    3    3    0    0  0.38203777927E+02 -0.31529726291E+01 -0.20350756156E+02  0.47787272352E+02  0.20000005960E+02 0.  0.
         12    1    3    3    0    0 -0.38203777927E+02  0.31529726291E+01  0.20350756156E+02  0.43400727648E+02  0.00000000000E+00 0. -1.
         11    1    4    4    0    0  0.73895018740E+01  0.69412905210E+00 -0.10336164294E+02  0.12724890791E+02  0.51100000000E-03 0. -1.
        -11    1    4    4    0    0  0.10314749455E+02 -0.37754676739E+01 -0.95537459003E+01  0.14557550393E+02  0.51100000000E-03 0.  1.
         12    1    4    4    0    0  0.20499526598E+02 -0.71634007353E-01 -0.46084596215E+00  0.20504831167E+02  0.00000000000E+00 0. -1.
</event>
<event>
 8    1  0.5250708E-010  0.9118800E+02  0.7816164E-02  0.1184000E+00
        -11   -1    0    0    0    0  0.00000000000E+00  0.00000000000E+00  0.45593999997E+02  0.45594000000E+02  0.51100000000E-03 0. -1.
         11   -1    0    0    0    0 -0.00000000000E+00 -0.00000000000E+00 -0.45593999997E+02  0.45594000000E+02  0.51100000000E-03 0.  1.
         23    2    1    2    0    0  0.00000000000E+00 -0.71054273576E-14  0.00000000000E+00  0.91188000000E+02  0.91188000000E+02 0.  0.
    9900012    2    3    3    0    0 -0.12864061885E+02 -0.37072572215E+02  0.18540889555E+02  0.47787259404E+02  0.19999946925E+02 0.  0.
        -12    1    3    3    0    0  0.12864061885E+02  0.37072572215E+02 -0.18540889555E+02  0.43400740596E+02  0.00000000000E+00 0.  1.
         11    1    4    4    0    0 -0.26278763003E+01  0.34137658863E+00  0.34236723209E+01  0.43294115359E+01  0.51100000000E-03 0. -1.
        -11    1    4    4    0    0 -0.23855477814E+01 -0.88127784429E+01  0.96767110852E+01  0.13303933245E+02  0.51100000000E-03 0.  1.
         12    1    4    4    0    0 -0.78506378035E+01 -0.28601170361E+02  0.54405061489E+01  0.30153914623E+02  0.00000000000E+00 0. -1.
</event>
<event>
 8    1  0.5250708E-010  0.9118800E+02  0.7816164E-02  0.1184000E+00
        -11   -1    0    0    0    0  0.00000000000E+00  0.00000000000E+00  0.45593999997E+02  0.45594000000E+02  0.51100000000E-03 0. -1.
         11   -1    0    0    0    0 -0.00000000000E+00 -0.00000000000E+00 -0.45593999997E+02  0.45594000000E+02  0.51100000000E-03 0.  1.
         23    2    1    2    0    0  0.88817841970E-15 -0.35527136788E-14  0.71054273576E-14  0.91188000000E+02  0.91188000000E+02 0.  0.
    9900012    2    3    3    0    0 -0.55406722850E+01 -0.15529477206E+02 -0.40146725584E+02  0.47787270896E+02  0.19999999322E+02 0.  0.
         12    1    3    3    0    0  0.55406722850E+01  0.15529477206E+02  0.40146725584E+02  0.43400729104E+02  0.00000000000E+00 0. -1.
         11    1    4    4    0    0  0.15887354779E+01  0.77519526828E+00 -0.11809990613E+02  0.11941561316E+02  0.51100000000E-03 0. -1.
        -11    1    4    4    0    0  0.20886288564E+01 -0.28557683219E+00 -0.83984175002E+01  0.86589457439E+01  0.51100000000E-03 0.  1.
        -12    1    4    4    0    0 -0.92180366193E+01 -0.16019095642E+02 -0.19938317471E+02  0.27186763836E+02  0.00000000000E+00 0.  1.
</event>
<event>
 8    1  0.5250708E-010  0.9118800E+02  0.7816164E-02  0.1184000E+00
        -11   -1    0    0    0    0  0.00000000000E+00  0.00000000000E+00  0.45593999997E+02  0.45594000000E+02  0.51100000000E-03 0. -1.
         11   -1    0    0    0    0 -0.00000000000E+00 -0.00000000000E+00 -0.45593999997E+02  0.45594000000E+02  0.51100000000E-03 0.  1.
         23    2    1    2    0    0  0.88817841970E-15  0.00000000000E+00 -0.71054273576E-14  0.91188000000E+02  0.91188000000E+02 0.  0.
    9900012    2    3    3    0    0 -0.66776281245E+01  0.23790938996E+01  0.42817928623E+02  0.47787241749E+02  0.19999866431E+02 0.  0.
        -12    1    3    3    0    0  0.66776281245E+01 -0.23790938996E+01 -0.42817928623E+02  0.43400758251E+02  0.00000000000E+00 0.  1.
         11    1    4    4    0    0  0.36530273731E+01  0.33250053376E+01  0.16476364074E+02  0.17200896571E+02  0.51100000000E-03 0. -1.
        -11    1    4    4    0    0 -0.35487933604E+01 -0.59860022494E+01  0.13931472716E+02  0.15572799670E+02  0.51100000000E-03 0.  1.
         12    1    4    4    0    0 -0.67818621371E+01  0.50400908115E+01  0.12410091833E+02  0.15013545508E+02  0.00000000000E+00 0. -1.
</event>
<event>
 8    1  0.5250708E-010  0.9118800E+02  0.7816164E-02  0.1184000E+00
        -11   -1    0    0    0    0  0.00000000000E+00  0.00000000000E+00  0.45593999997E+02  0.45594000000E+02  0.51100000000E-03 0. -1.
         11   -1    0    0    0    0 -0.00000000000E+00 -0.00000000000E+00 -0.45593999997E+02  0.45594000000E+02  0.51100000000E-03 0.  1.
         23    2    1    2    0    0  0.44408920985E-15  0.00000000000E+00  0.00000000000E+00  0.91188000000E+02  0.91188000000E+02 0.  0.
    9900012    2    3    3    0    0 -0.19484098859E+01 -0.10094178880E+02 -0.42165561168E+02  0.47787270778E+02  0.19999998787E+02 0.  0.
         12    1    3    3    0    0  0.19484098859E+01  0.10094178880E+02  0.42165561168E+02  0.43400729222E+02  0.00000000000E+00 0. -1.
         11    1    4    4    0    0  0.28145884257E+01 -0.24991145282E+01 -0.25199018138E+01  0.45296122178E+01  0.51100000000E-03 0. -1.
        -11    1    4    4    0    0  0.44394979660E+01 -0.54152810913E+01 -0.10539783434E+02  0.12653910328E+02  0.51100000000E-03 0.  1.
        -12    1    4    4    0    0 -0.92024962777E+01 -0.21797832602E+01 -0.29105875920E+02  0.30603748232E+02  0.00000000000E+00 0.  1.
</event>
<event>
 8    1  0.5250708E-010  0.9118800E+02  0.7816164E-02  0.1184000E+00
        -11   -1    0    0    0    0  0.00000000000E+00  0.00000000000E+00  0.45593999997E+02  0.45594000000E+02  0.51100000000E-03 0. -1.
         11   -1    0    0    0    0 -0.00000000000E+00 -0.00000000000E+00 -0.45593999997E+02  0.45594000000E+02  0.51100000000E-03 0.  1.
         23    2    1    2    0    0  0.00000000000E+00  0.44408920985E-15 -0.71054273576E-14  0.91188000000E+02  0.91188000000E+02 0.  0.
    9900012    2    3    3    0    0 -0.11430074541E+02 -0.31786673109E+01 -0.41747733362E+02  0.47787265320E+02  0.19999973900E+02 0.  0.
         12    1    3    3    0    0  0.11430074541E+02  0.31786673109E+01  0.41747733362E+02  0.43400734680E+02  0.00000000000E+00 0. -1.
         11    1    4    4    0    0 -0.61684944954E+01  0.25757558816E+01 -0.16594165848E+02  0.17889974375E+02  0.51100000000E-03 0. -1.
        -11    1    4    4    0    0 -0.13267308526E+01 -0.13282131248E+01 -0.23732744062E+02  0.23806879381E+02  0.51100000000E-03 0.  1.
        -12    1    4    4    0    0 -0.39348491933E+01 -0.44262100677E+01 -0.14208234518E+01  0.60904115640E+01  0.00000000000E+00 0.  1.
</event>
<event>
 8    1  0.5250708E-010  0.9118800E+02  0.7816164E-02  0.1184000E+00
        -11   -1    0    0    0    0  0.00000000000E+00  0.00000000000E+00  0.45593999997E+02  0.45594000000E+02  0.51100000000E-03 0. -1.
         11   -1    0    0    0    0 -0.00000000000E+00 -0.00000000000E+00 -0.45593999997E+02  0.45594000000E+02  0.51100000000E-03 0.  1.
         23    2    1    2    0    0  0.00000000000E+00 -0.44408920985E-15  0.00000000000E+00  0.91188000000E+02  0.91188000000E+02 0.  0.
    9900012    2    3    3    0    0 -0.29220924856E+02  0.23691512297E+01  0.32002305726E+02  0.47787275365E+02  0.20000019701E+02 0.  0.
        -12    1    3    3    0    0  0.29220924856E+02 -0.23691512297E+01 -0.32002305726E+02  0.43400724635E+02  0.00000000000E+00 0.  1.
         11    1    4    4    0    0 -0.12168811561E+01 -0.17606754393E+01  0.30832701748E+01  0.37533096039E+01  0.51100000000E-03 0. -1.
        -11    1    4    4    0    0 -0.13959390859E+02 -0.18282186577E+01  0.36954898963E+01  0.14555535801E+02  0.51100000000E-03 0.  1.
         12    1    4    4    0    0 -0.14044652842E+02  0.59580453267E+01  0.25223545655E+02  0.29478429961E+02  0.00000000000E+00 0. -1.
</event>
<event>
 8    1  0.5250708E-010  0.9118800E+02  0.7816164E-02  0.1184000E+00
        -11   -1    0    0    0    0  0.00000000000E+00  0.00000000000E+00  0.45593999997E+02  0.45594000000E+02  0.51100000000E-03 0.  1.
         11   -1    0    0    0    0 -0.00000000000E+00 -0.00000000000E+00 -0.45593999997E+02  0.45594000000E+02  0.51100000000E-03 0. -1.
         23    2    1    2    0    0  0.00000000000E+00  0.00000000000E+00  0.00000000000E+00  0.91188000000E+02  0.91188000000E+02 0.  0.
    9900012    2    3    3    0    0 -0.38835489317E+02 -0.14310026132E+02  0.13063362669E+02  0.47787268179E+02  0.19999986935E+02 0.  0.
        -12    1    3    3    0    0  0.38835489317E+02  0.14310026132E+02 -0.13063362669E+02  0.43400731821E+02  0.00000000000E+00 0.  1.
         11    1    4    4    0    0 -0.15880505897E+02 -0.82117684715E+01  0.33293959865E+01  0.18185392129E+02  0.51100000000E-03 0. -1.
        -11    1    4    4    0    0 -0.17997948707E+02  0.18395920118E+01  0.90215393731E+01  0.20216291187E+02  0.51100000000E-03 0.  1.
        -12    1    4    4    0    0 -0.49570347123E+01 -0.79378496717E+01  0.71242730977E+00  0.93855848631E+01  0.00000000000E+00 0.  1.
</event>
<event>
 8    1  0.5250708E-010  0.9118800E+02  0.7816164E-02  0.1184000E+00
        -11   -1    0    0    0    0  0.00000000000E+00  0.00000000000E+00  0.45593999997E+02  0.45594000000E+02  0.51100000000E-03 0. -1.
         11   -1    0    0    0    0 -0.00000000000E+00 -0.00000000000E+00 -0.45593999997E+02  0.45594000000E+02  0.51100000000E-03 0.  1.
         23    2    1    2    0    0  0.17763568394E-14  0.00000000000E+00  0.35527136788E-14  0.91188000000E+02  0.91188000000E+02 0.  0.
    9900012    2    3    3    0    0  0.14339998629E+02 -0.34215389956E+02  0.22523220794E+02  0.47787263308E+02  0.19999964725E+02 0.  0.
        -12    1    3    3    0    0 -0.14339998629E+02  0.34215389956E+02 -0.22523220794E+02  0.43400736692E+02  0.00000000000E+00 0.  1.
         11    1    4    4    0    0  0.57858765885E+01 -0.95044693632E+01  0.76459624699E+01  0.13500816573E+02  0.51100000000E-03 0. -1.
        -11    1    4    4    0    0  0.10438244887E+01 -0.96808141204E+01 -0.25636954230E+01  0.10068776792E+02  0.51100000000E-03 0.  1.
        -12    1    4    4    0    0  0.75102975521E+01 -0.15030106472E+02  0.17440953747E+02  0.24217669943E+02  0.00000000000E+00 0.  1.
</event>
<event>
 8    1  0.5250708E-010  0.9118800E+02  0.7816164E-02  0.1184000E+00
        -11   -1    0    0    0    0  0.00000000000E+00  0.00000000000E+00  0.45593999997E+02  0.45594000000E+02  0.51100000000E-03 0. -1.
         11   -1    0    0    0    0 -0.00000000000E+00 -0.00000000000E+00 -0.45593999997E+02  0.45594000000E+02  0.51100000000E-03 0.  1.
         23    2    1    2    0    0 -0.22204460493E-15 -0.17763568394E-14  0.71054273576E-14  0.91188000000E+02  0.91188000000E+02 0.  0.
    9900012    2    3    3    0    0  0.88199019550E+00  0.99779356041E+01 -0.42228970891E+02  0.47787273185E+02  0.20000009758E+02 0.  0.
         12    1    3    3    0    0 -0.88199019550E+00 -0.99779356041E+01  0.42228970891E+02  0.43400726815E+02  0.00000000000E+00 0. -1.
         11    1    4    4    0    0  0.72699499430E+01  0.30524108545E+01 -0.15895076647E+02  0.17743247901E+02  0.51100000000E-03 0. -1.
        -11    1    4    4    0    0 -0.28257050856E+01 -0.19711283383E+01 -0.14038199789E+02  0.14454791930E+02  0.51100000000E-03 0.  1.
         12    1    4    4    0    0 -0.35622546619E+01  0.88966530879E+01 -0.12295694455E+02  0.15589233354E+02  0.00000000000E+00 0. -1.
</event>
<event>
 8    1  0.5250708E-010  0.9118800E+02  0.7816164E-02  0.1184000E+00
        -11   -1    0    0    0    0  0.00000000000E+00  0.00000000000E+00  0.45593999997E+02  0.45594000000E+02  0.51100000000E-03 0.  1.
         11   -1    0    0    0    0 -0.00000000000E+00 -0.00000000000E+00 -0.45593999997E+02  0.45594000000E+02  0.51100000000E-03 0. -1.
         23    2    1    2    0    0  0.00000000000E+00  0.00000000000E+00  0.17763568394E-14  0.91188000000E+02  0.91188000000E+02 0.  0.
    9900012    2    3    3    0    0 -0.35589225937E+02  0.20381252145E+02 -0.14199831532E+02  0.47787266627E+02  0.19999979859E+02 0.  0.
         12    1    3    3    0    0  0.35589225937E+02 -0.20381252145E+02  0.14199831532E+02  0.43400733373E+02  0.00000000000E+00 0. -1.
         11    1    4    4    0    0 -0.16696011899E+02  0.41303932862E+01 -0.32094455422E+01  0.17496213961E+02  0.51100000000E-03 0. -1.
        -11    1    4    4    0    0 -0.10498583305E+02  0.86764683112E+00 -0.25442913503E+01  0.10837272774E+02  0.51100000000E-03 0.  1.
         12    1    4    4    0    0 -0.83946307331E+01  0.15383212028E+02 -0.84460946392E+01  0.19453779892E+02  0.00000000000E+00 0. -1.
</event>
<event>
 8    1  0.5250708E-010  0.9118800E+02  0.7816164E-02  0.1184000E+00
        -11   -1    0    0    0    0  0.00000000000E+00  0.00000000000E+00  0.45593999997E+02  0.45594000000E+02  0.51100000000E-03 0. -1.
         11   -1    0    0    0    0 -0.00000000000E+00 -0.00000000000E+00 -0.45593999997E+02  0.45594000000E+02  0.51100000000E-03 0.  1.
         23    2    1    2    0    0  0.00000000000E+00  0.00000000000E+00  0.00000000000E+00  0.91188000000E+02  0.91188000000E+02 0.  0.
    9900012    2    3    3    0    0 -0.41741135024E+02 -0.47233291611E+01 -0.10908273179E+02  0.47787278633E+02  0.20000034599E+02 0.  0.
         12    1    3    3    0    0  0.41741135024E+02  0.47233291611E+01  0.10908273179E+02  0.43400721367E+02  0.00000000000E+00 0. -1.
         11    1    4    4    0    0 -0.63712529937E+00  0.10596418875E+01  0.96922933411E+00  0.15710427557E+01  0.51100000000E-03 0. -1.
        -11    1    4    4    0    0 -0.31723155083E+01  0.35860809953E+01 -0.42606023042E+01  0.64090790949E+01  0.51100000000E-03 0.  1.
        -12    1    4    4    0    0 -0.37931694216E+02 -0.93690520439E+01 -0.76169002088E+01  0.39807156782E+02  0.00000000000E+00 0.  1.
</event>
<event>
 8    1  0.5250708E-010  0.9118800E+02  0.7816164E-02  0.1184000E+00
        -11   -1    0    0    0    0  0.00000000000E+00  0.00000000000E+00  0.45593999997E+02  0.45594000000E+02  0.51100000000E-03 0. -1.
         11   -1    0    0    0    0 -0.00000000000E+00 -0.00000000000E+00 -0.45593999997E+02  0.45594000000E+02  0.51100000000E-03 0.  1.
         23    2    1    2    0    0  0.00000000000E+00  0.00000000000E+00  0.00000000000E+00  0.91188000000E+02  0.91188000000E+02 0.  0.
    9900012    2    3    3    0    0 -0.45994843115E+01  0.20767056630E+02 -0.37831173349E+02  0.47787267587E+02  0.19999984236E+02 0.  0.
         12    1    3    3    0    0  0.45994843115E+01 -0.20767056630E+02  0.37831173349E+02  0.43400732413E+02  0.00000000000E+00 0. -1.
         11    1    4    4    0    0 -0.66810531940E+01  0.18787154050E+02 -0.23305784234E+02  0.30671700444E+02  0.51100000000E-03 0. -1.
        -11    1    4    4    0    0 -0.37021257340E+00  0.26508144815E+01 -0.14317089655E+02  0.14565127230E+02  0.51100000000E-03 0.  1.
         12    1    4    4    0    0  0.24517814560E+01 -0.67091190137E+00 -0.20829946018E+00  0.25504399135E+01  0.00000000000E+00 0. -1.
</event>
<event>
 8    1  0.5250708E-010  0.9118800E+02  0.7816164E-02  0.1184000E+00
        -11   -1    0    0    0    0  0.00000000000E+00  0.00000000000E+00  0.45593999997E+02  0.45594000000E+02  0.51100000000E-03 0. -1.
         11   -1    0    0    0    0 -0.00000000000E+00 -0.00000000000E+00 -0.45593999997E+02  0.45594000000E+02  0.51100000000E-03 0.  1.
         23    2    1    2    0    0 -0.11102230246E-14  0.88817841970E-15 -0.71054273576E-14  0.91188000000E+02  0.91188000000E+02 0.  0.
    9900012    2    3    3    0    0 -0.15394054751E+01  0.59316584598E+01 -0.42965905696E+02  0.47787269665E+02  0.19999993712E+02 0.  0.
         12    1    3    3    0    0  0.15394054751E+01 -0.59316584598E+01  0.42965905696E+02  0.43400730335E+02  0.00000000000E+00 0. -1.
         11    1    4    4    0    0 -0.37845081316E+01  0.56710322197E+01 -0.94262802059E+01  0.11633480434E+02  0.51100000000E-03 0. -1.
        -11    1    4    4    0    0  0.63400554898E+01  0.43448312396E+01 -0.17970513618E+02  0.19545158533E+02  0.51100000000E-03 0.  1.
        -12    1    4    4    0    0 -0.40949528333E+01 -0.40842049996E+01 -0.15569111872E+02  0.16608630698E+02  0.00000000000E+00 0.  1.
</event>
<event>
 8    1  0.5250708E-010  0.9118800E+02  0.7816164E-02  0.1184000E+00
        -11   -1    0    0    0    0  0.00000000000E+00  0.00000000000E+00  0.45593999997E+02  0.45594000000E+02  0.51100000000E-03 0. -1.
         11   -1    0    0    0    0 -0.00000000000E+00 -0.00000000000E+00 -0.45593999997E+02  0.45594000000E+02  0.51100000000E-03 0.  1.
         23    2    1    2    0    0  0.00000000000E+00  0.00000000000E+00  0.00000000000E+00  0.91188000000E+02  0.91188000000E+02 0.  0.
    9900012    2    3    3    0    0  0.26068635457E+02  0.12455675002E+02  0.32386804802E+02  0.47787277430E+02  0.20000029115E+02 0.  0.
        -12    1    3    3    0    0 -0.26068635457E+02 -0.12455675002E+02 -0.32386804802E+02  0.43400722570E+02  0.00000000000E+00 0.  1.
         11    1    4    4    0    0  0.18489883048E+02  0.43387776262E+01  0.19797352407E+02  0.27434210924E+02  0.51100000000E-03 0. -1.
        -11    1    4    4    0    0  0.10609921554E+01 -0.18043551849E+01 -0.99094208260E+00  0.23158947427E+01  0.51100000000E-03 0.  1.
        -12    1    4    4    0    0  0.65177602536E+01  0.99212525605E+01  0.13580394477E+02  0.18037171764E+02  0.00000000000E+00 0.  1.
</event>
<event>
 8    1  0.5250708E-010  0.9118800E+02  0.7816164E-02  0.1184000E+00
        -11   -1    0    0    0    0  0.00000000000E+00  0.00000000000E+00  0.45593999997E+02  0.45594000000E+02  0.51100000000E-03 0.  1.
         11   -1    0    0    0    0 -0.00000000000E+00 -0.00000000000E+00 -0.45593999997E+02  0.45594000000E+02  0.51100000000E-03 0. -1.
         23    2    1    2    0    0  0.35527136788E-14  0.71054273576E-14  0.35527136788E-14  0.91188000000E+02  0.91188000000E+02 0.  0.
    9900012    2    3    3    0    0 -0.16980502635E+02 -0.37115602432E+02 -0.14755249195E+02  0.47787276591E+02  0.20000025289E+02 0.  0.
         12    1    3    3    0    0  0.16980502635E+02  0.37115602432E+02  0.14755249195E+02  0.43400723409E+02  0.00000000000E+00 0. -1.
         11    1    4    4    0    0 -0.65775423319E+01 -0.24995455795E+02 -0.10831616409E+02  0.28024289248E+02  0.51100000000E-03 0. -1.
        -11    1    4    4    0    0 -0.26283125086E+00 -0.35986431419E+01  0.31121652448E+01  0.47649643757E+01  0.51100000000E-03 0.  1.
        -12    1    4    4    0    0 -0.10140129052E+02 -0.85215034947E+01 -0.70357980305E+01  0.14998022968E+02  0.00000000000E+00 0.  1.
</event>
<event>
 8    1  0.5250708E-010  0.9118800E+02  0.7816164E-02  0.1184000E+00
        -11   -1    0    0    0    0  0.00000000000E+00  0.00000000000E+00  0.45593999997E+02  0.45594000000E+02  0.51100000000E-03 0. -1.
         11   -1    0    0    0    0 -0.00000000000E+00 -0.00000000000E+00 -0.45593999997E+02  0.45594000000E+02  0.51100000000E-03 0.  1.
         23    2    1    2    0    0  0.17763568394E-14  0.00000000000E+00  0.00000000000E+00  0.91188000000E+02  0.91188000000E+02 0.  0.
    9900012    2    3    3    0    0 -0.68790972541E+01  0.35273673390E+02 -0.24332473699E+02  0.47787270862E+02  0.19999999167E+02 0.  0.
         12    1    3    3    0    0  0.68790972541E+01 -0.35273673390E+02  0.24332473699E+02  0.43400729138E+02  0.00000000000E+00 0. -1.
         11    1    4    4    0    0  0.18351040109E+01  0.34709803162E+00 -0.73701082054E+00  0.20078020284E+01  0.51100000000E-03 0. -1.
        -11    1    4    4    0    0 -0.11744252737E+02  0.20970524084E+02 -0.99051069790E+01  0.25996182358E+02  0.51100000000E-03 0.  1.
        -12    1    4    4    0    0  0.30300514719E+01  0.13956051275E+02 -0.13690355899E+02  0.19783286475E+02  0.00000000000E+00 0.  1.
</event>
<event>
 8    1  0.5250708E-010  0.9118800E+02  0.7816164E-02  0.1184000E+00
        -11   -1    0    0    0    0  0.00000000000E+00  0.00000000000E+00  0.45593999997E+02  0.45594000000E+02  0.51100000000E-03 0. -1.
         11   -1    0    0    0    0 -0.00000000000E+00 -0.00000000000E+00 -0.45593999997E+02  0.45594000000E+02  0.51100000000E-03 0.  1.
         23    2    1    2    0    0  0.00000000000E+00  0.35527136788E-14  0.00000000000E+00  0.91188000000E+02  0.91188000000E+02 0.  0.
    9900012    2    3    3    0    0  0.21904720505E+02 -0.16314993391E+02  0.33728735214E+02  0.47787269950E+02  0.19999995011E+02 0.  0.
        -12    1    3    3    0    0 -0.21904720505E+02  0.16314993391E+02 -0.33728735214E+02  0.43400730050E+02  0.00000000000E+00 0.  1.
         11    1    4    4    0    0  0.34287218706E+01  0.16566046905E+01  0.51765294573E+01  0.64262687658E+01  0.51100000000E-03 0. -1.
        -11    1    4    4    0    0  0.26353102274E+01 -0.94439717778E+01  0.32786545233E+01  0.10338425348E+02  0.51100000000E-03 0.  1.
        -12    1    4    4    0    0  0.15840688407E+02 -0.85276263038E+01  0.25273551233E+02  0.31022575836E+02  0.00000000000E+00 0.  1.
</event>
<event>
 8    1  0.5250708E-010  0.9118800E+02  0.7816164E-02  0.1184000E+00
        -11   -1    0    0    0    0  0.00000000000E+00  0.00000000000E+00  0.45593999997E+02  0.45594000000E+02  0.51100000000E-03 0. -1.
         11   -1    0    0    0    0 -0.00000000000E+00 -0.00000000000E+00 -0.45593999997E+02  0.45594000000E+02  0.51100000000E-03 0.  1.
         23    2    1    2    0    0  0.00000000000E+00  0.00000000000E+00  0.00000000000E+00  0.91188000000E+02  0.91188000000E+02 0.  0.
    9900012    2    3    3    0    0 -0.21342374858E+02 -0.12570259288E+02 -0.35638671540E+02  0.47787270832E+02  0.19999999031E+02 0.  0.
         12    1    3    3    0    0  0.21342374858E+02  0.12570259288E+02  0.35638671540E+02  0.43400729168E+02  0.00000000000E+00 0. -1.
         11    1    4    4    0    0  0.74424235001E+00  0.64617766444E+00  0.59915447515E+00  0.11534420643E+01  0.51100000000E-03 0. -1.
        -11    1    4    4    0    0 -0.54486734862E+01  0.29060088826E+01 -0.71682011038E+01  0.94612915456E+01  0.51100000000E-03 0.  1.
        -12    1    4    4    0    0 -0.16637943722E+02 -0.16122445835E+02 -0.29069624912E+02  0.37172537222E+02  0.00000000000E+00 0.  1.
</event>
<event>
 8    1  0.5250708E-010  0.9118800E+02  0.7816164E-02  0.1184000E+00
        -11   -1    0    0    0    0  0.00000000000E+00  0.00000000000E+00  0.45593999997E+02  0.45594000000E+02  0.51100000000E-03 0. -1.
         11   -1    0    0    0    0 -0.00000000000E+00 -0.00000000000E+00 -0.45593999997E+02  0.45594000000E+02  0.51100000000E-03 0.  1.
         23    2    1    2    0    0  0.00000000000E+00 -0.35527136788E-14  0.00000000000E+00  0.91188000000E+02  0.91188000000E+02 0.  0.
    9900012    2    3    3    0    0 -0.87409266012E+01  0.22757030866E+02 -0.35907371891E+02  0.47787244156E+02  0.19999877403E+02 0.  0.
         12    1    3    3    0    0  0.87409266012E+01 -0.22757030866E+02  0.35907371891E+02  0.43400755844E+02  0.00000000000E+00 0. -1.
         11    1    4    4    0    0 -0.27879886826E+00  0.37756035821E+01 -0.31139267399E+01  0.49019844166E+01  0.51100000000E-03 0. -1.
        -11    1    4    4    0    0 -0.65971777897E+01  0.18883645002E+02 -0.15020834221E+02  0.25014800905E+02  0.51100000000E-03 0.  1.
         12    1    4    4    0    0 -0.18649499432E+01  0.97782282504E-01 -0.17772610930E+02  0.17870458834E+02  0.00000000000E+00 0. -1.
</event>
<event>
 8    1  0.5250708E-010  0.9118800E+02  0.7816164E-02  0.1184000E+00
        -11   -1    0    0    0    0  0.00000000000E+00  0.00000000000E+00  0.45593999997E+02  0.45594000000E+02  0.51100000000E-03 0. -1.
         11   -1    0    0    0    0 -0.00000000000E+00 -0.00000000000E+00 -0.45593999997E+02  0.45594000000E+02  0.51100000000E-03 0.  1.
         23    2    1    2    0    0  0.17763568394E-14  0.35527136788E-14  0.71054273576E-14  0.91188000000E+02  0.91188000000E+02 0.  0.
    9900012    2    3    3    0    0 -0.82352766508E+01  0.22234076677E+02  0.36351742039E+02  0.47787273088E+02  0.20000009318E+02 0.  0.
        -12    1    3    3    0    0  0.82352766508E+01 -0.22234076677E+02 -0.36351742039E+02  0.43400726912E+02  0.00000000000E+00 0.  1.
         11    1    4    4    0    0 -0.23833515954E+01  0.16870520113E+02  0.25824510532E+02  0.30938651525E+02  0.51100000000E-03 0. -1.
        -11    1    4    4    0    0  0.23731913649E+01  0.33985498279E+01  0.13271576040E+01  0.43524160823E+01  0.51100000000E-03 0.  1.
        -12    1    4    4    0    0 -0.82251164203E+01  0.19650067369E+01  0.92000739025E+01  0.12496205481E+02  0.00000000000E+00 0.  1.
</event>
<event>
 8    1  0.5250708E-010  0.9118800E+02  0.7816164E-02  0.1184000E+00
        -11   -1    0    0    0    0  0.00000000000E+00  0.00000000000E+00  0.45593999997E+02  0.45594000000E+02  0.51100000000E-03 0.  1.
         11   -1    0    0    0    0 -0.00000000000E+00 -0.00000000000E+00 -0.45593999997E+02  0.45594000000E+02  0.51100000000E-03 0. -1.
         23    2    1    2    0    0  0.00000000000E+00 -0.17763568394E-14  0.00000000000E+00  0.91188000000E+02  0.91188000000E+02 0.  0.
    9900012    2    3    3    0    0 -0.36836864854E+02  0.14635367227E+02  0.17676953813E+02  0.47787270948E+02  0.19999999561E+02 0.  0.
        -12    1    3    3    0    0  0.36836864854E+02 -0.14635367227E+02 -0.17676953813E+02  0.43400729052E+02  0.00000000000E+00 0.  1.
         11    1    4    4    0    0 -0.19205203615E+02  0.50457567628E+01  0.15035587838E+02  0.24907195930E+02  0.51100000000E-03 0. -1.
        -11    1    4    4    0    0 -0.62647131016E+01 -0.16788291523E+01 -0.71852071587E+00  0.65254402034E+01  0.51100000000E-03 0.  1.
        -12    1    4    4    0    0 -0.11366948138E+02  0.11268439616E+02  0.33598866902E+01  0.16354634815E+02  0.00000000000E+00 0.  1.
</event>
<event>
 8    1  0.5250708E-010  0.9118800E+02  0.7816164E-02  0.1184000E+00
        -11   -1    0    0    0    0  0.00000000000E+00  0.00000000000E+00  0.45593999997E+02  0.45594000000E+02  0.51100000000E-03 0. -1.
         11   -1    0    0    0    0 -0.00000000000E+00 -0.00000000000E+00 -0.45593999997E+02  0.45594000000E+02  0.51100000000E-03 0.  1.
         23    2    1    2    0    0 -0.17763568394E-14  0.44408920985E-15  0.00000000000E+00  0.91188000000E+02  0.91188000000E+02 0.  0.
    9900012    2    3    3    0    0 -0.13816817763E+02  0.23878098953E+01  0.41073293120E+02  0.47787291516E+02  0.20000093338E+02 0.  0.
        -12    1    3    3    0    0  0.13816817763E+02 -0.23878098953E+01 -0.41073293120E+02  0.43400708484E+02  0.00000000000E+00 0.  1.
         11    1    4    4    0    0 -0.42841591024E-01  0.18327461524E+00  0.14582264304E+02  0.14583478923E+02  0.51100000000E-03 0. -1.
        -11    1    4    4    0    0 -0.18488518083E+01  0.47425266445E+01  0.17021025494E+02  0.17765841413E+02  0.51100000000E-03 0.  1.
         12    1    4    4    0    0 -0.11925124364E+02 -0.25379913644E+01  0.94700033218E+01  0.15437971181E+02  0.00000000000E+00 0. -1.
</event>
<event>
 8    1  0.5250708E-010  0.9118800E+02  0.7816164E-02  0.1184000E+00
        -11   -1    0    0    0    0  0.00000000000E+00  0.00000000000E+00  0.45593999997E+02  0.45594000000E+02  0.51100000000E-03 0. -1.
         11   -1    0    0    0    0 -0.00000000000E+00 -0.00000000000E+00 -0.45593999997E+02  0.45594000000E+02  0.51100000000E-03 0.  1.
         23    2    1    2    0    0  0.00000000000E+00  0.00000000000E+00  0.00000000000E+00  0.91188000000E+02  0.91188000000E+02 0.  0.
    9900012    2    3    3    0    0 -0.23591269654E+02 -0.70041009930E+01 -0.35749379577E+02  0.47787267578E+02  0.19999984197E+02 0.  0.
         12    1    3    3    0    0  0.23591269654E+02  0.70041009930E+01  0.35749379577E+02  0.43400732422E+02  0.00000000000E+00 0. -1.
         11    1    4    4    0    0 -0.85225518300E+01 -0.47301210161E+01 -0.10348016359E+02  0.14215814340E+02  0.51100000000E-03 0. -1.
        -11    1    4    4    0    0  0.54392780843E+00  0.26882744132E+00 -0.14142273963E+02  0.14155283069E+02  0.51100000000E-03 0.  1.
        -12    1    4    4    0    0 -0.15612645632E+02 -0.25428074182E+01 -0.11259089255E+02  0.19416170170E+02  0.00000000000E+00 0.  1.
</event>
<event>
 8    1  0.5250708E-010  0.9118800E+02  0.7816164E-02  0.1184000E+00
        -11   -1    0    0    0    0  0.00000000000E+00  0.00000000000E+00  0.45593999997E+02  0.45594000000E+02  0.51100000000E-03 0. -1.
         11   -1    0    0    0    0 -0.00000000000E+00 -0.00000000000E+00 -0.45593999997E+02  0.45594000000E+02  0.51100000000E-03 0.  1.
         23    2    1    2    0    0 -0.44408920985E-15  0.00000000000E+00  0.00000000000E+00  0.91188000000E+02  0.91188000000E+02 0.  0.
    9900012    2    3    3    0    0  0.36391766291E+01 -0.39765609870E+02 -0.17002234115E+02  0.47787270746E+02  0.19999998639E+02 0.  0.
         12    1    3    3    0    0 -0.36391766291E+01  0.39765609870E+02  0.17002234115E+02  0.43400729254E+02  0.00000000000E+00 0. -1.
         11    1    4    4    0    0 -0.25780247761E+01 -0.10446196865E+02 -0.30940279402E+01  0.11195635304E+02  0.51100000000E-03 0. -1.
        -11    1    4    4    0    0  0.54212369334E+01 -0.10951148347E+01 -0.13727313103E+01  0.56985505087E+01  0.51100000000E-03 0.  1.
        -12    1    4    4    0    0  0.79596447177E+00 -0.28224298170E+02 -0.12535474864E+02  0.30893084934E+02  0.00000000000E+00 0.  1.
</event>
<event>
 8    1  0.5250708E-010  0.9118800E+02  0.7816164E-02  0.1184000E+00
        -11   -1    0    0    0    0  0.00000000000E+00  0.00000000000E+00  0.45593999997E+02  0.45594000000E+02  0.51100000000E-03 0. -1.
         11   -1    0    0    0    0 -0.00000000000E+00 -0.00000000000E+00 -0.45593999997E+02  0.45594000000E+02  0.51100000000E-03 0.  1.
         23    2    1    2    0    0  0.00000000000E+00  0.17763568394E-14  0.00000000000E+00  0.91188000000E+02  0.91188000000E+02 0.  0.
    9900012    2    3    3    0    0  0.17954039283E+02 -0.86986019419E+01 -0.38543613955E+02  0.47787269833E+02  0.19999994478E+02 0.  0.
         12    1    3    3    0    0 -0.17954039283E+02  0.86986019419E+01  0.38543613955E+02  0.43400730167E+02  0.00000000000E+00 0. -1.
         11    1    4    4    0    0  0.22417747978E+01  0.37336757318E+01 -0.53783111948E+01  0.69204133029E+01  0.51100000000E-03 0. -1.
        -11    1    4    4    0    0  0.16301856645E+01 -0.60121401238E+01 -0.18595871699E+02  0.19611470590E+02  0.51100000000E-03 0.  1.
        -12    1    4    4    0    0  0.14082078820E+02 -0.64201375498E+01 -0.14569431061E+02  0.21255385941E+02  0.00000000000E+00 0.  1.
</event>
<event>
 8    1  0.5250708E-010  0.9118800E+02  0.7816164E-02  0.1184000E+00
        -11   -1    0    0    0    0  0.00000000000E+00  0.00000000000E+00  0.45593999997E+02  0.45594000000E+02  0.51100000000E-03 0. -1.
         11   -1    0    0    0    0 -0.00000000000E+00 -0.00000000000E+00 -0.45593999997E+02  0.45594000000E+02  0.51100000000E-03 0.  1.
         23    2    1    2    0    0  0.00000000000E+00  0.44408920985E-15  0.00000000000E+00  0.91188000000E+02  0.91188000000E+02 0.  0.
    9900012    2    3    3    0    0 -0.26334009752E+02  0.38502369536E+01 -0.34282926696E+02  0.47787268935E+02  0.19999990380E+02 0.  0.
         12    1    3    3    0    0  0.26334009752E+02 -0.38502369536E+01  0.34282926696E+02  0.43400731065E+02  0.00000000000E+00 0. -1.
         11    1    4    4    0    0  0.82073383358E+00  0.14093668838E+01 -0.76231913848E+00  0.18002915788E+01  0.51100000000E-03 0. -1.
        -11    1    4    4    0    0 -0.56218280048E+00 -0.40603166116E+01 -0.47230945661E+01  0.62537862954E+01  0.51100000000E-03 0.  1.
        -12    1    4    4    0    0 -0.26592560785E+02  0.65011866813E+01 -0.28797512991E+02  0.39733191060E+02  0.00000000000E+00 0.  1.
</event>
<event>
 8    1  0.5250708E-010  0.9118800E+02  0.7816164E-02  0.1184000E+00
        -11   -1    0    0    0    0  0.00000000000E+00  0.00000000000E+00  0.45593999997E+02  0.45594000000E+02  0.51100000000E-03 0. -1.
         11   -1    0    0    0    0 -0.00000000000E+00 -0.00000000000E+00 -0.45593999997E+02  0.45594000000E+02  0.51100000000E-03 0.  1.
         23    2    1    2    0    0 -0.17763568394E-14  0.00000000000E+00 -0.35527136788E-14  0.91188000000E+02  0.91188000000E+02 0.  0.
    9900012    2    3    3    0    0  0.15527831927E+02 -0.31851412268E+02  0.25059873596E+02  0.47787270830E+02  0.19999999022E+02 0.  0.
        -12    1    3    3    0    0 -0.15527831927E+02  0.31851412268E+02 -0.25059873596E+02  0.43400729170E+02  0.00000000000E+00 0.  1.
         11    1    4    4    0    0  0.99986120411E+01 -0.19288919878E+02  0.56063624534E+01  0.22438047442E+02  0.51100000000E-03 0. -1.
        -11    1    4    4    0    0 -0.54088139066E-01 -0.94928436826E+01  0.88485841927E+01  0.12977459273E+02  0.51100000000E-03 0.  1.
        -12    1    4    4    0    0  0.55833080248E+01 -0.30696487079E+01  0.10604926950E+02  0.12371764115E+02  0.00000000000E+00 0.  1.
</event>
<event>
 8    1  0.5250708E-010  0.9118800E+02  0.7816164E-02  0.1184000E+00
        -11   -1    0    0    0    0  0.00000000000E+00  0.00000000000E+00  0.45593999997E+02  0.45594000000E+02  0.51100000000E-03 0. -1.
         11   -1    0    0    0    0 -0.00000000000E+00 -0.00000000000E+00 -0.45593999997E+02  0.45594000000E+02  0.51100000000E-03 0.  1.
         23    2    1    2    0    0  0.35527136788E-14  0.35527136788E-14  0.71054273576E-14  0.91188000000E+02  0.91188000000E+02 0.  0.
    9900012    2    3    3    0    0 -0.13641173765E+02 -0.17826188678E+02 -0.37145239513E+02  0.47787269097E+02  0.19999991120E+02 0.  0.
         12    1    3    3    0    0  0.13641173765E+02  0.17826188678E+02  0.37145239513E+02  0.43400730903E+02  0.00000000000E+00 0. -1.
         11    1    4    4    0    0 -0.98108830942E+01 -0.15480274573E+02 -0.24305631156E+02  0.30441025510E+02  0.51100000000E-03 0. -1.
        -11    1    4    4    0    0  0.51683890403E+00 -0.34166249112E+01  0.29646494707E+00  0.34681897241E+01  0.51100000000E-03 0.  1.
        -12    1    4    4    0    0 -0.43471295747E+01  0.10707108061E+01 -0.13136073304E+02  0.13878053863E+02  0.00000000000E+00 0.  1.
</event>
<event>
 8    1  0.5250708E-010  0.9118800E+02  0.7816164E-02  0.1184000E+00
        -11   -1    0    0    0    0  0.00000000000E+00  0.00000000000E+00  0.45593999997E+02  0.45594000000E+02  0.51100000000E-03 0. -1.
         11   -1    0    0    0    0 -0.00000000000E+00 -0.00000000000E+00 -0.45593999997E+02  0.45594000000E+02  0.51100000000E-03 0.  1.
         23    2    1    2    0    0  0.17763568394E-14 -0.17763568394E-14  0.71054273576E-14  0.91188000000E+02  0.91188000000E+02 0.  0.
    9900012    2    3    3    0    0 -0.11027939753E+02  0.12218315298E+02 -0.40158690628E+02  0.47787272853E+02  0.20000008247E+02 0.  0.
         12    1    3    3    0    0  0.11027939753E+02 -0.12218315298E+02  0.40158690628E+02  0.43400727147E+02  0.00000000000E+00 0. -1.
         11    1    4    4    0    0 -0.11375081771E+02  0.32098483994E+01 -0.10308555466E+02  0.15683173407E+02  0.51100000000E-03 0. -1.
        -11    1    4    4    0    0  0.19847594845E+01  0.53606294860E+01 -0.76665865911E+01  0.95630627373E+01  0.51100000000E-03 0.  1.
        -12    1    4    4    0    0 -0.16376174667E+01  0.36478374130E+01 -0.22183548570E+02  0.22541036709E+02  0.00000000000E+00 0.  1.
</event>
<event>
 8    1  0.5250708E-010  0.9118800E+02  0.7816164E-02  0.1184000E+00
        -11   -1    0    0    0    0  0.00000000000E+00  0.00000000000E+00  0.45593999997E+02  0.45594000000E+02  0.51100000000E-03 0. -1.
         11   -1    0    0    0    0 -0.00000000000E+00 -0.00000000000E+00 -0.45593999997E+02  0.45594000000E+02  0.51100000000E-03 0.  1.
         23    2    1    2    0    0  0.00000000000E+00  0.71054273576E-14 -0.17763568394E-14  0.91188000000E+02  0.91188000000E+02 0.  0.
    9900012    2    3    3    0    0  0.99609689527E+01 -0.40913145069E+02  0.10512710773E+02  0.47787269249E+02  0.19999991815E+02 0.  0.
        -12    1    3    3    0    0 -0.99609689527E+01  0.40913145069E+02 -0.10512710773E+02  0.43400730751E+02  0.00000000000E+00 0.  1.
         11    1    4    4    0    0  0.58726095549E+00 -0.12435882671E+01  0.47544542275E+01  0.49493658655E+01  0.51100000000E-03 0.  1.
        -11    1    4    4    0    0 -0.26341706370E+01 -0.10401409962E+02  0.26340966606E+01  0.11048377692E+02  0.51100000000E-03 0. -1.
         12    1    4    4    0    0  0.12007878634E+02 -0.29268146840E+02  0.31241598853E+01  0.31789525692E+02  0.00000000000E+00 0. -1.
</event>
<event>
 8    1  0.5250708E-010  0.9118800E+02  0.7816164E-02  0.1184000E+00
        -11   -1    0    0    0    0  0.00000000000E+00  0.00000000000E+00  0.45593999997E+02  0.45594000000E+02  0.51100000000E-03 0. -1.
         11   -1    0    0    0    0 -0.00000000000E+00 -0.00000000000E+00 -0.45593999997E+02  0.45594000000E+02  0.51100000000E-03 0.  1.
         23    2    1    2    0    0  0.00000000000E+00  0.00000000000E+00 -0.71054273576E-14  0.91188000000E+02  0.91188000000E+02 0.  0.
    9900012    2    3    3    0    0  0.17495018121E+02  0.70392880479E+01  0.39089588504E+02  0.47787272302E+02  0.20000005734E+02 0.  0.
        -12    1    3    3    0    0 -0.17495018121E+02 -0.70392880479E+01 -0.39089588504E+02  0.43400727698E+02  0.00000000000E+00 0.  1.
         11    1    4    4    0    0  0.30890574091E+01  0.79899433555E+01  0.98673909109E+01  0.13067014738E+02  0.51100000000E-03 0. -1.
        -11    1    4    4    0    0  0.14712511985E+02  0.26228194881E+01  0.21254325504E+02  0.25982369866E+02  0.51100000000E-03 0.  1.
         12    1    4    4    0    0 -0.30655127303E+00 -0.35734747957E+01  0.79678720892E+01  0.87378876983E+01  0.00000000000E+00 0. -1.
</event>
<event>
 8    1  0.5250708E-010  0.9118800E+02  0.7816164E-02  0.1184000E+00
        -11   -1    0    0    0    0  0.00000000000E+00  0.00000000000E+00  0.45593999997E+02  0.45594000000E+02  0.51100000000E-03 0. -1.
         11   -1    0    0    0    0 -0.00000000000E+00 -0.00000000000E+00 -0.45593999997E+02  0.45594000000E+02  0.51100000000E-03 0.  1.
         23    2    1    2    0    0 -0.35527136788E-14  0.00000000000E+00  0.00000000000E+00  0.91188000000E+02  0.91188000000E+02 0.  0.
    9900012    2    3    3    0    0 -0.24156391162E+02  0.13745092245E+02  0.33334133201E+02  0.47787271538E+02  0.20000002251E+02 0.  0.
        -12    1    3    3    0    0  0.24156391162E+02 -0.13745092245E+02 -0.33334133201E+02  0.43400728462E+02  0.00000000000E+00 0.  1.
         11    1    4    4    0    0 -0.79295581715E+01  0.22729632147E+01  0.72335159405E+01  0.10971235468E+02  0.51100000000E-03 0. -1.
        -11    1    4    4    0    0 -0.16324637312E+02  0.27603412416E+01  0.20923512504E+02  0.26681578718E+02  0.51100000000E-03 0.  1.
         12    1    4    4    0    0  0.97804321071E-01  0.87117877889E+01  0.51771047557E+01  0.10134457352E+02  0.00000000000E+00 0. -1.
</event>
<event>
 8    1  0.5250708E-010  0.9118800E+02  0.7816164E-02  0.1184000E+00
        -11   -1    0    0    0    0  0.00000000000E+00  0.00000000000E+00  0.45593999997E+02  0.45594000000E+02  0.51100000000E-03 0. -1.
         11   -1    0    0    0    0 -0.00000000000E+00 -0.00000000000E+00 -0.45593999997E+02  0.45594000000E+02  0.51100000000E-03 0.  1.
         23    2    1    2    0    0  0.44408920985E-15 -0.88817841970E-15  0.00000000000E+00  0.91188000000E+02  0.91188000000E+02 0.  0.
    9900012    2    3    3    0    0 -0.31934432663E+01  0.48047245036E+01  0.43015577369E+02  0.47787270124E+02  0.19999995802E+02 0.  0.
        -12    1    3    3    0    0  0.31934432663E+01 -0.48047245036E+01 -0.43015577369E+02  0.43400729876E+02  0.00000000000E+00 0.  1.
         11    1    4    4    0    0  0.37449515959E+01 -0.31943774511E+01  0.16498352377E+02  0.17216978282E+02  0.51100000000E-03 0. -1.
        -11    1    4    4    0    0 -0.32949205980E+01  0.18660056114E+01  0.78446813819E+00  0.38670233009E+01  0.51100000000E-03 0.  1.
         12    1    4    4    0    0 -0.36434742642E+01  0.61330963433E+01  0.25732756853E+02  0.26703268540E+02  0.00000000000E+00 0. -1.
</event>
<event>
 8    1  0.5250708E-010  0.9118800E+02  0.7816164E-02  0.1184000E+00
        -11   -1    0    0    0    0  0.00000000000E+00  0.00000000000E+00  0.45593999997E+02  0.45594000000E+02  0.51100000000E-03 0. -1.
         11   -1    0    0    0    0 -0.00000000000E+00 -0.00000000000E+00 -0.45593999997E+02  0.45594000000E+02  0.51100000000E-03 0.  1.
         23    2    1    2    0    0  0.00000000000E+00  0.00000000000E+00  0.00000000000E+00  0.91188000000E+02  0.91188000000E+02 0.  0.
    9900012    2    3    3    0    0 -0.22064298269E+01 -0.14086815681E+02  0.40991678551E+02  0.47787257851E+02  0.19999939847E+02 0.  0.
        -12    1    3    3    0    0  0.22064298269E+01  0.14086815681E+02 -0.40991678551E+02  0.43400742149E+02  0.00000000000E+00 0.  1.
         11    1    4    4    0    0 -0.82399534293E-01 -0.59635460018E+00 -0.17393318601E+01  0.18405716701E+01  0.51100000000E-03 0. -1.
        -11    1    4    4    0    0  0.24754980209E+01 -0.89215187018E+00  0.28881406651E+01  0.39070938270E+01  0.51100000000E-03 0.  1.
         12    1    4    4    0    0 -0.45995283135E+01 -0.12598309211E+02  0.39842869746E+02  0.42039592354E+02  0.00000000000E+00 0. -1.
</event>
<event>
 8    1  0.5250708E-010  0.9118800E+02  0.7816164E-02  0.1184000E+00
        -11   -1    0    0    0    0  0.00000000000E+00  0.00000000000E+00  0.45593999997E+02  0.45594000000E+02  0.51100000000E-03 0. -1.
         11   -1    0    0    0    0 -0.00000000000E+00 -0.00000000000E+00 -0.45593999997E+02  0.45594000000E+02  0.51100000000E-03 0.  1.
         23    2    1    2    0    0  0.00000000000E+00  0.00000000000E+00  0.00000000000E+00  0.91188000000E+02  0.91188000000E+02 0.  0.
    9900012    2    3    3    0    0 -0.43284936016E+02  0.22204836767E+01  0.22599440726E+01  0.47787267507E+02  0.19999983873E+02 0.  0.
        -12    1    3    3    0    0  0.43284936016E+02 -0.22204836767E+01 -0.22599440726E+01  0.43400732493E+02  0.00000000000E+00 0.  1.
         11    1    4    4    0    0 -0.21157818556E+02  0.15699596013E+01  0.63492622681E+01  0.22145681087E+02  0.51100000000E-03 0. -1.
        -11    1    4    4    0    0 -0.19302486329E+02 -0.39143893971E+01 -0.46719238493E+01  0.20241919265E+02  0.51100000000E-03 0.  1.
         12    1    4    4    0    0 -0.28246311316E+01  0.45649134725E+01  0.58260565377E+00  0.53996671553E+01  0.00000000000E+00 0. -1.
</event>
<event>
 8    1  0.5250708E-010  0.9118800E+02  0.7816164E-02  0.1184000E+00
        -11   -1    0    0    0    0  0.00000000000E+00  0.00000000000E+00  0.45593999997E+02  0.45594000000E+02  0.51100000000E-03 0. -1.
         11   -1    0    0    0    0 -0.00000000000E+00 -0.00000000000E+00 -0.45593999997E+02  0.45594000000E+02  0.51100000000E-03 0.  1.
         23    2    1    2    0    0  0.35527136788E-14  0.00000000000E+00  0.00000000000E+00  0.91188000000E+02  0.91188000000E+02 0.  0.
    9900012    2    3    3    0    0  0.30343301964E+02 -0.27249015914E+02 -0.14845795875E+02  0.47787279988E+02  0.20000040778E+02 0.  0.
         12    1    3    3    0    0 -0.30343301964E+02  0.27249015914E+02  0.14845795875E+02  0.43400720012E+02  0.00000000000E+00 0. -1.
         11    1    4    4    0    0  0.10155989837E+02 -0.20919687074E+01 -0.59818579171E-02  0.10369209164E+02  0.51100000000E-03 0. -1.
        -11    1    4    4    0    0  0.19066812382E+02 -0.19713001384E+02 -0.79270421270E+01  0.28547920329E+02  0.51100000000E-03 0.  1.
         12    1    4    4    0    0  0.11204997454E+01 -0.54440458227E+01 -0.69127718902E+01  0.88701504950E+01  0.00000000000E+00 0. -1.
</event>
<event>
 8    1  0.5250708E-010  0.9118800E+02  0.7816164E-02  0.1184000E+00
        -11   -1    0    0    0    0  0.00000000000E+00  0.00000000000E+00  0.45593999997E+02  0.45594000000E+02  0.51100000000E-03 0.  1.
         11   -1    0    0    0    0 -0.00000000000E+00 -0.00000000000E+00 -0.45593999997E+02  0.45594000000E+02  0.51100000000E-03 0. -1.
         23    2    1    2    0    0  0.00000000000E+00  0.00000000000E+00  0.44408920985E-15  0.91188000000E+02  0.91188000000E+02 0.  0.
    9900012    2    3    3    0    0  0.38882212928E+02 -0.19126672996E+02 -0.24427827014E+01  0.47787270865E+02  0.19999999184E+02 0.  0.
        -12    1    3    3    0    0 -0.38882212928E+02  0.19126672996E+02  0.24427827014E+01  0.43400729135E+02  0.00000000000E+00 0.  1.
         11    1    4    4    0    0  0.18306989933E+01 -0.31288348884E+01 -0.30492690620E+01  0.47369936285E+01  0.51100000000E-03 0. -1.
        -11    1    4    4    0    0  0.12708127266E+02 -0.21325496127E+01  0.64840780853E+01  0.14425239524E+02  0.51100000000E-03 0.  1.
         12    1    4    4    0    0  0.24343386669E+02 -0.13865288495E+02 -0.58775917247E+01  0.28625037713E+02  0.00000000000E+00 0. -1.
</event>
<event>
 8    1  0.5250708E-010  0.9118800E+02  0.7816164E-02  0.1184000E+00
        -11   -1    0    0    0    0  0.00000000000E+00  0.00000000000E+00  0.45593999997E+02  0.45594000000E+02  0.51100000000E-03 0. -1.
         11   -1    0    0    0    0 -0.00000000000E+00 -0.00000000000E+00 -0.45593999997E+02  0.45594000000E+02  0.51100000000E-03 0.  1.
         23    2    1    2    0    0  0.00000000000E+00 -0.17763568394E-14  0.00000000000E+00  0.91188000000E+02  0.91188000000E+02 0.  0.
    9900012    2    3    3    0    0  0.39955294191E+02  0.12034565626E+02  0.11931760916E+02  0.47787271639E+02  0.20000002712E+02 0.  0.
        -12    1    3    3    0    0 -0.39955294191E+02 -0.12034565626E+02 -0.11931760916E+02  0.43400728361E+02  0.00000000000E+00 0.  1.
         11    1    4    4    0    0  0.16628749725E+02  0.16044122659E+01  0.99888608305E+01  0.19464500946E+02  0.51100000000E-03 0. -1.
        -11    1    4    4    0    0  0.12537873614E+02  0.63386911915E+00 -0.30489631397E+01  0.12918832815E+02  0.51100000000E-03 0.  1.
         12    1    4    4    0    0  0.10788670852E+02  0.97962842409E+01  0.49918632255E+01  0.15403937878E+02  0.00000000000E+00 0. -1.
</event>
<event>
 8    1  0.5250708E-010  0.9118800E+02  0.7816164E-02  0.1184000E+00
        -11   -1    0    0    0    0  0.00000000000E+00  0.00000000000E+00  0.45593999997E+02  0.45594000000E+02  0.51100000000E-03 0. -1.
         11   -1    0    0    0    0 -0.00000000000E+00 -0.00000000000E+00 -0.45593999997E+02  0.45594000000E+02  0.51100000000E-03 0.  1.
         23    2    1    2    0    0  0.00000000000E+00  0.17763568394E-14  0.00000000000E+00  0.91188000000E+02  0.91188000000E+02 0.  0.
    9900012    2    3    3    0    0 -0.15072631654E+02 -0.14722338101E+02 -0.37943211692E+02  0.47787322843E+02  0.20000236169E+02 0.  0.
         12    1    3    3    0    0  0.15072631654E+02  0.14722338101E+02  0.37943211692E+02  0.43400677157E+02  0.00000000000E+00 0. -1.
         11    1    4    4    0    0 -0.21125256623E+01 -0.66220178551E+01 -0.47562739088E+01  0.84223528128E+01  0.51100000000E-03 0. -1.
        -11    1    4    4    0    0 -0.10659205726E+02  0.16591848497E+01 -0.13583700647E+02  0.17346137455E+02  0.51100000000E-03 0.  1.
        -12    1    4    4    0    0 -0.23009002657E+01 -0.97595050957E+01 -0.19603237136E+02  0.22018832575E+02  0.00000000000E+00 0.  1.
</event>
<event>
 8    1  0.5250708E-010  0.9118800E+02  0.7816164E-02  0.1184000E+00
        -11   -1    0    0    0    0  0.00000000000E+00  0.00000000000E+00  0.45593999997E+02  0.45594000000E+02  0.51100000000E-03 0. -1.
         11   -1    0    0    0    0 -0.00000000000E+00 -0.00000000000E+00 -0.45593999997E+02  0.45594000000E+02  0.51100000000E-03 0.  1.
         23    2    1    2    0    0  0.00000000000E+00  0.00000000000E+00  0.00000000000E+00  0.91188000000E+02  0.91188000000E+02 0.  0.
    9900012    2    3    3    0    0 -0.22131719930E+02  0.12781162188E+02 -0.35077814990E+02  0.47787259932E+02  0.19999949335E+02 0.  0.
         12    1    3    3    0    0  0.22131719930E+02 -0.12781162188E+02  0.35077814990E+02  0.43400740068E+02  0.00000000000E+00 0. -1.
         11    1    4    4    0    0 -0.13519945525E+01 -0.11708812405E+01 -0.80536250683E+01  0.82498320680E+01  0.51100000000E-03 0. -1.
        -11    1    4    4    0    0 -0.61030117291E+01  0.12640681604E+02 -0.14728151104E+02  0.20345810841E+02  0.51100000000E-03 0.  1.
         12    1    4    4    0    0 -0.14676713648E+02  0.13113618246E+01 -0.12296038818E+02  0.19191617023E+02  0.00000000000E+00 0. -1.
</event>
<event>
 8    1  0.5250708E-010  0.9118800E+02  0.7816164E-02  0.1184000E+00
        -11   -1    0    0    0    0  0.00000000000E+00  0.00000000000E+00  0.45593999997E+02  0.45594000000E+02  0.51100000000E-03 0. -1.
         11   -1    0    0    0    0 -0.00000000000E+00 -0.00000000000E+00 -0.45593999997E+02  0.45594000000E+02  0.51100000000E-03 0.  1.
         23    2    1    2    0    0  0.00000000000E+00  0.00000000000E+00  0.00000000000E+00  0.91188000000E+02  0.91188000000E+02 0.  0.
    9900012    2    3    3    0    0  0.20545333582E+02  0.74830045400E+01 -0.37490229618E+02  0.47787269525E+02  0.19999993072E+02 0.  0.
         12    1    3    3    0    0 -0.20545333582E+02 -0.74830045400E+01  0.37490229618E+02  0.43400730475E+02  0.00000000000E+00 0. -1.
         11    1    4    4    0    0 -0.23906192010E+00  0.39606000543E+01 -0.24490599384E+01  0.46627672293E+01  0.51100000000E-03 0. -1.
        -11    1    4    4    0    0  0.70898126497E+01 -0.50855666240E+01 -0.15191771659E+02  0.17519085527E+02  0.51100000000E-03 0.  1.
         12    1    4    4    0    0  0.13694582852E+02  0.86079711096E+01 -0.19849398021E+02  0.25605416769E+02  0.00000000000E+00 0. -1.
</event>
<event>
 8    1  0.5250708E-010  0.9118800E+02  0.7816164E-02  0.1184000E+00
        -11   -1    0    0    0    0  0.00000000000E+00  0.00000000000E+00  0.45593999997E+02  0.45594000000E+02  0.51100000000E-03 0. -1.
         11   -1    0    0    0    0 -0.00000000000E+00 -0.00000000000E+00 -0.45593999997E+02  0.45594000000E+02  0.51100000000E-03 0.  1.
         23    2    1    2    0    0  0.17763568394E-14  0.00000000000E+00  0.71054273576E-14  0.91188000000E+02  0.91188000000E+02 0.  0.
    9900012    2    3    3    0    0 -0.13734039114E+02  0.14430785223E+02 -0.38558420007E+02  0.47787272518E+02  0.20000006720E+02 0.  0.
         12    1    3    3    0    0  0.13734039114E+02 -0.14430785223E+02  0.38558420007E+02  0.43400727482E+02  0.00000000000E+00 0. -1.
         11    1    4    4    0    0 -0.75965324714E+01  0.23282273548E+01 -0.54681886439E+01  0.96451560646E+01  0.51100000000E-03 0. -1.
        -11    1    4    4    0    0 -0.96859467447E+01  0.11608434768E+02 -0.29002680390E+02  0.32706708672E+02  0.51100000000E-03 0.  1.
         12    1    4    4    0    0  0.35484401022E+01  0.49412310073E+00 -0.40875509727E+01  0.54354077815E+01  0.00000000000E+00 0. -1.
</event>
<event>
 8    1  0.5250708E-010  0.9118800E+02  0.7816164E-02  0.1184000E+00
        -11   -1    0    0    0    0  0.00000000000E+00  0.00000000000E+00  0.45593999997E+02  0.45594000000E+02  0.51100000000E-03 0. -1.
         11   -1    0    0    0    0 -0.00000000000E+00 -0.00000000000E+00 -0.45593999997E+02  0.45594000000E+02  0.51100000000E-03 0.  1.
         23    2    1    2    0    0  0.00000000000E+00  0.88817841970E-15  0.35527136788E-14  0.91188000000E+02  0.91188000000E+02 0.  0.
    9900012    2    3    3    0    0 -0.33556039874E+02 -0.24394674035E+01 -0.27416501114E+02  0.47787270207E+02  0.19999996180E+02 0.  0.
         12    1    3    3    0    0  0.33556039874E+02  0.24394674035E+01  0.27416501114E+02  0.43400729793E+02  0.00000000000E+00 0. -1.
         11    1    4    4    0    0 -0.21654024473E+02 -0.20973297343E+01 -0.22562704995E+02  0.31342801803E+02  0.51100000000E-03 0.  1.
        -11    1    4    4    0    0 -0.12492842071E+02 -0.29708010634E+01 -0.30387002086E+01  0.13195850150E+02  0.51100000000E-03 0. -1.
        -12    1    4    4    0    0  0.59082666957E+00  0.26286633942E+01 -0.18150959101E+01  0.32486182534E+01  0.00000000000E+00 0.  1.
</event>
<event>
 8    1  0.5250708E-010  0.9118800E+02  0.7816164E-02  0.1184000E+00
        -11   -1    0    0    0    0  0.00000000000E+00  0.00000000000E+00  0.45593999997E+02  0.45594000000E+02  0.51100000000E-03 0. -1.
         11   -1    0    0    0    0 -0.00000000000E+00 -0.00000000000E+00 -0.45593999997E+02  0.45594000000E+02  0.51100000000E-03 0.  1.
         23    2    1    2    0    0  0.00000000000E+00  0.00000000000E+00  0.00000000000E+00  0.91188000000E+02  0.91188000000E+02 0.  0.
    9900012    2    3    3    0    0  0.38916491665E+02 -0.47126558195E+01 -0.18625810174E+02  0.47787271285E+02  0.20000001095E+02 0.  0.
         12    1    3    3    0    0 -0.38916491665E+02  0.47126558195E+01  0.18625810174E+02  0.43400728715E+02  0.00000000000E+00 0. -1.
         11    1    4    4    0    0  0.46870886652E+01  0.48066248386E+01 -0.59199734415E+00  0.67396515941E+01  0.51100000000E-03 0. -1.
        -11    1    4    4    0    0  0.13950284575E+02 -0.68651655752E+01 -0.34438901292E+01  0.15924864758E+02  0.51100000000E-03 0.  1.
        -12    1    4    4    0    0  0.20279118425E+02 -0.26541150828E+01 -0.14589922700E+02  0.25122754932E+02  0.00000000000E+00 0.  1.
</event>
<event>
 8    1  0.5250708E-010  0.9118800E+02  0.7816164E-02  0.1184000E+00
        -11   -1    0    0    0    0  0.00000000000E+00  0.00000000000E+00  0.45593999997E+02  0.45594000000E+02  0.51100000000E-03 0. -1.
         11   -1    0    0    0    0 -0.00000000000E+00 -0.00000000000E+00 -0.45593999997E+02  0.45594000000E+02  0.51100000000E-03 0.  1.
         23    2    1    2    0    0  0.00000000000E+00 -0.88817841970E-15  0.00000000000E+00  0.91188000000E+02  0.91188000000E+02 0.  0.
    9900012    2    3    3    0    0  0.65053464810E+01 -0.42083195001E+01 -0.42703557086E+02  0.47787271047E+02  0.20000000010E+02 0.  0.
         12    1    3    3    0    0 -0.65053464810E+01  0.42083195001E+01  0.42703557086E+02  0.43400728953E+02  0.00000000000E+00 0. -1.
         11    1    4    4    0    0 -0.65332877938E+01 -0.10398048135E+01 -0.94911798262E+01  0.11569249682E+02  0.51100000000E-03 0. -1.
        -11    1    4    4    0    0  0.59396744156E+01 -0.32404368652E+01 -0.11158178583E+02  0.13049333806E+02  0.51100000000E-03 0.  1.
        -12    1    4    4    0    0  0.70989598593E+01  0.71922178603E-01 -0.22054198677E+02  0.23168687559E+02  0.00000000000E+00 0.  1.
</event>
<event>
 8    1  0.5250708E-010  0.9118800E+02  0.7816164E-02  0.1184000E+00
        -11   -1    0    0    0    0  0.00000000000E+00  0.00000000000E+00  0.45593999997E+02  0.45594000000E+02  0.51100000000E-03 0. -1.
         11   -1    0    0    0    0 -0.00000000000E+00 -0.00000000000E+00 -0.45593999997E+02  0.45594000000E+02  0.51100000000E-03 0.  1.
         23    2    1    2    0    0  0.00000000000E+00  0.00000000000E+00 -0.71054273576E-14  0.91188000000E+02  0.91188000000E+02 0.  0.
    9900012    2    3    3    0    0 -0.79373849449E+01 -0.54259316629E+00  0.42665315788E+02  0.47787243573E+02  0.19999874748E+02 0.  0.
        -12    1    3    3    0    0  0.79373849449E+01  0.54259316629E+00 -0.42665315788E+02  0.43400756427E+02  0.00000000000E+00 0.  1.
         11    1    4    4    0    0 -0.52791425216E+01 -0.56615307916E+01  0.26594711344E+02  0.27698392524E+02  0.51100000000E-03 0. -1.
        -11    1    4    4    0    0 -0.57072995563E+01  0.44890941658E+01  0.15216765774E+02  0.16860462495E+02  0.51100000000E-03 0.  1.
        -12    1    4    4    0    0  0.30490571329E+01  0.62984345953E+00  0.85383866950E+00  0.32283885542E+01  0.00000000000E+00 0.  1.
</event>
<event>
 8    1  0.5250708E-010  0.9118800E+02  0.7816164E-02  0.1184000E+00
        -11   -1    0    0    0    0  0.00000000000E+00  0.00000000000E+00  0.45593999997E+02  0.45594000000E+02  0.51100000000E-03 0. -1.
         11   -1    0    0    0    0 -0.00000000000E+00 -0.00000000000E+00 -0.45593999997E+02  0.45594000000E+02  0.51100000000E-03 0.  1.
         23    2    1    2    0    0 -0.35527136788E-14  0.00000000000E+00  0.00000000000E+00  0.91188000000E+02  0.91188000000E+02 0.  0.
    9900012    2    3    3    0    0 -0.15778792493E+02 -0.10044026551E+02 -0.39163381623E+02  0.47787271642E+02  0.20000002723E+02 0.  0.
         12    1    3    3    0    0  0.15778792493E+02  0.10044026551E+02  0.39163381623E+02  0.43400728358E+02  0.00000000000E+00 0. -1.
         11    1    4    4    0    0 -0.13050449491E+01 -0.12139476115E+02 -0.16637957823E+02  0.20637142813E+02  0.51100000000E-03 0. -1.
        -11    1    4    4    0    0 -0.62956376862E+01 -0.98126273325E+00 -0.84478106852E+01  0.10581277620E+02  0.51100000000E-03 0.  1.
         12    1    4    4    0    0 -0.81781098580E+01  0.30767122977E+01 -0.14077613114E+02  0.16568851210E+02  0.00000000000E+00 0. -1.
</event>
<event>
 8    1  0.5250708E-010  0.9118800E+02  0.7816164E-02  0.1184000E+00
        -11   -1    0    0    0    0  0.00000000000E+00  0.00000000000E+00  0.45593999997E+02  0.45594000000E+02  0.51100000000E-03 0. -1.
         11   -1    0    0    0    0 -0.00000000000E+00 -0.00000000000E+00 -0.45593999997E+02  0.45594000000E+02  0.51100000000E-03 0.  1.
         23    2    1    2    0    0  0.00000000000E+00  0.00000000000E+00  0.00000000000E+00  0.91188000000E+02  0.91188000000E+02 0.  0.
    9900012    2    3    3    0    0  0.17909298169E+01  0.13355768230E+02  0.41255777113E+02  0.47787272820E+02  0.20000008094E+02 0.  0.
        -12    1    3    3    0    0 -0.17909298169E+01 -0.13355768230E+02 -0.41255777113E+02  0.43400727180E+02  0.00000000000E+00 0.  1.
         11    1    4    4    0    0 -0.58666007315E+00  0.10048551527E+02  0.12762459146E+02  0.16254166283E+02  0.51100000000E-03 0. -1.
        -11    1    4    4    0    0 -0.14283452384E+01  0.62784011013E+01  0.70286083853E+01  0.95320421004E+01  0.51100000000E-03 0.  1.
         12    1    4    4    0    0  0.38059351284E+01 -0.29711843985E+01  0.21464709581E+02  0.22001064436E+02  0.00000000000E+00 0. -1.
</event>
<event>
 8    1  0.5250708E-010  0.9118800E+02  0.7816164E-02  0.1184000E+00
        -11   -1    0    0    0    0  0.00000000000E+00  0.00000000000E+00  0.45593999997E+02  0.45594000000E+02  0.51100000000E-03 0. -1.
         11   -1    0    0    0    0 -0.00000000000E+00 -0.00000000000E+00 -0.45593999997E+02  0.45594000000E+02  0.51100000000E-03 0.  1.
         23    2    1    2    0    0  0.00000000000E+00  0.00000000000E+00  0.00000000000E+00  0.91188000000E+02  0.91188000000E+02 0.  0.
    9900012    2    3    3    0    0 -0.14414573176E+02  0.38650137746E+02 -0.13491090708E+02  0.47787278853E+02  0.20000035601E+02 0.  0.
         12    1    3    3    0    0  0.14414573176E+02 -0.38650137746E+02  0.13491090708E+02  0.43400721147E+02  0.00000000000E+00 0. -1.
         11    1    4    4    0    0 -0.47128845538E+01  0.41296632948E+01 -0.97110467398E+01  0.11557241401E+02  0.51100000000E-03 0. -1.
        -11    1    4    4    0    0 -0.25698775219E+01  0.14860280302E+02 -0.24016160564E+01  0.15270886060E+02  0.51100000000E-03 0.  1.
         12    1    4    4    0    0 -0.71318111004E+01  0.19660194149E+02 -0.13784279117E+01  0.20959151392E+02  0.00000000000E+00 0. -1.
</event>
<event>
 8    1  0.5250708E-010  0.9118800E+02  0.7816164E-02  0.1184000E+00
        -11   -1    0    0    0    0  0.00000000000E+00  0.00000000000E+00  0.45593999997E+02  0.45594000000E+02  0.51100000000E-03 0. -1.
         11   -1    0    0    0    0 -0.00000000000E+00 -0.00000000000E+00 -0.45593999997E+02  0.45594000000E+02  0.51100000000E-03 0.  1.
         23    2    1    2    0    0  0.00000000000E+00 -0.44408920985E-15  0.00000000000E+00  0.91188000000E+02  0.91188000000E+02 0.  0.
    9900012    2    3    3    0    0  0.25610155482E+02  0.39187519739E+01 -0.34819339827E+02  0.47787272969E+02  0.20000008775E+02 0.  0.
         12    1    3    3    0    0 -0.25610155482E+02 -0.39187519739E+01  0.34819339827E+02  0.43400727031E+02  0.00000000000E+00 0. -1.
         11    1    4    4    0    0  0.84219342667E+01  0.74022762668E+01 -0.64779319844E+01  0.12949373490E+02  0.51100000000E-03 0.  1.
        -11    1    4    4    0    0  0.95183081538E+01 -0.38966936311E+01 -0.78025607464E+01  0.12909777916E+02  0.51100000000E-03 0. -1.
        -12    1    4    4    0    0  0.76699130614E+01  0.41316933830E+00 -0.20538847096E+02  0.21928121564E+02  0.00000000000E+00 0.  1.
</event>
<event>
 8    1  0.5250708E-010  0.9118800E+02  0.7816164E-02  0.1184000E+00
        -11   -1    0    0    0    0  0.00000000000E+00  0.00000000000E+00  0.45593999997E+02  0.45594000000E+02  0.51100000000E-03 0. -1.
         11   -1    0    0    0    0 -0.00000000000E+00 -0.00000000000E+00 -0.45593999997E+02  0.45594000000E+02  0.51100000000E-03 0.  1.
         23    2    1    2    0    0  0.00000000000E+00 -0.35527136788E-14  0.00000000000E+00  0.91188000000E+02  0.91188000000E+02 0.  0.
    9900012    2    3    3    0    0  0.12068355395E+02 -0.31084891851E+02  0.27779627680E+02  0.47787269391E+02  0.19999992462E+02 0.  0.
        -12    1    3    3    0    0 -0.12068355395E+02  0.31084891851E+02 -0.27779627680E+02  0.43400730609E+02  0.00000000000E+00 0.  1.
         11    1    4    4    0    0  0.14215070568E+01 -0.62104691848E+01  0.81382881735E+00  0.64228441841E+01  0.51100000000E-03 0. -1.
        -11    1    4    4    0    0  0.98900394574E+01 -0.19745674255E+02  0.11187210142E+02  0.24755973083E+02  0.51100000000E-03 0.  1.
         12    1    4    4    0    0  0.75680888071E+00 -0.51287484113E+01  0.15778588721E+02  0.16608452124E+02  0.00000000000E+00 0. -1.
</event>
<event>
 8    1  0.5250708E-010  0.9118800E+02  0.7816164E-02  0.1184000E+00
        -11   -1    0    0    0    0  0.00000000000E+00  0.00000000000E+00  0.45593999997E+02  0.45594000000E+02  0.51100000000E-03 0.  1.
         11   -1    0    0    0    0 -0.00000000000E+00 -0.00000000000E+00 -0.45593999997E+02  0.45594000000E+02  0.51100000000E-03 0. -1.
         23    2    1    2    0    0 -0.35527136788E-14  0.00000000000E+00 -0.71054273576E-14  0.91188000000E+02  0.91188000000E+02 0.  0.
    9900012    2    3    3    0    0  0.21818999181E+02  0.19255519093E+02  0.32199065446E+02  0.47787267790E+02  0.19999985161E+02 0.  0.
        -12    1    3    3    0    0 -0.21818999181E+02 -0.19255519093E+02 -0.32199065446E+02  0.43400732210E+02  0.00000000000E+00 0.  1.
         11    1    4    4    0    0 -0.88631266767E+00  0.52987739023E+01  0.17549973266E+01  0.56517759058E+01  0.51100000000E-03 0. -1.
        -11    1    4    4    0    0  0.80728453919E+01  0.74182789229E+01  0.20574831735E+02  0.23313631122E+02  0.51100000000E-03 0.  1.
         12    1    4    4    0    0  0.14632466457E+02  0.65384662675E+01  0.98692363839E+01  0.18821860762E+02  0.00000000000E+00 0. -1.
</event>
<event>
 8    1  0.5250708E-010  0.9118800E+02  0.7816164E-02  0.1184000E+00
        -11   -1    0    0    0    0  0.00000000000E+00  0.00000000000E+00  0.45593999997E+02  0.45594000000E+02  0.51100000000E-03 0. -1.
         11   -1    0    0    0    0 -0.00000000000E+00 -0.00000000000E+00 -0.45593999997E+02  0.45594000000E+02  0.51100000000E-03 0.  1.
         23    2    1    2    0    0  0.00000000000E+00 -0.35527136788E-14 -0.14210854715E-13  0.91188000000E+02  0.91188000000E+02 0.  0.
    9900012    2    3    3    0    0  0.42799356618E+01  0.16441179201E+02  0.39937365340E+02  0.47787269901E+02  0.19999994788E+02 0.  0.
        -12    1    3    3    0    0 -0.42799356618E+01 -0.16441179201E+02 -0.39937365340E+02  0.43400730099E+02  0.00000000000E+00 0.  1.
         11    1    4    4    0    0  0.24922750990E+01  0.88733417772E+01  0.14718809394E+02  0.17366374973E+02  0.51100000000E-03 0. -1.
        -11    1    4    4    0    0 -0.62147690228E+01  0.14710867935E+01  0.61762936723E+01  0.88844838989E+01  0.51100000000E-03 0.  1.
        -12    1    4    4    0    0  0.80024295856E+01  0.60967506308E+01  0.19042262273E+02  0.21536411029E+02  0.00000000000E+00 0.  1.
</event>
<event>
 8    1  0.5250708E-010  0.9118800E+02  0.7816164E-02  0.1184000E+00
        -11   -1    0    0    0    0  0.00000000000E+00  0.00000000000E+00  0.45593999997E+02  0.45594000000E+02  0.51100000000E-03 0. -1.
         11   -1    0    0    0    0 -0.00000000000E+00 -0.00000000000E+00 -0.45593999997E+02  0.45594000000E+02  0.51100000000E-03 0.  1.
         23    2    1    2    0    0 -0.44408920985E-15 -0.44408920985E-15  0.71054273576E-14  0.91188000000E+02  0.91188000000E+02 0.  0.
    9900012    2    3    3    0    0 -0.15612490431E+01 -0.34127666197E+01  0.43238169406E+02  0.47787265350E+02  0.19999974037E+02 0.  0.
        -12    1    3    3    0    0  0.15612490431E+01  0.34127666197E+01 -0.43238169406E+02  0.43400734650E+02  0.00000000000E+00 0.  1.
         11    1    4    4    0    0 -0.61456392726E+01 -0.60651409420E+01  0.21589058434E+02  0.23251715228E+02  0.51100000000E-03 0. -1.
        -11    1    4    4    0    0 -0.25123900351E+01  0.14022273319E+01  0.12820705061E+02  0.13139589937E+02  0.51100000000E-03 0.  1.
        -12    1    4    4    0    0  0.70967802645E+01  0.12501469904E+01  0.88284059106E+01  0.11395960185E+02  0.00000000000E+00 0.  1.
</event>
<event>
 8    1  0.5250708E-010  0.9118800E+02  0.7816164E-02  0.1184000E+00
        -11   -1    0    0    0    0  0.00000000000E+00  0.00000000000E+00  0.45593999997E+02  0.45594000000E+02  0.51100000000E-03 0. -1.
         11   -1    0    0    0    0 -0.00000000000E+00 -0.00000000000E+00 -0.45593999997E+02  0.45594000000E+02  0.51100000000E-03 0.  1.
         23    2    1    2    0    0  0.00000000000E+00 -0.17763568394E-14  0.71054273576E-14  0.91188000000E+02  0.91188000000E+02 0.  0.
    9900012    2    3    3    0    0 -0.48147962024E+01 -0.13484501178E+02  0.40970834326E+02  0.47787270745E+02  0.19999998637E+02 0.  0.
        -12    1    3    3    0    0  0.48147962024E+01  0.13484501178E+02 -0.40970834326E+02  0.43400729255E+02  0.00000000000E+00 0.  1.
         11    1    4    4    0    0 -0.79869877611E+01 -0.65689445537E+01  0.33570415393E+02  0.35127137600E+02  0.51100000000E-03 0. -1.
        -11    1    4    4    0    0  0.34667200737E+01 -0.14484932363E+01  0.58801380776E+01  0.69779871594E+01  0.51100000000E-03 0.  1.
        -12    1    4    4    0    0 -0.29452851499E+00 -0.54670633876E+01  0.15202808555E+01  0.56821459863E+01  0.00000000000E+00 0.  1.
</event>
<event>
 8    1  0.5250708E-010  0.9118800E+02  0.7816164E-02  0.1184000E+00
        -11   -1    0    0    0    0  0.00000000000E+00  0.00000000000E+00  0.45593999997E+02  0.45594000000E+02  0.51100000000E-03 0. -1.
         11   -1    0    0    0    0 -0.00000000000E+00 -0.00000000000E+00 -0.45593999997E+02  0.45594000000E+02  0.51100000000E-03 0.  1.
         23    2    1    2    0    0  0.11102230246E-14  0.00000000000E+00  0.00000000000E+00  0.91188000000E+02  0.91188000000E+02 0.  0.
    9900012    2    3    3    0    0  0.94658626746E+00  0.36146703549E+02  0.24002982876E+02  0.47787269707E+02  0.19999993901E+02 0.  0.
        -12    1    3    3    0    0 -0.94658626746E+00 -0.36146703549E+02 -0.24002982876E+02  0.43400730293E+02  0.00000000000E+00 0.  1.
         11    1    4    4    0    0 -0.45320414697E+01  0.22185797680E+02  0.18889581517E+02  0.29488392780E+02  0.51100000000E-03 0. -1.
        -11    1    4    4    0    0 -0.81133356582E+00  0.40458814820E+01 -0.19840490379E+01  0.45786318882E+01  0.51100000000E-03 0.  1.
        -12    1    4    4    0    0  0.62899613030E+01  0.99150243873E+01  0.70974503970E+01  0.13720245039E+02  0.00000000000E+00 0.  1.
</event>
<event>
 8    1  0.5250708E-010  0.9118800E+02  0.7816164E-02  0.1184000E+00
        -11   -1    0    0    0    0  0.00000000000E+00  0.00000000000E+00  0.45593999997E+02  0.45594000000E+02  0.51100000000E-03 0.  1.
         11   -1    0    0    0    0 -0.00000000000E+00 -0.00000000000E+00 -0.45593999997E+02  0.45594000000E+02  0.51100000000E-03 0. -1.
         23    2    1    2    0    0  0.00000000000E+00  0.00000000000E+00 -0.35527136788E-14  0.91188000000E+02  0.91188000000E+02 0.  0.
    9900012    2    3    3    0    0  0.35311604892E+02  0.11569780206E+02  0.22424412051E+02  0.47787268325E+02  0.19999987603E+02 0.  0.
        -12    1    3    3    0    0 -0.35311604892E+02 -0.11569780206E+02 -0.22424412051E+02  0.43400731675E+02  0.00000000000E+00 0.  1.
         11    1    4    4    0    0 -0.67727726271E+00 -0.12784967131E+01  0.68280788586E+00  0.15998391188E+01  0.51100000000E-03 0. -1.
        -11    1    4    4    0    0  0.15280119993E+01  0.47974172999E+01  0.47849574466E+01  0.69459233689E+01  0.51100000000E-03 0.  1.
         12    1    4    4    0    0  0.34460870156E+02  0.80508596191E+01  0.16956646718E+02  0.39241505838E+02  0.00000000000E+00 0. -1.
</event>
<event>
 8    1  0.5250708E-010  0.9118800E+02  0.7816164E-02  0.1184000E+00
        -11   -1    0    0    0    0  0.00000000000E+00  0.00000000000E+00  0.45593999997E+02  0.45594000000E+02  0.51100000000E-03 0. -1.
         11   -1    0    0    0    0 -0.00000000000E+00 -0.00000000000E+00 -0.45593999997E+02  0.45594000000E+02  0.51100000000E-03 0.  1.
         23    2    1    2    0    0  0.00000000000E+00  0.00000000000E+00  0.00000000000E+00  0.91188000000E+02  0.91188000000E+02 0.  0.
    9900012    2    3    3    0    0 -0.23056851628E+02  0.14501824933E+02 -0.33789082367E+02  0.47787269355E+02  0.19999992295E+02 0.  0.
         12    1    3    3    0    0  0.23056851628E+02 -0.14501824933E+02  0.33789082367E+02  0.43400730645E+02  0.00000000000E+00 0. -1.
         11    1    4    4    0    0 -0.68094897011E+00  0.19289287653E+01 -0.11131976633E+02  0.11318363915E+02  0.51100000000E-03 0. -1.
        -11    1    4    4    0    0 -0.73273946686E+01  0.62839388732E+01 -0.16340481375E+02  0.18978670454E+02  0.51100000000E-03 0.  1.
        -12    1    4    4    0    0 -0.15048507989E+02  0.62889572943E+01 -0.63166243583E+01  0.17490234985E+02  0.00000000000E+00 0.  1.
</event>
<event>
 8    1  0.5250708E-010  0.9118800E+02  0.7816164E-02  0.1184000E+00
        -11   -1    0    0    0    0  0.00000000000E+00  0.00000000000E+00  0.45593999997E+02  0.45594000000E+02  0.51100000000E-03 0. -1.
         11   -1    0    0    0    0 -0.00000000000E+00 -0.00000000000E+00 -0.45593999997E+02  0.45594000000E+02  0.51100000000E-03 0.  1.
         23    2    1    2    0    0  0.17763568394E-14  0.00000000000E+00  0.00000000000E+00  0.91188000000E+02  0.91188000000E+02 0.  0.
    9900012    2    3    3    0    0 -0.15075510335E+02 -0.11710204198E+02  0.38977205911E+02  0.47787280250E+02  0.20000041971E+02 0.  0.
        -12    1    3    3    0    0  0.15075510335E+02  0.11710204198E+02 -0.38977205911E+02  0.43400719750E+02  0.00000000000E+00 0.  1.
         11    1    4    4    0    0 -0.71131904382E+01  0.13312842461E+01  0.70427308711E+01  0.10098012395E+02  0.51100000000E-03 0. -1.
        -11    1    4    4    0    0  0.26355150446E-01  0.21631770295E+01  0.11812690528E+01  0.24648379847E+01  0.51100000000E-03 0.  1.
        -12    1    4    4    0    0 -0.79886750471E+01 -0.15204665473E+02  0.30753205987E+02  0.35224429870E+02  0.00000000000E+00 0.  1.
</event>
<event>
 8    1  0.5250708E-010  0.9118800E+02  0.7816164E-02  0.1184000E+00
        -11   -1    0    0    0    0  0.00000000000E+00  0.00000000000E+00  0.45593999997E+02  0.45594000000E+02  0.51100000000E-03 0. -1.
         11   -1    0    0    0    0 -0.00000000000E+00 -0.00000000000E+00 -0.45593999997E+02  0.45594000000E+02  0.51100000000E-03 0.  1.
         23    2    1    2    0    0  0.00000000000E+00  0.00000000000E+00  0.00000000000E+00  0.91188000000E+02  0.91188000000E+02 0.  0.
    9900012    2    3    3    0    0  0.14152537451E+02 -0.11266599996E+02 -0.39451145805E+02  0.47787268473E+02  0.19999988275E+02 0.  0.
         12    1    3    3    0    0 -0.14152537451E+02  0.11266599996E+02  0.39451145805E+02  0.43400731527E+02  0.00000000000E+00 0. -1.
         11    1    4    4    0    0  0.89177585233E+01 -0.14893265523E+02 -0.28590269193E+02  0.33447559968E+02  0.51100000000E-03 0. -1.
        -11    1    4    4    0    0  0.10373277782E+01 -0.20533271021E+01 -0.26842715421E+01  0.35351824678E+01  0.51100000000E-03 0.  1.
         12    1    4    4    0    0  0.41974511500E+01  0.56799926292E+01 -0.81766050699E+01  0.10804526037E+02  0.00000000000E+00 0. -1.
</event>
<event>
 8    1  0.5513473E-010  0.9118800E+02  0.7816164E-02  0.1184000E+00
        -11   -1    0    0    0    0  0.00000000000E+00  0.00000000000E+00  0.45593999997E+02  0.45594000000E+02  0.51100000000E-03 0. -1.
         11   -1    0    0    0    0 -0.00000000000E+00 -0.00000000000E+00 -0.45593999997E+02  0.45594000000E+02  0.51100000000E-03 0.  1.
         23    2    1    2    0    0  0.35527136788E-14 -0.17763568394E-14  0.00000000000E+00  0.91188000000E+02  0.91188000000E+02 0.  0.
    9900012    2    3    3    0    0 -0.27665083954E+02  0.13815857391E+02  0.30453055616E+02  0.47787269799E+02  0.19999994323E+02 0.  0.
        -12    1    3    3    0    0  0.27665083954E+02 -0.13815857391E+02 -0.30453055616E+02  0.43400730201E+02  0.00000000000E+00 0.  1.
         11    1    4    4    0    0 -0.18600421724E+02  0.49556615817E+01  0.69183474246E+01  0.20454774537E+02  0.51100000000E-03 0. -1.
        -11    1    4    4    0    0  0.67975989630E+00  0.10358230050E+01  0.35719319266E+01  0.37807010942E+01  0.51100000000E-03 0.  1.
         12    1    4    4    0    0 -0.97444221268E+01  0.78243728039E+01  0.19962776264E+02  0.23551794168E+02  0.00000000000E+00 0. -1.
</event>
<event>
 8    1  0.5250708E-010  0.9118800E+02  0.7816164E-02  0.1184000E+00
        -11   -1    0    0    0    0  0.00000000000E+00  0.00000000000E+00  0.45593999997E+02  0.45594000000E+02  0.51100000000E-03 0. -1.
         11   -1    0    0    0    0 -0.00000000000E+00 -0.00000000000E+00 -0.45593999997E+02  0.45594000000E+02  0.51100000000E-03 0.  1.
         23    2    1    2    0    0  0.00000000000E+00 -0.35527136788E-14  0.00000000000E+00  0.91188000000E+02  0.91188000000E+02 0.  0.
    9900012    2    3    3    0    0 -0.31499924258E+02  0.27493636071E+02 -0.11639474950E+02  0.47787278465E+02  0.20000033833E+02 0.  0.
         12    1    3    3    0    0  0.31499924258E+02 -0.27493636071E+02  0.11639474950E+02  0.43400721535E+02  0.00000000000E+00 0. -1.
         11    1    4    4    0    0 -0.21377678972E+01  0.74297235115E+01 -0.81104127439E+01  0.11204893492E+02  0.51100000000E-03 0. -1.
        -11    1    4    4    0    0 -0.13113666865E+02  0.68799109109E+01 -0.49384234612E+01  0.15610556022E+02  0.51100000000E-03 0.  1.
        -12    1    4    4    0    0 -0.16248489496E+02  0.13184001649E+02  0.14093612556E+01  0.20971828950E+02  0.00000000000E+00 0.  1.
</event>
<event>
 8    1  0.5250708E-010  0.9118800E+02  0.7816164E-02  0.1184000E+00
        -11   -1    0    0    0    0  0.00000000000E+00  0.00000000000E+00  0.45593999997E+02  0.45594000000E+02  0.51100000000E-03 0. -1.
         11   -1    0    0    0    0 -0.00000000000E+00 -0.00000000000E+00 -0.45593999997E+02  0.45594000000E+02  0.51100000000E-03 0.  1.
         23    2    1    2    0    0  0.35527136788E-14  0.00000000000E+00  0.35527136788E-14  0.91188000000E+02  0.91188000000E+02 0.  0.
    9900012    2    3    3    0    0  0.19995093135E+02  0.22123863569E+02  0.31533315057E+02  0.47787319738E+02  0.20000222014E+02 0.  0.
        -12    1    3    3    0    0 -0.19995093135E+02 -0.22123863569E+02 -0.31533315057E+02  0.43400680262E+02  0.00000000000E+00 0.  1.
         11    1    4    4    0    0  0.26165385475E+01  0.14034339175E+02  0.21239936909E+02  0.25591871175E+02  0.51100000000E-03 0.  1.
        -11    1    4    4    0    0  0.79011481195E+01  0.60579386903E+01  0.56538418586E+01  0.11449571643E+02  0.51100000000E-03 0. -1.
         12    1    4    4    0    0  0.94774064677E+01  0.20315857037E+01  0.46395362892E+01  0.10745876921E+02  0.00000000000E+00 0. -1.
</event>
<event>
 8    1  0.5250708E-010  0.9118800E+02  0.7816164E-02  0.1184000E+00
        -11   -1    0    0    0    0  0.00000000000E+00  0.00000000000E+00  0.45593999997E+02  0.45594000000E+02  0.51100000000E-03 0. -1.
         11   -1    0    0    0    0 -0.00000000000E+00 -0.00000000000E+00 -0.45593999997E+02  0.45594000000E+02  0.51100000000E-03 0.  1.
         23    2    1    2    0    0  0.00000000000E+00 -0.14210854715E-13 -0.17763568394E-14  0.91188000000E+02  0.91188000000E+02 0.  0.
    9900012    2    3    3    0    0 -0.47504065349E+01 -0.41579891229E+02 -0.11496499505E+02  0.47787271691E+02  0.20000002947E+02 0.  0.
         12    1    3    3    0    0  0.47504065349E+01  0.41579891229E+02  0.11496499505E+02  0.43400728309E+02  0.00000000000E+00 0. -1.
         11    1    4    4    0    0 -0.25490909583E+01 -0.75389862916E+01  0.36878783893E+01  0.87712385838E+01  0.51100000000E-03 0. -1.
        -11    1    4    4    0    0 -0.65948185286E+01 -0.17349515721E+02 -0.94541933189E+01  0.20829764731E+02  0.51100000000E-03 0.  1.
        -12    1    4    4    0    0  0.43935029520E+01 -0.16691389217E+02 -0.57301845754E+01  0.18186268376E+02  0.00000000000E+00 0.  1.
</event>
<event>
 8    1  0.8358992E-010  0.9118800E+02  0.7816164E-02  0.1184000E+00
        -11   -1    0    0    0    0  0.00000000000E+00  0.00000000000E+00  0.45593999997E+02  0.45594000000E+02  0.51100000000E-03 0. -1.
         11   -1    0    0    0    0 -0.00000000000E+00 -0.00000000000E+00 -0.45593999997E+02  0.45594000000E+02  0.51100000000E-03 0.  1.
         23    2    1    2    0    0  0.17763568394E-14  0.00000000000E+00  0.00000000000E+00  0.91188000000E+02  0.91188000000E+02 0.  0.
    9900012    2    3    3    0    0 -0.15207847115E+02  0.37569901192E+02 -0.15519229766E+02  0.47787279016E+02  0.20000036344E+02 0.  0.
         12    1    3    3    0    0  0.15207847115E+02 -0.37569901192E+02  0.15519229766E+02  0.43400720984E+02  0.00000000000E+00 0. -1.
         11    1    4    4    0    0  0.32387012204E+01  0.58573254399E+01 -0.71095294494E+01  0.97643666542E+01  0.51100000000E-03 0. -1.
        -11    1    4    4    0    0 -0.72597017301E+01  0.13494963399E+02 -0.62012163577E+01  0.16530952512E+02  0.51100000000E-03 0.  1.
         12    1    4    4    0    0 -0.11186846605E+02  0.18217612352E+02 -0.22084839592E+01  0.21491959850E+02  0.00000000000E+00 0. -1.
</event>
<event>
 8    1  0.5250708E-010  0.9118800E+02  0.7816164E-02  0.1184000E+00
        -11   -1    0    0    0    0  0.00000000000E+00  0.00000000000E+00  0.45593999997E+02  0.45594000000E+02  0.51100000000E-03 0.  1.
         11   -1    0    0    0    0 -0.00000000000E+00 -0.00000000000E+00 -0.45593999997E+02  0.45594000000E+02  0.51100000000E-03 0. -1.
         23    2    1    2    0    0  0.00000000000E+00 -0.71054273576E-14  0.00000000000E+00  0.91188000000E+02  0.91188000000E+02 0.  0.
    9900012    2    3    3    0    0 -0.11001774092E+02  0.41978615230E+02  0.61710873426E+00  0.47787262760E+02  0.19999962229E+02 0.  0.
        -12    1    3    3    0    0  0.11001774092E+02 -0.41978615230E+02 -0.61710873426E+00  0.43400737240E+02  0.00000000000E+00 0.  1.
         11    1    4    4    0    0 -0.55430051047E+01  0.40579168150E+02  0.29148642059E+01  0.41059593604E+02  0.51100000000E-03 0. -1.
        -11    1    4    4    0    0 -0.64447810417E+00  0.25505112153E+00 -0.15827264287E+01  0.17278386240E+01  0.51100000000E-03 0.  1.
         12    1    4    4    0    0 -0.48142908832E+01  0.11443959582E+01 -0.71502904298E+00  0.49998305321E+01  0.00000000000E+00 0. -1.
</event>
<event>
 8    1  0.5250708E-010  0.9118800E+02  0.7816164E-02  0.1184000E+00
        -11   -1    0    0    0    0  0.00000000000E+00  0.00000000000E+00  0.45593999997E+02  0.45594000000E+02  0.51100000000E-03 0.  1.
         11   -1    0    0    0    0 -0.00000000000E+00 -0.00000000000E+00 -0.45593999997E+02  0.45594000000E+02  0.51100000000E-03 0. -1.
         23    2    1    2    0    0  0.00000000000E+00  0.71054273576E-14  0.17763568394E-14  0.91188000000E+02  0.91188000000E+02 0.  0.
    9900012    2    3    3    0    0  0.76747067307E+01 -0.40706944975E+02  0.12948603073E+02  0.47787276341E+02  0.20000024148E+02 0.  0.
         12    1    3    3    0    0 -0.76747067307E+01  0.40706944975E+02 -0.12948603073E+02  0.43400723659E+02  0.00000000000E+00 0. -1.
         11    1    4    4    0    0 -0.28301071477E+01 -0.18688623908E+02  0.24023136335E+01  0.19053747167E+02  0.51100000000E-03 0. -1.
        -11    1    4    4    0    0  0.54039776346E+01 -0.20388828668E+02  0.10023358805E+02  0.23353265954E+02  0.51100000000E-03 0.  1.
         12    1    4    4    0    0  0.51008362438E+01 -0.16294923988E+01  0.52293063458E+00  0.53802632196E+01  0.00000000000E+00 0. -1.
</event>
<event>
 8    1  0.5250708E-010  0.9118800E+02  0.7816164E-02  0.1184000E+00
        -11   -1    0    0    0    0  0.00000000000E+00  0.00000000000E+00  0.45593999997E+02  0.45594000000E+02  0.51100000000E-03 0. -1.
         11   -1    0    0    0    0 -0.00000000000E+00 -0.00000000000E+00 -0.45593999997E+02  0.45594000000E+02  0.51100000000E-03 0.  1.
         23    2    1    2    0    0  0.00000000000E+00  0.00000000000E+00  0.00000000000E+00  0.91188000000E+02  0.91188000000E+02 0.  0.
    9900012    2    3    3    0    0  0.19608461870E+02  0.16040232925E+02 -0.35239786978E+02  0.47787269183E+02  0.19999991513E+02 0.  0.
         12    1    3    3    0    0 -0.19608461870E+02 -0.16040232925E+02  0.35239786978E+02  0.43400730817E+02  0.00000000000E+00 0. -1.
         11    1    4    4    0    0  0.29831698110E+01  0.17657293555E+01 -0.20124162611E+01  0.40083564895E+01  0.51100000000E-03 0. -1.
        -11    1    4    4    0    0  0.65542587533E+01  0.13638883180E+02 -0.29249879050E+02  0.32932246611E+02  0.51100000000E-03 0.  1.
        -12    1    4    4    0    0  0.10071033306E+02  0.63562038993E+00 -0.39774916669E+01  0.10846666082E+02  0.00000000000E+00 0.  1.
</event>
<event>
 8    1  0.5250708E-010  0.9118800E+02  0.7816164E-02  0.1184000E+00
        -11   -1    0    0    0    0  0.00000000000E+00  0.00000000000E+00  0.45593999997E+02  0.45594000000E+02  0.51100000000E-03 0.  1.
         11   -1    0    0    0    0 -0.00000000000E+00 -0.00000000000E+00 -0.45593999997E+02  0.45594000000E+02  0.51100000000E-03 0. -1.
         23    2    1    2    0    0  0.00000000000E+00  0.00000000000E+00  0.17763568394E-14  0.91188000000E+02  0.91188000000E+02 0.  0.
    9900012    2    3    3    0    0 -0.92943309393E+01  0.40543116175E+02 -0.12389284022E+02  0.47787271719E+02  0.20000003075E+02 0.  0.
        -12    1    3    3    0    0  0.92943309393E+01 -0.40543116175E+02  0.12389284022E+02  0.43400728281E+02  0.00000000000E+00 0.  1.
         11    1    4    4    0    0 -0.55795736448E+01  0.25279646911E+02 -0.34745004526E+01  0.26120190345E+02  0.51100000000E-03 0. -1.
        -11    1    4    4    0    0  0.42836353989E+00  0.13937633514E+02 -0.10029430300E+02  0.17176454690E+02  0.51100000000E-03 0.  1.
        -12    1    4    4    0    0 -0.41431208344E+01  0.13258357496E+01  0.11146467313E+01  0.44906266844E+01  0.00000000000E+00 0.  1.
</event>
<event>
 8    1  0.5250708E-010  0.9118800E+02  0.7816164E-02  0.1184000E+00
        -11   -1    0    0    0    0  0.00000000000E+00  0.00000000000E+00  0.45593999997E+02  0.45594000000E+02  0.51100000000E-03 0. -1.
         11   -1    0    0    0    0 -0.00000000000E+00 -0.00000000000E+00 -0.45593999997E+02  0.45594000000E+02  0.51100000000E-03 0.  1.
         23    2    1    2    0    0  0.00000000000E+00  0.00000000000E+00  0.00000000000E+00  0.91188000000E+02  0.91188000000E+02 0.  0.
    9900012    2    3    3    0    0 -0.54718353270E+01  0.26114375637E+02 -0.34230418533E+02  0.47787272475E+02  0.20000006522E+02 0.  0.
         12    1    3    3    0    0  0.54718353270E+01 -0.26114375637E+02  0.34230418533E+02  0.43400727525E+02  0.00000000000E+00 0. -1.
         11    1    4    4    0    0 -0.38796095411E+01  0.92739865297E+01 -0.81779078950E+01  0.12959026744E+02  0.51100000000E-03 0. -1.
        -11    1    4    4    0    0 -0.66235422934E+00  0.24453383017E+01 -0.18256211403E+02  0.18431159692E+02  0.51100000000E-03 0.  1.
         12    1    4    4    0    0 -0.92987155652E+00  0.14395050806E+02 -0.77962992350E+01  0.16397086039E+02  0.00000000000E+00 0. -1.
</event>
<event>
 8    1  0.5250708E-010  0.9118800E+02  0.7816164E-02  0.1184000E+00
        -11   -1    0    0    0    0  0.00000000000E+00  0.00000000000E+00  0.45593999997E+02  0.45594000000E+02  0.51100000000E-03 0. -1.
         11   -1    0    0    0    0 -0.00000000000E+00 -0.00000000000E+00 -0.45593999997E+02  0.45594000000E+02  0.51100000000E-03 0.  1.
         23    2    1    2    0    0  0.00000000000E+00 -0.88817841970E-15  0.00000000000E+00  0.91188000000E+02  0.91188000000E+02 0.  0.
    9900012    2    3    3    0    0 -0.18640179282E+02 -0.67198325497E+01  0.38613612724E+02  0.47787268200E+02  0.19999987032E+02 0.  0.
        -12    1    3    3    0    0  0.18640179282E+02  0.67198325497E+01 -0.38613612724E+02  0.43400731800E+02  0.00000000000E+00 0.  1.
         11    1    4    4    0    0 -0.87511316693E+01 -0.45979609313E+01  0.54363928442E+01  0.11281751532E+02  0.51100000000E-03 0.  1.
        -11    1    4    4    0    0 -0.90462326705E+01  0.33158942248E+01  0.19138799318E+02  0.21427158459E+02  0.51100000000E-03 0. -1.
         12    1    4    4    0    0 -0.84281494194E+00 -0.54377658432E+01  0.14038420562E+02  0.15078358208E+02  0.00000000000E+00 0. -1.
</event>
<event>
 8    1  0.5250708E-010  0.9118800E+02  0.7816164E-02  0.1184000E+00
        -11   -1    0    0    0    0  0.00000000000E+00  0.00000000000E+00  0.45593999997E+02  0.45594000000E+02  0.51100000000E-03 0. -1.
         11   -1    0    0    0    0 -0.00000000000E+00 -0.00000000000E+00 -0.45593999997E+02  0.45594000000E+02  0.51100000000E-03 0.  1.
         23    2    1    2    0    0  0.00000000000E+00  0.00000000000E+00  0.00000000000E+00  0.91188000000E+02  0.91188000000E+02 0.  0.
    9900012    2    3    3    0    0  0.41046682871E+01  0.10150261887E+02  0.41996977865E+02  0.47787282634E+02  0.20000052840E+02 0.  0.
        -12    1    3    3    0    0 -0.41046682871E+01 -0.10150261887E+02 -0.41996977865E+02  0.43400717366E+02  0.00000000000E+00 0.  1.
         11    1    4    4    0    0 -0.12815332765E+00  0.11985854695E+02  0.11315250833E+02  0.16483690052E+02  0.51100000000E-03 0. -1.
        -11    1    4    4    0    0  0.15831411998E+01  0.12800074203E+01  0.12736647846E+02  0.12898331430E+02  0.51100000000E-03 0.  1.
        -12    1    4    4    0    0  0.26496804150E+01 -0.31156002288E+01  0.17945079185E+02  0.18405261152E+02  0.00000000000E+00 0.  1.
</event>
<event>
 8    1  0.5250708E-010  0.9118800E+02  0.7816164E-02  0.1184000E+00
        -11   -1    0    0    0    0  0.00000000000E+00  0.00000000000E+00  0.45593999997E+02  0.45594000000E+02  0.51100000000E-03 0. -1.
         11   -1    0    0    0    0 -0.00000000000E+00 -0.00000000000E+00 -0.45593999997E+02  0.45594000000E+02  0.51100000000E-03 0.  1.
         23    2    1    2    0    0  0.44408920985E-15  0.00000000000E+00  0.00000000000E+00  0.91188000000E+02  0.91188000000E+02 0.  0.
    9900012    2    3    3    0    0  0.33124158673E+01 -0.38542076079E+02  0.19676370460E+02  0.47787270953E+02  0.19999999584E+02 0.  0.
        -12    1    3    3    0    0 -0.33124158673E+01  0.38542076079E+02 -0.19676370460E+02  0.43400729047E+02  0.00000000000E+00 0.  1.
         11    1    4    4    0    0  0.11355331226E+01 -0.66520287949E+01  0.21155719791E+01  0.70720978232E+01  0.51100000000E-03 0. -1.
        -11    1    4    4    0    0 -0.68592558144E+01 -0.22241832212E+02  0.89386792876E+01  0.24932879460E+02  0.51100000000E-03 0.  1.
        -12    1    4    4    0    0  0.90361385592E+01 -0.96482150717E+01  0.86221191928E+01  0.15782293671E+02  0.00000000000E+00 0.  1.
</event>
<event>
 8    1  0.5250708E-010  0.9118800E+02  0.7816164E-02  0.1184000E+00
        -11   -1    0    0    0    0  0.00000000000E+00  0.00000000000E+00  0.45593999997E+02  0.45594000000E+02  0.51100000000E-03 0. -1.
         11   -1    0    0    0    0 -0.00000000000E+00 -0.00000000000E+00 -0.45593999997E+02  0.45594000000E+02  0.51100000000E-03 0.  1.
         23    2    1    2    0    0  0.00000000000E+00  0.00000000000E+00  0.00000000000E+00  0.91188000000E+02  0.91188000000E+02 0.  0.
    9900012    2    3    3    0    0  0.17533368745E+02  0.10188669856E+02  0.38371801601E+02  0.47787272229E+02  0.20000005399E+02 0.  0.
        -12    1    3    3    0    0 -0.17533368745E+02 -0.10188669856E+02 -0.38371801601E+02  0.43400727771E+02  0.00000000000E+00 0.  1.
         11    1    4    4    0    0  0.17615529018E+01 -0.26044463705E+01  0.21843242631E+01  0.38285091446E+01  0.51100000000E-03 0. -1.
        -11    1    4    4    0    0  0.89739726269E+01 -0.14878330068E+01  0.14486074866E+02  0.17105326570E+02  0.51100000000E-03 0.  1.
         12    1    4    4    0    0  0.67978432165E+01  0.14280949233E+02  0.21701402472E+02  0.26853436514E+02  0.00000000000E+00 0. -1.
</event>
<event>
 8    1  0.5250708E-010  0.9118800E+02  0.7816164E-02  0.1184000E+00
        -11   -1    0    0    0    0  0.00000000000E+00  0.00000000000E+00  0.45593999997E+02  0.45594000000E+02  0.51100000000E-03 0. -1.
         11   -1    0    0    0    0 -0.00000000000E+00 -0.00000000000E+00 -0.45593999997E+02  0.45594000000E+02  0.51100000000E-03 0.  1.
         23    2    1    2    0    0  0.44408920985E-15  0.00000000000E+00  0.35527136788E-14  0.91188000000E+02  0.91188000000E+02 0.  0.
    9900012    2    3    3    0    0  0.20999638370E+01  0.33869063628E+02  0.27057348897E+02  0.47787269033E+02  0.19999990828E+02 0.  0.
        -12    1    3    3    0    0 -0.20999638370E+01 -0.33869063628E+02 -0.27057348897E+02  0.43400730967E+02  0.00000000000E+00 0.  1.
         11    1    4    4    0    0 -0.50622693541E+01  0.29081215513E+02  0.18957123163E+02  0.35081564754E+02  0.51100000000E-03 0. -1.
        -11    1    4    4    0    0  0.35754626316E+01  0.45410658254E+01  0.66973318798E+01  0.88464380645E+01  0.51100000000E-03 0.  1.
        -12    1    4    4    0    0  0.35867705595E+01  0.24678228932E+00  0.14028938551E+01  0.38592662144E+01  0.00000000000E+00 0.  1.
</event>
<event>
 8    1  0.5250708E-010  0.9118800E+02  0.7816164E-02  0.1184000E+00
        -11   -1    0    0    0    0  0.00000000000E+00  0.00000000000E+00  0.45593999997E+02  0.45594000000E+02  0.51100000000E-03 0. -1.
         11   -1    0    0    0    0 -0.00000000000E+00 -0.00000000000E+00 -0.45593999997E+02  0.45594000000E+02  0.51100000000E-03 0.  1.
         23    2    1    2    0    0 -0.88817841970E-15 -0.44408920985E-15  0.00000000000E+00  0.91188000000E+02  0.91188000000E+02 0.  0.
    9900012    2    3    3    0    0  0.33718880386E+01  0.19359299887E+01  0.43226220076E+02  0.47787267795E+02  0.19999985187E+02 0.  0.
        -12    1    3    3    0    0 -0.33718880386E+01 -0.19359299887E+01 -0.43226220076E+02  0.43400732205E+02  0.00000000000E+00 0.  1.
         11    1    4    4    0    0  0.66231456931E+01 -0.89871081137E+00  0.11692234319E+02  0.13467816587E+02  0.51100000000E-03 0. -1.
        -11    1    4    4    0    0 -0.92614534494E+00  0.67184704130E+01  0.86482799138E+01  0.10990374681E+02  0.51100000000E-03 0.  1.
        -12    1    4    4    0    0 -0.23251123096E+01 -0.38838296129E+01  0.22885705843E+02  0.23329076528E+02  0.00000000000E+00 0.  1.
</event>
<event>
 8    1  0.5250708E-010  0.9118800E+02  0.7816164E-02  0.1184000E+00
        -11   -1    0    0    0    0  0.00000000000E+00  0.00000000000E+00  0.45593999997E+02  0.45594000000E+02  0.51100000000E-03 0. -1.
         11   -1    0    0    0    0 -0.00000000000E+00 -0.00000000000E+00 -0.45593999997E+02  0.45594000000E+02  0.51100000000E-03 0.  1.
         23    2    1    2    0    0  0.44408920985E-15  0.00000000000E+00  0.00000000000E+00  0.91188000000E+02  0.91188000000E+02 0.  0.
    9900012    2    3    3    0    0  0.15110563565E+01 -0.15190584024E+02  0.40627407273E+02  0.47787270097E+02  0.19999995682E+02 0.  0.
        -12    1    3    3    0    0 -0.15110563565E+01  0.15190584024E+02 -0.40627407273E+02  0.43400729903E+02  0.00000000000E+00 0.  1.
         11    1    4    4    0    0 -0.74923297339E+01 -0.11399467961E+01  0.12321564232E+02  0.14465663791E+02  0.51100000000E-03 0. -1.
        -11    1    4    4    0    0  0.55225793951E+01 -0.38311235993E+01  0.12267583931E+02  0.13988209570E+02  0.51100000000E-03 0.  1.
         12    1    4    4    0    0  0.34808066953E+01 -0.10219513629E+02  0.16038259111E+02  0.19333396736E+02  0.00000000000E+00 0. -1.
</event>
<event>
 8    1  0.5250708E-010  0.9118800E+02  0.7816164E-02  0.1184000E+00
        -11   -1    0    0    0    0  0.00000000000E+00  0.00000000000E+00  0.45593999997E+02  0.45594000000E+02  0.51100000000E-03 0. -1.
         11   -1    0    0    0    0 -0.00000000000E+00 -0.00000000000E+00 -0.45593999997E+02  0.45594000000E+02  0.51100000000E-03 0.  1.
         23    2    1    2    0    0 -0.88817841970E-15  0.00000000000E+00  0.00000000000E+00  0.91188000000E+02  0.91188000000E+02 0.  0.
    9900012    2    3    3    0    0 -0.73033641899E+01  0.20284284080E+02  0.37667360015E+02  0.47787293558E+02  0.20000102648E+02 0.  0.
        -12    1    3    3    0    0  0.73033641899E+01 -0.20284284080E+02 -0.37667360015E+02  0.43400706442E+02  0.00000000000E+00 0.  1.
         11    1    4    4    0    0 -0.11383543104E+01 -0.21755637334E+01 -0.35183940969E+00  0.24804675619E+01  0.51100000000E-03 0. -1.
        -11    1    4    4    0    0 -0.17702505392E+01  0.10145545405E+02  0.98492323859E+01  0.14250377448E+02  0.51100000000E-03 0.  1.
         12    1    4    4    0    0 -0.43947593402E+01  0.12314302408E+02  0.28169967039E+02  0.31056448548E+02  0.00000000000E+00 0. -1.
</event>
<event>
 8    1  0.5250708E-010  0.9118800E+02  0.7816164E-02  0.1184000E+00
        -11   -1    0    0    0    0  0.00000000000E+00  0.00000000000E+00  0.45593999997E+02  0.45594000000E+02  0.51100000000E-03 0. -1.
         11   -1    0    0    0    0 -0.00000000000E+00 -0.00000000000E+00 -0.45593999997E+02  0.45594000000E+02  0.51100000000E-03 0.  1.
         23    2    1    2    0    0  0.00000000000E+00 -0.71054273576E-14 -0.35527136788E-14  0.91188000000E+02  0.91188000000E+02 0.  0.
    9900012    2    3    3    0    0 -0.17288450256E+02 -0.34431943085E+02 -0.19979299598E+02  0.47787289991E+02  0.20000086384E+02 0.  0.
         12    1    3    3    0    0  0.17288450256E+02  0.34431943085E+02  0.19979299598E+02  0.43400710009E+02  0.00000000000E+00 0. -1.
         11    1    4    4    0    0  0.77479976426E+00  0.14148513835E+01 -0.78707467226E+00  0.17948832588E+01  0.51100000000E-03 0. -1.
        -11    1    4    4    0    0 -0.11422595181E+02 -0.14643317276E+02 -0.37828296451E+01  0.18952894815E+02  0.51100000000E-03 0.  1.
         12    1    4    4    0    0 -0.66406548397E+01 -0.21203477193E+02 -0.15409395281E+02  0.27039511916E+02  0.00000000000E+00 0. -1.
</event>
<event>
 8    1  0.5250708E-010  0.9118800E+02  0.7816164E-02  0.1184000E+00
        -11   -1    0    0    0    0  0.00000000000E+00  0.00000000000E+00  0.45593999997E+02  0.45594000000E+02  0.51100000000E-03 0. -1.
         11   -1    0    0    0    0 -0.00000000000E+00 -0.00000000000E+00 -0.45593999997E+02  0.45594000000E+02  0.51100000000E-03 0.  1.
         23    2    1    2    0    0  0.00000000000E+00  0.35527136788E-14  0.00000000000E+00  0.91188000000E+02  0.91188000000E+02 0.  0.
    9900012    2    3    3    0    0 -0.61003693862E+01  0.22844102783E+02  0.36394465264E+02  0.47787255301E+02  0.19999928218E+02 0.  0.
        -12    1    3    3    0    0  0.61003693862E+01 -0.22844102783E+02 -0.36394465264E+02  0.43400744699E+02  0.00000000000E+00 0.  1.
         11    1    4    4    0    0  0.27261504211E+01  0.12477237507E+02  0.77467536880E+01  0.14937387485E+02  0.51100000000E-03 0. -1.
        -11    1    4    4    0    0 -0.82798177159E+01  0.93590377807E+01  0.16752872626E+02  0.20899897394E+02  0.51100000000E-03 0.  1.
        -12    1    4    4    0    0 -0.54670209139E+00  0.10078274954E+01  0.11894838950E+02  0.11949970422E+02  0.00000000000E+00 0.  1.
</event>
<event>
 8    1  0.5250708E-010  0.9118800E+02  0.7816164E-02  0.1184000E+00
        -11   -1    0    0    0    0  0.00000000000E+00  0.00000000000E+00  0.45593999997E+02  0.45594000000E+02  0.51100000000E-03 0.  1.
         11   -1    0    0    0    0 -0.00000000000E+00 -0.00000000000E+00 -0.45593999997E+02  0.45594000000E+02  0.51100000000E-03 0. -1.
         23    2    1    2    0    0 -0.35527136788E-14  0.35527136788E-14 -0.35527136788E-14  0.91188000000E+02  0.91188000000E+02 0.  0.
    9900012    2    3    3    0    0  0.29889116436E+02 -0.29003001108E+02  0.12210318369E+02  0.47787248518E+02  0.19999897291E+02 0.  0.
        -12    1    3    3    0    0 -0.29889116436E+02  0.29003001108E+02 -0.12210318369E+02  0.43400751482E+02  0.00000000000E+00 0.  1.
         11    1    4    4    0    0 -0.19662484666E-01 -0.31876490932E+01  0.45461754188E+00  0.32199643981E+01  0.51100000000E-03 0. -1.
        -11    1    4    4    0    0  0.67694431725E+01 -0.98891294872E-01 -0.24082011187E+01  0.71857200922E+01  0.51100000000E-03 0.  1.
         12    1    4    4    0    0  0.23139335748E+02 -0.25716460720E+02  0.14163901946E+02  0.37381564027E+02  0.00000000000E+00 0. -1.
</event>
<event>
 8    1  0.5250708E-010  0.9118800E+02  0.7816164E-02  0.1184000E+00
        -11   -1    0    0    0    0  0.00000000000E+00  0.00000000000E+00  0.45593999997E+02  0.45594000000E+02  0.51100000000E-03 0. -1.
         11   -1    0    0    0    0 -0.00000000000E+00 -0.00000000000E+00 -0.45593999997E+02  0.45594000000E+02  0.51100000000E-03 0.  1.
         23    2    1    2    0    0  0.00000000000E+00  0.17763568394E-14  0.00000000000E+00  0.91188000000E+02  0.91188000000E+02 0.  0.
    9900012    2    3    3    0    0  0.39830460222E+01 -0.68252123825E+01  0.42675227633E+02  0.47787271513E+02  0.20000002138E+02 0.  0.
        -12    1    3    3    0    0 -0.39830460222E+01  0.68252123825E+01 -0.42675227633E+02  0.43400728487E+02  0.00000000000E+00 0.  1.
         11    1    4    4    0    0  0.36668247767E+01 -0.80984381128E+01  0.30438270474E+02  0.31709913489E+02  0.51100000000E-03 0. -1.
        -11    1    4    4    0    0 -0.31930684012E+01 -0.28127955803E+01  0.24606693056E+01  0.49155262672E+01  0.51100000000E-03 0.  1.
        -12    1    4    4    0    0  0.35092896467E+01  0.40860213107E+01  0.97762878534E+01  0.11161831757E+02  0.00000000000E+00 0.  1.
</event>
<event>
 8    1  0.5250708E-010  0.9118800E+02  0.7816164E-02  0.1184000E+00
        -11   -1    0    0    0    0  0.00000000000E+00  0.00000000000E+00  0.45593999997E+02  0.45594000000E+02  0.51100000000E-03 0. -1.
         11   -1    0    0    0    0 -0.00000000000E+00 -0.00000000000E+00 -0.45593999997E+02  0.45594000000E+02  0.51100000000E-03 0.  1.
         23    2    1    2    0    0  0.00000000000E+00  0.00000000000E+00  0.00000000000E+00  0.91188000000E+02  0.91188000000E+02 0.  0.
    9900012    2    3    3    0    0 -0.19496999552E+02  0.14829224421E+02 -0.35827137844E+02  0.47787277718E+02  0.20000030429E+02 0.  0.
         12    1    3    3    0    0  0.19496999552E+02 -0.14829224421E+02  0.35827137844E+02  0.43400722282E+02  0.00000000000E+00 0. -1.
         11    1    4    4    0    0 -0.28014618821E-01  0.28271557072E+01 -0.85673574529E+01  0.90218184530E+01  0.51100000000E-03 0. -1.
        -11    1    4    4    0    0 -0.21799749776E+02  0.12433233248E+02 -0.25741895915E+02  0.35950793940E+02  0.51100000000E-03 0.  1.
         12    1    4    4    0    0  0.23307648436E+01 -0.43116453506E+00 -0.15178844764E+01  0.28146653257E+01  0.00000000000E+00 0. -1.
</event>
<event>
 8    1  0.5250708E-010  0.9118800E+02  0.7816164E-02  0.1184000E+00
        -11   -1    0    0    0    0  0.00000000000E+00  0.00000000000E+00  0.45593999997E+02  0.45594000000E+02  0.51100000000E-03 0. -1.
         11   -1    0    0    0    0 -0.00000000000E+00 -0.00000000000E+00 -0.45593999997E+02  0.45594000000E+02  0.51100000000E-03 0.  1.
         23    2    1    2    0    0  0.00000000000E+00  0.00000000000E+00  0.00000000000E+00  0.91188000000E+02  0.91188000000E+02 0.  0.
    9900012    2    3    3    0    0  0.13904727197E+02 -0.26469478791E+02  0.31458681987E+02  0.47787269381E+02  0.19999992416E+02 0.  0.
        -12    1    3    3    0    0 -0.13904727197E+02  0.26469478791E+02 -0.31458681987E+02  0.43400730619E+02  0.00000000000E+00 0.  1.
         11    1    4    4    0    0  0.20877490538E+01 -0.10459118933E+02  0.18352030833E+02  0.21226137211E+02  0.51100000000E-03 0. -1.
        -11    1    4    4    0    0 -0.15219708198E+01 -0.24349915049E+01 -0.81024999428E+00  0.29836360569E+01  0.51100000000E-03 0.  1.
         12    1    4    4    0    0  0.13338948963E+02 -0.13575368354E+02  0.13916901148E+02  0.23577496113E+02  0.00000000000E+00 0. -1.
</event>
<event>
 8    1  0.5250708E-010  0.9118800E+02  0.7816164E-02  0.1184000E+00
        -11   -1    0    0    0    0  0.00000000000E+00  0.00000000000E+00  0.45593999997E+02  0.45594000000E+02  0.51100000000E-03 0. -1.
         11   -1    0    0    0    0 -0.00000000000E+00 -0.00000000000E+00 -0.45593999997E+02  0.45594000000E+02  0.51100000000E-03 0.  1.
         23    2    1    2    0    0  0.17763568394E-14  0.00000000000E+00  0.35527136788E-14  0.91188000000E+02  0.91188000000E+02 0.  0.
    9900012    2    3    3    0    0  0.11408859957E+02  0.35639021902E+02  0.21984575356E+02  0.47787268194E+02  0.19999987005E+02 0.  0.
        -12    1    3    3    0    0 -0.11408859957E+02 -0.35639021902E+02 -0.21984575356E+02  0.43400731806E+02  0.00000000000E+00 0.  1.
         11    1    4    4    0    0  0.95408089097E+01  0.24396838357E+02  0.15674685625E+02  0.30527504421E+02  0.51100000000E-03 0. -1.
        -11    1    4    4    0    0 -0.81003436749E-01  0.10065369188E+02  0.91615226657E+01  0.13610720637E+02  0.51100000000E-03 0.  1.
        -12    1    4    4    0    0  0.19490544840E+01  0.11768143569E+01 -0.28516329345E+01  0.36490431356E+01  0.00000000000E+00 0.  1.
</event>
<event>
 8    1  0.5250708E-010  0.9118800E+02  0.7816164E-02  0.1184000E+00
        -11   -1    0    0    0    0  0.00000000000E+00  0.00000000000E+00  0.45593999997E+02  0.45594000000E+02  0.51100000000E-03 0. -1.
         11   -1    0    0    0    0 -0.00000000000E+00 -0.00000000000E+00 -0.45593999997E+02  0.45594000000E+02  0.51100000000E-03 0.  1.
         23    2    1    2    0    0  0.88817841970E-15  0.00000000000E+00  0.00000000000E+00  0.91188000000E+02  0.91188000000E+02 0.  0.
    9900012    2    3    3    0    0  0.76366559785E+01 -0.38236723418E+02 -0.19059322403E+02  0.47787270712E+02  0.19999998482E+02 0.  0.
         12    1    3    3    0    0 -0.76366559785E+01  0.38236723418E+02  0.19059322403E+02  0.43400729288E+02  0.00000000000E+00 0. -1.
         11    1    4    4    0    0 -0.16297162363E+01  0.80549870392E-01  0.85225250197E+00  0.18408687842E+01  0.51100000000E-03 0. -1.
        -11    1    4    4    0    0  0.87003965561E+01 -0.30583680997E+02 -0.99398761536E+01  0.33314555104E+02  0.51100000000E-03 0.  1.
         12    1    4    4    0    0  0.56597565873E+00 -0.77335922914E+01 -0.99716987515E+01  0.12631846823E+02  0.00000000000E+00 0. -1.
</event>
<event>
 8    1  0.5250708E-010  0.9118800E+02  0.7816164E-02  0.1184000E+00
        -11   -1    0    0    0    0  0.00000000000E+00  0.00000000000E+00  0.45593999997E+02  0.45594000000E+02  0.51100000000E-03 0.  1.
         11   -1    0    0    0    0 -0.00000000000E+00 -0.00000000000E+00 -0.45593999997E+02  0.45594000000E+02  0.51100000000E-03 0. -1.
         23    2    1    2    0    0  0.00000000000E+00  0.00000000000E+00  0.00000000000E+00  0.91188000000E+02  0.91188000000E+02 0.  0.
    9900012    2    3    3    0    0 -0.21623672021E+02 -0.36686880802E+02 -0.83733317426E+01  0.47787273058E+02  0.20000009182E+02 0.  0.
        -12    1    3    3    0    0  0.21623672021E+02  0.36686880802E+02  0.83733317426E+01  0.43400726942E+02  0.00000000000E+00 0.  1.
         11    1    4    4    0    0 -0.55427540837E+00 -0.11655461977E+02  0.18625835315E+01  0.11816354463E+02  0.51100000000E-03 0. -1.
        -11    1    4    4    0    0 -0.44782868517E+00 -0.66654422529E+01 -0.35218790905E+01  0.75519734869E+01  0.51100000000E-03 0.  1.
         12    1    4    4    0    0 -0.20621567927E+02 -0.18365976572E+02 -0.67140361836E+01  0.28418945109E+02  0.00000000000E+00 0. -1.
</event>
<event>
 8    1  0.5250708E-010  0.9118800E+02  0.7816164E-02  0.1184000E+00
        -11   -1    0    0    0    0  0.00000000000E+00  0.00000000000E+00  0.45593999997E+02  0.45594000000E+02  0.51100000000E-03 0. -1.
         11   -1    0    0    0    0 -0.00000000000E+00 -0.00000000000E+00 -0.45593999997E+02  0.45594000000E+02  0.51100000000E-03 0.  1.
         23    2    1    2    0    0  0.00000000000E+00 -0.71054273576E-14  0.00000000000E+00  0.91188000000E+02  0.91188000000E+02 0.  0.
    9900012    2    3    3    0    0 -0.15347199072E+02  0.39898842685E+02 -0.74945463522E+01  0.47787281205E+02  0.20000046324E+02 0.  0.
        -12    1    3    3    0    0  0.15347199072E+02 -0.39898842685E+02  0.74945463522E+01  0.43400718795E+02  0.00000000000E+00 0.  1.
         11    1    4    4    0    0 -0.10659366504E+02  0.23571106044E+02  0.47549916169E+01  0.26302643972E+02  0.51100000000E-03 0. -1.
        -11    1    4    4    0    0 -0.19183282727E+00  0.30354408888E+01 -0.45670789323E+01  0.54871587782E+01  0.51100000000E-03 0.  1.
         12    1    4    4    0    0 -0.44959997404E+01  0.13292295752E+02 -0.76824590369E+01  0.15997478454E+02  0.00000000000E+00 0. -1.
</event>
<event>
 8    1  0.7500040E-010  0.9118800E+02  0.7816164E-02  0.1184000E+00
        -11   -1    0    0    0    0  0.00000000000E+00  0.00000000000E+00  0.45593999997E+02  0.45594000000E+02  0.51100000000E-03 0. -1.
         11   -1    0    0    0    0 -0.00000000000E+00 -0.00000000000E+00 -0.45593999997E+02  0.45594000000E+02  0.51100000000E-03 0.  1.
         23    2    1    2    0    0 -0.66613381478E-15 -0.66613381478E-15  0.00000000000E+00  0.91188000000E+02  0.91188000000E+02 0.  0.
    9900012    2    3    3    0    0  0.86618315579E+00  0.17727022762E+01  0.43355859849E+02  0.47787270399E+02  0.19999997057E+02 0.  0.
        -12    1    3    3    0    0 -0.86618315579E+00 -0.17727022762E+01 -0.43355859849E+02  0.43400729601E+02  0.00000000000E+00 0.  1.
         11    1    4    4    0    0 -0.38528998334E+01  0.16658848135E+01  0.47338649064E+01  0.63268860075E+01  0.51100000000E-03 0. -1.
        -11    1    4    4    0    0  0.70515234546E+01  0.34920064839E+01  0.10946554241E+02  0.13481288600E+02  0.51100000000E-03 0.  1.
         12    1    4    4    0    0 -0.23324404654E+01 -0.33851890212E+01  0.27675440702E+02  0.27979095791E+02  0.00000000000E+00 0. -1.
</event>
<event>
 8    1  0.5250708E-010  0.9118800E+02  0.7816164E-02  0.1184000E+00
        -11   -1    0    0    0    0  0.00000000000E+00  0.00000000000E+00  0.45593999997E+02  0.45594000000E+02  0.51100000000E-03 0.  1.
         11   -1    0    0    0    0 -0.00000000000E+00 -0.00000000000E+00 -0.45593999997E+02  0.45594000000E+02  0.51100000000E-03 0. -1.
         23    2    1    2    0    0  0.00000000000E+00 -0.17763568394E-14  0.00000000000E+00  0.91188000000E+02  0.91188000000E+02 0.  0.
    9900012    2    3    3    0    0 -0.43074267651E+02  0.21077716448E+01 -0.48773142535E+01  0.47787269254E+02  0.19999991838E+02 0.  0.
        -12    1    3    3    0    0  0.43074267651E+02 -0.21077716448E+01  0.48773142535E+01  0.43400730746E+02  0.00000000000E+00 0.  1.
         11    1    4    4    0    0 -0.14186298506E+02  0.50966040114E+01  0.27383912409E+01  0.15320744910E+02  0.51100000000E-03 0. -1.
        -11    1    4    4    0    0 -0.52120301220E+01  0.43107352570E+01 -0.11464677069E+01  0.68601811137E+01  0.51100000000E-03 0.  1.
         12    1    4    4    0    0 -0.23675939022E+02 -0.72995676235E+01 -0.64692377876E+01  0.25606343230E+02  0.00000000000E+00 0. -1.
</event>
<event>
 8    1  0.5250708E-010  0.9118800E+02  0.7816164E-02  0.1184000E+00
        -11   -1    0    0    0    0  0.00000000000E+00  0.00000000000E+00  0.45593999997E+02  0.45594000000E+02  0.51100000000E-03 0.  1.
         11   -1    0    0    0    0 -0.00000000000E+00 -0.00000000000E+00 -0.45593999997E+02  0.45594000000E+02  0.51100000000E-03 0. -1.
         23    2    1    2    0    0  0.71054273576E-14  0.17763568394E-14 -0.17763568394E-14  0.91188000000E+02  0.91188000000E+02 0.  0.
    9900012    2    3    3    0    0 -0.40801999849E+02  0.13322220743E+02 -0.64294866023E+01  0.47787273564E+02  0.20000011489E+02 0.  0.
        -12    1    3    3    0    0  0.40801999849E+02 -0.13322220743E+02  0.64294866023E+01  0.43400726436E+02  0.00000000000E+00 0.  1.
         11    1    4    4    0    0 -0.21392260737E+02  0.10063157712E+02 -0.11002441480E+02  0.26075844787E+02  0.51100000000E-03 0. -1.
        -11    1    4    4    0    0 -0.15447425018E+02 -0.32469107904E+00  0.14395181677E+01  0.15517750378E+02  0.51100000000E-03 0.  1.
        -12    1    4    4    0    0 -0.39623140941E+01  0.35837541100E+01  0.31334367098E+01  0.61936783994E+01  0.00000000000E+00 0.  1.
</event>
<event>
 8    1  0.5250708E-010  0.9118800E+02  0.7816164E-02  0.1184000E+00
        -11   -1    0    0    0    0  0.00000000000E+00  0.00000000000E+00  0.45593999997E+02  0.45594000000E+02  0.51100000000E-03 0. -1.
         11   -1    0    0    0    0 -0.00000000000E+00 -0.00000000000E+00 -0.45593999997E+02  0.45594000000E+02  0.51100000000E-03 0.  1.
         23    2    1    2    0    0  0.00000000000E+00  0.00000000000E+00  0.00000000000E+00  0.91188000000E+02  0.91188000000E+02 0.  0.
    9900012    2    3    3    0    0  0.23937578985E+02 -0.21748136665E+02 -0.28941911059E+02  0.47787270146E+02  0.19999995906E+02 0.  0.
         12    1    3    3    0    0 -0.23937578985E+02  0.21748136665E+02  0.28941911059E+02  0.43400729854E+02  0.00000000000E+00 0. -1.
         11    1    4    4    0    0  0.61849065711E+01 -0.12386033045E+01 -0.10075289290E+00  0.63085147892E+01  0.51100000000E-03 0. -1.
        -11    1    4    4    0    0  0.90443543295E+01 -0.68953666062E+01 -0.44356081853E+01  0.12207417667E+02  0.51100000000E-03 0.  1.
         12    1    4    4    0    0  0.87083180840E+01 -0.13614166755E+02 -0.24405549981E+02  0.29271337690E+02  0.00000000000E+00 0. -1.
</event>
<event>
 8    1  0.5250708E-010  0.9118800E+02  0.7816164E-02  0.1184000E+00
        -11   -1    0    0    0    0  0.00000000000E+00  0.00000000000E+00  0.45593999997E+02  0.45594000000E+02  0.51100000000E-03 0. -1.
         11   -1    0    0    0    0 -0.00000000000E+00 -0.00000000000E+00 -0.45593999997E+02  0.45594000000E+02  0.51100000000E-03 0.  1.
         23    2    1    2    0    0  0.00000000000E+00  0.00000000000E+00  0.00000000000E+00  0.91188000000E+02  0.91188000000E+02 0.  0.
    9900012    2    3    3    0    0  0.32494111904E+02  0.23167725560E+02 -0.17059087936E+02  0.47787270775E+02  0.19999998773E+02 0.  0.
         12    1    3    3    0    0 -0.32494111904E+02 -0.23167725560E+02  0.17059087936E+02  0.43400729225E+02  0.00000000000E+00 0. -1.
         11    1    4    4    0    0  0.16736766725E+02  0.63948842462E+01 -0.16357888064E+01  0.17991378775E+02  0.51100000000E-03 0. -1.
        -11    1    4    4    0    0  0.14954957813E+02  0.88003861109E+01 -0.91320540206E+01  0.19608466788E+02  0.51100000000E-03 0.  1.
         12    1    4    4    0    0  0.80238736618E+00  0.79724552028E+01 -0.62912451088E+01  0.10187425213E+02  0.00000000000E+00 0. -1.
</event>
<event>
 8    1  0.5250708E-010  0.9118800E+02  0.7816164E-02  0.1184000E+00
        -11   -1    0    0    0    0  0.00000000000E+00  0.00000000000E+00  0.45593999997E+02  0.45594000000E+02  0.51100000000E-03 0. -1.
         11   -1    0    0    0    0 -0.00000000000E+00 -0.00000000000E+00 -0.45593999997E+02  0.45594000000E+02  0.51100000000E-03 0.  1.
         23    2    1    2    0    0  0.17763568394E-14  0.00000000000E+00  0.00000000000E+00  0.91188000000E+02  0.91188000000E+02 0.  0.
    9900012    2    3    3    0    0  0.89672505502E+01 -0.25202069820E+02  0.34177001783E+02  0.47787270093E+02  0.19999995660E+02 0.  0.
        -12    1    3    3    0    0 -0.89672505502E+01  0.25202069820E+02 -0.34177001783E+02  0.43400729907E+02  0.00000000000E+00 0.  1.
         11    1    4    4    0    0  0.11708936720E+02 -0.10735371145E+02  0.26639312118E+02  0.31016130369E+02  0.51100000000E-03 0. -1.
        -11    1    4    4    0    0 -0.18218271938E+01 -0.64788211896E+01  0.48409524809E+01  0.82902955023E+01  0.51100000000E-03 0.  1.
        -12    1    4    4    0    0 -0.91985897564E+00 -0.79878774855E+01  0.26967371843E+01  0.84808442210E+01  0.00000000000E+00 0.  1.
</event>
<event>
 8    1  0.5250708E-010  0.9118800E+02  0.7816164E-02  0.1184000E+00
        -11   -1    0    0    0    0  0.00000000000E+00  0.00000000000E+00  0.45593999997E+02  0.45594000000E+02  0.51100000000E-03 0.  1.
         11   -1    0    0    0    0 -0.00000000000E+00 -0.00000000000E+00 -0.45593999997E+02  0.45594000000E+02  0.51100000000E-03 0. -1.
         23    2    1    2    0    0 -0.35527136788E-14  0.00000000000E+00  0.24980018054E-15  0.91188000000E+02  0.91188000000E+02 0.  0.
    9900012    2    3    3    0    0  0.21884444466E+02  0.37478620291E+02  0.21807863868E+00  0.47787269052E+02  0.19999990918E+02 0.  0.
         12    1    3    3    0    0 -0.21884444466E+02 -0.37478620291E+02 -0.21807863868E+00  0.43400730948E+02  0.00000000000E+00 0. -1.
         11    1    4    4    0    0  0.23607517211E+01  0.83214206252E+01 -0.52533514576E+01  0.10120123107E+02  0.51100000000E-03 0. -1.
        -11    1    4    4    0    0  0.66146150101E+01  0.16274455815E+02 -0.25354015615E+01  0.17749346612E+02  0.51100000000E-03 0.  1.
         12    1    4    4    0    0  0.12909077735E+02  0.12882743851E+02  0.80068316578E+01  0.19917799334E+02  0.00000000000E+00 0. -1.
</event>
<event>
 8    1  0.5250708E-010  0.9118800E+02  0.7816164E-02  0.1184000E+00
        -11   -1    0    0    0    0  0.00000000000E+00  0.00000000000E+00  0.45593999997E+02  0.45594000000E+02  0.51100000000E-03 0. -1.
         11   -1    0    0    0    0 -0.00000000000E+00 -0.00000000000E+00 -0.45593999997E+02  0.45594000000E+02  0.51100000000E-03 0.  1.
         23    2    1    2    0    0 -0.35527136788E-14  0.35527136788E-14 -0.71054273576E-14  0.91188000000E+02  0.91188000000E+02 0.  0.
    9900012    2    3    3    0    0  0.26469028266E+02 -0.10982987268E+02  0.32594291346E+02  0.47787270801E+02  0.19999998890E+02 0.  0.
        -12    1    3    3    0    0 -0.26469028266E+02  0.10982987268E+02 -0.32594291346E+02  0.43400729199E+02  0.00000000000E+00 0.  1.
         11    1    4    4    0    0  0.25433272636E+01 -0.74115049977E+01  0.42236712277E+01  0.89015908018E+01  0.51100000000E-03 0. -1.
        -11    1    4    4    0    0  0.16172066363E+02 -0.73077854104E+01  0.21463372545E+02  0.27849880059E+02  0.51100000000E-03 0.  1.
        -12    1    4    4    0    0  0.77536346395E+01  0.37363031405E+01  0.69072475731E+01  0.11035799940E+02  0.00000000000E+00 0.  1.
</event>
<event>
 8    1  0.5250708E-010  0.9118800E+02  0.7816164E-02  0.1184000E+00
        -11   -1    0    0    0    0  0.00000000000E+00  0.00000000000E+00  0.45593999997E+02  0.45594000000E+02  0.51100000000E-03 0. -1.
         11   -1    0    0    0    0 -0.00000000000E+00 -0.00000000000E+00 -0.45593999997E+02  0.45594000000E+02  0.51100000000E-03 0.  1.
         23    2    1    2    0    0  0.00000000000E+00 -0.71054273576E-14 -0.35527136788E-14  0.91188000000E+02  0.91188000000E+02 0.  0.
    9900012    2    3    3    0    0 -0.39832920259E+01 -0.32879410333E+02 -0.28048180893E+02  0.47787277764E+02  0.20000030637E+02 0.  0.
         12    1    3    3    0    0  0.39832920259E+01  0.32879410333E+02  0.28048180893E+02  0.43400722236E+02  0.00000000000E+00 0. -1.
         11    1    4    4    0    0  0.53111242436E+00 -0.13805659429E+02 -0.17899285096E+02  0.22611119386E+02  0.51100000000E-03 0. -1.
        -11    1    4    4    0    0  0.32584518778E+01 -0.19533522419E+01  0.22185081739E-01  0.37991559668E+01  0.51100000000E-03 0.  1.
         12    1    4    4    0    0 -0.77728563281E+01 -0.17120398662E+02 -0.10171080879E+02  0.21377002411E+02  0.00000000000E+00 0. -1.
</event>
<event>
 8    1  0.5250708E-010  0.9118800E+02  0.7816164E-02  0.1184000E+00
        -11   -1    0    0    0    0  0.00000000000E+00  0.00000000000E+00  0.45593999997E+02  0.45594000000E+02  0.51100000000E-03 0. -1.
         11   -1    0    0    0    0 -0.00000000000E+00 -0.00000000000E+00 -0.45593999997E+02  0.45594000000E+02  0.51100000000E-03 0.  1.
         23    2    1    2    0    0  0.00000000000E+00  0.71054273576E-14  0.00000000000E+00  0.91188000000E+02  0.91188000000E+02 0.  0.
    9900012    2    3    3    0    0  0.20210893914E+02  0.34847324124E+02  0.16149504795E+02  0.47787277235E+02  0.20000028227E+02 0.  0.
        -12    1    3    3    0    0 -0.20210893914E+02 -0.34847324124E+02 -0.16149504795E+02  0.43400722765E+02  0.00000000000E+00 0.  1.
         11    1    4    4    0    0 -0.17570214467E+00 -0.96194765633E+00  0.30765058130E+01  0.32281732939E+01  0.51100000000E-03 0. -1.
        -11    1    4    4    0    0  0.63205221586E+01  0.16263202424E+02  0.64521984293E+00  0.17460156424E+02  0.51100000000E-03 0.  1.
         12    1    4    4    0    0  0.14066073900E+02  0.19546069356E+02  0.12427779139E+02  0.27098947517E+02  0.00000000000E+00 0. -1.
</event>
<event>
 8    1  0.5250708E-010  0.9118800E+02  0.7816164E-02  0.1184000E+00
        -11   -1    0    0    0    0  0.00000000000E+00  0.00000000000E+00  0.45593999997E+02  0.45594000000E+02  0.51100000000E-03 0. -1.
         11   -1    0    0    0    0 -0.00000000000E+00 -0.00000000000E+00 -0.45593999997E+02  0.45594000000E+02  0.51100000000E-03 0.  1.
         23    2    1    2    0    0  0.00000000000E+00 -0.44408920985E-15  0.71054273576E-14  0.91188000000E+02  0.91188000000E+02 0.  0.
    9900012    2    3    3    0    0  0.19687065499E+02  0.84890148279E+00 -0.38669401455E+02  0.47787265092E+02  0.19999972859E+02 0.  0.
         12    1    3    3    0    0 -0.19687065499E+02 -0.84890148279E+00  0.38669401455E+02  0.43400734908E+02  0.00000000000E+00 0. -1.
         11    1    4    4    0    0 -0.14726209558E+01  0.44680196335E+01 -0.65454355682E+01  0.80606785672E+01  0.51100000000E-03 0. -1.
        -11    1    4    4    0    0  0.10696290030E+02  0.20786627098E+01 -0.19702981940E+02  0.22515304943E+02  0.51100000000E-03 0.  1.
        -12    1    4    4    0    0  0.10463396425E+02 -0.56977808605E+01 -0.12420983947E+02  0.17211281582E+02  0.00000000000E+00 0.  1.
</event>
<event>
 8    1  0.5250708E-010  0.9118800E+02  0.7816164E-02  0.1184000E+00
        -11   -1    0    0    0    0  0.00000000000E+00  0.00000000000E+00  0.45593999997E+02  0.45594000000E+02  0.51100000000E-03 0. -1.
         11   -1    0    0    0    0 -0.00000000000E+00 -0.00000000000E+00 -0.45593999997E+02  0.45594000000E+02  0.51100000000E-03 0.  1.
         23    2    1    2    0    0  0.00000000000E+00  0.00000000000E+00 -0.71054273576E-14  0.91188000000E+02  0.91188000000E+02 0.  0.
    9900012    2    3    3    0    0 -0.10660197127E+02 -0.82715357336E+01 -0.41250029659E+02  0.47787273589E+02  0.20000011600E+02 0.  0.
         12    1    3    3    0    0  0.10660197127E+02  0.82715357336E+01  0.41250029659E+02  0.43400726411E+02  0.00000000000E+00 0. -1.
         11    1    4    4    0    0 -0.32063001645E+01 -0.63796328527E+01 -0.16670339510E+02  0.18135057092E+02  0.51100000000E-03 0. -1.
        -11    1    4    4    0    0 -0.11286877547E+02 -0.60618888756E+00 -0.12210267769E+02  0.16638861409E+02  0.51100000000E-03 0.  1.
         12    1    4    4    0    0  0.38329805849E+01 -0.12857139933E+01 -0.12369422379E+02  0.13013355087E+02  0.00000000000E+00 0. -1.
</event>
<event>
 8    1  0.5250708E-010  0.9118800E+02  0.7816164E-02  0.1184000E+00
        -11   -1    0    0    0    0  0.00000000000E+00  0.00000000000E+00  0.45593999997E+02  0.45594000000E+02  0.51100000000E-03 0.  1.
         11   -1    0    0    0    0 -0.00000000000E+00 -0.00000000000E+00 -0.45593999997E+02  0.45594000000E+02  0.51100000000E-03 0. -1.
         23    2    1    2    0    0  0.00000000000E+00  0.00000000000E+00 -0.17763568394E-14  0.91188000000E+02  0.91188000000E+02 0.  0.
    9900012    2    3    3    0    0  0.40685947816E+02  0.75267147702E+01 -0.13100643106E+02  0.47787255367E+02  0.19999928519E+02 0.  0.
         12    1    3    3    0    0 -0.40685947816E+02 -0.75267147702E+01  0.13100643106E+02  0.43400744633E+02  0.00000000000E+00 0. -1.
         11    1    4    4    0    0  0.19011112214E+02 -0.23426208834E+00 -0.27800711164E+01  0.19214735544E+02  0.51100000000E-03 0. -1.
        -11    1    4    4    0    0 -0.13190336562E+01  0.22367413710E+01  0.36503228696E+00  0.26222338909E+01  0.51100000000E-03 0.  1.
        -12    1    4    4    0    0  0.22993869258E+02  0.55242354875E+01 -0.10685604277E+02  0.25950285932E+02  0.00000000000E+00 0.  1.
</event>
<event>
 8    1  0.5250708E-010  0.9118800E+02  0.7816164E-02  0.1184000E+00
        -11   -1    0    0    0    0  0.00000000000E+00  0.00000000000E+00  0.45593999997E+02  0.45594000000E+02  0.51100000000E-03 0. -1.
         11   -1    0    0    0    0 -0.00000000000E+00 -0.00000000000E+00 -0.45593999997E+02  0.45594000000E+02  0.51100000000E-03 0.  1.
         23    2    1    2    0    0  0.00000000000E+00  0.00000000000E+00  0.00000000000E+00  0.91188000000E+02  0.91188000000E+02 0.  0.
    9900012    2    3    3    0    0 -0.29618212114E+01 -0.29165919111E+02  0.32003122940E+02  0.47787273042E+02  0.20000009110E+02 0.  0.
        -12    1    3    3    0    0  0.29618212114E+01  0.29165919111E+02 -0.32003122940E+02  0.43400726958E+02  0.00000000000E+00 0.  1.
         11    1    4    4    0    0  0.43898234982E+01 -0.62638302161E+01  0.11923508300E+02  0.14166021663E+02  0.51100000000E-03 0. -1.
        -11    1    4    4    0    0 -0.13144649750E+01 -0.62577579086E+01 -0.57081874873E+00  0.64197497240E+01  0.51100000000E-03 0.  1.
         12    1    4    4    0    0 -0.60371797345E+01 -0.16644330987E+02  0.20650433390E+02  0.27201501656E+02  0.00000000000E+00 0. -1.
</event>
<event>
 8    1  0.5250708E-010  0.9118800E+02  0.7816164E-02  0.1184000E+00
        -11   -1    0    0    0    0  0.00000000000E+00  0.00000000000E+00  0.45593999997E+02  0.45594000000E+02  0.51100000000E-03 0. -1.
         11   -1    0    0    0    0 -0.00000000000E+00 -0.00000000000E+00 -0.45593999997E+02  0.45594000000E+02  0.51100000000E-03 0.  1.
         23    2    1    2    0    0  0.17763568394E-14  0.00000000000E+00  0.17763568394E-14  0.91188000000E+02  0.91188000000E+02 0.  0.
    9900012    2    3    3    0    0 -0.15646348427E+02  0.38741147863E+02  0.11744720083E+02  0.47787271819E+02  0.20000003530E+02 0.  0.
        -12    1    3    3    0    0  0.15646348427E+02 -0.38741147863E+02 -0.11744720083E+02  0.43400728181E+02  0.00000000000E+00 0.  1.
         11    1    4    4    0    0 -0.86905680299E+01  0.11508585260E+02  0.76889149133E+01  0.16342977702E+02  0.51100000000E-03 0. -1.
        -11    1    4    4    0    0 -0.73512918546E+01  0.24882750598E+02 -0.88269722712E+00  0.25960969241E+02  0.51100000000E-03 0.  1.
         12    1    4    4    0    0  0.39551145720E+00  0.23498120050E+01  0.49385023969E+01  0.54833248760E+01  0.00000000000E+00 0. -1.
</event>
<event>
 8    1  0.5250708E-010  0.9118800E+02  0.7816164E-02  0.1184000E+00
        -11   -1    0    0    0    0  0.00000000000E+00  0.00000000000E+00  0.45593999997E+02  0.45594000000E+02  0.51100000000E-03 0. -1.
         11   -1    0    0    0    0 -0.00000000000E+00 -0.00000000000E+00 -0.45593999997E+02  0.45594000000E+02  0.51100000000E-03 0.  1.
         23    2    1    2    0    0 -0.88817841970E-15 -0.71054273576E-14 -0.35527136788E-14  0.91188000000E+02  0.91188000000E+02 0.  0.
    9900012    2    3    3    0    0 -0.79312557974E+01 -0.34296527084E+02 -0.25386357975E+02  0.47787265447E+02  0.19999974478E+02 0.  0.
         12    1    3    3    0    0  0.79312557974E+01  0.34296527084E+02  0.25386357975E+02  0.43400734553E+02  0.00000000000E+00 0. -1.
         11    1    4    4    0    0  0.50353619395E+00 -0.15316457805E+02 -0.61131643988E+01  0.16499036567E+02  0.51100000000E-03 0. -1.
        -11    1    4    4    0    0 -0.26586141848E+01 -0.13523572620E+02 -0.18823235240E+02  0.23329582743E+02  0.51100000000E-03 0.  1.
         12    1    4    4    0    0 -0.57761778065E+01 -0.54564966584E+01 -0.44995833600E+00  0.79586461374E+01  0.00000000000E+00 0. -1.
</event>
<event>
 8    1  0.5250708E-010  0.9118800E+02  0.7816164E-02  0.1184000E+00
        -11   -1    0    0    0    0  0.00000000000E+00  0.00000000000E+00  0.45593999997E+02  0.45594000000E+02  0.51100000000E-03 0. -1.
         11   -1    0    0    0    0 -0.00000000000E+00 -0.00000000000E+00 -0.45593999997E+02  0.45594000000E+02  0.51100000000E-03 0.  1.
         23    2    1    2    0    0  0.00000000000E+00  0.00000000000E+00 -0.71054273576E-14  0.91188000000E+02  0.91188000000E+02 0.  0.
    9900012    2    3    3    0    0  0.20942691451E+02 -0.13696638535E+02  0.35460257526E+02  0.47787261571E+02  0.19999956808E+02 0.  0.
        -12    1    3    3    0    0 -0.20942691451E+02  0.13696638535E+02 -0.35460257526E+02  0.43400738429E+02  0.00000000000E+00 0.  1.
         11    1    4    4    0    0  0.64977865370E+01 -0.29874258009E+01  0.13453102804E+02  0.15235876021E+02  0.51100000000E-03 0. -1.
        -11    1    4    4    0    0 -0.10818672055E+01  0.10529672201E+01 -0.14278553252E+01  0.20779672057E+01  0.51100000000E-03 0.  1.
        -12    1    4    4    0    0  0.15526772120E+02 -0.11762179954E+02  0.23435010047E+02  0.30473418345E+02  0.00000000000E+00 0.  1.
</event>
<event>
 8    1  0.5250708E-010  0.9118800E+02  0.7816164E-02  0.1184000E+00
        -11   -1    0    0    0    0  0.00000000000E+00  0.00000000000E+00  0.45593999997E+02  0.45594000000E+02  0.51100000000E-03 0. -1.
         11   -1    0    0    0    0 -0.00000000000E+00 -0.00000000000E+00 -0.45593999997E+02  0.45594000000E+02  0.51100000000E-03 0.  1.
         23    2    1    2    0    0  0.71054273576E-14 -0.17763568394E-14  0.00000000000E+00  0.91188000000E+02  0.91188000000E+02 0.  0.
    9900012    2    3    3    0    0  0.24527570087E+02 -0.11939100071E+02  0.33756176358E+02  0.47787271352E+02  0.20000001400E+02 0.  0.
        -12    1    3    3    0    0 -0.24527570087E+02  0.11939100071E+02 -0.33756176358E+02  0.43400728648E+02  0.00000000000E+00 0.  1.
         11    1    4    4    0    0  0.21773732154E+02 -0.80113693764E+01  0.31911138649E+02  0.39453747874E+02  0.51100000000E-03 0. -1.
        -11    1    4    4    0    0  0.23515570836E+01  0.13461841454E+01 -0.63846764493E-01  0.27103706650E+01  0.51100000000E-03 0.  1.
        -12    1    4    4    0    0  0.40228084959E+00 -0.52739148395E+01  0.19088844741E+01  0.56231528124E+01  0.00000000000E+00 0.  1.
</event>
<event>
 8    1  0.5250708E-010  0.9118800E+02  0.7816164E-02  0.1184000E+00
        -11   -1    0    0    0    0  0.00000000000E+00  0.00000000000E+00  0.45593999997E+02  0.45594000000E+02  0.51100000000E-03 0. -1.
         11   -1    0    0    0    0 -0.00000000000E+00 -0.00000000000E+00 -0.45593999997E+02  0.45594000000E+02  0.51100000000E-03 0.  1.
         23    2    1    2    0    0  0.00000000000E+00  0.22204460493E-15  0.00000000000E+00  0.91188000000E+02  0.91188000000E+02 0.  0.
    9900012    2    3    3    0    0  0.83871035600E+01 -0.32034152519E+00 -0.42581415341E+02  0.47787273540E+02  0.20000011377E+02 0.  0.
         12    1    3    3    0    0 -0.83871035600E+01  0.32034152519E+00  0.42581415341E+02  0.43400726460E+02  0.00000000000E+00 0. -1.
         11    1    4    4    0    0  0.76370284056E-02 -0.51472330409E+01 -0.26130262903E+02  0.26632399553E+02  0.51100000000E-03 0. -1.
        -11    1    4    4    0    0  0.32067849605E+00  0.22768100689E+01  0.37051909727E+00  0.23289447074E+01  0.51100000000E-03 0.  1.
        -12    1    4    4    0    0  0.80587880355E+01  0.25500814468E+01 -0.16821671535E+02  0.18825929279E+02  0.00000000000E+00 0.  1.
</event>
<event>
 8    1  0.5250708E-010  0.9118800E+02  0.7816164E-02  0.1184000E+00
        -11   -1    0    0    0    0  0.00000000000E+00  0.00000000000E+00  0.45593999997E+02  0.45594000000E+02  0.51100000000E-03 0. -1.
         11   -1    0    0    0    0 -0.00000000000E+00 -0.00000000000E+00 -0.45593999997E+02  0.45594000000E+02  0.51100000000E-03 0.  1.
         23    2    1    2    0    0 -0.35527136788E-14  0.00000000000E+00  0.00000000000E+00  0.91188000000E+02  0.91188000000E+02 0.  0.
    9900012    2    3    3    0    0 -0.23223918443E+02 -0.50204082672E+01  0.36318980691E+02  0.47787271373E+02  0.20000001496E+02 0.  0.
        -12    1    3    3    0    0  0.23223918443E+02  0.50204082672E+01 -0.36318980691E+02  0.43400728627E+02  0.00000000000E+00 0.  1.
         11    1    4    4    0    0 -0.61023694140E+01 -0.60538160867E+01  0.25395369070E+02  0.26810676458E+02  0.51100000000E-03 0. -1.
        -11    1    4    4    0    0 -0.89079843921E+01  0.81901851448E-01  0.86132050912E+01  0.12391375874E+02  0.51100000000E-03 0.  1.
        -12    1    4    4    0    0 -0.82135646365E+01  0.95150596802E+00  0.23104065294E+01  0.85852190407E+01  0.00000000000E+00 0.  1.
</event>
<event>
 8    1  0.5250708E-010  0.9118800E+02  0.7816164E-02  0.1184000E+00
        -11   -1    0    0    0    0  0.00000000000E+00  0.00000000000E+00  0.45593999997E+02  0.45594000000E+02  0.51100000000E-03 0. -1.
         11   -1    0    0    0    0 -0.00000000000E+00 -0.00000000000E+00 -0.45593999997E+02  0.45594000000E+02  0.51100000000E-03 0.  1.
         23    2    1    2    0    0  0.00000000000E+00 -0.17763568394E-14  0.71054273576E-14  0.91188000000E+02  0.91188000000E+02 0.  0.
    9900012    2    3    3    0    0  0.51969091369E+01 -0.15601500524E+02 -0.40164770037E+02  0.47787269184E+02  0.19999991519E+02 0.  0.
         12    1    3    3    0    0 -0.51969091369E+01  0.15601500524E+02  0.40164770037E+02  0.43400730816E+02  0.00000000000E+00 0. -1.
         11    1    4    4    0    0 -0.53303287098E+01 -0.46639618482E+01 -0.69634562479E+01  0.99325055980E+01  0.51100000000E-03 0. -1.
        -11    1    4    4    0    0  0.44021694411E+01 -0.11051748658E+02 -0.19434005029E+02  0.22785978055E+02  0.51100000000E-03 0.  1.
         12    1    4    4    0    0  0.61250684056E+01  0.11420998219E+00 -0.13767308760E+02  0.15068785532E+02  0.00000000000E+00 0. -1.
</event>
<event>
 8    1  0.5250708E-010  0.9118800E+02  0.7816164E-02  0.1184000E+00
        -11   -1    0    0    0    0  0.00000000000E+00  0.00000000000E+00  0.45593999997E+02  0.45594000000E+02  0.51100000000E-03 0. -1.
         11   -1    0    0    0    0 -0.00000000000E+00 -0.00000000000E+00 -0.45593999997E+02  0.45594000000E+02  0.51100000000E-03 0.  1.
         23    2    1    2    0    0  0.00000000000E+00  0.17763568394E-14 -0.35527136788E-14  0.91188000000E+02  0.91188000000E+02 0.  0.
    9900012    2    3    3    0    0 -0.36396522403E+02  0.73452061684E+00  0.23629957710E+02  0.47787294188E+02  0.20000105521E+02 0.  0.
        -12    1    3    3    0    0  0.36396522403E+02 -0.73452061684E+00 -0.23629957710E+02  0.43400705812E+02  0.00000000000E+00 0.  1.
         11    1    4    4    0    0 -0.16615913299E+02  0.48668112431E+01  0.14493029387E+02  0.22579245503E+02  0.51100000000E-03 0. -1.
        -11    1    4    4    0    0 -0.65773994975E+01  0.26298784005E+01 -0.11220921086E+01  0.71719966197E+01  0.51100000000E-03 0.  1.
        -12    1    4    4    0    0 -0.13203209607E+02 -0.67621690267E+01  0.10259020432E+02  0.18036052065E+02  0.00000000000E+00 0.  1.
</event>
<event>
 8    1  0.5250708E-010  0.9118800E+02  0.7816164E-02  0.1184000E+00
        -11   -1    0    0    0    0  0.00000000000E+00  0.00000000000E+00  0.45593999997E+02  0.45594000000E+02  0.51100000000E-03 0. -1.
         11   -1    0    0    0    0 -0.00000000000E+00 -0.00000000000E+00 -0.45593999997E+02  0.45594000000E+02  0.51100000000E-03 0.  1.
         23    2    1    2    0    0 -0.71054273576E-14 -0.17763568394E-14  0.00000000000E+00  0.91188000000E+02  0.91188000000E+02 0.  0.
    9900012    2    3    3    0    0  0.38054459046E+02  0.15261693904E+02 -0.14232432594E+02  0.47787270840E+02  0.19999999067E+02 0.  0.
         12    1    3    3    0    0 -0.38054459046E+02 -0.15261693904E+02  0.14232432594E+02  0.43400729160E+02  0.00000000000E+00 0. -1.
         11    1    4    4    0    0  0.84494976906E+01  0.12381121870E+02 -0.47533390778E+01  0.15725152547E+02  0.51100000000E-03 0. -1.
        -11    1    4    4    0    0  0.17351349419E+02  0.34244328426E+01 -0.22604370736E+01  0.17829908664E+02  0.51100000000E-03 0.  1.
        -12    1    4    4    0    0  0.12253611936E+02 -0.54386080884E+00 -0.72186564429E+01  0.14232209628E+02  0.00000000000E+00 0.  1.
</event>
<event>
 8    1  0.5250708E-010  0.9118800E+02  0.7816164E-02  0.1184000E+00
        -11   -1    0    0    0    0  0.00000000000E+00  0.00000000000E+00  0.45593999997E+02  0.45594000000E+02  0.51100000000E-03 0. -1.
         11   -1    0    0    0    0 -0.00000000000E+00 -0.00000000000E+00 -0.45593999997E+02  0.45594000000E+02  0.51100000000E-03 0.  1.
         23    2    1    2    0    0  0.17763568394E-14  0.00000000000E+00  0.00000000000E+00  0.91188000000E+02  0.91188000000E+02 0.  0.
    9900012    2    3    3    0    0 -0.13368393502E+02 -0.28593016429E+02  0.29788401031E+02  0.47787269945E+02  0.19999994988E+02 0.  0.
        -12    1    3    3    0    0  0.13368393502E+02  0.28593016429E+02 -0.29788401031E+02  0.43400730055E+02  0.00000000000E+00 0.  1.
         11    1    4    4    0    0 -0.10612562724E+02 -0.15461190326E+02  0.47999529825E+01  0.19357542271E+02  0.51100000000E-03 0. -1.
        -11    1    4    4    0    0 -0.22499575678E+01 -0.64063866239E+01  0.13378710980E+02  0.15003133219E+02  0.51100000000E-03 0.  1.
        -12    1    4    4    0    0 -0.50587321027E+00 -0.67254394786E+01  0.11609737068E+02  0.13426594456E+02  0.00000000000E+00 0.  1.
</event>
<event>
 8    1  0.5250708E-010  0.9118800E+02  0.7816164E-02  0.1184000E+00
        -11   -1    0    0    0    0  0.00000000000E+00  0.00000000000E+00  0.45593999997E+02  0.45594000000E+02  0.51100000000E-03 0. -1.
         11   -1    0    0    0    0 -0.00000000000E+00 -0.00000000000E+00 -0.45593999997E+02  0.45594000000E+02  0.51100000000E-03 0.  1.
         23    2    1    2    0    0  0.00000000000E+00 -0.53290705182E-14  0.71054273576E-14  0.91188000000E+02  0.91188000000E+02 0.  0.
    9900012    2    3    3    0    0  0.32912316598E+02  0.15791481361E+02 -0.23474066122E+02  0.47787271346E+02  0.20000001374E+02 0.  0.
         12    1    3    3    0    0 -0.32912316598E+02 -0.15791481361E+02  0.23474066122E+02  0.43400728654E+02  0.00000000000E+00 0. -1.
         11    1    4    4    0    0  0.32460362454E+02  0.15656415484E+02 -0.24660208293E+02  0.43668344940E+02  0.51100000000E-03 0. -1.
        -11    1    4    4    0    0  0.17833253624E+01  0.19057732620E+00  0.18953751461E+01  0.26094091805E+01  0.51100000000E-03 0.  1.
        -12    1    4    4    0    0 -0.13313712184E+01 -0.55511449209E-01 -0.70923297466E+00  0.15095172256E+01  0.00000000000E+00 0.  1.
</event>
<event>
 8    1  0.5250708E-010  0.9118800E+02  0.7816164E-02  0.1184000E+00
        -11   -1    0    0    0    0  0.00000000000E+00  0.00000000000E+00  0.45593999997E+02  0.45594000000E+02  0.51100000000E-03 0. -1.
         11   -1    0    0    0    0 -0.00000000000E+00 -0.00000000000E+00 -0.45593999997E+02  0.45594000000E+02  0.51100000000E-03 0.  1.
         23    2    1    2    0    0  0.00000000000E+00  0.00000000000E+00  0.35527136788E-14  0.91188000000E+02  0.91188000000E+02 0.  0.
    9900012    2    3    3    0    0 -0.35277754451E+02 -0.13138042142E+02  0.21598504137E+02  0.47787268539E+02  0.19999988575E+02 0.  0.
        -12    1    3    3    0    0  0.35277754451E+02  0.13138042142E+02 -0.21598504137E+02  0.43400731461E+02  0.00000000000E+00 0.  1.
         11    1    4    4    0    0 -0.31452354278E+02 -0.95464223071E+01  0.18304934728E+02  0.37622538513E+02  0.51100000000E-03 0. -1.
        -11    1    4    4    0    0 -0.22446608874E+01 -0.39143870411E+01  0.56985481939E+01  0.72687261736E+01  0.51100000000E-03 0.  1.
        -12    1    4    4    0    0 -0.15807392849E+01  0.32276720584E+00 -0.24049787845E+01  0.28960038518E+01  0.00000000000E+00 0.  1.
</event>
<event>
 8    1  0.5250708E-010  0.9118800E+02  0.7816164E-02  0.1184000E+00
        -11   -1    0    0    0    0  0.00000000000E+00  0.00000000000E+00  0.45593999997E+02  0.45594000000E+02  0.51100000000E-03 0.  1.
         11   -1    0    0    0    0 -0.00000000000E+00 -0.00000000000E+00 -0.45593999997E+02  0.45594000000E+02  0.51100000000E-03 0. -1.
         23    2    1    2    0    0 -0.44408920985E-15 -0.71054273576E-14  0.17763568394E-14  0.91188000000E+02  0.91188000000E+02 0.  0.
    9900012    2    3    3    0    0 -0.28721716033E+01 -0.40914388592E+02  0.14191084229E+02  0.47787269187E+02  0.19999991529E+02 0.  0.
        -12    1    3    3    0    0  0.28721716033E+01  0.40914388592E+02 -0.14191084229E+02  0.43400730813E+02  0.00000000000E+00 0.  1.
         11    1    4    4    0    0  0.33001753643E+01 -0.30712390508E+02  0.78962730833E+01  0.31882490759E+02  0.51100000000E-03 0. -1.
        -11    1    4    4    0    0 -0.53562240756E+01 -0.96452183411E+01  0.16491475097E+01  0.11155225725E+02  0.51100000000E-03 0.  1.
        -12    1    4    4    0    0 -0.81612289197E+00 -0.55677974261E+00  0.46456636360E+01  0.47495527027E+01  0.00000000000E+00 0.  1.
</event>
<event>
 8    1  0.5250708E-010  0.9118800E+02  0.7816164E-02  0.1184000E+00
        -11   -1    0    0    0    0  0.00000000000E+00  0.00000000000E+00  0.45593999997E+02  0.45594000000E+02  0.51100000000E-03 0. -1.
         11   -1    0    0    0    0 -0.00000000000E+00 -0.00000000000E+00 -0.45593999997E+02  0.45594000000E+02  0.51100000000E-03 0.  1.
         23    2    1    2    0    0  0.00000000000E+00  0.88817841970E-15  0.00000000000E+00  0.91188000000E+02  0.91188000000E+02 0.  0.
    9900012    2    3    3    0    0 -0.32466780532E+02  0.73340167350E+01  0.27852176834E+02  0.47787269661E+02  0.19999993690E+02 0.  0.
        -12    1    3    3    0    0  0.32466780532E+02 -0.73340167350E+01 -0.27852176834E+02  0.43400730339E+02  0.00000000000E+00 0.  1.
         11    1    4    4    0    0 -0.23452661427E+01 -0.11463803723E+01  0.87260234305E+00  0.27524346220E+01  0.51100000000E-03 0.  1.
        -11    1    4    4    0    0 -0.18085879783E+02 -0.74523223174E+00  0.23163550538E+02  0.29397355193E+02  0.51100000000E-03 0. -1.
         12    1    4    4    0    0 -0.12035634607E+02  0.92256293390E+01  0.38160239532E+01  0.15637479845E+02  0.00000000000E+00 0. -1.
</event>
<event>
 8    1  0.5250708E-010  0.9118800E+02  0.7816164E-02  0.1184000E+00
        -11   -1    0    0    0    0  0.00000000000E+00  0.00000000000E+00  0.45593999997E+02  0.45594000000E+02  0.51100000000E-03 0. -1.
         11   -1    0    0    0    0 -0.00000000000E+00 -0.00000000000E+00 -0.45593999997E+02  0.45594000000E+02  0.51100000000E-03 0.  1.
         23    2    1    2    0    0  0.00000000000E+00  0.88817841970E-15  0.00000000000E+00  0.91188000000E+02  0.91188000000E+02 0.  0.
    9900012    2    3    3    0    0 -0.24696771398E+02  0.19065505489E+01 -0.35637869767E+02  0.47787271734E+02  0.20000003145E+02 0.  0.
         12    1    3    3    0    0  0.24696771398E+02 -0.19065505489E+01  0.35637869767E+02  0.43400728266E+02  0.00000000000E+00 0. -1.
         11    1    4    4    0    0 -0.14237609290E+02  0.11015106127E+01 -0.75726904379E+01  0.16163801677E+02  0.51100000000E-03 0. -1.
        -11    1    4    4    0    0 -0.42553284365E+01  0.35998675951E+01 -0.47101131262E+01  0.72973990385E+01  0.51100000000E-03 0.  1.
         12    1    4    4    0    0 -0.62038336715E+01 -0.27948276589E+01 -0.23355066203E+02  0.24326071019E+02  0.00000000000E+00 0. -1.
</event>
<event>
 8    1  0.5250708E-010  0.9118800E+02  0.7816164E-02  0.1184000E+00
        -11   -1    0    0    0    0  0.00000000000E+00  0.00000000000E+00  0.45593999997E+02  0.45594000000E+02  0.51100000000E-03 0.  1.
         11   -1    0    0    0    0 -0.00000000000E+00 -0.00000000000E+00 -0.45593999997E+02  0.45594000000E+02  0.51100000000E-03 0. -1.
         23    2    1    2    0    0  0.00000000000E+00 -0.71054273576E-14  0.00000000000E+00  0.91188000000E+02  0.91188000000E+02 0.  0.
    9900012    2    3    3    0    0  0.88178887059E+01  0.35976726167E+02  0.22617316046E+02  0.47787274522E+02  0.20000015854E+02 0.  0.
         12    1    3    3    0    0 -0.88178887059E+01 -0.35976726167E+02 -0.22617316046E+02  0.43400725478E+02  0.00000000000E+00 0. -1.
         11    1    4    4    0    0  0.29897986080E+01  0.35995265751E+01 -0.21321337503E+01  0.51421281461E+01  0.51100000000E-03 0. -1.
        -11    1    4    4    0    0  0.62243185883E+01  0.25182561894E+02  0.13388099125E+02  0.29191518698E+02  0.51100000000E-03 0.  1.
        -12    1    4    4    0    0 -0.39622849041E+00  0.71946376981E+01  0.11361350671E+02  0.13453627678E+02  0.00000000000E+00 0.  1.
</event>
<event>
 8    1  0.5250708E-010  0.9118800E+02  0.7816164E-02  0.1184000E+00
        -11   -1    0    0    0    0  0.00000000000E+00  0.00000000000E+00  0.45593999997E+02  0.45594000000E+02  0.51100000000E-03 0. -1.
         11   -1    0    0    0    0 -0.00000000000E+00 -0.00000000000E+00 -0.45593999997E+02  0.45594000000E+02  0.51100000000E-03 0.  1.
         23    2    1    2    0    0  0.00000000000E+00  0.35527136788E-14  0.35527136788E-14  0.91188000000E+02  0.91188000000E+02 0.  0.
    9900012    2    3    3    0    0  0.16337613115E+02 -0.25562328176E+02 -0.31036639218E+02  0.47787271918E+02  0.20000003985E+02 0.  0.
         12    1    3    3    0    0 -0.16337613115E+02  0.25562328176E+02  0.31036639218E+02  0.43400728082E+02  0.00000000000E+00 0. -1.
         11    1    4    4    0    0  0.51465203288E+01 -0.98242196301E+01 -0.71048484177E+01  0.13171212326E+02  0.51100000000E-03 0. -1.
        -11    1    4    4    0    0  0.10813665492E+02 -0.13481844300E+02 -0.26205007981E+02  0.31391048575E+02  0.51100000000E-03 0.  1.
         12    1    4    4    0    0  0.37742729369E+00 -0.22562642464E+01  0.22732171808E+01  0.32250110175E+01  0.00000000000E+00 0. -1.
</event>
<event>
 8    1  0.5250708E-010  0.9118800E+02  0.7816164E-02  0.1184000E+00
        -11   -1    0    0    0    0  0.00000000000E+00  0.00000000000E+00  0.45593999997E+02  0.45594000000E+02  0.51100000000E-03 0. -1.
         11   -1    0    0    0    0 -0.00000000000E+00 -0.00000000000E+00 -0.45593999997E+02  0.45594000000E+02  0.51100000000E-03 0.  1.
         23    2    1    2    0    0  0.00000000000E+00  0.00000000000E+00  0.00000000000E+00  0.91188000000E+02  0.91188000000E+02 0.  0.
    9900012    2    3    3    0    0 -0.22917599181E+02 -0.22399868521E+02  0.29268633645E+02  0.47787269852E+02  0.19999994561E+02 0.  0.
        -12    1    3    3    0    0  0.22917599181E+02  0.22399868521E+02 -0.29268633645E+02  0.43400730148E+02  0.00000000000E+00 0.  1.
         11    1    4    4    0    0 -0.20178147286E+01  0.13739634726E+01 -0.83350289690E+00  0.25795502017E+01  0.51100000000E-03 0. -1.
        -11    1    4    4    0    0 -0.30475854079E+01 -0.22557621597E+01 -0.42064530306E+00  0.38148633622E+01  0.51100000000E-03 0.  1.
         12    1    4    4    0    0 -0.17852199044E+02 -0.21518069834E+02  0.30522781845E+02  0.41392856288E+02  0.00000000000E+00 0. -1.
</event>
<event>
 8    1  0.5250708E-010  0.9118800E+02  0.7816164E-02  0.1184000E+00
        -11   -1    0    0    0    0  0.00000000000E+00  0.00000000000E+00  0.45593999997E+02  0.45594000000E+02  0.51100000000E-03 0. -1.
         11   -1    0    0    0    0 -0.00000000000E+00 -0.00000000000E+00 -0.45593999997E+02  0.45594000000E+02  0.51100000000E-03 0.  1.
         23    2    1    2    0    0  0.17763568394E-14 -0.35527136788E-14  0.35527136788E-14  0.91188000000E+02  0.91188000000E+02 0.  0.
    9900012    2    3    3    0    0  0.10764945040E+02 -0.27552696706E+02  0.31758277461E+02  0.47787270459E+02  0.19999997329E+02 0.  0.
        -12    1    3    3    0    0 -0.10764945040E+02  0.27552696706E+02 -0.31758277461E+02  0.43400729541E+02  0.00000000000E+00 0.  1.
         11    1    4    4    0    0 -0.85101199001E-01 -0.99069896404E+01  0.10373944968E+02  0.14344839504E+02  0.51100000000E-03 0. -1.
        -11    1    4    4    0    0  0.77478754281E+01 -0.81685877625E+01  0.17132720154E+01  0.11388182513E+02  0.51100000000E-03 0.  1.
        -12    1    4    4    0    0  0.31021708111E+01 -0.94771193028E+01  0.19671060477E+02  0.22054248442E+02  0.00000000000E+00 0.  1.
</event>
<event>
 8    1  0.8466228E-010  0.9118800E+02  0.7816164E-02  0.1184000E+00
        -11   -1    0    0    0    0  0.00000000000E+00  0.00000000000E+00  0.45593999997E+02  0.45594000000E+02  0.51100000000E-03 0. -1.
         11   -1    0    0    0    0 -0.00000000000E+00 -0.00000000000E+00 -0.45593999997E+02  0.45594000000E+02  0.51100000000E-03 0.  1.
         23    2    1    2    0    0  0.44408920985E-15  0.00000000000E+00  0.00000000000E+00  0.91188000000E+02  0.91188000000E+02 0.  0.
    9900012    2    3    3    0    0  0.28427766966E+01  0.47191022448E+01 -0.43049647392E+02  0.47787269062E+02  0.19999990963E+02 0.  0.
         12    1    3    3    0    0 -0.28427766966E+01 -0.47191022448E+01  0.43049647392E+02  0.43400730938E+02  0.00000000000E+00 0. -1.
         11    1    4    4    0    0 -0.23799761689E+01 -0.18276858935E+01 -0.49880174548E+01  0.58210858678E+01  0.51100000000E-03 0. -1.
        -11    1    4    4    0    0  0.71705498092E+01  0.33894959842E+01 -0.37357525110E+02  0.38190183951E+02  0.51100000000E-03 0.  1.
         12    1    4    4    0    0 -0.19477969437E+01  0.31572921541E+01 -0.70410482707E+00  0.37759992436E+01  0.00000000000E+00 0. -1.
</event>
<event>
 8    1  0.5250708E-010  0.9118800E+02  0.7816164E-02  0.1184000E+00
        -11   -1    0    0    0    0  0.00000000000E+00  0.00000000000E+00  0.45593999997E+02  0.45594000000E+02  0.51100000000E-03 0. -1.
         11   -1    0    0    0    0 -0.00000000000E+00 -0.00000000000E+00 -0.45593999997E+02  0.45594000000E+02  0.51100000000E-03 0.  1.
         23    2    1    2    0    0  0.00000000000E+00  0.35527136788E-14  0.00000000000E+00  0.91188000000E+02  0.91188000000E+02 0.  0.
    9900012    2    3    3    0    0 -0.84218647358E+01  0.19169245049E+02  0.38016252005E+02  0.47787272151E+02  0.20000005043E+02 0.  0.
        -12    1    3    3    0    0  0.84218647358E+01 -0.19169245049E+02 -0.38016252005E+02  0.43400727849E+02  0.00000000000E+00 0.  1.
         11    1    4    4    0    0  0.13468732519E+01  0.27642941547E+01  0.93015255172E+01  0.97966201793E+01  0.51100000000E-03 0. -1.
        -11    1    4    4    0    0 -0.14001729786E+02  0.10187981492E+02  0.19043178079E+02  0.25738804081E+02  0.51100000000E-03 0.  1.
         12    1    4    4    0    0  0.42329917985E+01  0.62169694024E+01  0.96715484085E+01  0.12251847891E+02  0.00000000000E+00 0. -1.
</event>
<event>
 8    1  0.5250708E-010  0.9118800E+02  0.7816164E-02  0.1184000E+00
        -11   -1    0    0    0    0  0.00000000000E+00  0.00000000000E+00  0.45593999997E+02  0.45594000000E+02  0.51100000000E-03 0.  1.
         11   -1    0    0    0    0 -0.00000000000E+00 -0.00000000000E+00 -0.45593999997E+02  0.45594000000E+02  0.51100000000E-03 0. -1.
         23    2    1    2    0    0  0.00000000000E+00  0.00000000000E+00  0.88817841970E-15  0.91188000000E+02  0.91188000000E+02 0.  0.
    9900012    2    3    3    0    0  0.11322663019E+02  0.41127133698E+02  0.79986980637E+01  0.47787274260E+02  0.20000014659E+02 0.  0.
        -12    1    3    3    0    0 -0.11322663019E+02 -0.41127133698E+02 -0.79986980637E+01  0.43400725740E+02  0.00000000000E+00 0.  1.
         11    1    4    4    0    0 -0.47813049820E+00  0.98896683614E+01 -0.19906099763E+01  0.10099340444E+02  0.51100000000E-03 0. -1.
        -11    1    4    4    0    0  0.17414327890E+01 -0.89392229335E+00 -0.10927089661E+01  0.22418069433E+01  0.51100000000E-03 0.  1.
        -12    1    4    4    0    0  0.10059360728E+02  0.32131387630E+02  0.11082017006E+02  0.35446126872E+02  0.00000000000E+00 0.  1.
</event>
<event>
 8    1  0.5250708E-010  0.9118800E+02  0.7816164E-02  0.1184000E+00
        -11   -1    0    0    0    0  0.00000000000E+00  0.00000000000E+00  0.45593999997E+02  0.45594000000E+02  0.51100000000E-03 0. -1.
         11   -1    0    0    0    0 -0.00000000000E+00 -0.00000000000E+00 -0.45593999997E+02  0.45594000000E+02  0.51100000000E-03 0.  1.
         23    2    1    2    0    0  0.44408920985E-15  0.00000000000E+00  0.35527136788E-14  0.91188000000E+02  0.91188000000E+02 0.  0.
    9900012    2    3    3    0    0  0.18430020933E+01  0.34576060820E+02 -0.26167205642E+02  0.47787270863E+02  0.19999999171E+02 0.  0.
         12    1    3    3    0    0 -0.18430020933E+01 -0.34576060820E+02  0.26167205642E+02  0.43400729137E+02  0.00000000000E+00 0. -1.
         11    1    4    4    0    0  0.66119741093E+01  0.87157415681E+01 -0.45411249744E+01  0.11845006078E+02  0.51100000000E-03 0. -1.
        -11    1    4    4    0    0  0.23306561733E+01  0.89453367295E+01 -0.12232666991E+02  0.15332617173E+02  0.51100000000E-03 0.  1.
         12    1    4    4    0    0 -0.70996281893E+01  0.16914982522E+02 -0.93934136770E+01  0.20609647611E+02  0.00000000000E+00 0. -1.
</event>
<event>
 8    1  0.5250708E-010  0.9118800E+02  0.7816164E-02  0.1184000E+00
        -11   -1    0    0    0    0  0.00000000000E+00  0.00000000000E+00  0.45593999997E+02  0.45594000000E+02  0.51100000000E-03 0. -1.
         11   -1    0    0    0    0 -0.00000000000E+00 -0.00000000000E+00 -0.45593999997E+02  0.45594000000E+02  0.51100000000E-03 0.  1.
         23    2    1    2    0    0  0.00000000000E+00  0.00000000000E+00  0.00000000000E+00  0.91188000000E+02  0.91188000000E+02 0.  0.
    9900012    2    3    3    0    0  0.37840060490E+01 -0.40816701590E+02  0.14258466543E+02  0.47787243110E+02  0.19999872635E+02 0.  0.
        -12    1    3    3    0    0 -0.37840060490E+01  0.40816701590E+02 -0.14258466543E+02  0.43400756890E+02  0.00000000000E+00 0.  1.
         11    1    4    4    0    0  0.46845145177E+00 -0.46714231461E+01  0.67741376090E+01  0.82420010665E+01  0.51100000000E-03 0. -1.
        -11    1    4    4    0    0 -0.51398461367E+01 -0.95503425816E+01  0.97436049245E+00  0.10889280985E+02  0.51100000000E-03 0.  1.
         12    1    4    4    0    0  0.84554007339E+01 -0.26594935862E+02  0.65099684411E+01  0.28655961059E+02  0.00000000000E+00 0. -1.
</event>
<event>
 8    1  0.5250708E-010  0.9118800E+02  0.7816164E-02  0.1184000E+00
        -11   -1    0    0    0    0  0.00000000000E+00  0.00000000000E+00  0.45593999997E+02  0.45594000000E+02  0.51100000000E-03 0.  1.
         11   -1    0    0    0    0 -0.00000000000E+00 -0.00000000000E+00 -0.45593999997E+02  0.45594000000E+02  0.51100000000E-03 0. -1.
         23    2    1    2    0    0  0.71054273576E-14 -0.44408920985E-15  0.00000000000E+00  0.91188000000E+02  0.91188000000E+02 0.  0.
    9900012    2    3    3    0    0 -0.42223375540E+02  0.12918842450E+01 -0.99569370368E+01  0.47787274176E+02  0.20000014280E+02 0.  0.
         12    1    3    3    0    0  0.42223375540E+02 -0.12918842450E+01  0.99569370368E+01  0.43400725824E+02  0.00000000000E+00 0. -1.
         11    1    4    4    0    0 -0.19790563835E+02  0.59146326168E+01  0.17086119705E+01  0.20726037996E+02  0.51100000000E-03 0. -1.
        -11    1    4    4    0    0 -0.15761473853E+02  0.84637380106E+00 -0.78508342119E+01  0.17628840141E+02  0.51100000000E-03 0.  1.
         12    1    4    4    0    0 -0.66713378523E+01 -0.54691221728E+01 -0.38147147953E+01  0.94323960398E+01  0.00000000000E+00 0. -1.
</event>
<event>
 8    1  0.5250708E-010  0.9118800E+02  0.7816164E-02  0.1184000E+00
        -11   -1    0    0    0    0  0.00000000000E+00  0.00000000000E+00  0.45593999997E+02  0.45594000000E+02  0.51100000000E-03 0. -1.
         11   -1    0    0    0    0 -0.00000000000E+00 -0.00000000000E+00 -0.45593999997E+02  0.45594000000E+02  0.51100000000E-03 0.  1.
         23    2    1    2    0    0  0.00000000000E+00 -0.71054273576E-14  0.00000000000E+00  0.91188000000E+02  0.91188000000E+02 0.  0.
    9900012    2    3    3    0    0  0.10530737625E+01 -0.37965223953E+02 -0.21003715582E+02  0.47787271177E+02  0.20000000603E+02 0.  0.
         12    1    3    3    0    0 -0.10530737625E+01  0.37965223953E+02  0.21003715582E+02  0.43400728823E+02  0.00000000000E+00 0. -1.
         11    1    4    4    0    0  0.53289780562E+00 -0.23183684244E+02 -0.66161290251E+01  0.24115147910E+02  0.51100000000E-03 0. -1.
        -11    1    4    4    0    0 -0.41830095159E+01 -0.11435890705E+02 -0.12841364674E+02  0.17696830557E+02  0.51100000000E-03 0.  1.
         12    1    4    4    0    0  0.47031854728E+01 -0.33456490045E+01 -0.15462218830E+01  0.59752927096E+01  0.00000000000E+00 0. -1.
</event>
<event>
 8    1  0.5250708E-010  0.9118800E+02  0.7816164E-02  0.1184000E+00
        -11   -1    0    0    0    0  0.00000000000E+00  0.00000000000E+00  0.45593999997E+02  0.45594000000E+02  0.51100000000E-03 0. -1.
         11   -1    0    0    0    0 -0.00000000000E+00 -0.00000000000E+00 -0.45593999997E+02  0.45594000000E+02  0.51100000000E-03 0.  1.
         23    2    1    2    0    0 -0.88817841970E-15 -0.35527136788E-14  0.00000000000E+00  0.91188000000E+02  0.91188000000E+02 0.  0.
    9900012    2    3    3    0    0  0.67531240534E+01  0.26533130514E+02  0.33675086483E+02  0.47787272483E+02  0.20000006559E+02 0.  0.
        -12    1    3    3    0    0 -0.67531240534E+01 -0.26533130514E+02 -0.33675086483E+02  0.43400727517E+02  0.00000000000E+00 0.  1.
         11    1    4    4    0    0  0.64051954025E+01  0.21436255284E+02  0.17782101444E+02  0.28578710621E+02  0.51100000000E-03 0. -1.
        -11    1    4    4    0    0  0.47911151975E+01  0.18506244670E+01  0.92710691712E+01  0.10598694240E+02  0.51100000000E-03 0.  1.
         12    1    4    4    0    0 -0.44431865466E+01  0.32462507628E+01  0.66219158685E+01  0.86098676222E+01  0.00000000000E+00 0. -1.
</event>
<event>
 8    1  0.5250708E-010  0.9118800E+02  0.7816164E-02  0.1184000E+00
        -11   -1    0    0    0    0  0.00000000000E+00  0.00000000000E+00  0.45593999997E+02  0.45594000000E+02  0.51100000000E-03 0. -1.
         11   -1    0    0    0    0 -0.00000000000E+00 -0.00000000000E+00 -0.45593999997E+02  0.45594000000E+02  0.51100000000E-03 0.  1.
         23    2    1    2    0    0 -0.69388939039E-16 -0.35527136788E-14  0.00000000000E+00  0.91188000000E+02  0.91188000000E+02 0.  0.
    9900012    2    3    3    0    0  0.66039763552E-01  0.20863323142E+02  0.38057053018E+02  0.47787286893E+02  0.20000072260E+02 0.  0.
        -12    1    3    3    0    0 -0.66039763552E-01 -0.20863323142E+02 -0.38057053018E+02  0.43400713107E+02  0.00000000000E+00 0.  1.
         11    1    4    4    0    0  0.64360092883E+01  0.95983896076E+01  0.25313243383E+02  0.27826454849E+02  0.51100000000E-03 0. -1.
        -11    1    4    4    0    0 -0.55492288702E+01  0.91068406216E+01  0.13784563535E+02  0.17428215034E+02  0.51100000000E-03 0.  1.
        -12    1    4    4    0    0 -0.82074065448E+00  0.21580929124E+01 -0.10407539000E+01  0.25326170102E+01  0.00000000000E+00 0.  1.
</event>
<event>
 8    1  0.5250708E-010  0.9118800E+02  0.7816164E-02  0.1184000E+00
        -11   -1    0    0    0    0  0.00000000000E+00  0.00000000000E+00  0.45593999997E+02  0.45594000000E+02  0.51100000000E-03 0. -1.
         11   -1    0    0    0    0 -0.00000000000E+00 -0.00000000000E+00 -0.45593999997E+02  0.45594000000E+02  0.51100000000E-03 0.  1.
         23    2    1    2    0    0 -0.11102230246E-15  0.00000000000E+00  0.35527136788E-14  0.91188000000E+02  0.91188000000E+02 0.  0.
    9900012    2    3    3    0    0 -0.62125089355E+00  0.38917082195E+02  0.19201524200E+02  0.47787265319E+02  0.19999973897E+02 0.  0.
        -12    1    3    3    0    0  0.62125089355E+00 -0.38917082195E+02 -0.19201524200E+02  0.43400734681E+02  0.00000000000E+00 0.  1.
         11    1    4    4    0    0  0.16912508726E+01  0.12225012271E+01 -0.14148332620E+01  0.25212283088E+01  0.51100000000E-03 0. -1.
        -11    1    4    4    0    0 -0.33804177687E+01  0.78575469200E+01 -0.69815219854E+00  0.85822890096E+01  0.51100000000E-03 0.  1.
         12    1    4    4    0    0  0.10679160025E+01  0.29837034048E+02  0.21314509660E+02  0.36683748001E+02  0.00000000000E+00 0. -1.
</event>
<event>
 8    1  0.5250708E-010  0.9118800E+02  0.7816164E-02  0.1184000E+00
        -11   -1    0    0    0    0  0.00000000000E+00  0.00000000000E+00  0.45593999997E+02  0.45594000000E+02  0.51100000000E-03 0.  1.
         11   -1    0    0    0    0 -0.00000000000E+00 -0.00000000000E+00 -0.45593999997E+02  0.45594000000E+02  0.51100000000E-03 0. -1.
         23    2    1    2    0    0  0.00000000000E+00  0.00000000000E+00  0.17763568394E-14  0.91188000000E+02  0.91188000000E+02 0.  0.
    9900012    2    3    3    0    0  0.27255860149E+02  0.30520273876E+02 -0.14465621628E+02  0.47787271446E+02  0.20000001832E+02 0.  0.
         12    1    3    3    0    0 -0.27255860149E+02 -0.30520273876E+02  0.14465621628E+02  0.43400728554E+02  0.00000000000E+00 0. -1.
         11    1    4    4    0    0  0.14919421191E+02  0.20826368574E+02  0.10327442467E+01  0.25639682478E+02  0.51100000000E-03 0.  1.
        -11    1    4    4    0    0  0.76100404537E+01  0.48420369975E+01 -0.95003187828E+01  0.13100156306E+02  0.51100000000E-03 0. -1.
        -12    1    4    4    0    0  0.47263985047E+01  0.48518683049E+01 -0.59980470917E+01  0.90474326628E+01  0.00000000000E+00 0.  1.
</event>
<event>
 8    1  0.5250708E-010  0.9118800E+02  0.7816164E-02  0.1184000E+00
        -11   -1    0    0    0    0  0.00000000000E+00  0.00000000000E+00  0.45593999997E+02  0.45594000000E+02  0.51100000000E-03 0. -1.
         11   -1    0    0    0    0 -0.00000000000E+00 -0.00000000000E+00 -0.45593999997E+02  0.45594000000E+02  0.51100000000E-03 0.  1.
         23    2    1    2    0    0  0.88817841970E-15  0.00000000000E+00 -0.88817841970E-15  0.91188000000E+02  0.91188000000E+02 0.  0.
    9900012    2    3    3    0    0 -0.54433507673E+01  0.42411681269E+02  0.74324906717E+01  0.47787277734E+02  0.20000030499E+02 0.  0.
        -12    1    3    3    0    0  0.54433507673E+01 -0.42411681269E+02 -0.74324906717E+01  0.43400722266E+02  0.00000000000E+00 0.  1.
         11    1    4    4    0    0 -0.43957080622E+01  0.23899285692E+02  0.36774759947E+01  0.24576857730E+02  0.51100000000E-03 0. -1.
        -11    1    4    4    0    0 -0.55289278590E+01  0.33216603377E+01 -0.13112007490E+01  0.65819236043E+01  0.51100000000E-03 0.  1.
         12    1    4    4    0    0  0.44812851538E+01  0.15190735240E+02  0.50662154259E+01  0.16628496399E+02  0.00000000000E+00 0. -1.
</event>
<event>
 8    1  0.5250708E-010  0.9118800E+02  0.7816164E-02  0.1184000E+00
        -11   -1    0    0    0    0  0.00000000000E+00  0.00000000000E+00  0.45593999997E+02  0.45594000000E+02  0.51100000000E-03 0. -1.
         11   -1    0    0    0    0 -0.00000000000E+00 -0.00000000000E+00 -0.45593999997E+02  0.45594000000E+02  0.51100000000E-03 0.  1.
         23    2    1    2    0    0 -0.66613381478E-15  0.35527136788E-14  0.71054273576E-14  0.91188000000E+02  0.91188000000E+02 0.  0.
    9900012    2    3    3    0    0 -0.17018542205E+01 -0.12161446111E+02 -0.41627230903E+02  0.47787269223E+02  0.19999991696E+02 0.  0.
         12    1    3    3    0    0  0.17018542205E+01  0.12161446111E+02  0.41627230903E+02  0.43400730777E+02  0.00000000000E+00 0. -1.
         11    1    4    4    0    0 -0.66849747087E-01 -0.90668042326E+01 -0.14246277304E+02  0.16886912837E+02  0.51100000000E-03 0. -1.
        -11    1    4    4    0    0 -0.73432334446E+01  0.25943909230E+00 -0.17774691270E+02  0.19233565350E+02  0.51100000000E-03 0.  1.
         12    1    4    4    0    0  0.57082289712E+01 -0.33540809711E+01 -0.96062623294E+01  0.11666791036E+02  0.00000000000E+00 0. -1.
</event>
<event>
 8    1  0.5250708E-010  0.9118800E+02  0.7816164E-02  0.1184000E+00
        -11   -1    0    0    0    0  0.00000000000E+00  0.00000000000E+00  0.45593999997E+02  0.45594000000E+02  0.51100000000E-03 0. -1.
         11   -1    0    0    0    0 -0.00000000000E+00 -0.00000000000E+00 -0.45593999997E+02  0.45594000000E+02  0.51100000000E-03 0.  1.
         23    2    1    2    0    0  0.17763568394E-14  0.00000000000E+00  0.00000000000E+00  0.91188000000E+02  0.91188000000E+02 0.  0.
    9900012    2    3    3    0    0  0.46752929328E+01  0.38160172740E+02  0.20138680286E+02  0.47787267389E+02  0.19999983332E+02 0.  0.
        -12    1    3    3    0    0 -0.46752929328E+01 -0.38160172740E+02 -0.20138680286E+02  0.43400732611E+02  0.00000000000E+00 0.  1.
         11    1    4    4    0    0  0.10408483935E+01  0.23974050309E+02  0.14480604927E+02  0.28027243406E+02  0.51100000000E-03 0. -1.
        -11    1    4    4    0    0 -0.42432877661E+01  0.28193821579E+01  0.12638967234E+01  0.52489848549E+01  0.51100000000E-03 0.  1.
        -12    1    4    4    0    0  0.78777323053E+01  0.11366740273E+02  0.43941786351E+01  0.14511039128E+02  0.00000000000E+00 0.  1.
</event>
<event>
 8    1  0.5250708E-010  0.9118800E+02  0.7816164E-02  0.1184000E+00
        -11   -1    0    0    0    0  0.00000000000E+00  0.00000000000E+00  0.45593999997E+02  0.45594000000E+02  0.51100000000E-03 0. -1.
         11   -1    0    0    0    0 -0.00000000000E+00 -0.00000000000E+00 -0.45593999997E+02  0.45594000000E+02  0.51100000000E-03 0.  1.
         23    2    1    2    0    0  0.00000000000E+00  0.17763568394E-14  0.00000000000E+00  0.91188000000E+02  0.91188000000E+02 0.  0.
    9900012    2    3    3    0    0  0.36600809934E+02 -0.86805406193E+01  0.21648400979E+02  0.47787258783E+02  0.19999944094E+02 0.  0.
        -12    1    3    3    0    0 -0.36600809934E+02  0.86805406193E+01 -0.21648400979E+02  0.43400741217E+02  0.00000000000E+00 0.  1.
         11    1    4    4    0    0  0.30943848332E+02 -0.12374323579E+02  0.22296283923E+02  0.40097006256E+02  0.51100000000E-03 0. -1.
        -11    1    4    4    0    0  0.30944452841E+01  0.85897020699E+00  0.12218217734E+01  0.34360253404E+01  0.51100000000E-03 0.  1.
        -12    1    4    4    0    0  0.25625163181E+01  0.28348127531E+01 -0.18697047174E+01  0.42542271867E+01  0.00000000000E+00 0.  1.
</event>
<event>
 8    1  0.5250708E-010  0.9118800E+02  0.7816164E-02  0.1184000E+00
        -11   -1    0    0    0    0  0.00000000000E+00  0.00000000000E+00  0.45593999997E+02  0.45594000000E+02  0.51100000000E-03 0.  1.
         11   -1    0    0    0    0 -0.00000000000E+00 -0.00000000000E+00 -0.45593999997E+02  0.45594000000E+02  0.51100000000E-03 0. -1.
         23    2    1    2    0    0  0.00000000000E+00  0.00000000000E+00  0.00000000000E+00  0.91188000000E+02  0.91188000000E+02 0.  0.
    9900012    2    3    3    0    0 -0.95972587882E+01  0.34302430617E+02 -0.24796348214E+02  0.47787274117E+02  0.20000014007E+02 0.  0.
         12    1    3    3    0    0  0.95972587882E+01 -0.34302430617E+02  0.24796348214E+02  0.43400725883E+02  0.00000000000E+00 0. -1.
         11    1    4    4    0    0 -0.18613990620E+01  0.11438468996E+02 -0.11008098086E+02  0.15983791890E+02  0.51100000000E-03 0. -1.
        -11    1    4    4    0    0 -0.46578745706E+01  0.13554691109E+02 -0.16276705983E+02  0.21687706299E+02  0.51100000000E-03 0.  1.
        -12    1    4    4    0    0 -0.30779851556E+01  0.93092705115E+01  0.24884558557E+01  0.10115775928E+02  0.00000000000E+00 0.  1.
</event>
<event>
 8    1  0.5250708E-010  0.9118800E+02  0.7816164E-02  0.1184000E+00
        -11   -1    0    0    0    0  0.00000000000E+00  0.00000000000E+00  0.45593999997E+02  0.45594000000E+02  0.51100000000E-03 0. -1.
         11   -1    0    0    0    0 -0.00000000000E+00 -0.00000000000E+00 -0.45593999997E+02  0.45594000000E+02  0.51100000000E-03 0.  1.
         23    2    1    2    0    0 -0.66613381478E-15  0.00000000000E+00  0.71054273576E-14  0.91188000000E+02  0.91188000000E+02 0.  0.
    9900012    2    3    3    0    0 -0.18263874021E+01 -0.10306195644E+02  0.42119705153E+02  0.47787275101E+02  0.20000018496E+02 0.  0.
        -12    1    3    3    0    0  0.18263874021E+01  0.10306195644E+02 -0.42119705153E+02  0.43400724899E+02  0.00000000000E+00 0.  1.
         11    1    4    4    0    0  0.54827094340E+00 -0.91464672574E+01  0.94223892636E+01  0.13143054592E+02  0.51100000000E-03 0. -1.
        -11    1    4    4    0    0 -0.48218597976E+01  0.25945167173E+01  0.90620590217E+01  0.10587859221E+02  0.51100000000E-03 0.  1.
         12    1    4    4    0    0  0.24472014521E+01 -0.37542451040E+01  0.23635256867E+02  0.24056361288E+02  0.00000000000E+00 0. -1.
</event>
<event>
 8    1  0.5250708E-010  0.9118800E+02  0.7816164E-02  0.1184000E+00
        -11   -1    0    0    0    0  0.00000000000E+00  0.00000000000E+00  0.45593999997E+02  0.45594000000E+02  0.51100000000E-03 0. -1.
         11   -1    0    0    0    0 -0.00000000000E+00 -0.00000000000E+00 -0.45593999997E+02  0.45594000000E+02  0.51100000000E-03 0.  1.
         23    2    1    2    0    0 -0.71054273576E-14  0.00000000000E+00  0.00000000000E+00  0.91188000000E+02  0.91188000000E+02 0.  0.
    9900012    2    3    3    0    0 -0.35693488129E+02  0.22001695105E+02 -0.11203728511E+02  0.47787271724E+02  0.20000003101E+02 0.  0.
         12    1    3    3    0    0  0.35693488129E+02 -0.22001695105E+02  0.11203728511E+02  0.43400728276E+02  0.00000000000E+00 0. -1.
         11    1    4    4    0    0 -0.94020444382E+01  0.79551720752E+01 -0.10254350649E+02  0.16026069695E+02  0.51100000000E-03 0. -1.
        -11    1    4    4    0    0 -0.22033167826E+01  0.30806804866E+01  0.32160212218E+01  0.49687010239E+01  0.51100000000E-03 0.  1.
        -12    1    4    4    0    0 -0.24088126908E+02  0.10965842543E+02 -0.41653990832E+01  0.26792501006E+02  0.00000000000E+00 0.  1.
</event>
<event>
 8    1  0.5250708E-010  0.9118800E+02  0.7816164E-02  0.1184000E+00
        -11   -1    0    0    0    0  0.00000000000E+00  0.00000000000E+00  0.45593999997E+02  0.45594000000E+02  0.51100000000E-03 0. -1.
         11   -1    0    0    0    0 -0.00000000000E+00 -0.00000000000E+00 -0.45593999997E+02  0.45594000000E+02  0.51100000000E-03 0.  1.
         23    2    1    2    0    0  0.00000000000E+00  0.88817841970E-15  0.00000000000E+00  0.91188000000E+02  0.91188000000E+02 0.  0.
    9900012    2    3    3    0    0  0.26132265589E+02 -0.66461600889E+01 -0.34008188806E+02  0.47787266658E+02  0.19999979999E+02 0.  0.
         12    1    3    3    0    0 -0.26132265589E+02  0.66461600889E+01  0.34008188806E+02  0.43400733342E+02  0.00000000000E+00 0. -1.
         11    1    4    4    0    0  0.10976222044E+02  0.38792608237E+01 -0.86840612748E+01  0.14523740406E+02  0.51100000000E-03 0.  1.
        -11    1    4    4    0    0  0.23445987771E+01 -0.54652154563E+01 -0.21866363676E+01  0.63361741038E+01  0.51100000000E-03 0. -1.
        -12    1    4    4    0    0  0.12811444768E+02 -0.50602054563E+01 -0.23137491164E+02  0.26927352147E+02  0.00000000000E+00 0.  1.
</event>
<event>
 8    1  0.5250708E-010  0.9118800E+02  0.7816164E-02  0.1184000E+00
        -11   -1    0    0    0    0  0.00000000000E+00  0.00000000000E+00  0.45593999997E+02  0.45594000000E+02  0.51100000000E-03 0. -1.
         11   -1    0    0    0    0 -0.00000000000E+00 -0.00000000000E+00 -0.45593999997E+02  0.45594000000E+02  0.51100000000E-03 0.  1.
         23    2    1    2    0    0 -0.71054273576E-14  0.00000000000E+00  0.00000000000E+00  0.91188000000E+02  0.91188000000E+02 0.  0.
    9900012    2    3    3    0    0 -0.28695285219E+02  0.14851372119E+02  0.28976559178E+02  0.47787266948E+02  0.19999981325E+02 0.  0.
        -12    1    3    3    0    0  0.28695285219E+02 -0.14851372119E+02 -0.28976559178E+02  0.43400733052E+02  0.00000000000E+00 0.  1.
         11    1    4    4    0    0 -0.13547134625E+02  0.17292475189E+01  0.14518438265E+02  0.19932390812E+02  0.51100000000E-03 0.  1.
        -11    1    4    4    0    0 -0.10716192897E+02  0.68354837957E+01  0.15175913320E+01  0.12800926241E+02  0.51100000000E-03 0. -1.
         12    1    4    4    0    0 -0.44319576967E+01  0.62866408045E+01  0.12940529581E+02  0.15053949895E+02  0.00000000000E+00 0. -1.
</event>
<event>
 8    1  0.5250708E-010  0.9118800E+02  0.7816164E-02  0.1184000E+00
        -11   -1    0    0    0    0  0.00000000000E+00  0.00000000000E+00  0.45593999997E+02  0.45594000000E+02  0.51100000000E-03 0. -1.
         11   -1    0    0    0    0 -0.00000000000E+00 -0.00000000000E+00 -0.45593999997E+02  0.45594000000E+02  0.51100000000E-03 0.  1.
         23    2    1    2    0    0  0.00000000000E+00  0.00000000000E+00  0.00000000000E+00  0.91188000000E+02  0.91188000000E+02 0.  0.
    9900012    2    3    3    0    0 -0.12085848737E+02  0.11295885218E+02 -0.40124290091E+02  0.47787269385E+02  0.19999992436E+02 0.  0.
         12    1    3    3    0    0  0.12085848737E+02 -0.11295885218E+02  0.40124290091E+02  0.43400730615E+02  0.00000000000E+00 0. -1.
         11    1    4    4    0    0 -0.42029901360E+01 -0.12394017667E+01  0.54499807191E+00  0.44156840899E+01  0.51100000000E-03 0. -1.
        -11    1    4    4    0    0 -0.12153579865E+01  0.42030404917E+01 -0.12943985980E+02  0.13663433599E+02  0.51100000000E-03 0.  1.
         12    1    4    4    0    0 -0.66675006147E+01  0.83322464926E+01 -0.27725302183E+02  0.29708151696E+02  0.00000000000E+00 0. -1.
</event>
<event>
 8    1  0.5250708E-010  0.9118800E+02  0.7816164E-02  0.1184000E+00
        -11   -1    0    0    0    0  0.00000000000E+00  0.00000000000E+00  0.45593999997E+02  0.45594000000E+02  0.51100000000E-03 0. -1.
         11   -1    0    0    0    0 -0.00000000000E+00 -0.00000000000E+00 -0.45593999997E+02  0.45594000000E+02  0.51100000000E-03 0.  1.
         23    2    1    2    0    0 -0.44408920985E-15 -0.17763568394E-14  0.00000000000E+00  0.91188000000E+02  0.91188000000E+02 0.  0.
    9900012    2    3    3    0    0  0.30888946911E+01 -0.11949839695E+02  0.41608691175E+02  0.47787272812E+02  0.20000008059E+02 0.  0.
        -12    1    3    3    0    0 -0.30888946911E+01  0.11949839695E+02 -0.41608691175E+02  0.43400727188E+02  0.00000000000E+00 0.  1.
         11    1    4    4    0    0  0.40777605562E+01 -0.14715472226E+01  0.12459820821E+02  0.13192449262E+02  0.51100000000E-03 0. -1.
        -11    1    4    4    0    0 -0.51325405183E+01  0.78936568146E+00  0.34626362802E+01  0.62414678258E+01  0.51100000000E-03 0.  1.
        -12    1    4    4    0    0  0.41436746532E+01 -0.11267658154E+02  0.25686234074E+02  0.28353355724E+02  0.00000000000E+00 0.  1.
</event>
<event>
 8    1  0.5250708E-010  0.9118800E+02  0.7816164E-02  0.1184000E+00
        -11   -1    0    0    0    0  0.00000000000E+00  0.00000000000E+00  0.45593999997E+02  0.45594000000E+02  0.51100000000E-03 0. -1.
         11   -1    0    0    0    0 -0.00000000000E+00 -0.00000000000E+00 -0.45593999997E+02  0.45594000000E+02  0.51100000000E-03 0.  1.
         23    2    1    2    0    0 -0.35527136788E-14  0.00000000000E+00  0.00000000000E+00  0.91188000000E+02  0.91188000000E+02 0.  0.
    9900012    2    3    3    0    0  0.21484701651E+02  0.32147763127E+02  0.19711694046E+02  0.47787286166E+02  0.20000068945E+02 0.  0.
        -12    1    3    3    0    0 -0.21484701651E+02 -0.32147763127E+02 -0.19711694046E+02  0.43400713834E+02  0.00000000000E+00 0.  1.
         11    1    4    4    0    0  0.56033320949E+01  0.19596840435E+02  0.17044579423E+02  0.26569741692E+02  0.51100000000E-03 0. -1.
        -11    1    4    4    0    0  0.39377667893E+01  0.59395471751E+00  0.15736202824E+01  0.42819470510E+01  0.51100000000E-03 0.  1.
        -12    1    4    4    0    0  0.11943602767E+02  0.11956967975E+02  0.10934943409E+01  0.16935597423E+02  0.00000000000E+00 0.  1.
</event>
<event>
 8    1  0.5250708E-010  0.9118800E+02  0.7816164E-02  0.1184000E+00
        -11   -1    0    0    0    0  0.00000000000E+00  0.00000000000E+00  0.45593999997E+02  0.45594000000E+02  0.51100000000E-03 0. -1.
         11   -1    0    0    0    0 -0.00000000000E+00 -0.00000000000E+00 -0.45593999997E+02  0.45594000000E+02  0.51100000000E-03 0.  1.
         23    2    1    2    0    0  0.88817841970E-15  0.00000000000E+00  0.71054273576E-14  0.91188000000E+02  0.91188000000E+02 0.  0.
    9900012    2    3    3    0    0 -0.51826712161E+01  0.18121290031E+02  0.39094517995E+02  0.47787279147E+02  0.20000036942E+02 0.  0.
        -12    1    3    3    0    0  0.51826712161E+01 -0.18121290031E+02 -0.39094517995E+02  0.43400720853E+02  0.00000000000E+00 0.  1.
         11    1    4    4    0    0 -0.59259438182E+01  0.15240757831E+02  0.28047258330E+02  0.32466077827E+02  0.51100000000E-03 0. -1.
        -11    1    4    4    0    0 -0.44444128315E+01  0.26103248592E+01  0.72100765538E+01  0.88629456424E+01  0.51100000000E-03 0.  1.
        -12    1    4    4    0    0  0.51876854336E+01  0.27020734164E+00  0.38371831105E+01  0.64582556770E+01  0.00000000000E+00 0.  1.
</event>
<event>
 8    1  0.5250708E-010  0.9118800E+02  0.7816164E-02  0.1184000E+00
        -11   -1    0    0    0    0  0.00000000000E+00  0.00000000000E+00  0.45593999997E+02  0.45594000000E+02  0.51100000000E-03 0. -1.
         11   -1    0    0    0    0 -0.00000000000E+00 -0.00000000000E+00 -0.45593999997E+02  0.45594000000E+02  0.51100000000E-03 0.  1.
         23    2    1    2    0    0  0.35527136788E-14  0.71054273576E-14  0.00000000000E+00  0.91188000000E+02  0.91188000000E+02 0.  0.
    9900012    2    3    3    0    0 -0.22937020053E+02 -0.32996366499E+02 -0.16393779746E+02  0.47787272985E+02  0.20000008849E+02 0.  0.
         12    1    3    3    0    0  0.22937020053E+02  0.32996366499E+02  0.16393779746E+02  0.43400727015E+02  0.00000000000E+00 0. -1.
         11    1    4    4    0    0  0.29281156213E+01 -0.32793401295E+01 -0.25498723554E+01  0.50823008635E+01  0.51100000000E-03 0. -1.
        -11    1    4    4    0    0 -0.13690224245E+02 -0.21064241661E+02 -0.11327894802E+02  0.27558042702E+02  0.51100000000E-03 0.  1.
        -12    1    4    4    0    0 -0.12174911429E+02 -0.86527847086E+01 -0.25160125884E+01  0.15146929420E+02  0.00000000000E+00 0.  1.
</event>
<event>
 8    1  0.5250708E-010  0.9118800E+02  0.7816164E-02  0.1184000E+00
        -11   -1    0    0    0    0  0.00000000000E+00  0.00000000000E+00  0.45593999997E+02  0.45594000000E+02  0.51100000000E-03 0. -1.
         11   -1    0    0    0    0 -0.00000000000E+00 -0.00000000000E+00 -0.45593999997E+02  0.45594000000E+02  0.51100000000E-03 0.  1.
         23    2    1    2    0    0  0.00000000000E+00 -0.35527136788E-14  0.35527136788E-14  0.91188000000E+02  0.91188000000E+02 0.  0.
    9900012    2    3    3    0    0  0.29319823518E+02 -0.26985833902E+02  0.17196984953E+02  0.47787267587E+02  0.19999984234E+02 0.  0.
        -12    1    3    3    0    0 -0.29319823518E+02  0.26985833902E+02 -0.17196984953E+02  0.43400732413E+02  0.00000000000E+00 0.  1.
         11    1    4    4    0    0  0.30477327639E+02 -0.23657593472E+02  0.16603738069E+02  0.42002777849E+02  0.51100000000E-03 0. -1.
        -11    1    4    4    0    0 -0.63908835801E-02  0.90617011882E+00  0.10333280286E+01  0.13743915757E+01  0.51100000000E-03 0.  1.
         12    1    4    4    0    0 -0.11511132371E+01 -0.42344105493E+01 -0.44008114466E+00  0.44100981620E+01  0.00000000000E+00 0. -1.
</event>
<event>
 8    1  0.5250708E-010  0.9118800E+02  0.7816164E-02  0.1184000E+00
        -11   -1    0    0    0    0  0.00000000000E+00  0.00000000000E+00  0.45593999997E+02  0.45594000000E+02  0.51100000000E-03 0. -1.
         11   -1    0    0    0    0 -0.00000000000E+00 -0.00000000000E+00 -0.45593999997E+02  0.45594000000E+02  0.51100000000E-03 0.  1.
         23    2    1    2    0    0  0.17763568394E-14  0.00000000000E+00  0.00000000000E+00  0.91188000000E+02  0.91188000000E+02 0.  0.
    9900012    2    3    3    0    0 -0.92371938470E+01 -0.12824938806E+02 -0.40420523524E+02  0.47787268122E+02  0.19999986677E+02 0.  0.
         12    1    3    3    0    0  0.92371938470E+01  0.12824938806E+02  0.40420523524E+02  0.43400731878E+02  0.00000000000E+00 0. -1.
         11    1    4    4    0    0 -0.88257760329E+01 -0.31570841727E+01 -0.12494885679E+02  0.15619976679E+02  0.51100000000E-03 0. -1.
        -11    1    4    4    0    0  0.47156365817E+01  0.30823603437E+00 -0.75022768474E+01  0.88665887453E+01  0.51100000000E-03 0.  1.
         12    1    4    4    0    0 -0.51270543957E+01 -0.99760906675E+01 -0.20423360998E+02  0.23300702698E+02  0.00000000000E+00 0. -1.
</event>
<event>
 8    1  0.5250708E-010  0.9118800E+02  0.7816164E-02  0.1184000E+00
        -11   -1    0    0    0    0  0.00000000000E+00  0.00000000000E+00  0.45593999997E+02  0.45594000000E+02  0.51100000000E-03 0. -1.
         11   -1    0    0    0    0 -0.00000000000E+00 -0.00000000000E+00 -0.45593999997E+02  0.45594000000E+02  0.51100000000E-03 0.  1.
         23    2    1    2    0    0  0.00000000000E+00  0.00000000000E+00  0.35527136788E-14  0.91188000000E+02  0.91188000000E+02 0.  0.
    9900012    2    3    3    0    0 -0.35468241253E+02  0.11997232471E+02  0.21947516479E+02  0.47787271848E+02  0.20000003664E+02 0.  0.
        -12    1    3    3    0    0  0.35468241253E+02 -0.11997232471E+02 -0.21947516479E+02  0.43400728152E+02  0.00000000000E+00 0.  1.
         11    1    4    4    0    0 -0.60393930820E+00  0.58661981072E+01  0.56382236705E+01  0.81588350480E+01  0.51100000000E-03 0. -1.
        -11    1    4    4    0    0 -0.15516911743E+02  0.48844963911E+01  0.10605528981E+02  0.19419322858E+02  0.51100000000E-03 0.  1.
        -12    1    4    4    0    0 -0.19347390201E+02  0.12465379724E+01  0.57037638281E+01  0.20209113942E+02  0.00000000000E+00 0.  1.
</event>
<event>
 8    1  0.5250708E-010  0.9118800E+02  0.7816164E-02  0.1184000E+00
        -11   -1    0    0    0    0  0.00000000000E+00  0.00000000000E+00  0.45593999997E+02  0.45594000000E+02  0.51100000000E-03 0. -1.
         11   -1    0    0    0    0 -0.00000000000E+00 -0.00000000000E+00 -0.45593999997E+02  0.45594000000E+02  0.51100000000E-03 0.  1.
         23    2    1    2    0    0  0.55511151231E-15  0.88817841970E-15  0.00000000000E+00  0.91188000000E+02  0.91188000000E+02 0.  0.
    9900012    2    3    3    0    0  0.90162126280E+00 -0.61722152387E+01  0.42950134258E+02  0.47787271958E+02  0.20000004163E+02 0.  0.
        -12    1    3    3    0    0 -0.90162126280E+00  0.61722152387E+01 -0.42950134258E+02  0.43400728042E+02  0.00000000000E+00 0.  1.
         11    1    4    4    0    0  0.51087072350E+00  0.33617470618E+01  0.24508895324E+02  0.24743651356E+02  0.51100000000E-03 0. -1.
        -11    1    4    4    0    0 -0.44871349279E+01 -0.39210136793E+01  0.11075946979E+02  0.12577174956E+02  0.51100000000E-03 0.  1.
        -12    1    4    4    0    0  0.48778854672E+01 -0.56129486212E+01  0.73652919556E+01  0.10466445645E+02  0.00000000000E+00 0.  1.
</event>
<event>
 8    1  0.5250708E-010  0.9118800E+02  0.7816164E-02  0.1184000E+00
        -11   -1    0    0    0    0  0.00000000000E+00  0.00000000000E+00  0.45593999997E+02  0.45594000000E+02  0.51100000000E-03 0.  1.
         11   -1    0    0    0    0 -0.00000000000E+00 -0.00000000000E+00 -0.45593999997E+02  0.45594000000E+02  0.51100000000E-03 0. -1.
         23    2    1    2    0    0  0.00000000000E+00  0.00000000000E+00  0.00000000000E+00  0.91188000000E+02  0.91188000000E+02 0.  0.
    9900012    2    3    3    0    0  0.34342262618E+02 -0.18756056289E+02 -0.18773468605E+02  0.47787265298E+02  0.19999973800E+02 0.  0.
        -12    1    3    3    0    0 -0.34342262618E+02  0.18756056289E+02  0.18773468605E+02  0.43400734702E+02  0.00000000000E+00 0.  1.
         11    1    4    4    0    0  0.14286487810E+02 -0.48397004038E+01 -0.46019028709E+01  0.15770350162E+02  0.51100000000E-03 0. -1.
        -11    1    4    4    0    0  0.24626476484E+01 -0.72061297122E+01  0.12008096384E+01  0.77094022413E+01  0.51100000000E-03 0.  1.
         12    1    4    4    0    0  0.17593127159E+02 -0.67102261727E+01 -0.15372375373E+02  0.24307512894E+02  0.00000000000E+00 0. -1.
</event>
<event>
 8    1  0.5250708E-010  0.9118800E+02  0.7816164E-02  0.1184000E+00
        -11   -1    0    0    0    0  0.00000000000E+00  0.00000000000E+00  0.45593999997E+02  0.45594000000E+02  0.51100000000E-03 0. -1.
         11   -1    0    0    0    0 -0.00000000000E+00 -0.00000000000E+00 -0.45593999997E+02  0.45594000000E+02  0.51100000000E-03 0.  1.
         23    2    1    2    0    0  0.00000000000E+00  0.33306690739E-15  0.00000000000E+00  0.91188000000E+02  0.91188000000E+02 0.  0.
    9900012    2    3    3    0    0 -0.20935428696E+02 -0.27950250771E+00  0.38016483843E+02  0.47787270281E+02  0.19999996521E+02 0.  0.
        -12    1    3    3    0    0  0.20935428696E+02  0.27950250771E+00 -0.38016483843E+02  0.43400729719E+02  0.00000000000E+00 0.  1.
         11    1    4    4    0    0 -0.82788977252E+01  0.85751070411E+01  0.14807784576E+02  0.19009026609E+02  0.51100000000E-03 0. -1.
        -11    1    4    4    0    0 -0.73305245727E+01 -0.28298554633E+01  0.63606301105E+01  0.10109514732E+02  0.51100000000E-03 0.  1.
         12    1    4    4    0    0 -0.53260063978E+01 -0.60247540856E+01  0.16848069156E+02  0.18668728940E+02  0.00000000000E+00 0. -1.
</event>
<event>
 8    1  0.5250708E-010  0.9118800E+02  0.7816164E-02  0.1184000E+00
        -11   -1    0    0    0    0  0.00000000000E+00  0.00000000000E+00  0.45593999997E+02  0.45594000000E+02  0.51100000000E-03 0. -1.
         11   -1    0    0    0    0 -0.00000000000E+00 -0.00000000000E+00 -0.45593999997E+02  0.45594000000E+02  0.51100000000E-03 0.  1.
         23    2    1    2    0    0 -0.44408920985E-15  0.00000000000E+00  0.00000000000E+00  0.91188000000E+02  0.91188000000E+02 0.  0.
    9900012    2    3    3    0    0 -0.36497241548E+01  0.15144197567E+02 -0.40508728266E+02  0.47787259545E+02  0.19999947569E+02 0.  0.
         12    1    3    3    0    0  0.36497241548E+01 -0.15144197567E+02  0.40508728266E+02  0.43400740455E+02  0.00000000000E+00 0. -1.
         11    1    4    4    0    0 -0.20245742792E+01 -0.16180746763E+01 -0.51472870539E+01  0.57629533181E+01  0.51100000000E-03 0. -1.
        -11    1    4    4    0    0  0.57375128335E+01  0.26108157334E+01 -0.14090439020E+02  0.15436187494E+02  0.51100000000E-03 0.  1.
         12    1    4    4    0    0 -0.73626627092E+01  0.14151456510E+02 -0.21271002192E+02  0.26588118733E+02  0.00000000000E+00 0. -1.
</event>
<event>
 8    1  0.5250708E-010  0.9118800E+02  0.7816164E-02  0.1184000E+00
        -11   -1    0    0    0    0  0.00000000000E+00  0.00000000000E+00  0.45593999997E+02  0.45594000000E+02  0.51100000000E-03 0. -1.
         11   -1    0    0    0    0 -0.00000000000E+00 -0.00000000000E+00 -0.45593999997E+02  0.45594000000E+02  0.51100000000E-03 0.  1.
         23    2    1    2    0    0 -0.17763568394E-14  0.00000000000E+00 -0.35527136788E-14  0.91188000000E+02  0.91188000000E+02 0.  0.
    9900012    2    3    3    0    0  0.15210431055E+02 -0.30122315666E+02  0.27293077897E+02  0.47787271722E+02  0.20000003090E+02 0.  0.
        -12    1    3    3    0    0 -0.15210431055E+02  0.30122315666E+02 -0.27293077897E+02  0.43400728278E+02  0.00000000000E+00 0.  1.
         11    1    4    4    0    0  0.12729667446E+02 -0.46520711566E+01  0.87737731881E+01  0.16145132256E+02  0.51100000000E-03 0. -1.
        -11    1    4    4    0    0  0.58098596843E+00 -0.93355407969E+01  0.77912498279E+01  0.12173472833E+02  0.51100000000E-03 0.  1.
         12    1    4    4    0    0  0.18997776404E+01 -0.16134703712E+02  0.10728054881E+02  0.19468666634E+02  0.00000000000E+00 0. -1.
</event>
<event>
 8    1  0.5250708E-010  0.9118800E+02  0.7816164E-02  0.1184000E+00
        -11   -1    0    0    0    0  0.00000000000E+00  0.00000000000E+00  0.45593999997E+02  0.45594000000E+02  0.51100000000E-03 0. -1.
         11   -1    0    0    0    0 -0.00000000000E+00 -0.00000000000E+00 -0.45593999997E+02  0.45594000000E+02  0.51100000000E-03 0.  1.
         23    2    1    2    0    0 -0.88817841970E-15  0.00000000000E+00  0.00000000000E+00  0.91188000000E+02  0.91188000000E+02 0.  0.
    9900012    2    3    3    0    0 -0.21188587025E+01 -0.11472804466E+02 -0.41803212495E+02  0.47787269829E+02  0.19999994456E+02 0.  0.
         12    1    3    3    0    0  0.21188587025E+01  0.11472804466E+02  0.41803212495E+02  0.43400730171E+02  0.00000000000E+00 0. -1.
         11    1    4    4    0    0 -0.42747984710E+01 -0.14573677827E+01 -0.77154449022E+01  0.89401293683E+01  0.51100000000E-03 0.  1.
        -11    1    4    4    0    0  0.70136919579E+01 -0.82925863006E+01 -0.30979654177E+02  0.32828308449E+02  0.51100000000E-03 0. -1.
         12    1    4    4    0    0 -0.48577521894E+01 -0.17228503828E+01 -0.31081134159E+01  0.60188320114E+01  0.00000000000E+00 0. -1.
</event>
<event>
 8    1  0.5250708E-010  0.9118800E+02  0.7816164E-02  0.1184000E+00
        -11   -1    0    0    0    0  0.00000000000E+00  0.00000000000E+00  0.45593999997E+02  0.45594000000E+02  0.51100000000E-03 0. -1.
         11   -1    0    0    0    0 -0.00000000000E+00 -0.00000000000E+00 -0.45593999997E+02  0.45594000000E+02  0.51100000000E-03 0.  1.
         23    2    1    2    0    0  0.17763568394E-14 -0.35527136788E-14  0.00000000000E+00  0.91188000000E+02  0.91188000000E+02 0.  0.
    9900012    2    3    3    0    0  0.15173662502E+02 -0.25498538715E+02 -0.31673469317E+02  0.47787260733E+02  0.19999952987E+02 0.  0.
         12    1    3    3    0    0 -0.15173662502E+02  0.25498538715E+02  0.31673469317E+02  0.43400739267E+02  0.00000000000E+00 0. -1.
         11    1    4    4    0    0  0.46701207919E+01 -0.60359437060E+01 -0.21535878604E+02  0.22848122727E+02  0.51100000000E-03 0.  1.
        -11    1    4    4    0    0  0.16769901261E+01 -0.87244027816E+01 -0.40868196680E+01  0.97790385538E+01  0.51100000000E-03 0. -1.
        -12    1    4    4    0    0  0.88265515840E+01 -0.10738192227E+02 -0.60507710451E+01  0.15160099453E+02  0.00000000000E+00 0.  1.
</event>
<event>
 8    1  0.5250708E-010  0.9118800E+02  0.7816164E-02  0.1184000E+00
        -11   -1    0    0    0    0  0.00000000000E+00  0.00000000000E+00  0.45593999997E+02  0.45594000000E+02  0.51100000000E-03 0. -1.
         11   -1    0    0    0    0 -0.00000000000E+00 -0.00000000000E+00 -0.45593999997E+02  0.45594000000E+02  0.51100000000E-03 0.  1.
         23    2    1    2    0    0 -0.88817841970E-15  0.00000000000E+00  0.00000000000E+00  0.91188000000E+02  0.91188000000E+02 0.  0.
    9900012    2    3    3    0    0 -0.40063911096E+01  0.40452970829E+02  0.15202936457E+02  0.47787270795E+02  0.19999998862E+02 0.  0.
        -12    1    3    3    0    0  0.40063911096E+01 -0.40452970829E+02 -0.15202936457E+02  0.43400729205E+02  0.00000000000E+00 0.  1.
         11    1    4    4    0    0  0.13949961931E+01  0.14853438771E+02 -0.23628397383E+01  0.15104756522E+02  0.51100000000E-03 0. -1.
        -11    1    4    4    0    0 -0.53165847536E+01  0.20845001963E+02  0.99451090336E+01  0.23699902409E+02  0.51100000000E-03 0.  1.
        -12    1    4    4    0    0 -0.84802549027E-01  0.47545300959E+01  0.76206671618E+01  0.89826118638E+01  0.00000000000E+00 0.  1.
</event>
<event>
 8    1  0.5250708E-010  0.9118800E+02  0.7816164E-02  0.1184000E+00
        -11   -1    0    0    0    0  0.00000000000E+00  0.00000000000E+00  0.45593999997E+02  0.45594000000E+02  0.51100000000E-03 0. -1.
         11   -1    0    0    0    0 -0.00000000000E+00 -0.00000000000E+00 -0.45593999997E+02  0.45594000000E+02  0.51100000000E-03 0.  1.
         23    2    1    2    0    0  0.17763568394E-14  0.00000000000E+00 -0.35527136788E-14  0.91188000000E+02  0.91188000000E+02 0.  0.
    9900012    2    3    3    0    0  0.13205787377E+02 -0.27329877895E+02  0.31021096630E+02  0.47787268645E+02  0.19999989061E+02 0.  0.
        -12    1    3    3    0    0 -0.13205787377E+02  0.27329877895E+02 -0.31021096630E+02  0.43400731355E+02  0.00000000000E+00 0.  1.
         11    1    4    4    0    0  0.71599900294E+01 -0.59455065519E+01  0.35542650812E+01  0.99622942091E+01  0.51100000000E-03 0. -1.
        -11    1    4    4    0    0  0.10298207832E+01 -0.21664691503E+01  0.13084976134E+02  0.13303034245E+02  0.51100000000E-03 0.  1.
         12    1    4    4    0    0  0.50159765642E+01 -0.19217902193E+02  0.14381855415E+02  0.24521940192E+02  0.00000000000E+00 0. -1.
</event>
<event>
 8    1  0.5250708E-010  0.9118800E+02  0.7816164E-02  0.1184000E+00
        -11   -1    0    0    0    0  0.00000000000E+00  0.00000000000E+00  0.45593999997E+02  0.45594000000E+02  0.51100000000E-03 0. -1.
         11   -1    0    0    0    0 -0.00000000000E+00 -0.00000000000E+00 -0.45593999997E+02  0.45594000000E+02  0.51100000000E-03 0.  1.
         23    2    1    2    0    0  0.00000000000E+00  0.35527136788E-14  0.71054273576E-14  0.91188000000E+02  0.91188000000E+02 0.  0.
    9900012    2    3    3    0    0 -0.13556207182E+02  0.25272907966E+02  0.32575041147E+02  0.47787263417E+02  0.19999965225E+02 0.  0.
        -12    1    3    3    0    0  0.13556207182E+02 -0.25272907966E+02 -0.32575041147E+02  0.43400736583E+02  0.00000000000E+00 0.  1.
         11    1    4    4    0    0 -0.90797319345E+01  0.18815698040E+02  0.12025461846E+02  0.24105678949E+02  0.51100000000E-03 0. -1.
        -11    1    4    4    0    0 -0.69742460664E+01  0.60624001445E+01  0.16210898555E+02  0.18659743726E+02  0.51100000000E-03 0.  1.
        -12    1    4    4    0    0  0.24977708185E+01  0.39480978128E+00  0.43386807458E+01  0.50218407421E+01  0.00000000000E+00 0.  1.
</event>
<event>
 8    1  0.5250708E-010  0.9118800E+02  0.7816164E-02  0.1184000E+00
        -11   -1    0    0    0    0  0.00000000000E+00  0.00000000000E+00  0.45593999997E+02  0.45594000000E+02  0.51100000000E-03 0. -1.
         11   -1    0    0    0    0 -0.00000000000E+00 -0.00000000000E+00 -0.45593999997E+02  0.45594000000E+02  0.51100000000E-03 0.  1.
         23    2    1    2    0    0  0.35527136788E-14 -0.71054273576E-14  0.00000000000E+00  0.91188000000E+02  0.91188000000E+02 0.  0.
    9900012    2    3    3    0    0  0.21504009400E+02 -0.33772090493E+02 -0.16752540620E+02  0.47787261138E+02  0.19999954833E+02 0.  0.
         12    1    3    3    0    0 -0.21504009400E+02  0.33772090493E+02  0.16752540620E+02  0.43400738862E+02  0.00000000000E+00 0. -1.
         11    1    4    4    0    0  0.19062266346E+00 -0.57734752272E+01  0.10344435490E+01  0.58685114736E+01  0.51100000000E-03 0. -1.
        -11    1    4    4    0    0  0.21919852570E+02 -0.28470391728E+02 -0.14843061524E+02  0.38876208888E+02  0.51100000000E-03 0.  1.
         12    1    4    4    0    0 -0.60646583394E+00  0.47177646191E+00 -0.29439226452E+01  0.30425407768E+01  0.00000000000E+00 0. -1.
</event>
<event>
 8    1  0.5250708E-010  0.9118800E+02  0.7816164E-02  0.1184000E+00
        -11   -1    0    0    0    0  0.00000000000E+00  0.00000000000E+00  0.45593999997E+02  0.45594000000E+02  0.51100000000E-03 0. -1.
         11   -1    0    0    0    0 -0.00000000000E+00 -0.00000000000E+00 -0.45593999997E+02  0.45594000000E+02  0.51100000000E-03 0.  1.
         23    2    1    2    0    0  0.35527136788E-14 -0.71054273576E-14  0.35527136788E-14  0.91188000000E+02  0.91188000000E+02 0.  0.
    9900012    2    3    3    0    0  0.15485578207E+02 -0.34112513777E+02  0.21912469356E+02  0.47787273717E+02  0.20000012187E+02 0.  0.
        -12    1    3    3    0    0 -0.15485578207E+02  0.34112513777E+02 -0.21912469356E+02  0.43400726283E+02  0.00000000000E+00 0.  1.
         11    1    4    4    0    0  0.37654117501E+01 -0.11808847913E+02  0.82225552849E+01  0.14874058974E+02  0.51100000000E-03 0.  1.
        -11    1    4    4    0    0  0.12903083297E+02 -0.14966937541E+02  0.15672821826E+02  0.25221739079E+02  0.51100000000E-03 0. -1.
        -12    1    4    4    0    0 -0.11829168397E+01 -0.73367283230E+01 -0.19829077552E+01  0.76914756647E+01  0.00000000000E+00 0.  1.
</event>
<event>
 8    1  0.5250708E-010  0.9118800E+02  0.7816164E-02  0.1184000E+00
        -11   -1    0    0    0    0  0.00000000000E+00  0.00000000000E+00  0.45593999997E+02  0.45594000000E+02  0.51100000000E-03 0. -1.
         11   -1    0    0    0    0 -0.00000000000E+00 -0.00000000000E+00 -0.45593999997E+02  0.45594000000E+02  0.51100000000E-03 0.  1.
         23    2    1    2    0    0  0.00000000000E+00  0.00000000000E+00  0.00000000000E+00  0.91188000000E+02  0.91188000000E+02 0.  0.
    9900012    2    3    3    0    0 -0.34523430852E+02 -0.19111264197E+02 -0.18069753048E+02  0.47787266455E+02  0.19999979076E+02 0.  0.
         12    1    3    3    0    0  0.34523430852E+02  0.19111264197E+02  0.18069753048E+02  0.43400733545E+02  0.00000000000E+00 0. -1.
         11    1    4    4    0    0 -0.15732235755E+02 -0.87151391275E+01 -0.34000216069E+00  0.17988120903E+02  0.51100000000E-03 0. -1.
        -11    1    4    4    0    0 -0.25057467079E+00  0.13357456122E+01 -0.32190205579E+01  0.34941519170E+01  0.51100000000E-03 0.  1.
        -12    1    4    4    0    0 -0.18540620426E+02 -0.11731870682E+02 -0.14510730330E+02  0.26304993636E+02  0.00000000000E+00 0.  1.
</event>
<event>
 8    1  0.5250708E-010  0.9118800E+02  0.7816164E-02  0.1184000E+00
        -11   -1    0    0    0    0  0.00000000000E+00  0.00000000000E+00  0.45593999997E+02  0.45594000000E+02  0.51100000000E-03 0. -1.
         11   -1    0    0    0    0 -0.00000000000E+00 -0.00000000000E+00 -0.45593999997E+02  0.45594000000E+02  0.51100000000E-03 0.  1.
         23    2    1    2    0    0  0.00000000000E+00 -0.71054273576E-14  0.35527136788E-14  0.91188000000E+02  0.91188000000E+02 0.  0.
    9900012    2    3    3    0    0 -0.91116194948E+01 -0.37709449444E+02  0.19457620337E+02  0.47787272168E+02  0.20000005121E+02 0.  0.
        -12    1    3    3    0    0  0.91116194948E+01  0.37709449444E+02 -0.19457620337E+02  0.43400727832E+02  0.00000000000E+00 0.  1.
         11    1    4    4    0    0 -0.35518936020E+01 -0.65588769013E+00  0.22668500343E+01  0.42643576493E+01  0.51100000000E-03 0.  1.
        -11    1    4    4    0    0 -0.85600248634E+01 -0.31049956718E+02  0.17772215335E+02  0.36786213124E+02  0.51100000000E-03 0. -1.
         12    1    4    4    0    0  0.30002989706E+01 -0.60036050361E+01 -0.58144503254E+00  0.67367013938E+01  0.00000000000E+00 0. -1.
</event>
<event>
 8    1  0.5250708E-010  0.9118800E+02  0.7816164E-02  0.1184000E+00
        -11   -1    0    0    0    0  0.00000000000E+00  0.00000000000E+00  0.45593999997E+02  0.45594000000E+02  0.51100000000E-03 0. -1.
         11   -1    0    0    0    0 -0.00000000000E+00 -0.00000000000E+00 -0.45593999997E+02  0.45594000000E+02  0.51100000000E-03 0.  1.
         23    2    1    2    0    0  0.00000000000E+00  0.00000000000E+00  0.00000000000E+00  0.91188000000E+02  0.91188000000E+02 0.  0.
    9900012    2    3    3    0    0  0.17994392959E+02  0.21711063862E+02 -0.32991737181E+02  0.47787271962E+02  0.20000004185E+02 0.  0.
         12    1    3    3    0    0 -0.17994392959E+02 -0.21711063862E+02  0.32991737181E+02  0.43400728038E+02  0.00000000000E+00 0. -1.
         11    1    4    4    0    0  0.22680019041E+01  0.46500709904E+01 -0.16323363192E+02  0.17123643859E+02  0.51100000000E-03 0. -1.
        -11    1    4    4    0    0  0.11444056630E+02  0.43362014499E+01 -0.91074044476E+01  0.15254962838E+02  0.51100000000E-03 0.  1.
         12    1    4    4    0    0  0.42823344252E+01  0.12724791422E+02 -0.75609695415E+01  0.15408665265E+02  0.00000000000E+00 0. -1.
</event>
<event>
 8    1  0.5250708E-010  0.9118800E+02  0.7816164E-02  0.1184000E+00
        -11   -1    0    0    0    0  0.00000000000E+00  0.00000000000E+00  0.45593999997E+02  0.45594000000E+02  0.51100000000E-03 0. -1.
         11   -1    0    0    0    0 -0.00000000000E+00 -0.00000000000E+00 -0.45593999997E+02  0.45594000000E+02  0.51100000000E-03 0.  1.
         23    2    1    2    0    0 -0.71054273576E-14  0.35527136788E-14 -0.35527136788E-14  0.91188000000E+02  0.91188000000E+02 0.  0.
    9900012    2    3    3    0    0 -0.33477154668E+02  0.22343223106E+02 -0.16238247168E+02  0.47787306750E+02  0.20000162796E+02 0.  0.
         12    1    3    3    0    0  0.33477154668E+02 -0.22343223106E+02  0.16238247168E+02  0.43400693250E+02  0.00000000000E+00 0. -1.
         11    1    4    4    0    0 -0.11412813659E+02  0.27740065158E+01 -0.84864094697E+01  0.14490223384E+02  0.51100000000E-03 0.  1.
        -11    1    4    4    0    0 -0.16978300079E+02  0.20456736911E+02 -0.88494406004E+01  0.28018803647E+02  0.51100000000E-03 0. -1.
         12    1    4    4    0    0 -0.50860409299E+01 -0.88752032045E+00  0.10976029017E+01  0.52782797187E+01  0.00000000000E+00 0. -1.
</event>
<event>
 8    1  0.5250708E-010  0.9118800E+02  0.7816164E-02  0.1184000E+00
        -11   -1    0    0    0    0  0.00000000000E+00  0.00000000000E+00  0.45593999997E+02  0.45594000000E+02  0.51100000000E-03 0. -1.
         11   -1    0    0    0    0 -0.00000000000E+00 -0.00000000000E+00 -0.45593999997E+02  0.45594000000E+02  0.51100000000E-03 0.  1.
         23    2    1    2    0    0  0.00000000000E+00 -0.35527136788E-14  0.71054273576E-14  0.91188000000E+02  0.91188000000E+02 0.  0.
    9900012    2    3    3    0    0 -0.21589073764E+01  0.28738928418E+02 -0.32450528732E+02  0.47787266105E+02  0.19999977480E+02 0.  0.
         12    1    3    3    0    0  0.21589073764E+01 -0.28738928418E+02  0.32450528732E+02  0.43400733895E+02  0.00000000000E+00 0. -1.
         11    1    4    4    0    0  0.18630831409E+01 -0.56569021684E+00  0.71546694019E+00  0.20743619296E+01  0.51100000000E-03 0.  1.
        -11    1    4    4    0    0 -0.69204729272E+01  0.12095329824E+02 -0.13193536357E+02  0.19190084704E+02  0.51100000000E-03 0. -1.
        -12    1    4    4    0    0  0.28984824099E+01  0.17209288810E+02 -0.19972459315E+02  0.26522819472E+02  0.00000000000E+00 0.  1.
</event>
<event>
 8    1  0.5250708E-010  0.9118800E+02  0.7816164E-02  0.1184000E+00
        -11   -1    0    0    0    0  0.00000000000E+00  0.00000000000E+00  0.45593999997E+02  0.45594000000E+02  0.51100000000E-03 0.  1.
         11   -1    0    0    0    0 -0.00000000000E+00 -0.00000000000E+00 -0.45593999997E+02  0.45594000000E+02  0.51100000000E-03 0. -1.
         23    2    1    2    0    0 -0.35527136788E-14  0.35527136788E-14  0.66613381478E-15  0.91188000000E+02  0.91188000000E+02 0.  0.
    9900012    2    3    3    0    0  0.30365582154E+02 -0.30984343024E+02  0.12350116334E+01  0.47787270214E+02  0.19999996215E+02 0.  0.
        -12    1    3    3    0    0 -0.30365582154E+02  0.30984343024E+02 -0.12350116334E+01  0.43400729786E+02  0.00000000000E+00 0.  1.
         11    1    4    4    0    0  0.17543964439E+02 -0.85537067882E+01  0.23594707242E+01  0.19660205757E+02  0.51100000000E-03 0. -1.
        -11    1    4    4    0    0  0.47665853820E+01 -0.78524581992E+01 -0.57550169479E+01  0.10839818094E+02  0.51100000000E-03 0.  1.
         12    1    4    4    0    0  0.80550323336E+01 -0.14578178037E+02  0.46305578571E+01  0.17287246363E+02  0.00000000000E+00 0. -1.
</event>
<event>
 8    1  0.5250708E-010  0.9118800E+02  0.7816164E-02  0.1184000E+00
        -11   -1    0    0    0    0  0.00000000000E+00  0.00000000000E+00  0.45593999997E+02  0.45594000000E+02  0.51100000000E-03 0. -1.
         11   -1    0    0    0    0 -0.00000000000E+00 -0.00000000000E+00 -0.45593999997E+02  0.45594000000E+02  0.51100000000E-03 0.  1.
         23    2    1    2    0    0  0.00000000000E+00  0.00000000000E+00  0.88817841970E-15  0.91188000000E+02  0.91188000000E+02 0.  0.
    9900012    2    3    3    0    0 -0.89803467915E+01 -0.41956803546E+02  0.65271127517E+01  0.47787271974E+02  0.20000004238E+02 0.  0.
        -12    1    3    3    0    0  0.89803467915E+01  0.41956803546E+02 -0.65271127517E+01  0.43400728026E+02  0.00000000000E+00 0.  1.
         11    1    4    4    0    0 -0.11946398701E+02 -0.32374577820E+02  0.68178226272E+01  0.35175452187E+02  0.51100000000E-03 0. -1.
        -11    1    4    4    0    0  0.16226607346E+01 -0.60252072696E+01  0.35734563284E+01  0.71906704064E+01  0.51100000000E-03 0.  1.
         12    1    4    4    0    0  0.13433911752E+01 -0.35570184571E+01 -0.38641662040E+01  0.54211493805E+01  0.00000000000E+00 0. -1.
</event>
<event>
 8    1  0.5250708E-010  0.9118800E+02  0.7816164E-02  0.1184000E+00
        -11   -1    0    0    0    0  0.00000000000E+00  0.00000000000E+00  0.45593999997E+02  0.45594000000E+02  0.51100000000E-03 0. -1.
         11   -1    0    0    0    0 -0.00000000000E+00 -0.00000000000E+00 -0.45593999997E+02  0.45594000000E+02  0.51100000000E-03 0.  1.
         23    2    1    2    0    0  0.00000000000E+00  0.35527136788E-14 -0.35527136788E-14  0.91188000000E+02  0.91188000000E+02 0.  0.
    9900012    2    3    3    0    0 -0.14840585609E+02  0.30500319692E+02 -0.27076014874E+02  0.47787273462E+02  0.20000011023E+02 0.  0.
         12    1    3    3    0    0  0.14840585609E+02 -0.30500319692E+02  0.27076014874E+02  0.43400726538E+02  0.00000000000E+00 0. -1.
         11    1    4    4    0    0 -0.25217784027E+01  0.14548415209E+02 -0.75614865820E+01  0.16588906865E+02  0.51100000000E-03 0. -1.
        -11    1    4    4    0    0 -0.46805077678E+01  0.58720616539E+01 -0.16600618358E+02  0.18220010734E+02  0.51100000000E-03 0.  1.
        -12    1    4    4    0    0 -0.76382994388E+01  0.10079842830E+02 -0.29139099342E+01  0.12978355863E+02  0.00000000000E+00 0.  1.
</event>
<event>
 8    1  0.5250708E-010  0.9118800E+02  0.7816164E-02  0.1184000E+00
        -11   -1    0    0    0    0  0.00000000000E+00  0.00000000000E+00  0.45593999997E+02  0.45594000000E+02  0.51100000000E-03 0. -1.
         11   -1    0    0    0    0 -0.00000000000E+00 -0.00000000000E+00 -0.45593999997E+02  0.45594000000E+02  0.51100000000E-03 0.  1.
         23    2    1    2    0    0  0.00000000000E+00  0.00000000000E+00  0.00000000000E+00  0.91188000000E+02  0.91188000000E+02 0.  0.
    9900012    2    3    3    0    0  0.34412145942E+02  0.18578153655E+02 -0.18822317412E+02  0.47787271731E+02  0.20000003128E+02 0.  0.
         12    1    3    3    0    0 -0.34412145942E+02 -0.18578153655E+02  0.18822317412E+02  0.43400728269E+02  0.00000000000E+00 0. -1.
         11    1    4    4    0    0  0.11265144081E+02  0.11845258642E+02 -0.27195680730E+01  0.16571351008E+02  0.51100000000E-03 0. -1.
        -11    1    4    4    0    0  0.20654172507E+01  0.10284263916E+00 -0.70276238279E+01  0.73255731487E+01  0.51100000000E-03 0.  1.
        -12    1    4    4    0    0  0.21081584610E+02  0.66300523739E+01 -0.90751255105E+01  0.23890347574E+02  0.00000000000E+00 0.  1.
</event>
<event>
 8    1  0.5250708E-010  0.9118800E+02  0.7816164E-02  0.1184000E+00
        -11   -1    0    0    0    0  0.00000000000E+00  0.00000000000E+00  0.45593999997E+02  0.45594000000E+02  0.51100000000E-03 0. -1.
         11   -1    0    0    0    0 -0.00000000000E+00 -0.00000000000E+00 -0.45593999997E+02  0.45594000000E+02  0.51100000000E-03 0.  1.
         23    2    1    2    0    0  0.00000000000E+00  0.00000000000E+00  0.00000000000E+00  0.91188000000E+02  0.91188000000E+02 0.  0.
    9900012    2    3    3    0    0 -0.33466717322E+02  0.51973619268E+01 -0.27140174750E+02  0.47787276218E+02  0.20000023589E+02 0.  0.
         12    1    3    3    0    0  0.33466717322E+02 -0.51973619268E+01  0.27140174750E+02  0.43400723782E+02  0.00000000000E+00 0. -1.
         11    1    4    4    0    0 -0.12635292444E+02  0.10834403962E+02 -0.91518920653E+01  0.18994526922E+02  0.51100000000E-03 0. -1.
        -11    1    4    4    0    0 -0.13519131978E+02 -0.89732043213E+00 -0.89511652074E+01  0.16238702911E+02  0.51100000000E-03 0.  1.
         12    1    4    4    0    0 -0.73122929002E+01 -0.47397216035E+01 -0.90371174777E+01  0.12554046385E+02  0.00000000000E+00 0. -1.
</event>
<event>
 8    1  0.5250708E-010  0.9118800E+02  0.7816164E-02  0.1184000E+00
        -11   -1    0    0    0    0  0.00000000000E+00  0.00000000000E+00  0.45593999997E+02  0.45594000000E+02  0.51100000000E-03 0. -1.
         11   -1    0    0    0    0 -0.00000000000E+00 -0.00000000000E+00 -0.45593999997E+02  0.45594000000E+02  0.51100000000E-03 0.  1.
         23    2    1    2    0    0  0.00000000000E+00  0.17763568394E-14  0.00000000000E+00  0.91188000000E+02  0.91188000000E+02 0.  0.
    9900012    2    3    3    0    0 -0.29915842257E+02  0.15850258898E+02 -0.27155752420E+02  0.47787271728E+02  0.20000003116E+02 0.  0.
         12    1    3    3    0    0  0.29915842257E+02 -0.15850258898E+02  0.27155752420E+02  0.43400728272E+02  0.00000000000E+00 0. -1.
         11    1    4    4    0    0 -0.96404585607E+01  0.27143333780E+00 -0.27893668333E+01  0.10039556012E+02  0.51100000000E-03 0. -1.
        -11    1    4    4    0    0 -0.20508300438E+02  0.10903308651E+02 -0.23395103791E+02  0.32966701504E+02  0.51100000000E-03 0.  1.
        -12    1    4    4    0    0  0.23291674152E+00  0.46755169084E+01 -0.97128179504E+00  0.47810142120E+01  0.00000000000E+00 0.  1.
</event>
<event>
 8    1  0.5250708E-010  0.9118800E+02  0.7816164E-02  0.1184000E+00
        -11   -1    0    0    0    0  0.00000000000E+00  0.00000000000E+00  0.45593999997E+02  0.45594000000E+02  0.51100000000E-03 0. -1.
         11   -1    0    0    0    0 -0.00000000000E+00 -0.00000000000E+00 -0.45593999997E+02  0.45594000000E+02  0.51100000000E-03 0.  1.
         23    2    1    2    0    0  0.00000000000E+00 -0.35527136788E-14  0.00000000000E+00  0.91188000000E+02  0.91188000000E+02 0.  0.
    9900012    2    3    3    0    0 -0.19629556529E+02 -0.17627463566E+02  0.34461211448E+02  0.47787285077E+02  0.20000063982E+02 0.  0.
        -12    1    3    3    0    0  0.19629556529E+02  0.17627463566E+02 -0.34461211448E+02  0.43400714923E+02  0.00000000000E+00 0.  1.
         11    1    4    4    0    0 -0.10042723354E+02 -0.87437762693E+01  0.29874686046E+02  0.32707900918E+02  0.51100000000E-03 0. -1.
        -11    1    4    4    0    0 -0.30441867735E+01  0.96819758807E-01 -0.33934313951E-01  0.30459151296E+01  0.51100000000E-03 0.  1.
         12    1    4    4    0    0 -0.65426464015E+01 -0.89805070559E+01  0.46204597159E+01  0.12033469030E+02  0.00000000000E+00 0. -1.
</event>
<event>
 8    1  0.5250708E-010  0.9118800E+02  0.7816164E-02  0.1184000E+00
        -11   -1    0    0    0    0  0.00000000000E+00  0.00000000000E+00  0.45593999997E+02  0.45594000000E+02  0.51100000000E-03 0. -1.
         11   -1    0    0    0    0 -0.00000000000E+00 -0.00000000000E+00 -0.45593999997E+02  0.45594000000E+02  0.51100000000E-03 0.  1.
         23    2    1    2    0    0  0.00000000000E+00  0.00000000000E+00  0.00000000000E+00  0.91188000000E+02  0.91188000000E+02 0.  0.
    9900012    2    3    3    0    0  0.25665702575E+02 -0.10220116913E+02  0.33473037577E+02  0.47787270478E+02  0.19999997419E+02 0.  0.
        -12    1    3    3    0    0 -0.25665702575E+02  0.10220116913E+02 -0.33473037577E+02  0.43400729522E+02  0.00000000000E+00 0.  1.
         11    1    4    4    0    0 -0.27328908551E+01 -0.10715208427E+01  0.14616797382E+01  0.32792311996E+01  0.51100000000E-03 0. -1.
        -11    1    4    4    0    0  0.12140763403E+02  0.23920286963E+00  0.13016477168E+02  0.17801236815E+02  0.51100000000E-03 0.  1.
        -12    1    4    4    0    0  0.16257830027E+02 -0.93877989401E+01  0.18994880671E+02  0.26706802464E+02  0.00000000000E+00 0.  1.
</event>
<event>
 8    1  0.5250708E-010  0.9118800E+02  0.7816164E-02  0.1184000E+00
        -11   -1    0    0    0    0  0.00000000000E+00  0.00000000000E+00  0.45593999997E+02  0.45594000000E+02  0.51100000000E-03 0. -1.
         11   -1    0    0    0    0 -0.00000000000E+00 -0.00000000000E+00 -0.45593999997E+02  0.45594000000E+02  0.51100000000E-03 0.  1.
         23    2    1    2    0    0  0.00000000000E+00  0.00000000000E+00  0.17763568394E-14  0.91188000000E+02  0.91188000000E+02 0.  0.
    9900012    2    3    3    0    0  0.15359193873E+02  0.38050575554E+02 -0.14137638426E+02  0.47787263179E+02  0.19999964136E+02 0.  0.
         12    1    3    3    0    0 -0.15359193873E+02 -0.38050575554E+02  0.14137638426E+02  0.43400736821E+02  0.00000000000E+00 0. -1.
         11    1    4    4    0    0  0.38144518824E-01 -0.96915957575E+00  0.10923184016E+01  0.14607823381E+01  0.51100000000E-03 0. -1.
        -11    1    4    4    0    0 -0.16072318406E+01  0.73569335160E+00 -0.13548728965E+01  0.22271326238E+01  0.51100000000E-03 0.  1.
        -12    1    4    4    0    0  0.16928281194E+02  0.38284041778E+02 -0.13875083931E+02  0.44099348217E+02  0.00000000000E+00 0.  1.
</event>
<event>
 8    1  0.5250708E-010  0.9118800E+02  0.7816164E-02  0.1184000E+00
        -11   -1    0    0    0    0  0.00000000000E+00  0.00000000000E+00  0.45593999997E+02  0.45594000000E+02  0.51100000000E-03 0. -1.
         11   -1    0    0    0    0 -0.00000000000E+00 -0.00000000000E+00 -0.45593999997E+02  0.45594000000E+02  0.51100000000E-03 0.  1.
         23    2    1    2    0    0  0.00000000000E+00  0.71054273576E-14  0.00000000000E+00  0.91188000000E+02  0.91188000000E+02 0.  0.
    9900012    2    3    3    0    0 -0.10283163657E+01 -0.40259605197E+02  0.16178102476E+02  0.47787259858E+02  0.19999948996E+02 0.  0.
        -12    1    3    3    0    0  0.10283163657E+01  0.40259605197E+02 -0.16178102476E+02  0.43400740142E+02  0.00000000000E+00 0.  1.
         11    1    4    4    0    0  0.17548760703E+01 -0.15128278830E+02  0.72812185294E+01  0.16880774684E+02  0.51100000000E-03 0. -1.
        -11    1    4    4    0    0 -0.16421364701E+01  0.15719073996E+01  0.25876012213E+01  0.34442975192E+01  0.51100000000E-03 0.  1.
        -12    1    4    4    0    0 -0.11410559659E+01 -0.26703233766E+02  0.63092827257E+01  0.27462187655E+02  0.00000000000E+00 0.  1.
</event>
<event>
 8    1  0.5250708E-010  0.9118800E+02  0.7816164E-02  0.1184000E+00
        -11   -1    0    0    0    0  0.00000000000E+00  0.00000000000E+00  0.45593999997E+02  0.45594000000E+02  0.51100000000E-03 0. -1.
         11   -1    0    0    0    0 -0.00000000000E+00 -0.00000000000E+00 -0.45593999997E+02  0.45594000000E+02  0.51100000000E-03 0.  1.
         23    2    1    2    0    0 -0.44408920985E-15  0.00000000000E+00 -0.35527136788E-14  0.91188000000E+02  0.91188000000E+02 0.  0.
    9900012    2    3    3    0    0 -0.16416702506E+01  0.37018389337E+02  0.22595728843E+02  0.47787271984E+02  0.20000004285E+02 0.  0.
        -12    1    3    3    0    0  0.16416702506E+01 -0.37018389337E+02 -0.22595728843E+02  0.43400728016E+02  0.00000000000E+00 0.  1.
         11    1    4    4    0    0 -0.37638033507E+01  0.35449629910E+01  0.11164583445E+02  0.12303694650E+02  0.51100000000E-03 0.  1.
        -11    1    4    4    0    0 -0.12623982786E+00  0.10678963984E+02  0.32968351775E+01  0.11177000077E+02  0.51100000000E-03 0. -1.
        -12    1    4    4    0    0  0.22483729279E+01  0.22794462363E+02  0.81343102202E+01  0.24306577258E+02  0.00000000000E+00 0.  1.
</event>
<event>
 8    1  0.5250708E-010  0.9118800E+02  0.7816164E-02  0.1184000E+00
        -11   -1    0    0    0    0  0.00000000000E+00  0.00000000000E+00  0.45593999997E+02  0.45594000000E+02  0.51100000000E-03 0. -1.
         11   -1    0    0    0    0 -0.00000000000E+00 -0.00000000000E+00 -0.45593999997E+02  0.45594000000E+02  0.51100000000E-03 0.  1.
         23    2    1    2    0    0  0.00000000000E+00  0.35527136788E-14  0.00000000000E+00  0.91188000000E+02  0.91188000000E+02 0.  0.
    9900012    2    3    3    0    0  0.21928128711E+01 -0.29398640598E+02  0.31851762283E+02  0.47787271230E+02  0.20000000844E+02 0.  0.
        -12    1    3    3    0    0 -0.21928128711E+01  0.29398640598E+02 -0.31851762283E+02  0.43400728770E+02  0.00000000000E+00 0.  1.
         11    1    4    4    0    0  0.34455726541E+01 -0.37352236249E+01 -0.12344327446E+01  0.52295019749E+01  0.51100000000E-03 0. -1.
        -11    1    4    4    0    0 -0.31960096270E+01 -0.13953422798E+02  0.13626361179E+02  0.19763355094E+02  0.51100000000E-03 0.  1.
        -12    1    4    4    0    0  0.19432498440E+01 -0.11709994174E+02  0.19459833848E+02  0.22794414161E+02  0.00000000000E+00 0.  1.
</event>
<event>
 8    1  0.5250708E-010  0.9118800E+02  0.7816164E-02  0.1184000E+00
        -11   -1    0    0    0    0  0.00000000000E+00  0.00000000000E+00  0.45593999997E+02  0.45594000000E+02  0.51100000000E-03 0. -1.
         11   -1    0    0    0    0 -0.00000000000E+00 -0.00000000000E+00 -0.45593999997E+02  0.45594000000E+02  0.51100000000E-03 0.  1.
         23    2    1    2    0    0  0.88817841970E-15  0.88817841970E-15  0.71054273576E-14  0.91188000000E+02  0.91188000000E+02 0.  0.
    9900012    2    3    3    0    0  0.44774151776E+01  0.56870327242E+01  0.42792925932E+02  0.47787261553E+02  0.19999956726E+02 0.  0.
        -12    1    3    3    0    0 -0.44774151776E+01 -0.56870327242E+01 -0.42792925932E+02  0.43400738447E+02  0.00000000000E+00 0.  1.
         11    1    4    4    0    0 -0.63495239195E+01  0.65197894039E+01  0.25432485048E+02  0.27011764175E+02  0.51100000000E-03 0. -1.
        -11    1    4    4    0    0  0.51777416088E+01 -0.94850430892E+00  0.53661957102E+01  0.75169625017E+01  0.51100000000E-03 0.  1.
         12    1    4    4    0    0  0.56491974884E+01  0.11574762930E+00  0.11994245174E+02  0.13258534877E+02  0.00000000000E+00 0. -1.
</event>
<event>
 8    1  0.5250708E-010  0.9118800E+02  0.7816164E-02  0.1184000E+00
        -11   -1    0    0    0    0  0.00000000000E+00  0.00000000000E+00  0.45593999997E+02  0.45594000000E+02  0.51100000000E-03 0. -1.
         11   -1    0    0    0    0 -0.00000000000E+00 -0.00000000000E+00 -0.45593999997E+02  0.45594000000E+02  0.51100000000E-03 0.  1.
         23    2    1    2    0    0  0.00000000000E+00  0.17763568394E-14  0.00000000000E+00  0.91188000000E+02  0.91188000000E+02 0.  0.
    9900012    2    3    3    0    0  0.21066558559E+02  0.12805824760E+02 -0.35718829924E+02  0.47787264425E+02  0.19999969818E+02 0.  0.
         12    1    3    3    0    0 -0.21066558559E+02 -0.12805824760E+02  0.35718829924E+02  0.43400735575E+02  0.00000000000E+00 0. -1.
         11    1    4    4    0    0  0.63818526092E+01  0.10651874289E+02 -0.21749848094E+02  0.25044886923E+02  0.51100000000E-03 0. -1.
        -11    1    4    4    0    0  0.77370370396E+01  0.57655250309E+01 -0.10238816859E+02  0.14068986885E+02  0.51100000000E-03 0.  1.
         12    1    4    4    0    0  0.69476689100E+01 -0.36115745598E+01 -0.37301649712E+01  0.86733906170E+01  0.00000000000E+00 0. -1.
</event>
<event>
 8    1  0.5250708E-010  0.9118800E+02  0.7816164E-02  0.1184000E+00
        -11   -1    0    0    0    0  0.00000000000E+00  0.00000000000E+00  0.45593999997E+02  0.45594000000E+02  0.51100000000E-03 0. -1.
         11   -1    0    0    0    0 -0.00000000000E+00 -0.00000000000E+00 -0.45593999997E+02  0.45594000000E+02  0.51100000000E-03 0.  1.
         23    2    1    2    0    0 -0.35527136788E-14  0.00000000000E+00  0.00000000000E+00  0.91188000000E+02  0.91188000000E+02 0.  0.
    9900012    2    3    3    0    0  0.28853624003E+02 -0.28074719331E+02 -0.16214244751E+02  0.47787271705E+02  0.20000003013E+02 0.  0.
         12    1    3    3    0    0 -0.28853624003E+02  0.28074719331E+02  0.16214244751E+02  0.43400728295E+02  0.00000000000E+00 0. -1.
         11    1    4    4    0    0  0.26928479442E+01 -0.10470211702E+02 -0.11291297397E+02  0.15632343404E+02  0.51100000000E-03 0. -1.
        -11    1    4    4    0    0  0.32941328307E+01 -0.29902990634E+01 -0.19406082662E+01  0.48537779408E+01  0.51100000000E-03 0.  1.
        -12    1    4    4    0    0  0.22866643228E+02 -0.14614208566E+02 -0.29823390878E+01  0.27301150360E+02  0.00000000000E+00 0.  1.
</event>
<event>
 8    1  0.5250708E-010  0.9118800E+02  0.7816164E-02  0.1184000E+00
        -11   -1    0    0    0    0  0.00000000000E+00  0.00000000000E+00  0.45593999997E+02  0.45594000000E+02  0.51100000000E-03 0. -1.
         11   -1    0    0    0    0 -0.00000000000E+00 -0.00000000000E+00 -0.45593999997E+02  0.45594000000E+02  0.51100000000E-03 0.  1.
         23    2    1    2    0    0  0.00000000000E+00  0.00000000000E+00  0.35527136788E-14  0.91188000000E+02  0.91188000000E+02 0.  0.
    9900012    2    3    3    0    0  0.24643499042E+02 -0.17031372946E+02 -0.31404673641E+02  0.47787271481E+02  0.20000001992E+02 0.  0.
         12    1    3    3    0    0 -0.24643499042E+02  0.17031372946E+02  0.31404673641E+02  0.43400728519E+02  0.00000000000E+00 0. -1.
         11    1    4    4    0    0 -0.13734858478E+01 -0.39262191753E+00 -0.20930187500E+00  0.14437530537E+01  0.51100000000E-03 0. -1.
        -11    1    4    4    0    0  0.34860083719E+01 -0.98596804236E+01 -0.12457518838E+02  0.16265156878E+02  0.51100000000E-03 0.  1.
        -12    1    4    4    0    0  0.22530976518E+02 -0.67790706049E+01 -0.18737852928E+02  0.30078361549E+02  0.00000000000E+00 0.  1.
</event>
<event>
 8    1  0.5250708E-010  0.9118800E+02  0.7816164E-02  0.1184000E+00
        -11   -1    0    0    0    0  0.00000000000E+00  0.00000000000E+00  0.45593999997E+02  0.45594000000E+02  0.51100000000E-03 0. -1.
         11   -1    0    0    0    0 -0.00000000000E+00 -0.00000000000E+00 -0.45593999997E+02  0.45594000000E+02  0.51100000000E-03 0.  1.
         23    2    1    2    0    0  0.00000000000E+00  0.00000000000E+00 -0.71054273576E-14  0.91188000000E+02  0.91188000000E+02 0.  0.
    9900012    2    3    3    0    0  0.13019479595E+02  0.59922828513E+01 -0.40965940940E+02  0.47787278580E+02  0.20000034356E+02 0.  0.
         12    1    3    3    0    0 -0.13019479595E+02 -0.59922828513E+01  0.40965940940E+02  0.43400721420E+02  0.00000000000E+00 0. -1.
         11    1    4    4    0    0  0.30099535824E+01 -0.15168294844E+01 -0.13549801512E+01  0.36327074923E+01  0.51100000000E-03 0. -1.
        -11    1    4    4    0    0  0.10444396783E+02  0.20649971087E+01 -0.36158629396E+02  0.37693449262E+02  0.51100000000E-03 0.  1.
        -12    1    4    4    0    0 -0.43487077056E+00  0.54441152270E+01 -0.34523313932E+01  0.64611218252E+01  0.00000000000E+00 0.  1.
</event>
<event>
 8    1  0.5250708E-010  0.9118800E+02  0.7816164E-02  0.1184000E+00
        -11   -1    0    0    0    0  0.00000000000E+00  0.00000000000E+00  0.45593999997E+02  0.45594000000E+02  0.51100000000E-03 0. -1.
         11   -1    0    0    0    0 -0.00000000000E+00 -0.00000000000E+00 -0.45593999997E+02  0.45594000000E+02  0.51100000000E-03 0.  1.
         23    2    1    2    0    0  0.44408920985E-15  0.00000000000E+00  0.00000000000E+00  0.91188000000E+02  0.91188000000E+02 0.  0.
    9900012    2    3    3    0    0  0.10266452580E+01 -0.35710358193E+02  0.24644257812E+02  0.47787272749E+02  0.20000007773E+02 0.  0.
        -12    1    3    3    0    0 -0.10266452580E+01  0.35710358193E+02 -0.24644257812E+02  0.43400727251E+02  0.00000000000E+00 0.  1.
         11    1    4    4    0    0  0.29756787289E-01 -0.12032738461E+01  0.14172796228E+01  0.18594179749E+01  0.51100000000E-03 0. -1.
        -11    1    4    4    0    0 -0.40977497876E+01 -0.59479481603E+01 -0.19877555233E+01  0.74913825774E+01  0.51100000000E-03 0.  1.
        -12    1    4    4    0    0  0.50946382584E+01 -0.28559136187E+02  0.25214733713E+02  0.38436472197E+02  0.00000000000E+00 0.  1.
</event>
<event>
 8    1  0.5250708E-010  0.9118800E+02  0.7816164E-02  0.1184000E+00
        -11   -1    0    0    0    0  0.00000000000E+00  0.00000000000E+00  0.45593999997E+02  0.45594000000E+02  0.51100000000E-03 0. -1.
         11   -1    0    0    0    0 -0.00000000000E+00 -0.00000000000E+00 -0.45593999997E+02  0.45594000000E+02  0.51100000000E-03 0.  1.
         23    2    1    2    0    0  0.00000000000E+00  0.71054273576E-14 -0.17763568394E-14  0.91188000000E+02  0.91188000000E+02 0.  0.
    9900012    2    3    3    0    0 -0.16223788806E+02  0.37896671415E+02 -0.13573974614E+02  0.47787287859E+02  0.20000076662E+02 0.  0.
         12    1    3    3    0    0  0.16223788806E+02 -0.37896671415E+02  0.13573974614E+02  0.43400712141E+02  0.00000000000E+00 0. -1.
         11    1    4    4    0    0 -0.12839934588E+01 -0.90060311509E+00 -0.35468381835E+00  0.16079571031E+01  0.51100000000E-03 0. -1.
        -11    1    4    4    0    0  0.26827345838E+01  0.10287395770E+02 -0.45179188219E+01  0.11551587221E+02  0.51100000000E-03 0.  1.
        -12    1    4    4    0    0 -0.17622529931E+02  0.28509878760E+02 -0.87013719740E+01  0.34627743534E+02  0.00000000000E+00 0.  1.
</event>
<event>
 8    1  0.5250708E-010  0.9118800E+02  0.7816164E-02  0.1184000E+00
        -11   -1    0    0    0    0  0.00000000000E+00  0.00000000000E+00  0.45593999997E+02  0.45594000000E+02  0.51100000000E-03 0.  1.
         11   -1    0    0    0    0 -0.00000000000E+00 -0.00000000000E+00 -0.45593999997E+02  0.45594000000E+02  0.51100000000E-03 0. -1.
         23    2    1    2    0    0  0.17763568394E-14  0.00000000000E+00  0.35527136788E-14  0.91188000000E+02  0.91188000000E+02 0.  0.
    9900012    2    3    3    0    0 -0.12842696315E+02  0.33169956822E+02 -0.24868508336E+02  0.47787267390E+02  0.19999983337E+02 0.  0.
         12    1    3    3    0    0  0.12842696315E+02 -0.33169956822E+02  0.24868508336E+02  0.43400732610E+02  0.00000000000E+00 0. -1.
         11    1    4    4    0    0 -0.35691148884E+01  0.23422277175E+02 -0.24299823670E+02  0.33938519116E+02  0.51100000000E-03 0.  1.
        -11    1    4    4    0    0 -0.22755845619E+01  0.41153123600E+01  0.77418447452E+00  0.47658622284E+01  0.51100000000E-03 0. -1.
        -12    1    4    4    0    0 -0.69979968645E+01  0.56323672876E+01 -0.13428691406E+01  0.90828860450E+01  0.00000000000E+00 0.  1.
</event>
<event>
 8    1  0.5250708E-010  0.9118800E+02  0.7816164E-02  0.1184000E+00
        -11   -1    0    0    0    0  0.00000000000E+00  0.00000000000E+00  0.45593999997E+02  0.45594000000E+02  0.51100000000E-03 0. -1.
         11   -1    0    0    0    0 -0.00000000000E+00 -0.00000000000E+00 -0.45593999997E+02  0.45594000000E+02  0.51100000000E-03 0.  1.
         23    2    1    2    0    0  0.17763568394E-14  0.00000000000E+00  0.00000000000E+00  0.91188000000E+02  0.91188000000E+02 0.  0.
    9900012    2    3    3    0    0  0.15026846246E+02  0.10467766702E+02 -0.39347718245E+02  0.47787272138E+02  0.20000004988E+02 0.  0.
         12    1    3    3    0    0 -0.15026846246E+02 -0.10467766702E+02  0.39347718245E+02  0.43400727862E+02  0.00000000000E+00 0. -1.
         11    1    4    4    0    0 -0.12313506850E+01 -0.44167305152E+00 -0.17007805380E+00  0.13191764095E+01  0.51100000000E-03 0. -1.
        -11    1    4    4    0    0  0.14492424172E+02  0.11483108948E+02 -0.40271290972E+02  0.44313305296E+02  0.51100000000E-03 0.  1.
         12    1    4    4    0    0  0.17657727588E+01 -0.57366919429E+00  0.10936507803E+01  0.21547904329E+01  0.00000000000E+00 0. -1.
</event>
<event>
 8    1  0.7168529E-010  0.9118800E+02  0.7816164E-02  0.1184000E+00
        -11   -1    0    0    0    0  0.00000000000E+00  0.00000000000E+00  0.45593999997E+02  0.45594000000E+02  0.51100000000E-03 0. -1.
         11   -1    0    0    0    0 -0.00000000000E+00 -0.00000000000E+00 -0.45593999997E+02  0.45594000000E+02  0.51100000000E-03 0.  1.
         23    2    1    2    0    0  0.00000000000E+00  0.00000000000E+00  0.00000000000E+00  0.91188000000E+02  0.91188000000E+02 0.  0.
    9900012    2    3    3    0    0  0.26680459903E+02 -0.17492124749E+02  0.29424516180E+02  0.47787268194E+02  0.19999987002E+02 0.  0.
        -12    1    3    3    0    0 -0.26680459903E+02  0.17492124749E+02 -0.29424516180E+02  0.43400731806E+02  0.00000000000E+00 0.  1.
         11    1    4    4    0    0  0.16209267068E+02 -0.53395997763E+01  0.92560255019E+01  0.19414573727E+02  0.51100000000E-03 0. -1.
        -11    1    4    4    0    0 -0.94931445597E+00 -0.22096567918E+01 -0.77664538094E+00  0.25272434356E+01  0.51100000000E-03 0.  1.
         12    1    4    4    0    0  0.11420507292E+02 -0.99428681809E+01  0.20945136059E+02  0.25845451031E+02  0.00000000000E+00 0. -1.
</event>
<event>
 8    1  0.5250708E-010  0.9118800E+02  0.7816164E-02  0.1184000E+00
        -11   -1    0    0    0    0  0.00000000000E+00  0.00000000000E+00  0.45593999997E+02  0.45594000000E+02  0.51100000000E-03 0. -1.
         11   -1    0    0    0    0 -0.00000000000E+00 -0.00000000000E+00 -0.45593999997E+02  0.45594000000E+02  0.51100000000E-03 0.  1.
         23    2    1    2    0    0  0.00000000000E+00 -0.35527136788E-14  0.00000000000E+00  0.91188000000E+02  0.91188000000E+02 0.  0.
    9900012    2    3    3    0    0  0.33292972498E+02  0.25997095027E+02  0.99675446242E+01  0.47787275197E+02  0.20000018931E+02 0.  0.
        -12    1    3    3    0    0 -0.33292972498E+02 -0.25997095027E+02 -0.99675446242E+01  0.43400724803E+02  0.00000000000E+00 0.  1.
         11    1    4    4    0    0  0.14777806278E+02  0.34934890455E+01  0.10040676318E+02  0.18204483109E+02  0.51100000000E-03 0. -1.
        -11    1    4    4    0    0  0.90382596129E+01  0.72949491953E+01 -0.85253551942E+00  0.11646168368E+02  0.51100000000E-03 0.  1.
         12    1    4    4    0    0  0.94769066077E+01  0.15208656787E+02  0.77940382540E+00  0.17936623719E+02  0.00000000000E+00 0. -1.
</event>
<event>
 8    1  0.5250708E-010  0.9118800E+02  0.7816164E-02  0.1184000E+00
        -11   -1    0    0    0    0  0.00000000000E+00  0.00000000000E+00  0.45593999997E+02  0.45594000000E+02  0.51100000000E-03 0. -1.
         11   -1    0    0    0    0 -0.00000000000E+00 -0.00000000000E+00 -0.45593999997E+02  0.45594000000E+02  0.51100000000E-03 0.  1.
         23    2    1    2    0    0  0.00000000000E+00  0.00000000000E+00  0.35527136788E-14  0.91188000000E+02  0.91188000000E+02 0.  0.
    9900012    2    3    3    0    0 -0.97744629541E+01  0.35065556464E+02  0.23632394205E+02  0.47787269222E+02  0.19999991690E+02 0.  0.
        -12    1    3    3    0    0  0.97744629541E+01 -0.35065556464E+02 -0.23632394205E+02  0.43400730778E+02  0.00000000000E+00 0.  1.
         11    1    4    4    0    0 -0.68098745180E+01  0.23748844930E+02  0.20753225101E+02  0.32265746215E+02  0.51100000000E-03 0. -1.
        -11    1    4    4    0    0  0.20050385842E+01 -0.71109412519E+00  0.10732004039E+01  0.23827702254E+01  0.51100000000E-03 0.  1.
        -12    1    4    4    0    0 -0.49696270203E+01  0.12027805660E+02  0.18059687006E+01  0.13138752782E+02  0.00000000000E+00 0.  1.
</event>
<event>
 8    1  0.5250708E-010  0.9118800E+02  0.7816164E-02  0.1184000E+00
        -11   -1    0    0    0    0  0.00000000000E+00  0.00000000000E+00  0.45593999997E+02  0.45594000000E+02  0.51100000000E-03 0. -1.
         11   -1    0    0    0    0 -0.00000000000E+00 -0.00000000000E+00 -0.45593999997E+02  0.45594000000E+02  0.51100000000E-03 0.  1.
         23    2    1    2    0    0 -0.88817841970E-15  0.00000000000E+00  0.00000000000E+00  0.91188000000E+02  0.91188000000E+02 0.  0.
    9900012    2    3    3    0    0 -0.28738707789E+01 -0.32553341214E+02  0.28559486186E+02  0.47787269491E+02  0.19999992919E+02 0.  0.
        -12    1    3    3    0    0  0.28738707789E+01  0.32553341214E+02 -0.28559486186E+02  0.43400730509E+02  0.00000000000E+00 0.  1.
         11    1    4    4    0    0 -0.71731605096E+01 -0.28660704126E+02  0.23471184821E+02  0.37733098334E+02  0.51100000000E-03 0. -1.
        -11    1    4    4    0    0  0.20179874382E+01 -0.35383074848E+01 -0.40701715001E+00  0.40935994405E+01  0.51100000000E-03 0.  1.
        -12    1    4    4    0    0  0.22813022925E+01 -0.35432960409E+00  0.54953185148E+01  0.59605717173E+01  0.00000000000E+00 0.  1.
</event>
<event>
 8    1  0.5250708E-010  0.9118800E+02  0.7816164E-02  0.1184000E+00
        -11   -1    0    0    0    0  0.00000000000E+00  0.00000000000E+00  0.45593999997E+02  0.45594000000E+02  0.51100000000E-03 0. -1.
         11   -1    0    0    0    0 -0.00000000000E+00 -0.00000000000E+00 -0.45593999997E+02  0.45594000000E+02  0.51100000000E-03 0.  1.
         23    2    1    2    0    0  0.17763568394E-14  0.00000000000E+00  0.00000000000E+00  0.91188000000E+02  0.91188000000E+02 0.  0.
    9900012    2    3    3    0    0  0.81316379171E+01  0.41776725751E+02  0.84973547082E+01  0.47787269744E+02  0.19999994073E+02 0.  0.
        -12    1    3    3    0    0 -0.81316379171E+01 -0.41776725751E+02 -0.84973547082E+01  0.43400730256E+02  0.00000000000E+00 0.  1.
         11    1    4    4    0    0  0.20098830913E+01  0.13191911605E+02  0.74839208015E+01  0.15299517399E+02  0.51100000000E-03 0. -1.
        -11    1    4    4    0    0 -0.35912285557E+01  0.44347837538E+01 -0.24840787416E+01  0.62237349669E+01  0.51100000000E-03 0.  1.
        -12    1    4    4    0    0  0.97129833815E+01  0.24150030392E+02  0.34975126483E+01  0.26264017378E+02  0.00000000000E+00 0.  1.
</event>
<event>
 8    1  0.5250708E-010  0.9118800E+02  0.7816164E-02  0.1184000E+00
        -11   -1    0    0    0    0  0.00000000000E+00  0.00000000000E+00  0.45593999997E+02  0.45594000000E+02  0.51100000000E-03 0. -1.
         11   -1    0    0    0    0 -0.00000000000E+00 -0.00000000000E+00 -0.45593999997E+02  0.45594000000E+02  0.51100000000E-03 0.  1.
         23    2    1    2    0    0  0.00000000000E+00  0.00000000000E+00 -0.44408920985E-15  0.91188000000E+02  0.91188000000E+02 0.  0.
    9900012    2    3    3    0    0 -0.17313732329E+02 -0.39601995194E+02  0.39420446787E+01  0.47787273430E+02  0.20000010877E+02 0.  0.
        -12    1    3    3    0    0  0.17313732329E+02  0.39601995194E+02 -0.39420446787E+01  0.43400726570E+02  0.00000000000E+00 0.  1.
         11    1    4    4    0    0 -0.28720785710E+01 -0.12773554337E+02 -0.68535921878E+01  0.14777829741E+02  0.51100000000E-03 0. -1.
        -11    1    4    4    0    0 -0.34884223164E+01 -0.28076633441E+01 -0.24305819410E-01  0.44780190649E+01  0.51100000000E-03 0.  1.
        -12    1    4    4    0    0 -0.10953231442E+02 -0.24020777513E+02  0.10819942686E+02  0.28531424624E+02  0.00000000000E+00 0.  1.
</event>
<event>
 8    1  0.5250708E-010  0.9118800E+02  0.7816164E-02  0.1184000E+00
        -11   -1    0    0    0    0  0.00000000000E+00  0.00000000000E+00  0.45593999997E+02  0.45594000000E+02  0.51100000000E-03 0. -1.
         11   -1    0    0    0    0 -0.00000000000E+00 -0.00000000000E+00 -0.45593999997E+02  0.45594000000E+02  0.51100000000E-03 0.  1.
         23    2    1    2    0    0  0.35527136788E-14  0.00000000000E+00  0.00000000000E+00  0.91188000000E+02  0.91188000000E+02 0.  0.
    9900012    2    3    3    0    0  0.31790802581E+02  0.25084100668E+02 -0.15612718315E+02  0.47787260280E+02  0.19999950919E+02 0.  0.
         12    1    3    3    0    0 -0.31790802581E+02 -0.25084100668E+02  0.15612718315E+02  0.43400739720E+02  0.00000000000E+00 0. -1.
         11    1    4    4    0    0  0.14818030085E+02  0.53431001805E+01 -0.26708452988E+01  0.15976737777E+02  0.51100000000E-03 0. -1.
        -11    1    4    4    0    0  0.18013535000E+02  0.13258988720E+02 -0.11219573663E+02  0.25023330284E+02  0.51100000000E-03 0.  1.
         12    1    4    4    0    0 -0.10407625038E+01  0.64820117671E+01 -0.17222993537E+01  0.67871922179E+01  0.00000000000E+00 0. -1.
</event>
<event>
 8    1  0.5250708E-010  0.9118800E+02  0.7816164E-02  0.1184000E+00
        -11   -1    0    0    0    0  0.00000000000E+00  0.00000000000E+00  0.45593999997E+02  0.45594000000E+02  0.51100000000E-03 0. -1.
         11   -1    0    0    0    0 -0.00000000000E+00 -0.00000000000E+00 -0.45593999997E+02  0.45594000000E+02  0.51100000000E-03 0.  1.
         23    2    1    2    0    0 -0.44408920985E-15  0.00000000000E+00  0.00000000000E+00  0.91188000000E+02  0.91188000000E+02 0.  0.
    9900012    2    3    3    0    0  0.30518825910E+01 -0.11531768021E+02  0.41729218107E+02  0.47787270688E+02  0.19999998374E+02 0.  0.
        -12    1    3    3    0    0 -0.30518825910E+01  0.11531768021E+02 -0.41729218107E+02  0.43400729312E+02  0.00000000000E+00 0.  1.
         11    1    4    4    0    0  0.67934220088E+01 -0.91598332476E+01  0.13872481662E+02  0.17958253685E+02  0.51100000000E-03 0. -1.
        -11    1    4    4    0    0 -0.12117356252E+01  0.22212430371E+01  0.14699952902E+01  0.29262792535E+01  0.51100000000E-03 0.  1.
         12    1    4    4    0    0 -0.25298037925E+01 -0.45931778103E+01  0.26386741155E+02  0.26902737749E+02  0.00000000000E+00 0. -1.
</event>
<event>
 8    1  0.5250708E-010  0.9118800E+02  0.7816164E-02  0.1184000E+00
        -11   -1    0    0    0    0  0.00000000000E+00  0.00000000000E+00  0.45593999997E+02  0.45594000000E+02  0.51100000000E-03 0. -1.
         11   -1    0    0    0    0 -0.00000000000E+00 -0.00000000000E+00 -0.45593999997E+02  0.45594000000E+02  0.51100000000E-03 0.  1.
         23    2    1    2    0    0  0.00000000000E+00  0.00000000000E+00  0.00000000000E+00  0.91188000000E+02  0.91188000000E+02 0.  0.
    9900012    2    3    3    0    0 -0.11098450360E+02 -0.20980129184E+02  0.36335691550E+02  0.47787263816E+02  0.19999967041E+02 0.  0.
        -12    1    3    3    0    0  0.11098450360E+02  0.20980129184E+02 -0.36335691550E+02  0.43400736184E+02  0.00000000000E+00 0.  1.
         11    1    4    4    0    0 -0.91424354940E+01 -0.26652290668E+01  0.18158606176E+02  0.20504208135E+02  0.51100000000E-03 0. -1.
        -11    1    4    4    0    0  0.32644462810E+01 -0.68983068322E+01  0.85676030002E+01  0.11473755623E+02  0.51100000000E-03 0.  1.
        -12    1    4    4    0    0 -0.52204611465E+01 -0.11416593285E+02  0.96094823739E+01  0.15809300057E+02  0.00000000000E+00 0.  1.
</event>
<event>
 8    1  0.5250708E-010  0.9118800E+02  0.7816164E-02  0.1184000E+00
        -11   -1    0    0    0    0  0.00000000000E+00  0.00000000000E+00  0.45593999997E+02  0.45594000000E+02  0.51100000000E-03 0. -1.
         11   -1    0    0    0    0 -0.00000000000E+00 -0.00000000000E+00 -0.45593999997E+02  0.45594000000E+02  0.51100000000E-03 0.  1.
         23    2    1    2    0    0  0.71054273576E-14  0.88817841970E-15 -0.71054273576E-14  0.91188000000E+02  0.91188000000E+02 0.  0.
    9900012    2    3    3    0    0  0.23172132561E+02  0.31768939262E+01 -0.36559303202E+02  0.47787273819E+02  0.20000012650E+02 0.  0.
         12    1    3    3    0    0 -0.23172132561E+02 -0.31768939262E+01  0.36559303202E+02  0.43400726181E+02  0.00000000000E+00 0. -1.
         11    1    4    4    0    0  0.74890988211E+01  0.52110912245E+01 -0.52032427998E+01  0.10503133285E+02  0.51100000000E-03 0. -1.
        -11    1    4    4    0    0  0.14422841484E+02  0.81195287899E+00 -0.15753221817E+02  0.21373853696E+02  0.51100000000E-03 0.  1.
         12    1    4    4    0    0  0.12601922562E+01 -0.28461501773E+01 -0.15602838585E+02  0.15910286838E+02  0.00000000000E+00 0. -1.
</event>
<event>
 8    1  0.5250708E-010  0.9118800E+02  0.7816164E-02  0.1184000E+00
        -11   -1    0    0    0    0  0.00000000000E+00  0.00000000000E+00  0.45593999997E+02  0.45594000000E+02  0.51100000000E-03 0.  1.
         11   -1    0    0    0    0 -0.00000000000E+00 -0.00000000000E+00 -0.45593999997E+02  0.45594000000E+02  0.51100000000E-03 0. -1.
         23    2    1    2    0    0 -0.35527136788E-14  0.00000000000E+00  0.35527136788E-14  0.91188000000E+02  0.91188000000E+02 0.  0.
    9900012    2    3    3    0    0  0.28165693801E+02 -0.15054132327E+02 -0.29388600503E+02  0.47787273659E+02  0.20000011921E+02 0.  0.
         12    1    3    3    0    0 -0.28165693801E+02  0.15054132327E+02  0.29388600503E+02  0.43400726341E+02  0.00000000000E+00 0. -1.
         11    1    4    4    0    0  0.12768645427E+01  0.56294874236E+00 -0.87109489202E+01  0.88220136987E+01  0.51100000000E-03 0. -1.
        -11    1    4    4    0    0  0.97610916626E+01 -0.64736626342E+01 -0.17361007956E+01  0.11840661493E+02  0.51100000000E-03 0.  1.
         12    1    4    4    0    0  0.17127737595E+02 -0.91434184353E+01 -0.18941550787E+02  0.27124598468E+02  0.00000000000E+00 0. -1.
</event>
<event>
 8    1  0.5250708E-010  0.9118800E+02  0.7816164E-02  0.1184000E+00
        -11   -1    0    0    0    0  0.00000000000E+00  0.00000000000E+00  0.45593999997E+02  0.45594000000E+02  0.51100000000E-03 0. -1.
         11   -1    0    0    0    0 -0.00000000000E+00 -0.00000000000E+00 -0.45593999997E+02  0.45594000000E+02  0.51100000000E-03 0.  1.
         23    2    1    2    0    0  0.00000000000E+00  0.88817841970E-15 -0.35527136788E-14  0.91188000000E+02  0.91188000000E+02 0.  0.
    9900012    2    3    3    0    0  0.37708924825E+02  0.64804935216E+01 -0.20485695646E+02  0.47787268049E+02  0.19999986344E+02 0.  0.
         12    1    3    3    0    0 -0.37708924825E+02 -0.64804935216E+01  0.20485695646E+02  0.43400731951E+02  0.00000000000E+00 0. -1.
         11    1    4    4    0    0  0.12305490854E+02 -0.32580340641E+01 -0.36035404949E+01  0.13229716380E+02  0.51100000000E-03 0. -1.
        -11    1    4    4    0    0  0.11483028705E+02 -0.23447405149E+01 -0.65928446194E+01  0.13447057550E+02  0.51100000000E-03 0.  1.
         12    1    4    4    0    0  0.13920405266E+02  0.12083268101E+02 -0.10289310531E+02  0.21110494120E+02  0.00000000000E+00 0. -1.
</event>
<event>
 8    1  0.5250708E-010  0.9118800E+02  0.7816164E-02  0.1184000E+00
        -11   -1    0    0    0    0  0.00000000000E+00  0.00000000000E+00  0.45593999997E+02  0.45594000000E+02  0.51100000000E-03 0. -1.
         11   -1    0    0    0    0 -0.00000000000E+00 -0.00000000000E+00 -0.45593999997E+02  0.45594000000E+02  0.51100000000E-03 0.  1.
         23    2    1    2    0    0 -0.17763568394E-14  0.00000000000E+00  0.00000000000E+00  0.91188000000E+02  0.91188000000E+02 0.  0.
    9900012    2    3    3    0    0  0.14196057632E+02 -0.19286223281E+02 -0.36195807875E+02  0.47787274563E+02  0.20000016043E+02 0.  0.
         12    1    3    3    0    0 -0.14196057632E+02  0.19286223281E+02  0.36195807875E+02  0.43400725437E+02  0.00000000000E+00 0. -1.
         11    1    4    4    0    0  0.64685714378E+01 -0.50982371121E+00 -0.15585768653E+02  0.16882491565E+02  0.51100000000E-03 0. -1.
        -11    1    4    4    0    0  0.16403168006E+01 -0.45156680860E+01  0.36794115791E+00  0.48184311167E+01  0.51100000000E-03 0.  1.
        -12    1    4    4    0    0  0.60871693934E+01 -0.14260731484E+02 -0.20977980380E+02  0.26086351882E+02  0.00000000000E+00 0.  1.
</event>
<event>
 8    1  0.5250708E-010  0.9118800E+02  0.7816164E-02  0.1184000E+00
        -11   -1    0    0    0    0  0.00000000000E+00  0.00000000000E+00  0.45593999997E+02  0.45594000000E+02  0.51100000000E-03 0. -1.
         11   -1    0    0    0    0 -0.00000000000E+00 -0.00000000000E+00 -0.45593999997E+02  0.45594000000E+02  0.51100000000E-03 0.  1.
         23    2    1    2    0    0 -0.35527136788E-14  0.00000000000E+00  0.35527136788E-14  0.91188000000E+02  0.91188000000E+02 0.  0.
    9900012    2    3    3    0    0 -0.22293941718E+02 -0.26779086878E+02  0.25874397254E+02  0.47787265390E+02  0.19999974221E+02 0.  0.
        -12    1    3    3    0    0  0.22293941718E+02  0.26779086878E+02 -0.25874397254E+02  0.43400734610E+02  0.00000000000E+00 0.  1.
         11    1    4    4    0    0 -0.76854714712E+01 -0.59825442236E+01  0.20878739066E+01  0.99607492105E+01  0.51100000000E-03 0. -1.
        -11    1    4    4    0    0 -0.14054614606E+02 -0.19180301128E+02  0.25866148521E+02  0.35135079090E+02  0.51100000000E-03 0.  1.
        -12    1    4    4    0    0 -0.55385564122E+00 -0.16162415270E+01 -0.20796251737E+01  0.26914370897E+01  0.00000000000E+00 0.  1.
</event>
<event>
 8    1  0.5250708E-010  0.9118800E+02  0.7816164E-02  0.1184000E+00
        -11   -1    0    0    0    0  0.00000000000E+00  0.00000000000E+00  0.45593999997E+02  0.45594000000E+02  0.51100000000E-03 0. -1.
         11   -1    0    0    0    0 -0.00000000000E+00 -0.00000000000E+00 -0.45593999997E+02  0.45594000000E+02  0.51100000000E-03 0.  1.
         23    2    1    2    0    0 -0.35527136788E-14  0.00000000000E+00 -0.35527136788E-14  0.91188000000E+02  0.91188000000E+02 0.  0.
    9900012    2    3    3    0    0 -0.28043420479E+02  0.21090846563E+02 -0.25541459919E+02  0.47787269410E+02  0.19999992550E+02 0.  0.
         12    1    3    3    0    0  0.28043420479E+02 -0.21090846563E+02  0.25541459919E+02  0.43400730590E+02  0.00000000000E+00 0. -1.
         11    1    4    4    0    0 -0.14522863412E+02  0.20629525873E+01 -0.10374317484E+02  0.17966518822E+02  0.51100000000E-03 0. -1.
        -11    1    4    4    0    0 -0.10053834742E+02  0.12243540546E+02 -0.15541436779E+02  0.22192794676E+02  0.51100000000E-03 0.  1.
        -12    1    4    4    0    0 -0.34667223253E+01  0.67843534298E+01  0.37429434441E+00  0.76279559121E+01  0.00000000000E+00 0.  1.
</event>
<event>
 8    1  0.5250708E-010  0.9118800E+02  0.7816164E-02  0.1184000E+00
        -11   -1    0    0    0    0  0.00000000000E+00  0.00000000000E+00  0.45593999997E+02  0.45594000000E+02  0.51100000000E-03 0.  1.
         11   -1    0    0    0    0 -0.00000000000E+00 -0.00000000000E+00 -0.45593999997E+02  0.45594000000E+02  0.51100000000E-03 0. -1.
         23    2    1    2    0    0  0.35527136788E-14  0.35527136788E-14  0.35527136788E-14  0.91188000000E+02  0.91188000000E+02 0.  0.
    9900012    2    3    3    0    0  0.24478102703E+02  0.31054378907E+02  0.17890541776E+02  0.47787269059E+02  0.19999990947E+02 0.  0.
        -12    1    3    3    0    0 -0.24478102703E+02 -0.31054378907E+02 -0.17890541776E+02  0.43400730941E+02  0.00000000000E+00 0.  1.
         11    1    4    4    0    0  0.99656797227E+01  0.22431792804E+02  0.98335673070E+01  0.26442374080E+02  0.51100000000E-03 0. -1.
        -11    1    4    4    0    0  0.13748330236E+02  0.97030300002E+01  0.95509919666E+01  0.19349078098E+02  0.51100000000E-03 0.  1.
         12    1    4    4    0    0  0.76409274429E+00 -0.10804438975E+01 -0.14940174980E+01  0.19958168808E+01  0.00000000000E+00 0. -1.
</event>
<event>
 8    1  0.5250708E-010  0.9118800E+02  0.7816164E-02  0.1184000E+00
        -11   -1    0    0    0    0  0.00000000000E+00  0.00000000000E+00  0.45593999997E+02  0.45594000000E+02  0.51100000000E-03 0. -1.
         11   -1    0    0    0    0 -0.00000000000E+00 -0.00000000000E+00 -0.45593999997E+02  0.45594000000E+02  0.51100000000E-03 0.  1.
         23    2    1    2    0    0  0.00000000000E+00  0.55511151231E-15  0.00000000000E+00  0.91188000000E+02  0.91188000000E+02 0.  0.
    9900012    2    3    3    0    0 -0.19097132508E+02  0.60749088643E+00 -0.38968623285E+02  0.47787272864E+02  0.20000008296E+02 0.  0.
         12    1    3    3    0    0  0.19097132508E+02 -0.60749088643E+00  0.38968623285E+02  0.43400727136E+02  0.00000000000E+00 0. -1.
         11    1    4    4    0    0 -0.30064091027E+01  0.65425420842E+01 -0.80880536735E+01  0.10828664050E+02  0.51100000000E-03 0. -1.
        -11    1    4    4    0    0 -0.22916725579E+01 -0.22494727029E+01 -0.16052458161E+02  0.16370501025E+02  0.51100000000E-03 0.  1.
         12    1    4    4    0    0 -0.13799050848E+02 -0.36855784948E+01 -0.14828111451E+02  0.20588107789E+02  0.00000000000E+00 0. -1.
</event>
<event>
 8    1  0.5250708E-010  0.9118800E+02  0.7816164E-02  0.1184000E+00
        -11   -1    0    0    0    0  0.00000000000E+00  0.00000000000E+00  0.45593999997E+02  0.45594000000E+02  0.51100000000E-03 0. -1.
         11   -1    0    0    0    0 -0.00000000000E+00 -0.00000000000E+00 -0.45593999997E+02  0.45594000000E+02  0.51100000000E-03 0.  1.
         23    2    1    2    0    0  0.71054273576E-14  0.35527136788E-14  0.00000000000E+00  0.91188000000E+02  0.91188000000E+02 0.  0.
    9900012    2    3    3    0    0  0.40577352485E+02 -0.14965000146E+02  0.36263661887E+01  0.47787270792E+02  0.19999998848E+02 0.  0.
        -12    1    3    3    0    0 -0.40577352485E+02  0.14965000146E+02 -0.36263661887E+01  0.43400729208E+02  0.00000000000E+00 0.  1.
         11    1    4    4    0    0  0.25498816676E+02 -0.79129930456E+01 -0.20409942057E+01  0.26776309836E+02  0.51100000000E-03 0. -1.
        -11    1    4    4    0    0  0.10117460775E+02 -0.10170352683E+02  0.35302244982E+01  0.14773678334E+02  0.51100000000E-03 0.  1.
        -12    1    4    4    0    0  0.49610750343E+01  0.31183455832E+01  0.21371358962E+01  0.62372826223E+01  0.00000000000E+00 0.  1.
</event>
<event>
 8    1  0.5250708E-010  0.9118800E+02  0.7816164E-02  0.1184000E+00
        -11   -1    0    0    0    0  0.00000000000E+00  0.00000000000E+00  0.45593999997E+02  0.45594000000E+02  0.51100000000E-03 0. -1.
         11   -1    0    0    0    0 -0.00000000000E+00 -0.00000000000E+00 -0.45593999997E+02  0.45594000000E+02  0.51100000000E-03 0.  1.
         23    2    1    2    0    0  0.00000000000E+00 -0.17763568394E-14  0.00000000000E+00  0.91188000000E+02  0.91188000000E+02 0.  0.
    9900012    2    3    3    0    0  0.86293122518E+01  0.12841393545E+02 -0.40549438402E+02  0.47787269905E+02  0.19999994803E+02 0.  0.
         12    1    3    3    0    0 -0.86293122518E+01 -0.12841393545E+02  0.40549438402E+02  0.43400730095E+02  0.00000000000E+00 0. -1.
         11    1    4    4    0    0  0.51421294438E+01  0.13648379058E+02 -0.14917686593E+02  0.20862816676E+02  0.51100000000E-03 0. -1.
        -11    1    4    4    0    0  0.34643977509E+01  0.10097255101E+01 -0.47571576749E+01  0.59709418677E+01  0.51100000000E-03 0.  1.
        -12    1    4    4    0    0  0.22785057165E-01 -0.18167110226E+01 -0.20874594134E+02  0.20953511361E+02  0.00000000000E+00 0.  1.
</event>
<event>
 8    1  0.5250708E-010  0.9118800E+02  0.7816164E-02  0.1184000E+00
        -11   -1    0    0    0    0  0.00000000000E+00  0.00000000000E+00  0.45593999997E+02  0.45594000000E+02  0.51100000000E-03 0. -1.
         11   -1    0    0    0    0 -0.00000000000E+00 -0.00000000000E+00 -0.45593999997E+02  0.45594000000E+02  0.51100000000E-03 0.  1.
         23    2    1    2    0    0  0.00000000000E+00 -0.16653345369E-15  0.00000000000E+00  0.91188000000E+02  0.91188000000E+02 0.  0.
    9900012    2    3    3    0    0  0.14939390880E+02  0.13880403516E+00  0.40748233898E+02  0.47787271524E+02  0.20000002187E+02 0.  0.
        -12    1    3    3    0    0 -0.14939390880E+02 -0.13880403516E+00 -0.40748233898E+02  0.43400728476E+02  0.00000000000E+00 0.  1.
         11    1    4    4    0    0  0.47727994091E+01  0.26951978082E+01  0.68800881413E+01  0.87965515128E+01  0.51100000000E-03 0. -1.
        -11    1    4    4    0    0  0.80065920806E+01 -0.88773988356E+01  0.26341939903E+02  0.28927694774E+02  0.51100000000E-03 0.  1.
        -12    1    4    4    0    0  0.21599993901E+01  0.63210050626E+01  0.75262058535E+01  0.10063025237E+02  0.00000000000E+00 0.  1.
</event>
<event>
 8    1  0.5250708E-010  0.9118800E+02  0.7816164E-02  0.1184000E+00
        -11   -1    0    0    0    0  0.00000000000E+00  0.00000000000E+00  0.45593999997E+02  0.45594000000E+02  0.51100000000E-03 0.  1.
         11   -1    0    0    0    0 -0.00000000000E+00 -0.00000000000E+00 -0.45593999997E+02  0.45594000000E+02  0.51100000000E-03 0. -1.
         23    2    1    2    0    0  0.35527136788E-14  0.00000000000E+00  0.88817841970E-15  0.91188000000E+02  0.91188000000E+02 0.  0.
    9900012    2    3    3    0    0  0.20004602157E+02 -0.38029458238E+02  0.60991368732E+01  0.47787271067E+02  0.20000000104E+02 0.  0.
         12    1    3    3    0    0 -0.20004602157E+02  0.38029458238E+02 -0.60991368732E+01  0.43400728933E+02  0.00000000000E+00 0. -1.
         11    1    4    4    0    0  0.13525575600E+02 -0.13340978907E+02  0.10067443132E+02  0.21500612200E+02  0.51100000000E-03 0. -1.
        -11    1    4    4    0    0 -0.26125667803E+00 -0.71783259066E+01 -0.45138209102E+00  0.71972469685E+01  0.51100000000E-03 0.  1.
         12    1    4    4    0    0  0.67402832350E+01 -0.17510153425E+02 -0.35169241682E+01  0.19089411899E+02  0.00000000000E+00 0. -1.
</event>
<event>
 8    1  0.5250708E-010  0.9118800E+02  0.7816164E-02  0.1184000E+00
        -11   -1    0    0    0    0  0.00000000000E+00  0.00000000000E+00  0.45593999997E+02  0.45594000000E+02  0.51100000000E-03 0. -1.
         11   -1    0    0    0    0 -0.00000000000E+00 -0.00000000000E+00 -0.45593999997E+02  0.45594000000E+02  0.51100000000E-03 0.  1.
         23    2    1    2    0    0  0.35527136788E-14 -0.71054273576E-14  0.00000000000E+00  0.91188000000E+02  0.91188000000E+02 0.  0.
    9900012    2    3    3    0    0 -0.16443971512E+02  0.33737592107E+02  0.21794429598E+02  0.47787234087E+02  0.19999831497E+02 0.  0.
        -12    1    3    3    0    0  0.16443971512E+02 -0.33737592107E+02 -0.21794429598E+02  0.43400765913E+02  0.00000000000E+00 0.  1.
         11    1    4    4    0    0 -0.84789150211E+01  0.89573082655E+01  0.76174443164E-01  0.12334146671E+02  0.51100000000E-03 0.  1.
        -11    1    4    4    0    0  0.25474822732E+01  0.54981909016E+01  0.45858272120E+01  0.75993144824E+01  0.51100000000E-03 0. -1.
        -12    1    4    4    0    0 -0.10512538765E+02  0.19282092940E+02  0.17132427943E+02  0.27853772934E+02  0.00000000000E+00 0.  1.
</event>
<event>
 8    1  0.5250708E-010  0.9118800E+02  0.7816164E-02  0.1184000E+00
        -11   -1    0    0    0    0  0.00000000000E+00  0.00000000000E+00  0.45593999997E+02  0.45594000000E+02  0.51100000000E-03 0. -1.
         11   -1    0    0    0    0 -0.00000000000E+00 -0.00000000000E+00 -0.45593999997E+02  0.45594000000E+02  0.51100000000E-03 0.  1.
         23    2    1    2    0    0  0.00000000000E+00  0.00000000000E+00  0.00000000000E+00  0.91188000000E+02  0.91188000000E+02 0.  0.
    9900012    2    3    3    0    0 -0.17718886638E+02 -0.28996059210E+02 -0.26998013567E+02  0.47787272702E+02  0.20000007559E+02 0.  0.
         12    1    3    3    0    0  0.17718886638E+02  0.28996059210E+02  0.26998013567E+02  0.43400727298E+02  0.00000000000E+00 0. -1.
         11    1    4    4    0    0  0.44347882046E+00  0.48672202514E+00  0.35472523275E+00  0.74793184570E+00  0.51100000000E-03 0. -1.
        -11    1    4    4    0    0  0.10497976201E+01  0.14890853972E+01 -0.12522772017E+01  0.22108027534E+01  0.51100000000E-03 0.  1.
        -12    1    4    4    0    0 -0.19212163078E+02 -0.30971866633E+02 -0.26100461598E+02  0.44828538103E+02  0.00000000000E+00 0.  1.
</event>
<event>
 8    1  0.5250708E-010  0.9118800E+02  0.7816164E-02  0.1184000E+00
        -11   -1    0    0    0    0  0.00000000000E+00  0.00000000000E+00  0.45593999997E+02  0.45594000000E+02  0.51100000000E-03 0. -1.
         11   -1    0    0    0    0 -0.00000000000E+00 -0.00000000000E+00 -0.45593999997E+02  0.45594000000E+02  0.51100000000E-03 0.  1.
         23    2    1    2    0    0 -0.17763568394E-14  0.00000000000E+00  0.00000000000E+00  0.91188000000E+02  0.91188000000E+02 0.  0.
    9900012    2    3    3    0    0  0.13401340896E+02 -0.32034403057E+02 -0.26035077999E+02  0.47787260335E+02  0.19999951172E+02 0.  0.
         12    1    3    3    0    0 -0.13401340896E+02  0.32034403057E+02  0.26035077999E+02  0.43400739665E+02  0.00000000000E+00 0. -1.
         11    1    4    4    0    0  0.62432651326E+01 -0.12778380989E+02 -0.25400847402E+01  0.14447055443E+02  0.51100000000E-03 0. -1.
        -11    1    4    4    0    0 -0.21405460801E+01 -0.23253013004E+00 -0.40746792770E+01  0.46085810456E+01  0.51100000000E-03 0.  1.
        -12    1    4    4    0    0  0.92986218439E+01 -0.19023491938E+02 -0.19420313982E+02  0.28731623847E+02  0.00000000000E+00 0.  1.
</event>
<event>
 8    1  0.5250708E-010  0.9118800E+02  0.7816164E-02  0.1184000E+00
        -11   -1    0    0    0    0  0.00000000000E+00  0.00000000000E+00  0.45593999997E+02  0.45594000000E+02  0.51100000000E-03 0. -1.
         11   -1    0    0    0    0 -0.00000000000E+00 -0.00000000000E+00 -0.45593999997E+02  0.45594000000E+02  0.51100000000E-03 0.  1.
         23    2    1    2    0    0 -0.35527136788E-14  0.00000000000E+00  0.00000000000E+00  0.91188000000E+02  0.91188000000E+02 0.  0.
    9900012    2    3    3    0    0  0.19920330482E+02 -0.77470983281E+01  0.37772820074E+02  0.47787273792E+02  0.20000012528E+02 0.  0.
        -12    1    3    3    0    0 -0.19920330482E+02  0.77470983281E+01 -0.37772820074E+02  0.43400726208E+02  0.00000000000E+00 0.  1.
         11    1    4    4    0    0  0.11485311378E+02 -0.11987730800E+01  0.96363697488E+01  0.15040247888E+02  0.51100000000E-03 0. -1.
        -11    1    4    4    0    0  0.70264634776E+01 -0.10025160623E+02  0.16669431678E+02  0.20681996694E+02  0.51100000000E-03 0.  1.
        -12    1    4    4    0    0  0.14085556264E+01  0.34768353748E+01  0.11467018648E+02  0.12065029210E+02  0.00000000000E+00 0.  1.
</event>
<event>
 8    1  0.5250708E-010  0.9118800E+02  0.7816164E-02  0.1184000E+00
        -11   -1    0    0    0    0  0.00000000000E+00  0.00000000000E+00  0.45593999997E+02  0.45594000000E+02  0.51100000000E-03 0. -1.
         11   -1    0    0    0    0 -0.00000000000E+00 -0.00000000000E+00 -0.45593999997E+02  0.45594000000E+02  0.51100000000E-03 0.  1.
         23    2    1    2    0    0  0.00000000000E+00  0.00000000000E+00  0.00000000000E+00  0.91188000000E+02  0.91188000000E+02 0.  0.
    9900012    2    3    3    0    0  0.95619620738E+01 -0.18473408602E+02 -0.38091009295E+02  0.47787274969E+02  0.20000017894E+02 0.  0.
         12    1    3    3    0    0 -0.95619620738E+01  0.18473408602E+02  0.38091009295E+02  0.43400725031E+02  0.00000000000E+00 0. -1.
         11    1    4    4    0    0 -0.16592622558E+01  0.19556741666E+01 -0.20838767827E+01  0.33045961003E+01  0.51100000000E-03 0. -1.
        -11    1    4    4    0    0 -0.26412042593E-01 -0.24783728894E+01  0.24971036455E+00  0.24910610796E+01  0.51100000000E-03 0.  1.
        -12    1    4    4    0    0  0.11247636372E+02 -0.17950709880E+02 -0.36256842877E+02  0.41991617789E+02  0.00000000000E+00 0.  1.
</event>
<event>
 8    1  0.5250708E-010  0.9118800E+02  0.7816164E-02  0.1184000E+00
        -11   -1    0    0    0    0  0.00000000000E+00  0.00000000000E+00  0.45593999997E+02  0.45594000000E+02  0.51100000000E-03 0. -1.
         11   -1    0    0    0    0 -0.00000000000E+00 -0.00000000000E+00 -0.45593999997E+02  0.45594000000E+02  0.51100000000E-03 0.  1.
         23    2    1    2    0    0  0.00000000000E+00  0.22204460493E-15  0.17763568394E-14  0.91188000000E+02  0.91188000000E+02 0.  0.
    9900012    2    3    3    0    0 -0.41219108097E+02 -0.17394645301E+01 -0.13475243668E+02  0.47787276491E+02  0.20000024834E+02 0.  0.
        -12    1    3    3    0    0  0.41219108097E+02  0.17394645301E+01  0.13475243668E+02  0.43400723509E+02  0.00000000000E+00 0.  1.
         11    1    4    4    0    0 -0.12419169001E+02 -0.16657973758E+01 -0.65720191514E+01  0.14149278270E+02  0.51100000000E-03 0. -1.
        -11    1    4    4    0    0 -0.34165309440E+01 -0.59925840466E+00  0.46029063746E+01  0.57635528697E+01  0.51100000000E-03 0.  1.
        -12    1    4    4    0    0 -0.25383408152E+02  0.52559125039E+00 -0.11506130891E+02  0.27874445352E+02  0.00000000000E+00 0.  1.
</event>
<event>
 8    1  0.5250708E-010  0.9118800E+02  0.7816164E-02  0.1184000E+00
        -11   -1    0    0    0    0  0.00000000000E+00  0.00000000000E+00  0.45593999997E+02  0.45594000000E+02  0.51100000000E-03 0. -1.
         11   -1    0    0    0    0 -0.00000000000E+00 -0.00000000000E+00 -0.45593999997E+02  0.45594000000E+02  0.51100000000E-03 0.  1.
         23    2    1    2    0    0  0.00000000000E+00  0.00000000000E+00  0.00000000000E+00  0.91188000000E+02  0.91188000000E+02 0.  0.
    9900012    2    3    3    0    0  0.33305442672E+01 -0.17262532758E+02  0.39680419926E+02  0.47787270883E+02  0.19999999265E+02 0.  0.
        -12    1    3    3    0    0 -0.33305442672E+01  0.17262532758E+02 -0.39680419926E+02  0.43400729117E+02  0.00000000000E+00 0.  1.
         11    1    4    4    0    0 -0.20146210185E+00 -0.99188912486E+01  0.12082751051E+02  0.15633869125E+02  0.51100000000E-03 0. -1.
        -11    1    4    4    0    0  0.83420793247E+01 -0.36015986571E+01  0.22293807605E+02  0.24074377627E+02  0.51100000000E-03 0.  1.
        -12    1    4    4    0    0 -0.48100729556E+01 -0.37420428520E+01  0.53038612702E+01  0.80790241315E+01  0.00000000000E+00 0.  1.
</event>
<event>
 8    1  0.5250708E-010  0.9118800E+02  0.7816164E-02  0.1184000E+00
        -11   -1    0    0    0    0  0.00000000000E+00  0.00000000000E+00  0.45593999997E+02  0.45594000000E+02  0.51100000000E-03 0. -1.
         11   -1    0    0    0    0 -0.00000000000E+00 -0.00000000000E+00 -0.45593999997E+02  0.45594000000E+02  0.51100000000E-03 0.  1.
         23    2    1    2    0    0  0.44408920985E-15  0.35527136788E-14  0.00000000000E+00  0.91188000000E+02  0.91188000000E+02 0.  0.
    9900012    2    3    3    0    0 -0.37652650988E+01  0.24916286185E+02 -0.35335882141E+02  0.47787272988E+02  0.20000008860E+02 0.  0.
         12    1    3    3    0    0  0.37652650988E+01 -0.24916286185E+02  0.35335882141E+02  0.43400727012E+02  0.00000000000E+00 0. -1.
         11    1    4    4    0    0 -0.15975696970E+01  0.52218069656E+01 -0.13384538021E+02  0.14455634031E+02  0.51100000000E-03 0. -1.
        -11    1    4    4    0    0 -0.34726692570E+01  0.69720557202E+01  0.15704729691E+00  0.77906133808E+01  0.51100000000E-03 0.  1.
        -12    1    4    4    0    0  0.13049738552E+01  0.12722423499E+02 -0.22108391417E+02  0.25541025576E+02  0.00000000000E+00 0.  1.
</event>
<event>
 8    1  0.5250708E-010  0.9118800E+02  0.7816164E-02  0.1184000E+00
        -11   -1    0    0    0    0  0.00000000000E+00  0.00000000000E+00  0.45593999997E+02  0.45594000000E+02  0.51100000000E-03 0. -1.
         11   -1    0    0    0    0 -0.00000000000E+00 -0.00000000000E+00 -0.45593999997E+02  0.45594000000E+02  0.51100000000E-03 0.  1.
         23    2    1    2    0    0  0.00000000000E+00  0.00000000000E+00  0.71054273576E-14  0.91188000000E+02  0.91188000000E+02 0.  0.
    9900012    2    3    3    0    0 -0.19516454611E+02  0.18450793618E+02 -0.34092511257E+02  0.47787272938E+02  0.20000008632E+02 0.  0.
         12    1    3    3    0    0  0.19516454611E+02 -0.18450793618E+02  0.34092511257E+02  0.43400727062E+02  0.00000000000E+00 0. -1.
         11    1    4    4    0    0 -0.29076202626E+01  0.11262800460E+02 -0.59532864111E+01  0.13067002302E+02  0.51100000000E-03 0. -1.
        -11    1    4    4    0    0 -0.20956948764E+01  0.23727285407E+00 -0.11041015088E+02  0.11240651665E+02  0.51100000000E-03 0.  1.
        -12    1    4    4    0    0 -0.14513139472E+02  0.69507203034E+01 -0.17098209758E+02  0.23479618971E+02  0.00000000000E+00 0.  1.
</event>
<event>
 8    1  0.5250708E-010  0.9118800E+02  0.7816164E-02  0.1184000E+00
        -11   -1    0    0    0    0  0.00000000000E+00  0.00000000000E+00  0.45593999997E+02  0.45594000000E+02  0.51100000000E-03 0. -1.
         11   -1    0    0    0    0 -0.00000000000E+00 -0.00000000000E+00 -0.45593999997E+02  0.45594000000E+02  0.51100000000E-03 0.  1.
         23    2    1    2    0    0  0.00000000000E+00 -0.88817841970E-15  0.00000000000E+00  0.91188000000E+02  0.91188000000E+02 0.  0.
    9900012    2    3    3    0    0  0.65203853821E+01 -0.56126252639E+01  0.42539459259E+02  0.47787279016E+02  0.20000036347E+02 0.  0.
        -12    1    3    3    0    0 -0.65203853821E+01  0.56126252639E+01 -0.42539459259E+02  0.43400720984E+02  0.00000000000E+00 0.  1.
         11    1    4    4    0    0 -0.41844104401E+01  0.31405547474E-01  0.55559921821E+01  0.69555248852E+01  0.51100000000E-03 0. -1.
        -11    1    4    4    0    0  0.45362475165E+01 -0.18966838197E+01  0.31193967142E+02  0.31579083859E+02  0.51100000000E-03 0.  1.
        -12    1    4    4    0    0  0.61685483057E+01 -0.37473469917E+01  0.57894999347E+01  0.92526702724E+01  0.00000000000E+00 0.  1.
</event>
<event>
 8    1  0.5250708E-010  0.9118800E+02  0.7816164E-02  0.1184000E+00
        -11   -1    0    0    0    0  0.00000000000E+00  0.00000000000E+00  0.45593999997E+02  0.45594000000E+02  0.51100000000E-03 0. -1.
         11   -1    0    0    0    0 -0.00000000000E+00 -0.00000000000E+00 -0.45593999997E+02  0.45594000000E+02  0.51100000000E-03 0.  1.
         23    2    1    2    0    0  0.00000000000E+00  0.00000000000E+00  0.00000000000E+00  0.91188000000E+02  0.91188000000E+02 0.  0.
    9900012    2    3    3    0    0 -0.13911659177E+02  0.78009588272E+01 -0.40363770767E+02  0.47787271778E+02  0.20000003345E+02 0.  0.
         12    1    3    3    0    0  0.13911659177E+02 -0.78009588272E+01  0.40363770767E+02  0.43400728222E+02  0.00000000000E+00 0. -1.
         11    1    4    4    0    0 -0.11673672132E+02  0.96481752305E+01 -0.13143532168E+02  0.20052788944E+02  0.51100000000E-03 0. -1.
        -11    1    4    4    0    0 -0.13682888611E+00  0.10092785616E+01 -0.18006203137E+01  0.20687192014E+01  0.51100000000E-03 0.  1.
         12    1    4    4    0    0 -0.21011581590E+01 -0.28564949649E+01 -0.25419618286E+02  0.25665763633E+02  0.00000000000E+00 0. -1.
</event>
<event>
 8    1  0.5250708E-010  0.9118800E+02  0.7816164E-02  0.1184000E+00
        -11   -1    0    0    0    0  0.00000000000E+00  0.00000000000E+00  0.45593999997E+02  0.45594000000E+02  0.51100000000E-03 0.  1.
         11   -1    0    0    0    0 -0.00000000000E+00 -0.00000000000E+00 -0.45593999997E+02  0.45594000000E+02  0.51100000000E-03 0. -1.
         23    2    1    2    0    0  0.00000000000E+00 -0.35527136788E-14  0.35527136788E-14  0.91188000000E+02  0.91188000000E+02 0.  0.
    9900012    2    3    3    0    0 -0.40263734095E+02 -0.50081357966E+01  0.15406927969E+02  0.47787272623E+02  0.20000007198E+02 0.  0.
        -12    1    3    3    0    0  0.40263734095E+02  0.50081357966E+01 -0.15406927969E+02  0.43400727377E+02  0.00000000000E+00 0.  1.
         11    1    4    4    0    0 -0.28392324691E+01 -0.15976419597E+01 -0.23827301609E+01  0.40362239935E+01  0.51100000000E-03 0. -1.
        -11    1    4    4    0    0 -0.20460846650E+02 -0.85884763763E+01  0.10909538232E+02  0.24727033724E+02  0.51100000000E-03 0.  1.
         12    1    4    4    0    0 -0.16963654975E+02  0.51779825394E+01  0.68801198982E+01  0.19024014905E+02  0.00000000000E+00 0. -1.
</event>
<event>
 8    1  0.5250708E-010  0.9118800E+02  0.7816164E-02  0.1184000E+00
        -11   -1    0    0    0    0  0.00000000000E+00  0.00000000000E+00  0.45593999997E+02  0.45594000000E+02  0.51100000000E-03 0. -1.
         11   -1    0    0    0    0 -0.00000000000E+00 -0.00000000000E+00 -0.45593999997E+02  0.45594000000E+02  0.51100000000E-03 0.  1.
         23    2    1    2    0    0  0.88817841970E-15  0.00000000000E+00  0.00000000000E+00  0.91188000000E+02  0.91188000000E+02 0.  0.
    9900012    2    3    3    0    0 -0.68257715546E+01  0.29258766447E+02 -0.31320226079E+02  0.47787272668E+02  0.20000007403E+02 0.  0.
         12    1    3    3    0    0  0.68257715546E+01 -0.29258766447E+02  0.31320226079E+02  0.43400727332E+02  0.00000000000E+00 0. -1.
         11    1    4    4    0    0  0.27988919201E+00  0.57157758705E+01 -0.15315149476E+02  0.16349380279E+02  0.51100000000E-03 0. -1.
        -11    1    4    4    0    0  0.60605305930E+00  0.46664885478E+01 -0.84885933543E+01  0.97056495442E+01  0.51100000000E-03 0.  1.
         12    1    4    4    0    0 -0.77117138059E+01  0.18876502028E+02 -0.75164832486E+01  0.21732242845E+02  0.00000000000E+00 0. -1.
</event>
<event>
 8    1  0.5250708E-010  0.9118800E+02  0.7816164E-02  0.1184000E+00
        -11   -1    0    0    0    0  0.00000000000E+00  0.00000000000E+00  0.45593999997E+02  0.45594000000E+02  0.51100000000E-03 0. -1.
         11   -1    0    0    0    0 -0.00000000000E+00 -0.00000000000E+00 -0.45593999997E+02  0.45594000000E+02  0.51100000000E-03 0.  1.
         23    2    1    2    0    0  0.17763568394E-14  0.00000000000E+00  0.00000000000E+00  0.91188000000E+02  0.91188000000E+02 0.  0.
    9900012    2    3    3    0    0 -0.13955910120E+02  0.21934166793E+02 -0.34752671208E+02  0.47787271247E+02  0.20000000924E+02 0.  0.
         12    1    3    3    0    0  0.13955910120E+02 -0.21934166793E+02  0.34752671208E+02  0.43400728753E+02  0.00000000000E+00 0. -1.
         11    1    4    4    0    0 -0.69053414840E+00  0.27948510174E+01  0.12103125309E+01  0.31229611434E+01  0.51100000000E-03 0. -1.
        -11    1    4    4    0    0  0.23839135187E+01  0.19587467023E+01 -0.59843301849E+01  0.67328998456E+01  0.51100000000E-03 0.  1.
        -12    1    4    4    0    0 -0.15649289491E+02  0.17180569073E+02 -0.29978653554E+02  0.37931410258E+02  0.00000000000E+00 0.  1.
</event>
<event>
 8    1  0.5250708E-010  0.9118800E+02  0.7816164E-02  0.1184000E+00
        -11   -1    0    0    0    0  0.00000000000E+00  0.00000000000E+00  0.45593999997E+02  0.45594000000E+02  0.51100000000E-03 0.  1.
         11   -1    0    0    0    0 -0.00000000000E+00 -0.00000000000E+00 -0.45593999997E+02  0.45594000000E+02  0.51100000000E-03 0. -1.
         23    2    1    2    0    0  0.00000000000E+00 -0.88817841970E-15  0.00000000000E+00  0.91188000000E+02  0.91188000000E+02 0.  0.
    9900012    2    3    3    0    0  0.41992195008E+02  0.45879704356E+01  0.99613987765E+01  0.47787269823E+02  0.19999994429E+02 0.  0.
         12    1    3    3    0    0 -0.41992195008E+02 -0.45879704356E+01 -0.99613987765E+01  0.43400730177E+02  0.00000000000E+00 0. -1.
         11    1    4    4    0    0  0.19326988113E+01 -0.28722530693E+01 -0.53570303370E+00  0.35031614851E+01  0.51100000000E-03 0. -1.
        -11    1    4    4    0    0  0.34763958268E+01 -0.15705078821E+01  0.48681763299E+01  0.61847363721E+01  0.51100000000E-03 0.  1.
        -12    1    4    4    0    0  0.36583100370E+02  0.90307313870E+01  0.56289254804E+01  0.38099371965E+02  0.00000000000E+00 0.  1.
</event>
<event>
 8    1  0.5250708E-010  0.9118800E+02  0.7816164E-02  0.1184000E+00
        -11   -1    0    0    0    0  0.00000000000E+00  0.00000000000E+00  0.45593999997E+02  0.45594000000E+02  0.51100000000E-03 0. -1.
         11   -1    0    0    0    0 -0.00000000000E+00 -0.00000000000E+00 -0.45593999997E+02  0.45594000000E+02  0.51100000000E-03 0.  1.
         23    2    1    2    0    0 -0.71054273576E-14  0.00000000000E+00  0.00000000000E+00  0.91188000000E+02  0.91188000000E+02 0.  0.
    9900012    2    3    3    0    0  0.28668531682E+02 -0.63984096703E+01 -0.31949946366E+02  0.47787269270E+02  0.19999991909E+02 0.  0.
         12    1    3    3    0    0 -0.28668531682E+02  0.63984096703E+01  0.31949946366E+02  0.43400730730E+02  0.00000000000E+00 0. -1.
         11    1    4    4    0    0 -0.16328199711E+00 -0.29357607193E+01 -0.78349876971E+01  0.83685353848E+01  0.51100000000E-03 0. -1.
        -11    1    4    4    0    0  0.21122320442E+02 -0.38822539603E+01 -0.23247617155E+02  0.31649265715E+02  0.51100000000E-03 0.  1.
         12    1    4    4    0    0  0.77094932376E+01  0.41960500934E+00 -0.86734151421E+00  0.77694681701E+01  0.00000000000E+00 0. -1.
</event>
<event>
 8    1  0.5250708E-010  0.9118800E+02  0.7816164E-02  0.1184000E+00
        -11   -1    0    0    0    0  0.00000000000E+00  0.00000000000E+00  0.45593999997E+02  0.45594000000E+02  0.51100000000E-03 0. -1.
         11   -1    0    0    0    0 -0.00000000000E+00 -0.00000000000E+00 -0.45593999997E+02  0.45594000000E+02  0.51100000000E-03 0.  1.
         23    2    1    2    0    0  0.00000000000E+00  0.35527136788E-14 -0.14210854715E-13  0.91188000000E+02  0.91188000000E+02 0.  0.
    9900012    2    3    3    0    0 -0.68554059529E+01  0.20931521689E+02 -0.37396496708E+02  0.47787272390E+02  0.20000006137E+02 0.  0.
         12    1    3    3    0    0  0.68554059529E+01 -0.20931521689E+02  0.37396496708E+02  0.43400727610E+02  0.00000000000E+00 0. -1.
         11    1    4    4    0    0 -0.41747260114E+01  0.86439299779E+01 -0.21766680486E+02  0.23789372467E+02  0.51100000000E-03 0. -1.
        -11    1    4    4    0    0  0.94620002759E+00  0.71832629902E+01 -0.16163953102E+02  0.17713496036E+02  0.51100000000E-03 0.  1.
         12    1    4    4    0    0 -0.36268799691E+01  0.51043287213E+01  0.53413688039E+00  0.62844038868E+01  0.00000000000E+00 0. -1.
</event>
<event>
 8    1  0.5250708E-010  0.9118800E+02  0.7816164E-02  0.1184000E+00
        -11   -1    0    0    0    0  0.00000000000E+00  0.00000000000E+00  0.45593999997E+02  0.45594000000E+02  0.51100000000E-03 0. -1.
         11   -1    0    0    0    0 -0.00000000000E+00 -0.00000000000E+00 -0.45593999997E+02  0.45594000000E+02  0.51100000000E-03 0.  1.
         23    2    1    2    0    0  0.00000000000E+00  0.00000000000E+00  0.00000000000E+00  0.91188000000E+02  0.91188000000E+02 0.  0.
    9900012    2    3    3    0    0 -0.21376410643E+02 -0.19917383496E+02 -0.32093160229E+02  0.47787262324E+02  0.19999960241E+02 0.  0.
         12    1    3    3    0    0  0.21376410643E+02  0.19917383496E+02  0.32093160229E+02  0.43400737676E+02  0.00000000000E+00 0. -1.
         11    1    4    4    0    0 -0.92474495963E+00 -0.31881596356E+00  0.12583640952E+01  0.15938247445E+01  0.51100000000E-03 0. -1.
        -11    1    4    4    0    0 -0.11548274696E+02 -0.49715698862E+01 -0.22921605185E+02  0.26143433977E+02  0.51100000000E-03 0.  1.
        -12    1    4    4    0    0 -0.89033909867E+01 -0.14626997646E+02 -0.10429919140E+02  0.20050003603E+02  0.00000000000E+00 0.  1.
</event>
<event>
 8    1  0.5250708E-010  0.9118800E+02  0.7816164E-02  0.1184000E+00
        -11   -1    0    0    0    0  0.00000000000E+00  0.00000000000E+00  0.45593999997E+02  0.45594000000E+02  0.51100000000E-03 0. -1.
         11   -1    0    0    0    0 -0.00000000000E+00 -0.00000000000E+00 -0.45593999997E+02  0.45594000000E+02  0.51100000000E-03 0.  1.
         23    2    1    2    0    0  0.00000000000E+00  0.00000000000E+00  0.00000000000E+00  0.91188000000E+02  0.91188000000E+02 0.  0.
    9900012    2    3    3    0    0  0.21802813390E+02  0.18529460201E+02 -0.32633114936E+02  0.47787265473E+02  0.19999974598E+02 0.  0.
         12    1    3    3    0    0 -0.21802813390E+02 -0.18529460201E+02  0.32633114936E+02  0.43400734527E+02  0.00000000000E+00 0. -1.
         11    1    4    4    0    0 -0.13955166742E+01  0.30548161184E+01 -0.14368212446E+01  0.36529199082E+01  0.51100000000E-03 0. -1.
        -11    1    4    4    0    0  0.24234371740E+00 -0.22178336832E+01 -0.24436102430E+01  0.33088892403E+01  0.51100000000E-03 0.  1.
        -12    1    4    4    0    0  0.22955986347E+02  0.17692477766E+02 -0.28752683448E+02  0.40825456325E+02  0.00000000000E+00 0.  1.
</event>
<event>
 8    1  0.5250708E-010  0.9118800E+02  0.7816164E-02  0.1184000E+00
        -11   -1    0    0    0    0  0.00000000000E+00  0.00000000000E+00  0.45593999997E+02  0.45594000000E+02  0.51100000000E-03 0.  1.
         11   -1    0    0    0    0 -0.00000000000E+00 -0.00000000000E+00 -0.45593999997E+02  0.45594000000E+02  0.51100000000E-03 0. -1.
         23    2    1    2    0    0  0.00000000000E+00  0.00000000000E+00  0.17763568394E-14  0.91188000000E+02  0.91188000000E+02 0.  0.
    9900012    2    3    3    0    0  0.12397303626E+02 -0.40387176078E+02  0.99401309075E+01  0.47787270384E+02  0.19999996988E+02 0.  0.
        -12    1    3    3    0    0 -0.12397303626E+02  0.40387176078E+02 -0.99401309075E+01  0.43400729616E+02  0.00000000000E+00 0.  1.
         11    1    4    4    0    0  0.69116418351E+01 -0.14035536494E+02  0.62047118630E+00  0.15657332541E+02  0.51100000000E-03 0. -1.
        -11    1    4    4    0    0 -0.44291836264E+01 -0.65634087784E+01 -0.46213347177E+00  0.79315553327E+01  0.51100000000E-03 0.  1.
        -12    1    4    4    0    0  0.99148454170E+01 -0.19788230806E+02  0.97817931930E+01  0.24198382511E+02  0.00000000000E+00 0.  1.
</event>
<event>
 8    1  0.5250708E-010  0.9118800E+02  0.7816164E-02  0.1184000E+00
        -11   -1    0    0    0    0  0.00000000000E+00  0.00000000000E+00  0.45593999997E+02  0.45594000000E+02  0.51100000000E-03 0. -1.
         11   -1    0    0    0    0 -0.00000000000E+00 -0.00000000000E+00 -0.45593999997E+02  0.45594000000E+02  0.51100000000E-03 0.  1.
         23    2    1    2    0    0  0.00000000000E+00  0.00000000000E+00  0.00000000000E+00  0.91188000000E+02  0.91188000000E+02 0.  0.
    9900012    2    3    3    0    0 -0.22878367668E+02  0.22748794708E+02 -0.29029223326E+02  0.47787272186E+02  0.20000005206E+02 0.  0.
         12    1    3    3    0    0  0.22878367668E+02 -0.22748794708E+02  0.29029223326E+02  0.43400727814E+02  0.00000000000E+00 0. -1.
         11    1    4    4    0    0 -0.99889842565E+01  0.12451532401E+02 -0.12588081733E+02  0.20329295797E+02  0.51100000000E-03 0. -1.
        -11    1    4    4    0    0 -0.92737215356E+00  0.99147737925E+01 -0.85250075967E+01  0.13108718978E+02  0.51100000000E-03 0.  1.
         12    1    4    4    0    0 -0.11962011258E+02  0.38248851474E+00 -0.79161339962E+01  0.14349257411E+02  0.00000000000E+00 0. -1.
</event>
<event>
 8    1  0.5250708E-010  0.9118800E+02  0.7816164E-02  0.1184000E+00
        -11   -1    0    0    0    0  0.00000000000E+00  0.00000000000E+00  0.45593999997E+02  0.45594000000E+02  0.51100000000E-03 0.  1.
         11   -1    0    0    0    0 -0.00000000000E+00 -0.00000000000E+00 -0.45593999997E+02  0.45594000000E+02  0.51100000000E-03 0. -1.
         23    2    1    2    0    0 -0.44408920985E-15  0.00000000000E+00  0.00000000000E+00  0.91188000000E+02  0.91188000000E+02 0.  0.
    9900012    2    3    3    0    0 -0.22269124360E+01  0.43148313512E+02  0.41092441007E+01  0.47787285893E+02  0.20000067700E+02 0.  0.
         12    1    3    3    0    0  0.22269124360E+01 -0.43148313512E+02 -0.41092441007E+01  0.43400714107E+02  0.00000000000E+00 0. -1.
         11    1    4    4    0    0  0.56364390921E+01  0.11758749339E+02 -0.25692457716E+01  0.13290547609E+02  0.51100000000E-03 0. -1.
        -11    1    4    4    0    0 -0.65154617428E+01  0.82586585969E+01  0.56935488678E+00  0.10534744837E+02  0.51100000000E-03 0.  1.
        -12    1    4    4    0    0 -0.13478897853E+01  0.23130905576E+02  0.61091349856E+01  0.23961993446E+02  0.00000000000E+00 0.  1.
</event>
<event>
 8    1  0.5250708E-010  0.9118800E+02  0.7816164E-02  0.1184000E+00
        -11   -1    0    0    0    0  0.00000000000E+00  0.00000000000E+00  0.45593999997E+02  0.45594000000E+02  0.51100000000E-03 0. -1.
         11   -1    0    0    0    0 -0.00000000000E+00 -0.00000000000E+00 -0.45593999997E+02  0.45594000000E+02  0.51100000000E-03 0.  1.
         23    2    1    2    0    0  0.00000000000E+00 -0.88817841970E-15  0.00000000000E+00  0.91188000000E+02  0.91188000000E+02 0.  0.
    9900012    2    3    3    0    0  0.13991932378E+02 -0.76317348118E+01 -0.40368376413E+02  0.47787270028E+02  0.19999995365E+02 0.  0.
         12    1    3    3    0    0 -0.13991932378E+02  0.76317348118E+01  0.40368376413E+02  0.43400729972E+02  0.00000000000E+00 0. -1.
         11    1    4    4    0    0 -0.10309737326E+01 -0.76621653682E+01 -0.14814840747E+02  0.16710810620E+02  0.51100000000E-03 0. -1.
        -11    1    4    4    0    0  0.10966293503E+02 -0.41114510509E+01 -0.19067208803E+02  0.22376820032E+02  0.51100000000E-03 0.  1.
        -12    1    4    4    0    0  0.40566126077E+01  0.41418816073E+01 -0.64863268627E+01  0.86996393757E+01  0.00000000000E+00 0.  1.
</event>
<event>
 8    1  0.5250708E-010  0.9118800E+02  0.7816164E-02  0.1184000E+00
        -11   -1    0    0    0    0  0.00000000000E+00  0.00000000000E+00  0.45593999997E+02  0.45594000000E+02  0.51100000000E-03 0. -1.
         11   -1    0    0    0    0 -0.00000000000E+00 -0.00000000000E+00 -0.45593999997E+02  0.45594000000E+02  0.51100000000E-03 0.  1.
         23    2    1    2    0    0  0.00000000000E+00 -0.35527136788E-14  0.00000000000E+00  0.91188000000E+02  0.91188000000E+02 0.  0.
    9900012    2    3    3    0    0 -0.20772299266E+02 -0.19191544847E+02  0.32921412912E+02  0.47787271452E+02  0.20000001858E+02 0.  0.
        -12    1    3    3    0    0  0.20772299266E+02  0.19191544847E+02 -0.32921412912E+02  0.43400728548E+02  0.00000000000E+00 0.  1.
         11    1    4    4    0    0 -0.10485012311E+02 -0.14607130447E+02  0.18583027695E+02  0.25857932277E+02  0.51100000000E-03 0. -1.
        -11    1    4    4    0    0 -0.10205035537E+02 -0.45905868727E+01  0.44527963943E+01  0.12043406252E+02  0.51100000000E-03 0.  1.
         12    1    4    4    0    0 -0.82251417213E-01  0.61724732854E-02  0.98855888224E+01  0.98859329231E+01  0.00000000000E+00 0. -1.
</event>
<event>
 8    1  0.5250708E-010  0.9118800E+02  0.7816164E-02  0.1184000E+00
        -11   -1    0    0    0    0  0.00000000000E+00  0.00000000000E+00  0.45593999997E+02  0.45594000000E+02  0.51100000000E-03 0. -1.
         11   -1    0    0    0    0 -0.00000000000E+00 -0.00000000000E+00 -0.45593999997E+02  0.45594000000E+02  0.51100000000E-03 0.  1.
         23    2    1    2    0    0 -0.53290705182E-14  0.00000000000E+00 -0.35527136788E-14  0.91188000000E+02  0.91188000000E+02 0.  0.
    9900012    2    3    3    0    0 -0.14527797760E+02 -0.32706456088E+02 -0.24553086730E+02  0.47787271370E+02  0.20000001485E+02 0.  0.
         12    1    3    3    0    0  0.14527797760E+02  0.32706456088E+02  0.24553086730E+02  0.43400728630E+02  0.00000000000E+00 0. -1.
         11    1    4    4    0    0  0.48047245144E+00 -0.19059765901E+01 -0.29207973858E+01  0.35206048015E+01  0.51100000000E-03 0. -1.
        -11    1    4    4    0    0 -0.16070910362E+02 -0.20764220436E+02 -0.82844911532E+01  0.27532885865E+02  0.51100000000E-03 0.  1.
        -12    1    4    4    0    0  0.10626401498E+01 -0.10036259063E+02 -0.13347798192E+02  0.16733780703E+02  0.00000000000E+00 0.  1.
</event>
<event>
 8    1  0.5250708E-010  0.9118800E+02  0.7816164E-02  0.1184000E+00
        -11   -1    0    0    0    0  0.00000000000E+00  0.00000000000E+00  0.45593999997E+02  0.45594000000E+02  0.51100000000E-03 0. -1.
         11   -1    0    0    0    0 -0.00000000000E+00 -0.00000000000E+00 -0.45593999997E+02  0.45594000000E+02  0.51100000000E-03 0.  1.
         23    2    1    2    0    0  0.00000000000E+00  0.35527136788E-14 -0.35527136788E-14  0.91188000000E+02  0.91188000000E+02 0.  0.
    9900012    2    3    3    0    0 -0.16329780956E+02 -0.30085627856E+02 -0.26679885603E+02  0.47787273677E+02  0.20000012002E+02 0.  0.
         12    1    3    3    0    0  0.16329780956E+02  0.30085627856E+02  0.26679885603E+02  0.43400726323E+02  0.00000000000E+00 0. -1.
         11    1    4    4    0    0 -0.53919103338E+01 -0.55694348768E+01 -0.44565813749E+00  0.77646579661E+01  0.51100000000E-03 0. -1.
        -11    1    4    4    0    0 -0.11121159190E+01  0.18105445880E+01 -0.18407137309E+01  0.28112454220E+01  0.51100000000E-03 0.  1.
        -12    1    4    4    0    0 -0.98257547035E+01 -0.26326737568E+02 -0.24393513735E+02  0.37211370289E+02  0.00000000000E+00 0.  1.
</event>
<event>
 8    1  0.5250708E-010  0.9118800E+02  0.7816164E-02  0.1184000E+00
        -11   -1    0    0    0    0  0.00000000000E+00  0.00000000000E+00  0.45593999997E+02  0.45594000000E+02  0.51100000000E-03 0. -1.
         11   -1    0    0    0    0 -0.00000000000E+00 -0.00000000000E+00 -0.45593999997E+02  0.45594000000E+02  0.51100000000E-03 0.  1.
         23    2    1    2    0    0 -0.35527136788E-14  0.00000000000E+00  0.00000000000E+00  0.91188000000E+02  0.91188000000E+02 0.  0.
    9900012    2    3    3    0    0 -0.26806687664E+02 -0.10858113989E+02 -0.32359328273E+02  0.47787271099E+02  0.20000000247E+02 0.  0.
         12    1    3    3    0    0  0.26806687664E+02  0.10858113989E+02  0.32359328273E+02  0.43400728901E+02  0.00000000000E+00 0. -1.
         11    1    4    4    0    0 -0.89113078074E+01 -0.50581679664E+01 -0.30971480028E+01  0.10704615641E+02  0.51100000000E-03 0. -1.
        -11    1    4    4    0    0 -0.79596620828E+01 -0.82162917899E+01 -0.96552162528E+01  0.14969531469E+02  0.51100000000E-03 0.  1.
         12    1    4    4    0    0 -0.99357177739E+01  0.24163457678E+01 -0.19606964017E+02  0.22113123988E+02  0.00000000000E+00 0. -1.
</event>
<event>
 8    1  0.5250708E-010  0.9118800E+02  0.7816164E-02  0.1184000E+00
        -11   -1    0    0    0    0  0.00000000000E+00  0.00000000000E+00  0.45593999997E+02  0.45594000000E+02  0.51100000000E-03 0.  1.
         11   -1    0    0    0    0 -0.00000000000E+00 -0.00000000000E+00 -0.45593999997E+02  0.45594000000E+02  0.51100000000E-03 0. -1.
         23    2    1    2    0    0 -0.71054273576E-14 -0.17763568394E-14  0.00000000000E+00  0.91188000000E+02  0.91188000000E+02 0.  0.
    9900012    2    3    3    0    0 -0.38793298704E+02 -0.10875556843E+02  0.16137696146E+02  0.47787274224E+02  0.20000014495E+02 0.  0.
        -12    1    3    3    0    0  0.38793298704E+02  0.10875556843E+02 -0.16137696146E+02  0.43400725776E+02  0.00000000000E+00 0.  1.
         11    1    4    4    0    0 -0.17986058038E+02 -0.53618054415E+00  0.29310079185E+01  0.18231198013E+02  0.51100000000E-03 0. -1.
        -11    1    4    4    0    0  0.40287947495E+00 -0.14499162384E+01  0.48648257612E+01  0.50922587245E+01  0.51100000000E-03 0.  1.
         12    1    4    4    0    0 -0.21210120142E+02 -0.88894600603E+01  0.83418624663E+01  0.24463817486E+02  0.00000000000E+00 0. -1.
</event>
<event>
 8    1  0.5250708E-010  0.9118800E+02  0.7816164E-02  0.1184000E+00
        -11   -1    0    0    0    0  0.00000000000E+00  0.00000000000E+00  0.45593999997E+02  0.45594000000E+02  0.51100000000E-03 0. -1.
         11   -1    0    0    0    0 -0.00000000000E+00 -0.00000000000E+00 -0.45593999997E+02  0.45594000000E+02  0.51100000000E-03 0.  1.
         23    2    1    2    0    0  0.00000000000E+00  0.00000000000E+00 -0.71054273576E-14  0.91188000000E+02  0.91188000000E+02 0.  0.
    9900012    2    3    3    0    0  0.11776176713E+02 -0.22791316883E+02  0.35007153067E+02  0.47787271560E+02  0.20000002351E+02 0.  0.
        -12    1    3    3    0    0 -0.11776176713E+02  0.22791316883E+02 -0.35007153067E+02  0.43400728440E+02  0.00000000000E+00 0.  1.
         11    1    4    4    0    0  0.40612000802E+01 -0.19734741275E+01  0.63691088458E+01  0.78072718650E+01  0.51100000000E-03 0. -1.
        -11    1    4    4    0    0  0.77979949132E+01 -0.20505775071E+01  0.39787673755E+01  0.89913393256E+01  0.51100000000E-03 0.  1.
         12    1    4    4    0    0 -0.83018280015E-01 -0.18767265249E+02  0.24659276846E+02  0.30988660370E+02  0.00000000000E+00 0. -1.
</event>
<event>
 8    1  0.5250708E-010  0.9118800E+02  0.7816164E-02  0.1184000E+00
        -11   -1    0    0    0    0  0.00000000000E+00  0.00000000000E+00  0.45593999997E+02  0.45594000000E+02  0.51100000000E-03 0. -1.
         11   -1    0    0    0    0 -0.00000000000E+00 -0.00000000000E+00 -0.45593999997E+02  0.45594000000E+02  0.51100000000E-03 0.  1.
         23    2    1    2    0    0  0.00000000000E+00  0.00000000000E+00  0.71054273576E-14  0.91188000000E+02  0.91188000000E+02 0.  0.
    9900012    2    3    3    0    0  0.20290148216E+02 -0.10237101229E+02 -0.36974798637E+02  0.47787261637E+02  0.19999957109E+02 0.  0.
         12    1    3    3    0    0 -0.20290148216E+02  0.10237101229E+02  0.36974798637E+02  0.43400738363E+02  0.00000000000E+00 0. -1.
         11    1    4    4    0    0  0.31587184344E+00  0.29052928410E+01 -0.25194177193E+01  0.38584928948E+01  0.51100000000E-03 0. -1.
        -11    1    4    4    0    0  0.57606686276E+01 -0.95294100590E+01 -0.22122131604E+02  0.24766583658E+02  0.51100000000E-03 0.  1.
         12    1    4    4    0    0  0.14213607745E+02 -0.36129840109E+01 -0.12333249313E+02  0.19162185084E+02  0.00000000000E+00 0. -1.
</event>
<event>
 8    1  0.5250708E-010  0.9118800E+02  0.7816164E-02  0.1184000E+00
        -11   -1    0    0    0    0  0.00000000000E+00  0.00000000000E+00  0.45593999997E+02  0.45594000000E+02  0.51100000000E-03 0. -1.
         11   -1    0    0    0    0 -0.00000000000E+00 -0.00000000000E+00 -0.45593999997E+02  0.45594000000E+02  0.51100000000E-03 0.  1.
         23    2    1    2    0    0  0.00000000000E+00  0.35527136788E-14  0.00000000000E+00  0.91188000000E+02  0.91188000000E+02 0.  0.
    9900012    2    3    3    0    0 -0.33240133150E+02  0.18632865529E+02 -0.20773379006E+02  0.47787269534E+02  0.19999993114E+02 0.  0.
         12    1    3    3    0    0  0.33240133150E+02 -0.18632865529E+02  0.20773379006E+02  0.43400730466E+02  0.00000000000E+00 0. -1.
         11    1    4    4    0    0 -0.67934075666E+01  0.14233083951E+02 -0.61529474643E+01  0.16928964170E+02  0.51100000000E-03 0. -1.
        -11    1    4    4    0    0 -0.51061216837E+01 -0.79757389592E+00 -0.34773583040E+01  0.62290146736E+01  0.51100000000E-03 0.  1.
        -12    1    4    4    0    0 -0.21340603900E+02  0.51973554743E+01 -0.11143073238E+02  0.24629290690E+02  0.00000000000E+00 0.  1.
</event>
<event>
 8    1  0.5250708E-010  0.9118800E+02  0.7816164E-02  0.1184000E+00
        -11   -1    0    0    0    0  0.00000000000E+00  0.00000000000E+00  0.45593999997E+02  0.45594000000E+02  0.51100000000E-03 0. -1.
         11   -1    0    0    0    0 -0.00000000000E+00 -0.00000000000E+00 -0.45593999997E+02  0.45594000000E+02  0.51100000000E-03 0.  1.
         23    2    1    2    0    0  0.00000000000E+00 -0.71054273576E-14 -0.35527136788E-14  0.91188000000E+02  0.91188000000E+02 0.  0.
    9900012    2    3    3    0    0  0.10125027350E+02 -0.36060808439E+02 -0.21925448841E+02  0.47787269695E+02  0.19999993849E+02 0.  0.
         12    1    3    3    0    0 -0.10125027350E+02  0.36060808439E+02  0.21925448841E+02  0.43400730305E+02  0.00000000000E+00 0. -1.
         11    1    4    4    0    0  0.80183047140E+00 -0.14496854327E+02 -0.13177653702E+02  0.19607454573E+02  0.51100000000E-03 0. -1.
        -11    1    4    4    0    0  0.89549177872E+01 -0.23003425491E+02 -0.65715816275E+01  0.25544741577E+02  0.51100000000E-03 0.  1.
         12    1    4    4    0    0  0.36827909138E+00  0.14394713791E+01 -0.21762135114E+01  0.26350735450E+01  0.00000000000E+00 0. -1.
</event>
<event>
 8    1  0.5250708E-010  0.9118800E+02  0.7816164E-02  0.1184000E+00
        -11   -1    0    0    0    0  0.00000000000E+00  0.00000000000E+00  0.45593999997E+02  0.45594000000E+02  0.51100000000E-03 0. -1.
         11   -1    0    0    0    0 -0.00000000000E+00 -0.00000000000E+00 -0.45593999997E+02  0.45594000000E+02  0.51100000000E-03 0.  1.
         23    2    1    2    0    0  0.00000000000E+00  0.00000000000E+00 -0.71054273576E-14  0.91188000000E+02  0.91188000000E+02 0.  0.
    9900012    2    3    3    0    0  0.22055158806E+02 -0.23031471139E+02  0.29440529828E+02  0.47787268563E+02  0.19999988685E+02 0.  0.
        -12    1    3    3    0    0 -0.22055158806E+02  0.23031471139E+02 -0.29440529828E+02  0.43400731437E+02  0.00000000000E+00 0.  1.
         11    1    4    4    0    0  0.15748512426E+02 -0.44731031837E+01  0.17397268720E+02  0.23889103267E+02  0.51100000000E-03 0. -1.
        -11    1    4    4    0    0  0.86676059344E+00 -0.80061634753E+01  0.80142287329E+01  0.11361240688E+02  0.51100000000E-03 0.  1.
         12    1    4    4    0    0  0.54398857861E+01 -0.10552204480E+02  0.40290323744E+01  0.12536924608E+02  0.00000000000E+00 0. -1.
</event>
<event>
 8    1  0.5250708E-010  0.9118800E+02  0.7816164E-02  0.1184000E+00
        -11   -1    0    0    0    0  0.00000000000E+00  0.00000000000E+00  0.45593999997E+02  0.45594000000E+02  0.51100000000E-03 0. -1.
         11   -1    0    0    0    0 -0.00000000000E+00 -0.00000000000E+00 -0.45593999997E+02  0.45594000000E+02  0.51100000000E-03 0.  1.
         23    2    1    2    0    0  0.44408920985E-15  0.00000000000E+00  0.00000000000E+00  0.91188000000E+02  0.91188000000E+02 0.  0.
    9900012    2    3    3    0    0  0.31827285068E+01  0.17394223783E+02  0.39635018185E+02  0.47787269035E+02  0.19999990838E+02 0.  0.
        -12    1    3    3    0    0 -0.31827285068E+01 -0.17394223783E+02 -0.39635018185E+02  0.43400730965E+02  0.00000000000E+00 0.  1.
         11    1    4    4    0    0 -0.17115642000E+01 -0.79934140886E-01  0.67636512833E+01  0.69773075338E+01  0.51100000000E-03 0. -1.
        -11    1    4    4    0    0  0.55313196307E+01  0.81344143534E+01  0.42847565337E+01  0.10729554163E+02  0.51100000000E-03 0.  1.
        -12    1    4    4    0    0 -0.63702692389E+00  0.93397435705E+01  0.28586610368E+02  0.30080407338E+02  0.00000000000E+00 0.  1.
</event>
<event>
 8    1  0.5250708E-010  0.9118800E+02  0.7816164E-02  0.1184000E+00
        -11   -1    0    0    0    0  0.00000000000E+00  0.00000000000E+00  0.45593999997E+02  0.45594000000E+02  0.51100000000E-03 0. -1.
         11   -1    0    0    0    0 -0.00000000000E+00 -0.00000000000E+00 -0.45593999997E+02  0.45594000000E+02  0.51100000000E-03 0.  1.
         23    2    1    2    0    0  0.00000000000E+00  0.35527136788E-14 -0.35527136788E-14  0.91188000000E+02  0.91188000000E+02 0.  0.
    9900012    2    3    3    0    0 -0.22020639874E+02  0.21936099831E+02 -0.30290633139E+02  0.47787268298E+02  0.19999987479E+02 0.  0.
         12    1    3    3    0    0  0.22020639874E+02 -0.21936099831E+02  0.30290633139E+02  0.43400731702E+02  0.00000000000E+00 0. -1.
         11    1    4    4    0    0 -0.12822262407E+02  0.15182508353E+02 -0.10390928047E+02  0.22425217035E+02  0.51100000000E-03 0. -1.
        -11    1    4    4    0    0 -0.11697146827E+02  0.55340799289E+01 -0.16187853514E+02  0.20724282526E+02  0.51100000000E-03 0.  1.
         12    1    4    4    0    0  0.24987693590E+01  0.12195115491E+01 -0.37118515779E+01  0.46377687377E+01  0.00000000000E+00 0. -1.
</event>
<event>
 8    1  0.5250708E-010  0.9118800E+02  0.7816164E-02  0.1184000E+00
        -11   -1    0    0    0    0  0.00000000000E+00  0.00000000000E+00  0.45593999997E+02  0.45594000000E+02  0.51100000000E-03 0. -1.
         11   -1    0    0    0    0 -0.00000000000E+00 -0.00000000000E+00 -0.45593999997E+02  0.45594000000E+02  0.51100000000E-03 0.  1.
         23    2    1    2    0    0 -0.22204460493E-15  0.00000000000E+00  0.00000000000E+00  0.91188000000E+02  0.91188000000E+02 0.  0.
    9900012    2    3    3    0    0 -0.14676478126E+01  0.37977915708E+02 -0.20955840985E+02  0.47787270248E+02  0.19999996369E+02 0.  0.
         12    1    3    3    0    0  0.14676478126E+01 -0.37977915708E+02  0.20955840985E+02  0.43400729752E+02  0.00000000000E+00 0. -1.
         11    1    4    4    0    0  0.18211703138E+01  0.45309674767E+01 -0.41678537388E+01  0.64200726348E+01  0.51100000000E-03 0. -1.
        -11    1    4    4    0    0  0.32005065800E+01  0.14745196147E+02 -0.15342688786E+02  0.21518878949E+02  0.51100000000E-03 0.  1.
        -12    1    4    4    0    0 -0.64893247063E+01  0.18701752085E+02 -0.14452984606E+01  0.19848318665E+02  0.00000000000E+00 0.  1.
</event>
<event>
 8    1  0.5250708E-010  0.9118800E+02  0.7816164E-02  0.1184000E+00
        -11   -1    0    0    0    0  0.00000000000E+00  0.00000000000E+00  0.45593999997E+02  0.45594000000E+02  0.51100000000E-03 0. -1.
         11   -1    0    0    0    0 -0.00000000000E+00 -0.00000000000E+00 -0.45593999997E+02  0.45594000000E+02  0.51100000000E-03 0.  1.
         23    2    1    2    0    0  0.17763568394E-14  0.00000000000E+00  0.00000000000E+00  0.91188000000E+02  0.91188000000E+02 0.  0.
    9900012    2    3    3    0    0 -0.14901720852E+02 -0.24864354266E+02 -0.32300557676E+02  0.47787269319E+02  0.19999992135E+02 0.  0.
         12    1    3    3    0    0  0.14901720852E+02  0.24864354266E+02  0.32300557676E+02  0.43400730681E+02  0.00000000000E+00 0. -1.
         11    1    4    4    0    0 -0.12833265544E+01 -0.80339416375E+01 -0.18052143909E+01  0.83336633324E+01  0.51100000000E-03 0. -1.
        -11    1    4    4    0    0 -0.93504843228E+01 -0.89445302782E+01 -0.79406853014E+01  0.15181918926E+02  0.51100000000E-03 0.  1.
        -12    1    4    4    0    0 -0.42679099746E+01 -0.78858823499E+01 -0.22554657984E+02  0.24271687061E+02  0.00000000000E+00 0.  1.
</event>
<event>
 8    1  0.5250708E-010  0.9118800E+02  0.7816164E-02  0.1184000E+00
        -11   -1    0    0    0    0  0.00000000000E+00  0.00000000000E+00  0.45593999997E+02  0.45594000000E+02  0.51100000000E-03 0. -1.
         11   -1    0    0    0    0 -0.00000000000E+00 -0.00000000000E+00 -0.45593999997E+02  0.45594000000E+02  0.51100000000E-03 0.  1.
         23    2    1    2    0    0 -0.17763568394E-14  0.00000000000E+00 -0.35527136788E-14  0.91188000000E+02  0.91188000000E+02 0.  0.
    9900012    2    3    3    0    0  0.14728224161E+02 -0.34169139715E+02  0.22342171834E+02  0.47787270305E+02  0.19999996629E+02 0.  0.
        -12    1    3    3    0    0 -0.14728224161E+02  0.34169139715E+02 -0.22342171834E+02  0.43400729695E+02  0.00000000000E+00 0.  1.
         11    1    4    4    0    0  0.49628329409E+01 -0.14320590366E+02  0.43038525968E+01  0.15755385323E+02  0.51100000000E-03 0. -1.
        -11    1    4    4    0    0  0.58332976311E+01  0.21221510529E+00  0.24794705645E+01  0.63419374836E+01  0.51100000000E-03 0.  1.
         12    1    4    4    0    0  0.39320935888E+01 -0.20060764455E+02  0.15558848672E+02  0.25689947499E+02  0.00000000000E+00 0. -1.
</event>
<event>
 8    1  0.5250708E-010  0.9118800E+02  0.7816164E-02  0.1184000E+00
        -11   -1    0    0    0    0  0.00000000000E+00  0.00000000000E+00  0.45593999997E+02  0.45594000000E+02  0.51100000000E-03 0. -1.
         11   -1    0    0    0    0 -0.00000000000E+00 -0.00000000000E+00 -0.45593999997E+02  0.45594000000E+02  0.51100000000E-03 0.  1.
         23    2    1    2    0    0  0.00000000000E+00  0.35527136788E-14  0.88817841970E-15  0.91188000000E+02  0.91188000000E+02 0.  0.
    9900012    2    3    3    0    0 -0.32229675240E+02 -0.28235535077E+02 -0.69011413082E+01  0.47787272373E+02  0.20000006059E+02 0.  0.
         12    1    3    3    0    0  0.32229675240E+02  0.28235535077E+02  0.69011413082E+01  0.43400727627E+02  0.00000000000E+00 0. -1.
         11    1    4    4    0    0 -0.11394442125E+02 -0.80188113496E+01 -0.76038647142E+01  0.15873040215E+02  0.51100000000E-03 0. -1.
        -11    1    4    4    0    0 -0.18956435801E+02 -0.21779638601E+02 -0.10723015887E+01  0.28893752730E+02  0.51100000000E-03 0.  1.
        -12    1    4    4    0    0 -0.18787973136E+01  0.15629148732E+01  0.17750249946E+01  0.30204794285E+01  0.00000000000E+00 0.  1.
</event>
<event>
 8    1  0.5250708E-010  0.9118800E+02  0.7816164E-02  0.1184000E+00
        -11   -1    0    0    0    0  0.00000000000E+00  0.00000000000E+00  0.45593999997E+02  0.45594000000E+02  0.51100000000E-03 0. -1.
         11   -1    0    0    0    0 -0.00000000000E+00 -0.00000000000E+00 -0.45593999997E+02  0.45594000000E+02  0.51100000000E-03 0.  1.
         23    2    1    2    0    0 -0.17763568394E-14  0.00000000000E+00  0.00000000000E+00  0.91188000000E+02  0.91188000000E+02 0.  0.
    9900012    2    3    3    0    0 -0.12701922559E+02  0.23219075012E+01 -0.41435411277E+02  0.47787269604E+02  0.19999993434E+02 0.  0.
         12    1    3    3    0    0  0.12701922559E+02 -0.23219075012E+01  0.41435411277E+02  0.43400730396E+02  0.00000000000E+00 0. -1.
         11    1    4    4    0    0  0.11257727128E+01  0.36648574625E+01 -0.17170952801E+02  0.17593753573E+02  0.51100000000E-03 0. -1.
        -11    1    4    4    0    0 -0.29567256205E+01 -0.52850105780E+01 -0.56655208109E+01  0.82928698003E+01  0.51100000000E-03 0.  1.
        -12    1    4    4    0    0 -0.10870969652E+02  0.39420606167E+01 -0.18598937665E+02  0.21900646231E+02  0.00000000000E+00 0.  1.
</event>
<event>
 8    1  0.5250708E-010  0.9118800E+02  0.7816164E-02  0.1184000E+00
        -11   -1    0    0    0    0  0.00000000000E+00  0.00000000000E+00  0.45593999997E+02  0.45594000000E+02  0.51100000000E-03 0. -1.
         11   -1    0    0    0    0 -0.00000000000E+00 -0.00000000000E+00 -0.45593999997E+02  0.45594000000E+02  0.51100000000E-03 0.  1.
         23    2    1    2    0    0  0.44408920985E-15  0.00000000000E+00  0.00000000000E+00  0.91188000000E+02  0.91188000000E+02 0.  0.
    9900012    2    3    3    0    0  0.34929751811E+01 -0.20410985569E+02  0.38142027505E+02  0.47787268788E+02  0.19999989714E+02 0.  0.
        -12    1    3    3    0    0 -0.34929751811E+01  0.20410985569E+02 -0.38142027505E+02  0.43400731212E+02  0.00000000000E+00 0.  1.
         11    1    4    4    0    0 -0.11412578364E+01 -0.17144565615E+01  0.29672453315E+01  0.36119767260E+01  0.51100000000E-03 0. -1.
        -11    1    4    4    0    0 -0.57541803130E+01 -0.11153714502E+01  0.11519169281E+02  0.12924624007E+02  0.51100000000E-03 0.  1.
         12    1    4    4    0    0  0.10388413331E+02 -0.17581157557E+02  0.23655612893E+02  0.31250668055E+02  0.00000000000E+00 0. -1.
</event>
<event>
 8    1  0.5250708E-010  0.9118800E+02  0.7816164E-02  0.1184000E+00
        -11   -1    0    0    0    0  0.00000000000E+00  0.00000000000E+00  0.45593999997E+02  0.45594000000E+02  0.51100000000E-03 0.  1.
         11   -1    0    0    0    0 -0.00000000000E+00 -0.00000000000E+00 -0.45593999997E+02  0.45594000000E+02  0.51100000000E-03 0. -1.
         23    2    1    2    0    0  0.00000000000E+00 -0.71054273576E-14 -0.71054273576E-14  0.91188000000E+02  0.91188000000E+02 0.  0.
    9900012    2    3    3    0    0  0.19165223614E+02 -0.32187685310E+02 -0.21915039985E+02  0.47787287341E+02  0.20000074303E+02 0.  0.
         12    1    3    3    0    0 -0.19165223614E+02  0.32187685310E+02  0.21915039985E+02  0.43400712659E+02  0.00000000000E+00 0. -1.
         11    1    4    4    0    0  0.89482512896E+00  0.93517508054E+00 -0.30864647763E+00  0.13306116458E+01  0.51100000000E-03 0. -1.
        -11    1    4    4    0    0  0.15645753913E+02 -0.25916957623E+02 -0.23767927019E+02  0.38488864142E+02  0.51100000000E-03 0.  1.
        -12    1    4    4    0    0  0.26246445724E+01 -0.72059027672E+01  0.21615335118E+01  0.79678115530E+01  0.00000000000E+00 0.  1.
</event>
<event>
 8    1  0.5250708E-010  0.9118800E+02  0.7816164E-02  0.1184000E+00
        -11   -1    0    0    0    0  0.00000000000E+00  0.00000000000E+00  0.45593999997E+02  0.45594000000E+02  0.51100000000E-03 0.  1.
         11   -1    0    0    0    0 -0.00000000000E+00 -0.00000000000E+00 -0.45593999997E+02  0.45594000000E+02  0.51100000000E-03 0. -1.
         23    2    1    2    0    0  0.88817841970E-15  0.71054273576E-14  0.00000000000E+00  0.91188000000E+02  0.91188000000E+02 0.  0.
    9900012    2    3    3    0    0 -0.56243157081E+01 -0.42191514262E+02  0.84774079367E+01  0.47787271340E+02  0.20000001349E+02 0.  0.
        -12    1    3    3    0    0  0.56243157081E+01  0.42191514262E+02 -0.84774079367E+01  0.43400728660E+02  0.00000000000E+00 0.  1.
         11    1    4    4    0    0 -0.34386076282E+01 -0.99925475347E+01 -0.17027656275E+01  0.10703945053E+02  0.51100000000E-03 0. -1.
        -11    1    4    4    0    0 -0.87115600032E+01 -0.19554948290E+02  0.67550081630E+01  0.22448104950E+02  0.51100000000E-03 0.  1.
         12    1    4    4    0    0  0.65258519233E+01 -0.12644018437E+02  0.34251654011E+01  0.14635221337E+02  0.00000000000E+00 0. -1.
</event>
<event>
 8    1  0.5250708E-010  0.9118800E+02  0.7816164E-02  0.1184000E+00
        -11   -1    0    0    0    0  0.00000000000E+00  0.00000000000E+00  0.45593999997E+02  0.45594000000E+02  0.51100000000E-03 0. -1.
         11   -1    0    0    0    0 -0.00000000000E+00 -0.00000000000E+00 -0.45593999997E+02  0.45594000000E+02  0.51100000000E-03 0.  1.
         23    2    1    2    0    0  0.00000000000E+00  0.00000000000E+00  0.35527136788E-14  0.91188000000E+02  0.91188000000E+02 0.  0.
    9900012    2    3    3    0    0  0.13767549632E+02  0.34668860546E+02 -0.22184412578E+02  0.47787268717E+02  0.19999989389E+02 0.  0.
         12    1    3    3    0    0 -0.13767549632E+02 -0.34668860546E+02  0.22184412578E+02  0.43400731283E+02  0.00000000000E+00 0. -1.
         11    1    4    4    0    0  0.62038947258E+01  0.15349962600E+01 -0.13522314068E+01  0.65324615059E+01  0.51100000000E-03 0. -1.
        -11    1    4    4    0    0  0.76524865406E+01  0.20794193359E+02 -0.82837927074E+01  0.23655448623E+02  0.51100000000E-03 0.  1.
        -12    1    4    4    0    0 -0.88831634171E-01  0.12339670927E+02 -0.12548388464E+02  0.17599358588E+02  0.00000000000E+00 0.  1.
</event>
<event>
 8    1  0.5250708E-010  0.9118800E+02  0.7816164E-02  0.1184000E+00
        -11   -1    0    0    0    0  0.00000000000E+00  0.00000000000E+00  0.45593999997E+02  0.45594000000E+02  0.51100000000E-03 0. -1.
         11   -1    0    0    0    0 -0.00000000000E+00 -0.00000000000E+00 -0.45593999997E+02  0.45594000000E+02  0.51100000000E-03 0.  1.
         23    2    1    2    0    0  0.00000000000E+00  0.00000000000E+00  0.71054273576E-14  0.91188000000E+02  0.91188000000E+02 0.  0.
    9900012    2    3    3    0    0 -0.10109034486E+02  0.27238444641E+02 -0.32241241519E+02  0.47787273054E+02  0.20000009164E+02 0.  0.
         12    1    3    3    0    0  0.10109034486E+02 -0.27238444641E+02  0.32241241519E+02  0.43400726946E+02  0.00000000000E+00 0. -1.
         11    1    4    4    0    0  0.35254030801E+00  0.10873634193E+01 -0.83792821460E+01  0.84568914749E+01  0.51100000000E-03 0.  1.
        -11    1    4    4    0    0 -0.74931609344E+01  0.25724341951E+02 -0.16715047224E+02  0.31579772538E+02  0.51100000000E-03 0. -1.
         12    1    4    4    0    0 -0.29684138599E+01  0.42673927113E+00 -0.71469121493E+01  0.77506090418E+01  0.00000000000E+00 0. -1.
</event>
<event>
 8    1  0.5250708E-010  0.9118800E+02  0.7816164E-02  0.1184000E+00
        -11   -1    0    0    0    0  0.00000000000E+00  0.00000000000E+00  0.45593999997E+02  0.45594000000E+02  0.51100000000E-03 0. -1.
         11   -1    0    0    0    0 -0.00000000000E+00 -0.00000000000E+00 -0.45593999997E+02  0.45594000000E+02  0.51100000000E-03 0.  1.
         23    2    1    2    0    0  0.00000000000E+00  0.17763568394E-14 -0.71054273576E-14  0.91188000000E+02  0.91188000000E+02 0.  0.
    9900012    2    3    3    0    0 -0.32604517867E+02 -0.12628957242E+02  0.25711437021E+02  0.47787272587E+02  0.20000007031E+02 0.  0.
        -12    1    3    3    0    0  0.32604517867E+02  0.12628957242E+02 -0.25711437021E+02  0.43400727413E+02  0.00000000000E+00 0.  1.
         11    1    4    4    0    0 -0.86721519527E+01 -0.54835240415E+01  0.13088146465E+02  0.16630539185E+02  0.51100000000E-03 0. -1.
        -11    1    4    4    0    0 -0.25701478635E+02 -0.61183483703E+01  0.11409269828E+02  0.28777971247E+02  0.51100000000E-03 0.  1.
        -12    1    4    4    0    0  0.17691127208E+01 -0.10270848303E+01  0.12140207268E+01  0.23787621556E+01  0.00000000000E+00 0.  1.
</event>
<event>
 8    1  0.5250708E-010  0.9118800E+02  0.7816164E-02  0.1184000E+00
        -11   -1    0    0    0    0  0.00000000000E+00  0.00000000000E+00  0.45593999997E+02  0.45594000000E+02  0.51100000000E-03 0. -1.
         11   -1    0    0    0    0 -0.00000000000E+00 -0.00000000000E+00 -0.45593999997E+02  0.45594000000E+02  0.51100000000E-03 0.  1.
         23    2    1    2    0    0  0.00000000000E+00  0.22204460493E-15  0.00000000000E+00  0.91188000000E+02  0.91188000000E+02 0.  0.
    9900012    2    3    3    0    0 -0.20945202788E+02 -0.11077670301E+01  0.37995979039E+02  0.47787273154E+02  0.20000009619E+02 0.  0.
        -12    1    3    3    0    0  0.20945202788E+02  0.11077670301E+01 -0.37995979039E+02  0.43400726846E+02  0.00000000000E+00 0.  1.
         11    1    4    4    0    0 -0.10625176488E+02 -0.33575754072E+00  0.16770137953E+02  0.19855594571E+02  0.51100000000E-03 0. -1.
        -11    1    4    4    0    0  0.18810920983E+01  0.28431815174E+01  0.11270355148E+02  0.11774680210E+02  0.51100000000E-03 0.  1.
        -12    1    4    4    0    0 -0.12201118398E+02 -0.36151910068E+01  0.99554859373E+01  0.16156998373E+02  0.00000000000E+00 0.  1.
</event>
<event>
 8    1  0.5250708E-010  0.9118800E+02  0.7816164E-02  0.1184000E+00
        -11   -1    0    0    0    0  0.00000000000E+00  0.00000000000E+00  0.45593999997E+02  0.45594000000E+02  0.51100000000E-03 0.  1.
         11   -1    0    0    0    0 -0.00000000000E+00 -0.00000000000E+00 -0.45593999997E+02  0.45594000000E+02  0.51100000000E-03 0. -1.
         23    2    1    2    0    0 -0.11102230246E-15  0.71054273576E-14 -0.88817841970E-15  0.91188000000E+02  0.91188000000E+02 0.  0.
    9900012    2    3    3    0    0  0.83051730117E+00 -0.42724644901E+02  0.75853763014E+01  0.47787274493E+02  0.20000015723E+02 0.  0.
        -12    1    3    3    0    0 -0.83051730117E+00  0.42724644901E+02 -0.75853763014E+01  0.43400725507E+02  0.00000000000E+00 0.  1.
         11    1    4    4    0    0  0.33407081530E+01 -0.37370257878E+02  0.49519858517E+01  0.37844665000E+02  0.51100000000E-03 0. -1.
        -11    1    4    4    0    0 -0.19275119949E+00 -0.99956051539E+00 -0.25749788389E+01  0.27688969881E+01  0.51100000000E-03 0.  1.
        -12    1    4    4    0    0 -0.23174396524E+01 -0.43548265074E+01  0.52083692885E+01  0.71737125045E+01  0.00000000000E+00 0.  1.
</event>
<event>
 8    1  0.5250708E-010  0.9118800E+02  0.7816164E-02  0.1184000E+00
        -11   -1    0    0    0    0  0.00000000000E+00  0.00000000000E+00  0.45593999997E+02  0.45594000000E+02  0.51100000000E-03 0. -1.
         11   -1    0    0    0    0 -0.00000000000E+00 -0.00000000000E+00 -0.45593999997E+02  0.45594000000E+02  0.51100000000E-03 0.  1.
         23    2    1    2    0    0  0.00000000000E+00  0.17763568394E-14 -0.71054273576E-14  0.91188000000E+02  0.91188000000E+02 0.  0.
    9900012    2    3    3    0    0 -0.16534974005E+01  0.87826318192E+01 -0.42470636433E+02  0.47787266891E+02  0.19999981065E+02 0.  0.
         12    1    3    3    0    0  0.16534974005E+01 -0.87826318192E+01  0.42470636433E+02  0.43400733109E+02  0.00000000000E+00 0. -1.
         11    1    4    4    0    0  0.14895626628E+00  0.45912996226E+01 -0.11817891804E+02  0.12679305468E+02  0.51100000000E-03 0. -1.
        -11    1    4    4    0    0  0.31823630913E+01  0.82747642623E+01 -0.25037572019E+02  0.26560857880E+02  0.51100000000E-03 0.  1.
         12    1    4    4    0    0 -0.49848167581E+01 -0.40834320658E+01 -0.56151726102E+01  0.85471035439E+01  0.00000000000E+00 0. -1.
</event>
<event>
 8    1  0.5250708E-010  0.9118800E+02  0.7816164E-02  0.1184000E+00
        -11   -1    0    0    0    0  0.00000000000E+00  0.00000000000E+00  0.45593999997E+02  0.45594000000E+02  0.51100000000E-03 0. -1.
         11   -1    0    0    0    0 -0.00000000000E+00 -0.00000000000E+00 -0.45593999997E+02  0.45594000000E+02  0.51100000000E-03 0.  1.
         23    2    1    2    0    0  0.00000000000E+00 -0.44408920985E-15 -0.88817841970E-15  0.91188000000E+02  0.91188000000E+02 0.  0.
    9900012    2    3    3    0    0  0.43319940788E+02  0.81125683387E+00  0.25195108621E+01  0.47787270254E+02  0.19999996396E+02 0.  0.
        -12    1    3    3    0    0 -0.43319940788E+02 -0.81125683387E+00 -0.25195108621E+01  0.43400729746E+02  0.00000000000E+00 0.  1.
         11    1    4    4    0    0  0.75259077255E+01  0.29348694029E+01  0.58319966610E+01  0.99631787508E+01  0.51100000000E-03 0. -1.
        -11    1    4    4    0    0  0.18802214463E+02 -0.60886035672E+01  0.12060087730E+01  0.19800222714E+02  0.51100000000E-03 0.  1.
         12    1    4    4    0    0  0.16991818600E+02  0.39649909981E+01 -0.45184945718E+01  0.18023868789E+02  0.00000000000E+00 0. -1.
</event>
<event>
 8    1  0.5250708E-010  0.9118800E+02  0.7816164E-02  0.1184000E+00
        -11   -1    0    0    0    0  0.00000000000E+00  0.00000000000E+00  0.45593999997E+02  0.45594000000E+02  0.51100000000E-03 0. -1.
         11   -1    0    0    0    0 -0.00000000000E+00 -0.00000000000E+00 -0.45593999997E+02  0.45594000000E+02  0.51100000000E-03 0.  1.
         23    2    1    2    0    0  0.00000000000E+00 -0.17763568394E-14 -0.71054273576E-14  0.91188000000E+02  0.91188000000E+02 0.  0.
    9900012    2    3    3    0    0 -0.22239586573E+02 -0.14753779501E+02 -0.34224992817E+02  0.47787270124E+02  0.19999995802E+02 0.  0.
         12    1    3    3    0    0  0.22239586573E+02  0.14753779501E+02  0.34224992817E+02  0.43400729876E+02  0.00000000000E+00 0. -1.
         11    1    4    4    0    0  0.20546527941E+01 -0.27839835798E+01 -0.10653849476E+02  0.11201637005E+02  0.51100000000E-03 0. -1.
        -11    1    4    4    0    0 -0.13637245877E+02 -0.72385292379E+01 -0.17840294323E+02  0.23593365221E+02  0.51100000000E-03 0.  1.
         12    1    4    4    0    0 -0.10656993490E+02 -0.47312666835E+01 -0.57308490176E+01  0.12992267898E+02  0.00000000000E+00 0. -1.
</event>
<event>
 8    1  0.5250708E-010  0.9118800E+02  0.7816164E-02  0.1184000E+00
        -11   -1    0    0    0    0  0.00000000000E+00  0.00000000000E+00  0.45593999997E+02  0.45594000000E+02  0.51100000000E-03 0. -1.
         11   -1    0    0    0    0 -0.00000000000E+00 -0.00000000000E+00 -0.45593999997E+02  0.45594000000E+02  0.51100000000E-03 0.  1.
         23    2    1    2    0    0  0.00000000000E+00  0.00000000000E+00  0.71054273576E-14  0.91188000000E+02  0.91188000000E+02 0.  0.
    9900012    2    3    3    0    0  0.94181079656E+01  0.27749047385E+02  0.32014262202E+02  0.47787269905E+02  0.19999994806E+02 0.  0.
        -12    1    3    3    0    0 -0.94181079656E+01 -0.27749047385E+02 -0.32014262202E+02  0.43400730095E+02  0.00000000000E+00 0.  1.
         11    1    4    4    0    0  0.88040670124E+01  0.11298491499E+02  0.20496258673E+02  0.25005281962E+02  0.51100000000E-03 0. -1.
        -11    1    4    4    0    0  0.45687818742E+01  0.26324464053E+01  0.27704882903E+01  0.59564374855E+01  0.51100000000E-03 0.  1.
         12    1    4    4    0    0 -0.39547409211E+01  0.13818109481E+02  0.87475152383E+01  0.16825550458E+02  0.00000000000E+00 0. -1.
</event>
<event>
 8    1  0.5250708E-010  0.9118800E+02  0.7816164E-02  0.1184000E+00
        -11   -1    0    0    0    0  0.00000000000E+00  0.00000000000E+00  0.45593999997E+02  0.45594000000E+02  0.51100000000E-03 0. -1.
         11   -1    0    0    0    0 -0.00000000000E+00 -0.00000000000E+00 -0.45593999997E+02  0.45594000000E+02  0.51100000000E-03 0.  1.
         23    2    1    2    0    0  0.00000000000E+00 -0.88817841970E-15  0.00000000000E+00  0.91188000000E+02  0.91188000000E+02 0.  0.
    9900012    2    3    3    0    0  0.22110890466E+02 -0.65431460679E+01 -0.36768451050E+02  0.47787271547E+02  0.20000002292E+02 0.  0.
         12    1    3    3    0    0 -0.22110890466E+02  0.65431460679E+01  0.36768451050E+02  0.43400728453E+02  0.00000000000E+00 0. -1.
         11    1    4    4    0    0  0.19350552763E+01  0.12966440120E+01 -0.24055828731E+01  0.33485151690E+01  0.51100000000E-03 0. -1.
        -11    1    4    4    0    0 -0.13208562067E+01 -0.47571635260E+01 -0.17123218128E+01  0.52256398827E+01  0.51100000000E-03 0.  1.
        -12    1    4    4    0    0  0.21496691396E+02 -0.30826265539E+01 -0.32650546364E+02  0.39213116496E+02  0.00000000000E+00 0.  1.
</event>
<event>
 8    1  0.5250708E-010  0.9118800E+02  0.7816164E-02  0.1184000E+00
        -11   -1    0    0    0    0  0.00000000000E+00  0.00000000000E+00  0.45593999997E+02  0.45594000000E+02  0.51100000000E-03 0. -1.
         11   -1    0    0    0    0 -0.00000000000E+00 -0.00000000000E+00 -0.45593999997E+02  0.45594000000E+02  0.51100000000E-03 0.  1.
         23    2    1    2    0    0  0.00000000000E+00  0.00000000000E+00  0.00000000000E+00  0.91188000000E+02  0.91188000000E+02 0.  0.
    9900012    2    3    3    0    0 -0.33780236009E+02  0.19963046082E+02 -0.18547109245E+02  0.47787276330E+02  0.20000024101E+02 0.  0.
         12    1    3    3    0    0  0.33780236009E+02 -0.19963046082E+02  0.18547109245E+02  0.43400723670E+02  0.00000000000E+00 0. -1.
         11    1    4    4    0    0 -0.13026124937E+02  0.43623764060E+01 -0.56554469996E+01  0.14855784725E+02  0.51100000000E-03 0. -1.
        -11    1    4    4    0    0  0.18890374661E+01 -0.77698062476E+00 -0.22230816459E+01  0.30189822300E+01  0.51100000000E-03 0.  1.
         12    1    4    4    0    0 -0.22643148538E+02  0.16377650301E+02 -0.10668580600E+02  0.29912509375E+02  0.00000000000E+00 0. -1.
</event>
<event>
 8    1  0.8897392E-010  0.9118800E+02  0.7816164E-02  0.1184000E+00
        -11   -1    0    0    0    0  0.00000000000E+00  0.00000000000E+00  0.45593999997E+02  0.45594000000E+02  0.51100000000E-03 0. -1.
         11   -1    0    0    0    0 -0.00000000000E+00 -0.00000000000E+00 -0.45593999997E+02  0.45594000000E+02  0.51100000000E-03 0.  1.
         23    2    1    2    0    0 -0.11102230246E-15  0.00000000000E+00  0.71054273576E-14  0.91188000000E+02  0.91188000000E+02 0.  0.
    9900012    2    3    3    0    0 -0.68094086313E+00  0.64159282635E+01 -0.42918491130E+02  0.47787254651E+02  0.19999925255E+02 0.  0.
         12    1    3    3    0    0  0.68094086313E+00 -0.64159282635E+01  0.42918491130E+02  0.43400745349E+02  0.00000000000E+00 0. -1.
         11    1    4    4    0    0 -0.44488981048E+01  0.53527132275E+01 -0.17556829413E+02  0.18886145519E+02  0.51100000000E-03 0. -1.
        -11    1    4    4    0    0  0.57087517220E+01  0.13326169011E+00 -0.26028933422E+02  0.26647945142E+02  0.51100000000E-03 0.  1.
         12    1    4    4    0    0 -0.19407944803E+01  0.92995334586E+00  0.66727170519E+00  0.22531639907E+01  0.00000000000E+00 0. -1.
</event>
<event>
 8    1  0.5250708E-010  0.9118800E+02  0.7816164E-02  0.1184000E+00
        -11   -1    0    0    0    0  0.00000000000E+00  0.00000000000E+00  0.45593999997E+02  0.45594000000E+02  0.51100000000E-03 0. -1.
         11   -1    0    0    0    0 -0.00000000000E+00 -0.00000000000E+00 -0.45593999997E+02  0.45594000000E+02  0.51100000000E-03 0.  1.
         23    2    1    2    0    0  0.22204460493E-15  0.00000000000E+00  0.71054273576E-14  0.91188000000E+02  0.91188000000E+02 0.  0.
    9900012    2    3    3    0    0 -0.17705477588E+01 -0.80172621663E+01 -0.42617036892E+02  0.47787272293E+02  0.20000005694E+02 0.  0.
         12    1    3    3    0    0  0.17705477588E+01  0.80172621663E+01  0.42617036892E+02  0.43400727707E+02  0.00000000000E+00 0. -1.
         11    1    4    4    0    0  0.10327712246E+01  0.19898895748E+01 -0.44166365891E+01  0.49530754026E+01  0.51100000000E-03 0. -1.
        -11    1    4    4    0    0 -0.24997687916E+01 -0.14510015303E+02 -0.26900240021E+02  0.30666142593E+02  0.51100000000E-03 0.  1.
        -12    1    4    4    0    0 -0.30355019181E+00  0.45028635624E+01 -0.11300160282E+02  0.12168054297E+02  0.00000000000E+00 0.  1.
</event>
<event>
 8    1  0.5250708E-010  0.9118800E+02  0.7816164E-02  0.1184000E+00
        -11   -1    0    0    0    0  0.00000000000E+00  0.00000000000E+00  0.45593999997E+02  0.45594000000E+02  0.51100000000E-03 0. -1.
         11   -1    0    0    0    0 -0.00000000000E+00 -0.00000000000E+00 -0.45593999997E+02  0.45594000000E+02  0.51100000000E-03 0.  1.
         23    2    1    2    0    0  0.71054273576E-14  0.35527136788E-14 -0.71054273576E-14  0.91188000000E+02  0.91188000000E+02 0.  0.
    9900012    2    3    3    0    0 -0.34967904012E+02 -0.15327302631E+02  0.20638394626E+02  0.47787264411E+02  0.19999969756E+02 0.  0.
        -12    1    3    3    0    0  0.34967904012E+02  0.15327302631E+02 -0.20638394626E+02  0.43400735589E+02  0.00000000000E+00 0.  1.
         11    1    4    4    0    0 -0.35997283612E+02 -0.11094905411E+02  0.18027154922E+02  0.41759785301E+02  0.51100000000E-03 0. -1.
        -11    1    4    4    0    0  0.45674188684E+00 -0.14259590619E+01  0.27807004248E+01  0.31582063756E+01  0.51100000000E-03 0.  1.
         12    1    4    4    0    0  0.57263771390E+00 -0.28064381586E+01 -0.16946072095E+00  0.28692727345E+01  0.00000000000E+00 0. -1.
</event>
<event>
 8    1  0.5250708E-010  0.9118800E+02  0.7816164E-02  0.1184000E+00
        -11   -1    0    0    0    0  0.00000000000E+00  0.00000000000E+00  0.45593999997E+02  0.45594000000E+02  0.51100000000E-03 0. -1.
         11   -1    0    0    0    0 -0.00000000000E+00 -0.00000000000E+00 -0.45593999997E+02  0.45594000000E+02  0.51100000000E-03 0.  1.
         23    2    1    2    0    0  0.00000000000E+00  0.00000000000E+00 -0.35527136788E-14  0.91188000000E+02  0.91188000000E+02 0.  0.
    9900012    2    3    3    0    0  0.17644662518E+02 -0.24362231647E+02  0.31285315499E+02  0.47787269453E+02  0.19999992743E+02 0.  0.
        -12    1    3    3    0    0 -0.17644662518E+02  0.24362231647E+02 -0.31285315499E+02  0.43400730547E+02  0.00000000000E+00 0.  1.
         11    1    4    4    0    0  0.65570836520E+01 -0.18404574125E+02  0.12092760151E+02  0.22977348478E+02  0.51100000000E-03 0. -1.
        -11    1    4    4    0    0  0.13328696901E+01 -0.56680402262E+01  0.56145079177E+01  0.80886291197E+01  0.51100000000E-03 0.  1.
        -12    1    4    4    0    0  0.97547091757E+01 -0.28961729519E+00  0.13578047430E+02  0.16721291855E+02  0.00000000000E+00 0.  1.
</event>
<event>
 8    1  0.5250708E-010  0.9118800E+02  0.7816164E-02  0.1184000E+00
        -11   -1    0    0    0    0  0.00000000000E+00  0.00000000000E+00  0.45593999997E+02  0.45594000000E+02  0.51100000000E-03 0. -1.
         11   -1    0    0    0    0 -0.00000000000E+00 -0.00000000000E+00 -0.45593999997E+02  0.45594000000E+02  0.51100000000E-03 0.  1.
         23    2    1    2    0    0 -0.17763568394E-14  0.71054273576E-14  0.00000000000E+00  0.91188000000E+02  0.91188000000E+02 0.  0.
    9900012    2    3    3    0    0 -0.10869604523E+02  0.26585805213E+02  0.32537206961E+02  0.47787272147E+02  0.20000005028E+02 0.  0.
        -12    1    3    3    0    0  0.10869604523E+02 -0.26585805213E+02 -0.32537206961E+02  0.43400727853E+02  0.00000000000E+00 0.  1.
         11    1    4    4    0    0  0.10404405758E+00  0.11521669656E+02  0.15122492747E+02  0.19011824846E+02  0.51100000000E-03 0. -1.
        -11    1    4    4    0    0 -0.11341785496E+02  0.17195398159E+02  0.14708875300E+02  0.25311436722E+02  0.51100000000E-03 0.  1.
         12    1    4    4    0    0  0.36813691533E+00 -0.21312626015E+01  0.27058389144E+01  0.34640105796E+01  0.00000000000E+00 0. -1.
</event>
<event>
 8    1  0.5250708E-010  0.9118800E+02  0.7816164E-02  0.1184000E+00
        -11   -1    0    0    0    0  0.00000000000E+00  0.00000000000E+00  0.45593999997E+02  0.45594000000E+02  0.51100000000E-03 0. -1.
         11   -1    0    0    0    0 -0.00000000000E+00 -0.00000000000E+00 -0.45593999997E+02  0.45594000000E+02  0.51100000000E-03 0.  1.
         23    2    1    2    0    0  0.00000000000E+00  0.00000000000E+00  0.00000000000E+00  0.91188000000E+02  0.91188000000E+02 0.  0.
    9900012    2    3    3    0    0 -0.69654884388E+01 -0.52959695891E+01 -0.42509504622E+02  0.47787270671E+02  0.19999998298E+02 0.  0.
         12    1    3    3    0    0  0.69654884388E+01  0.52959695891E+01  0.42509504622E+02  0.43400729329E+02  0.00000000000E+00 0. -1.
         11    1    4    4    0    0 -0.41108736389E+01 -0.14349567669E+01 -0.38644254771E+01  0.58216979935E+01  0.51100000000E-03 0. -1.
        -11    1    4    4    0    0  0.10772593844E+01  0.45583825709E+01 -0.25139205501E+02  0.25571839843E+02  0.51100000000E-03 0.  1.
         12    1    4    4    0    0 -0.39318741843E+01 -0.84193953931E+01 -0.13505873643E+02  0.16393732835E+02  0.00000000000E+00 0. -1.
</event>
<event>
 8    1  0.5250708E-010  0.9118800E+02  0.7816164E-02  0.1184000E+00
        -11   -1    0    0    0    0  0.00000000000E+00  0.00000000000E+00  0.45593999997E+02  0.45594000000E+02  0.51100000000E-03 0. -1.
         11   -1    0    0    0    0 -0.00000000000E+00 -0.00000000000E+00 -0.45593999997E+02  0.45594000000E+02  0.51100000000E-03 0.  1.
         23    2    1    2    0    0  0.00000000000E+00  0.00000000000E+00 -0.71054273576E-14  0.91188000000E+02  0.91188000000E+02 0.  0.
    9900012    2    3    3    0    0 -0.19196225907E+02 -0.90493798494E+01  0.37858115853E+02  0.47787270735E+02  0.19999998591E+02 0.  0.
        -12    1    3    3    0    0  0.19196225907E+02  0.90493798494E+01 -0.37858115853E+02  0.43400729265E+02  0.00000000000E+00 0.  1.
         11    1    4    4    0    0 -0.59010573193E+01  0.86251195067E+00  0.59208080565E+01  0.84037118379E+01  0.51100000000E-03 0. -1.
        -11    1    4    4    0    0 -0.94141492669E+01 -0.14267266059E+02  0.25467749210E+02  0.30672256801E+02  0.51100000000E-03 0.  1.
        -12    1    4    4    0    0 -0.38810193211E+01  0.43553742587E+01  0.64695585868E+01  0.87113020963E+01  0.00000000000E+00 0.  1.
</event>
<event>
 8    1  0.5250708E-010  0.9118800E+02  0.7816164E-02  0.1184000E+00
        -11   -1    0    0    0    0  0.00000000000E+00  0.00000000000E+00  0.45593999997E+02  0.45594000000E+02  0.51100000000E-03 0. -1.
         11   -1    0    0    0    0 -0.00000000000E+00 -0.00000000000E+00 -0.45593999997E+02  0.45594000000E+02  0.51100000000E-03 0.  1.
         23    2    1    2    0    0 -0.17763568394E-14  0.00000000000E+00  0.00000000000E+00  0.91188000000E+02  0.91188000000E+02 0.  0.
    9900012    2    3    3    0    0  0.14587639855E+02  0.19748347267E+02  0.35788642394E+02  0.47787269813E+02  0.19999994386E+02 0.  0.
        -12    1    3    3    0    0 -0.14587639855E+02 -0.19748347267E+02 -0.35788642394E+02  0.43400730187E+02  0.00000000000E+00 0.  1.
         11    1    4    4    0    0  0.84122597306E+01  0.98665797889E+01  0.75812099277E+01  0.15019662271E+02  0.51100000000E-03 0. -1.
        -11    1    4    4    0    0  0.77455717351E+01  0.10640363251E+02  0.28089422136E+02  0.31019781556E+02  0.51100000000E-03 0.  1.
         12    1    4    4    0    0 -0.15701916103E+01 -0.75859577242E+00  0.11801033056E+00  0.17478259859E+01  0.00000000000E+00 0. -1.
</event>
<event>
 8    1  0.5250708E-010  0.9118800E+02  0.7816164E-02  0.1184000E+00
        -11   -1    0    0    0    0  0.00000000000E+00  0.00000000000E+00  0.45593999997E+02  0.45594000000E+02  0.51100000000E-03 0. -1.
         11   -1    0    0    0    0 -0.00000000000E+00 -0.00000000000E+00 -0.45593999997E+02  0.45594000000E+02  0.51100000000E-03 0.  1.
         23    2    1    2    0    0  0.00000000000E+00 -0.35527136788E-14  0.00000000000E+00  0.91188000000E+02  0.91188000000E+02 0.  0.
    9900012    2    3    3    0    0  0.20472063943E+02  0.29651907206E+02  0.24192615465E+02  0.47787266757E+02  0.19999980450E+02 0.  0.
        -12    1    3    3    0    0 -0.20472063943E+02 -0.29651907206E+02 -0.24192615465E+02  0.43400733243E+02  0.00000000000E+00 0.  1.
         11    1    4    4    0    0  0.10067554796E+02  0.12050246926E+02  0.80896135183E+01  0.17663690376E+02  0.51100000000E-03 0.  1.
        -11    1    4    4    0    0  0.72283350500E+00 -0.26426860328E+01  0.32954379979E+01  0.42855792611E+01  0.51100000000E-03 0. -1.
         12    1    4    4    0    0  0.96816756415E+01  0.20244346312E+02  0.12807563949E+02  0.25837997120E+02  0.00000000000E+00 0. -1.
</event>
<event>
 8    1  0.5250708E-010  0.9118800E+02  0.7816164E-02  0.1184000E+00
        -11   -1    0    0    0    0  0.00000000000E+00  0.00000000000E+00  0.45593999997E+02  0.45594000000E+02  0.51100000000E-03 0. -1.
         11   -1    0    0    0    0 -0.00000000000E+00 -0.00000000000E+00 -0.45593999997E+02  0.45594000000E+02  0.51100000000E-03 0.  1.
         23    2    1    2    0    0  0.00000000000E+00 -0.13322676296E-14  0.00000000000E+00  0.91188000000E+02  0.91188000000E+02 0.  0.
    9900012    2    3    3    0    0  0.15609951581E+02  0.36581427997E+01  0.40330770264E+02  0.47787266974E+02  0.19999981442E+02 0.  0.
        -12    1    3    3    0    0 -0.15609951581E+02 -0.36581427997E+01 -0.40330770264E+02  0.43400733026E+02  0.00000000000E+00 0.  1.
         11    1    4    4    0    0  0.93810465565E+01  0.10038938797E+02  0.33880802018E+02  0.36560813343E+02  0.51100000000E-03 0. -1.
        -11    1    4    4    0    0  0.21380927919E+01 -0.21152763419E+01  0.95263189449E+00  0.31548918487E+01  0.51100000000E-03 0.  1.
        -12    1    4    4    0    0  0.40908122322E+01 -0.42655196549E+01  0.54973363510E+01  0.80715617821E+01  0.00000000000E+00 0.  1.
</event>
<event>
 8    1  0.5250708E-010  0.9118800E+02  0.7816164E-02  0.1184000E+00
        -11   -1    0    0    0    0  0.00000000000E+00  0.00000000000E+00  0.45593999997E+02  0.45594000000E+02  0.51100000000E-03 0. -1.
         11   -1    0    0    0    0 -0.00000000000E+00 -0.00000000000E+00 -0.45593999997E+02  0.45594000000E+02  0.51100000000E-03 0.  1.
         23    2    1    2    0    0  0.00000000000E+00  0.35527136788E-14  0.00000000000E+00  0.91188000000E+02  0.91188000000E+02 0.  0.
    9900012    2    3    3    0    0 -0.37317165355E+01 -0.30096559492E+02  0.31046651412E+02  0.47787272294E+02  0.20000005696E+02 0.  0.
        -12    1    3    3    0    0  0.37317165355E+01  0.30096559492E+02 -0.31046651412E+02  0.43400727706E+02  0.00000000000E+00 0.  1.
         11    1    4    4    0    0  0.50771911970E+01 -0.70164919027E+01  0.15020167024E+02  0.17338236553E+02  0.51100000000E-03 0. -1.
        -11    1    4    4    0    0 -0.94019771694E+00 -0.13060614238E+02  0.71245369912E+01  0.14907133984E+02  0.51100000000E-03 0.  1.
         12    1    4    4    0    0 -0.78687100156E+01 -0.10019453351E+02  0.89019473970E+01  0.15541901757E+02  0.00000000000E+00 0. -1.
</event>
<event>
 8    1  0.5250708E-010  0.9118800E+02  0.7816164E-02  0.1184000E+00
        -11   -1    0    0    0    0  0.00000000000E+00  0.00000000000E+00  0.45593999997E+02  0.45594000000E+02  0.51100000000E-03 0. -1.
         11   -1    0    0    0    0 -0.00000000000E+00 -0.00000000000E+00 -0.45593999997E+02  0.45594000000E+02  0.51100000000E-03 0.  1.
         23    2    1    2    0    0  0.00000000000E+00  0.00000000000E+00  0.00000000000E+00  0.91188000000E+02  0.91188000000E+02 0.  0.
    9900012    2    3    3    0    0 -0.21383281848E+02 -0.28241284989E+02 -0.25076062128E+02  0.47787264842E+02  0.19999971721E+02 0.  0.
         12    1    3    3    0    0  0.21383281848E+02  0.28241284989E+02  0.25076062128E+02  0.43400735158E+02  0.00000000000E+00 0. -1.
         11    1    4    4    0    0 -0.87836810217E+01 -0.48652281626E+01 -0.74772346396E+01  0.12519286540E+02  0.51100000000E-03 0. -1.
        -11    1    4    4    0    0 -0.47380996771E+01 -0.18956777314E+02 -0.17527453053E+02  0.26249201997E+02  0.51100000000E-03 0.  1.
         12    1    4    4    0    0 -0.78615011492E+01 -0.44192795123E+01 -0.71374435465E-01  0.90187763048E+01  0.00000000000E+00 0. -1.
</event>
<event>
 8    1  0.5250708E-010  0.9118800E+02  0.7816164E-02  0.1184000E+00
        -11   -1    0    0    0    0  0.00000000000E+00  0.00000000000E+00  0.45593999997E+02  0.45594000000E+02  0.51100000000E-03 0.  1.
         11   -1    0    0    0    0 -0.00000000000E+00 -0.00000000000E+00 -0.45593999997E+02  0.45594000000E+02  0.51100000000E-03 0. -1.
         23    2    1    2    0    0  0.00000000000E+00  0.17763568394E-14  0.00000000000E+00  0.91188000000E+02  0.91188000000E+02 0.  0.
    9900012    2    3    3    0    0  0.40105382324E+02 -0.93217191548E+01  0.13721804468E+02  0.47787262020E+02  0.19999958852E+02 0.  0.
        -12    1    3    3    0    0 -0.40105382324E+02  0.93217191548E+01 -0.13721804468E+02  0.43400737980E+02  0.00000000000E+00 0.  1.
         11    1    4    4    0    0  0.14653051671E+02 -0.10943098911E+02  0.91040176822E+00  0.18310984919E+02  0.51100000000E-03 0. -1.
        -11    1    4    4    0    0  0.64711479002E+01 -0.23550636565E+01  0.15791934236E+01  0.70651208130E+01  0.51100000000E-03 0.  1.
        -12    1    4    4    0    0  0.18981182753E+02  0.39764434130E+01  0.11232209276E+02  0.22411156288E+02  0.00000000000E+00 0.  1.
</event>
<event>
 8    1  0.5250708E-010  0.9118800E+02  0.7816164E-02  0.1184000E+00
        -11   -1    0    0    0    0  0.00000000000E+00  0.00000000000E+00  0.45593999997E+02  0.45594000000E+02  0.51100000000E-03 0. -1.
         11   -1    0    0    0    0 -0.00000000000E+00 -0.00000000000E+00 -0.45593999997E+02  0.45594000000E+02  0.51100000000E-03 0.  1.
         23    2    1    2    0    0  0.35527136788E-14  0.35527136788E-14  0.00000000000E+00  0.91188000000E+02  0.91188000000E+02 0.  0.
    9900012    2    3    3    0    0  0.17466120522E+02 -0.21963688004E+02 -0.33108223389E+02  0.47787269444E+02  0.19999992702E+02 0.  0.
         12    1    3    3    0    0 -0.17466120522E+02  0.21963688004E+02  0.33108223389E+02  0.43400730556E+02  0.00000000000E+00 0. -1.
         11    1    4    4    0    0  0.84120561434E+01 -0.12384016402E+02 -0.12631660229E+02  0.19587888891E+02  0.51100000000E-03 0. -1.
        -11    1    4    4    0    0  0.12816347540E+02 -0.76716050698E+01 -0.17646711426E+02  0.23119660746E+02  0.51100000000E-03 0.  1.
         12    1    4    4    0    0 -0.37622831612E+01 -0.19080665318E+01 -0.28298517341E+01  0.50797198064E+01  0.00000000000E+00 0. -1.
</event>
<event>
 8    1  0.5250708E-010  0.9118800E+02  0.7816164E-02  0.1184000E+00
        -11   -1    0    0    0    0  0.00000000000E+00  0.00000000000E+00  0.45593999997E+02  0.45594000000E+02  0.51100000000E-03 0. -1.
         11   -1    0    0    0    0 -0.00000000000E+00 -0.00000000000E+00 -0.45593999997E+02  0.45594000000E+02  0.51100000000E-03 0.  1.
         23    2    1    2    0    0  0.00000000000E+00 -0.17763568394E-14  0.71054273576E-14  0.91188000000E+02  0.91188000000E+02 0.  0.
    9900012    2    3    3    0    0  0.43619397524E+01 -0.14864082642E+02  0.40542020724E+02  0.47787275172E+02  0.20000018820E+02 0.  0.
        -12    1    3    3    0    0 -0.43619397524E+01  0.14864082642E+02 -0.40542020724E+02  0.43400724828E+02  0.00000000000E+00 0.  1.
         11    1    4    4    0    0  0.70928544979E+01 -0.13682279167E+02  0.15467648897E+02  0.21834869150E+02  0.51100000000E-03 0. -1.
        -11    1    4    4    0    0  0.12792918399E+01  0.13630019126E+01  0.89477802525E+01  0.91409591145E+01  0.51100000000E-03 0.  1.
         12    1    4    4    0    0 -0.40102065855E+01 -0.25448053875E+01  0.16126591574E+02  0.16811446908E+02  0.00000000000E+00 0. -1.
</event>
<event>
 8    1  0.5250708E-010  0.9118800E+02  0.7816164E-02  0.1184000E+00
        -11   -1    0    0    0    0  0.00000000000E+00  0.00000000000E+00  0.45593999997E+02  0.45594000000E+02  0.51100000000E-03 0. -1.
         11   -1    0    0    0    0 -0.00000000000E+00 -0.00000000000E+00 -0.45593999997E+02  0.45594000000E+02  0.51100000000E-03 0.  1.
         23    2    1    2    0    0  0.00000000000E+00 -0.35527136788E-14  0.35527136788E-14  0.91188000000E+02  0.91188000000E+02 0.  0.
    9900012    2    3    3    0    0 -0.16865820536E+02 -0.29428249091E+02  0.27076659795E+02  0.47787271290E+02  0.20000001119E+02 0.  0.
        -12    1    3    3    0    0  0.16865820536E+02  0.29428249091E+02 -0.27076659795E+02  0.43400728710E+02  0.00000000000E+00 0.  1.
         11    1    4    4    0    0 -0.69439047823E+00 -0.62733751432E+01 -0.12080562240E+01  0.64262597150E+01  0.51100000000E-03 0. -1.
        -11    1    4    4    0    0  0.10609888180E+01 -0.46700968189E+01  0.32424195608E+01  0.57834925814E+01  0.51100000000E-03 0.  1.
        -12    1    4    4    0    0 -0.17232418876E+02 -0.18484777129E+02  0.25042296458E+02  0.35577518993E+02  0.00000000000E+00 0.  1.
</event>
<event>
 8    1  0.5250708E-010  0.9118800E+02  0.7816164E-02  0.1184000E+00
        -11   -1    0    0    0    0  0.00000000000E+00  0.00000000000E+00  0.45593999997E+02  0.45594000000E+02  0.51100000000E-03 0. -1.
         11   -1    0    0    0    0 -0.00000000000E+00 -0.00000000000E+00 -0.45593999997E+02  0.45594000000E+02  0.51100000000E-03 0.  1.
         23    2    1    2    0    0  0.00000000000E+00  0.00000000000E+00  0.00000000000E+00  0.91188000000E+02  0.91188000000E+02 0.  0.
    9900012    2    3    3    0    0 -0.97027366976E+01 -0.28898031718E+02  0.30893136058E+02  0.47787248945E+02  0.19999899241E+02 0.  0.
        -12    1    3    3    0    0  0.97027366976E+01  0.28898031718E+02 -0.30893136058E+02  0.43400751055E+02  0.00000000000E+00 0.  1.
         11    1    4    4    0    0  0.48286303703E+01 -0.11228197384E+02  0.76470247778E+01  0.14417526693E+02  0.51100000000E-03 0. -1.
        -11    1    4    4    0    0 -0.54211690122E+01 -0.25478803095E+01  0.37443462242E+01  0.70640566559E+01  0.51100000000E-03 0.  1.
        -12    1    4    4    0    0 -0.91101980557E+01 -0.15121954025E+02  0.19501765056E+02  0.26305665596E+02  0.00000000000E+00 0.  1.
</event>
<event>
 8    1  0.5250708E-010  0.9118800E+02  0.7816164E-02  0.1184000E+00
        -11   -1    0    0    0    0  0.00000000000E+00  0.00000000000E+00  0.45593999997E+02  0.45594000000E+02  0.51100000000E-03 0.  1.
         11   -1    0    0    0    0 -0.00000000000E+00 -0.00000000000E+00 -0.45593999997E+02  0.45594000000E+02  0.51100000000E-03 0. -1.
         23    2    1    2    0    0  0.00000000000E+00  0.35527136788E-14  0.00000000000E+00  0.91188000000E+02  0.91188000000E+02 0.  0.
    9900012    2    3    3    0    0 -0.30448191344E+02  0.30115470921E+02 -0.70419577249E+01  0.47787272891E+02  0.20000008421E+02 0.  0.
         12    1    3    3    0    0  0.30448191344E+02 -0.30115470921E+02  0.70419577249E+01  0.43400727109E+02  0.00000000000E+00 0. -1.
         11    1    4    4    0    0  0.48487138927E+00  0.62288522737E+01 -0.25028313253E+01  0.67303689212E+01  0.51100000000E-03 0. -1.
        -11    1    4    4    0    0 -0.12068118354E+02  0.13119107335E+02  0.29755898822E+01  0.18072204992E+02  0.51100000000E-03 0.  1.
         12    1    4    4    0    0 -0.18864944380E+02  0.10767511313E+02 -0.75147162818E+01  0.22984698978E+02  0.00000000000E+00 0. -1.
</event>
<event>
 8    1  0.5250708E-010  0.9118800E+02  0.7816164E-02  0.1184000E+00
        -11   -1    0    0    0    0  0.00000000000E+00  0.00000000000E+00  0.45593999997E+02  0.45594000000E+02  0.51100000000E-03 0. -1.
         11   -1    0    0    0    0 -0.00000000000E+00 -0.00000000000E+00 -0.45593999997E+02  0.45594000000E+02  0.51100000000E-03 0.  1.
         23    2    1    2    0    0  0.00000000000E+00  0.00000000000E+00  0.00000000000E+00  0.91188000000E+02  0.91188000000E+02 0.  0.
    9900012    2    3    3    0    0 -0.26975092454E+02 -0.25256602939E+02 -0.22761192268E+02  0.47787268689E+02  0.19999989258E+02 0.  0.
         12    1    3    3    0    0  0.26975092454E+02  0.25256602939E+02  0.22761192268E+02  0.43400731311E+02  0.00000000000E+00 0. -1.
         11    1    4    4    0    0  0.79111029995E+00 -0.23417098175E+01 -0.32260724607E+01  0.40641117306E+01  0.51100000000E-03 0. -1.
        -11    1    4    4    0    0 -0.40877625787E+01 -0.11652904889E+02 -0.29455797143E+01  0.12695528164E+02  0.51100000000E-03 0.  1.
        -12    1    4    4    0    0 -0.23678440175E+02 -0.11261988233E+02 -0.16589540093E+02  0.31027628794E+02  0.00000000000E+00 0.  1.
</event>
<event>
 8    1  0.5250708E-010  0.9118800E+02  0.7816164E-02  0.1184000E+00
        -11   -1    0    0    0    0  0.00000000000E+00  0.00000000000E+00  0.45593999997E+02  0.45594000000E+02  0.51100000000E-03 0. -1.
         11   -1    0    0    0    0 -0.00000000000E+00 -0.00000000000E+00 -0.45593999997E+02  0.45594000000E+02  0.51100000000E-03 0.  1.
         23    2    1    2    0    0 -0.35527136788E-14  0.00000000000E+00  0.00000000000E+00  0.91188000000E+02  0.91188000000E+02 0.  0.
    9900012    2    3    3    0    0  0.19556745739E+02  0.24765994216E+02 -0.29796014497E+02  0.47787271281E+02  0.20000001079E+02 0.  0.
         12    1    3    3    0    0 -0.19556745739E+02 -0.24765994216E+02  0.29796014497E+02  0.43400728719E+02  0.00000000000E+00 0. -1.
         11    1    4    4    0    0 -0.90069837819E+00  0.13410821958E+02 -0.13934426441E+02  0.19360517650E+02  0.51100000000E-03 0. -1.
        -11    1    4    4    0    0  0.11737973584E+02  0.65894318035E+01 -0.10895819471E+02  0.17318184592E+02  0.51100000000E-03 0.  1.
         12    1    4    4    0    0  0.87194705332E+01  0.47657404547E+01 -0.49657685845E+01  0.11108569039E+02  0.00000000000E+00 0. -1.
</event>
<event>
 8    1  0.5250708E-010  0.9118800E+02  0.7816164E-02  0.1184000E+00
        -11   -1    0    0    0    0  0.00000000000E+00  0.00000000000E+00  0.45593999997E+02  0.45594000000E+02  0.51100000000E-03 0. -1.
         11   -1    0    0    0    0 -0.00000000000E+00 -0.00000000000E+00 -0.45593999997E+02  0.45594000000E+02  0.51100000000E-03 0.  1.
         23    2    1    2    0    0 -0.35527136788E-14  0.00000000000E+00  0.00000000000E+00  0.91188000000E+02  0.91188000000E+02 0.  0.
    9900012    2    3    3    0    0 -0.24559125235E+02 -0.20580071770E+02  0.29273417458E+02  0.47787274706E+02  0.20000016694E+02 0.  0.
        -12    1    3    3    0    0  0.24559125235E+02  0.20580071770E+02 -0.29273417458E+02  0.43400725294E+02  0.00000000000E+00 0.  1.
         11    1    4    4    0    0 -0.13254298643E+02 -0.11058982330E+02  0.13807632784E+02  0.22104937142E+02  0.51100000000E-03 0. -1.
        -11    1    4    4    0    0 -0.68055736113E+01  0.27691943342E+01  0.65790613911E+01  0.98624702022E+01  0.51100000000E-03 0.  1.
        -12    1    4    4    0    0 -0.44992529809E+01 -0.12290283773E+02  0.88867232832E+01  0.15819867361E+02  0.00000000000E+00 0.  1.
</event>
<event>
 8    1  0.5250708E-010  0.9118800E+02  0.7816164E-02  0.1184000E+00
        -11   -1    0    0    0    0  0.00000000000E+00  0.00000000000E+00  0.45593999997E+02  0.45594000000E+02  0.51100000000E-03 0. -1.
         11   -1    0    0    0    0 -0.00000000000E+00 -0.00000000000E+00 -0.45593999997E+02  0.45594000000E+02  0.51100000000E-03 0.  1.
         23    2    1    2    0    0  0.00000000000E+00  0.17763568394E-14  0.71054273576E-14  0.91188000000E+02  0.91188000000E+02 0.  0.
    9900012    2    3    3    0    0  0.23494219238E+02 -0.14088660843E+02 -0.33662355171E+02  0.47787275840E+02  0.20000021866E+02 0.  0.
         12    1    3    3    0    0 -0.23494219238E+02  0.14088660843E+02  0.33662355171E+02  0.43400724160E+02  0.00000000000E+00 0. -1.
         11    1    4    4    0    0  0.53795459834E+00 -0.62917862482E+01 -0.47451548910E+01  0.78988900830E+01  0.51100000000E-03 0. -1.
        -11    1    4    4    0    0  0.17634751915E+02 -0.92368988538E+01 -0.15021135222E+02  0.24938710455E+02  0.51100000000E-03 0.  1.
         12    1    4    4    0    0  0.53215127237E+01  0.14400242592E+01 -0.13896065058E+02  0.14949675302E+02  0.00000000000E+00 0. -1.
</event>
<event>
 8    1  0.5250708E-010  0.9118800E+02  0.7816164E-02  0.1184000E+00
        -11   -1    0    0    0    0  0.00000000000E+00  0.00000000000E+00  0.45593999997E+02  0.45594000000E+02  0.51100000000E-03 0. -1.
         11   -1    0    0    0    0 -0.00000000000E+00 -0.00000000000E+00 -0.45593999997E+02  0.45594000000E+02  0.51100000000E-03 0.  1.
         23    2    1    2    0    0  0.00000000000E+00  0.71054273576E-14  0.00000000000E+00  0.91188000000E+02  0.91188000000E+02 0.  0.
    9900012    2    3    3    0    0  0.24055976067E+02 -0.35924778475E+02  0.37870816784E+01  0.47787289399E+02  0.20000083686E+02 0.  0.
        -12    1    3    3    0    0 -0.24055976067E+02  0.35924778475E+02 -0.37870816784E+01  0.43400710601E+02  0.00000000000E+00 0.  1.
         11    1    4    4    0    0  0.14516059066E+02 -0.21894287439E+02  0.61406836094E+01  0.26977468168E+02  0.51100000000E-03 0. -1.
        -11    1    4    4    0    0  0.66355795706E+01 -0.14651595003E+02 -0.49879647811E+01  0.16839832104E+02  0.51100000000E-03 0.  1.
        -12    1    4    4    0    0  0.29043374302E+01  0.62110396714E+00  0.26343628501E+01  0.39699891275E+01  0.00000000000E+00 0.  1.
</event>
<event>
 8    1  0.5250708E-010  0.9118800E+02  0.7816164E-02  0.1184000E+00
        -11   -1    0    0    0    0  0.00000000000E+00  0.00000000000E+00  0.45593999997E+02  0.45594000000E+02  0.51100000000E-03 0. -1.
         11   -1    0    0    0    0 -0.00000000000E+00 -0.00000000000E+00 -0.45593999997E+02  0.45594000000E+02  0.51100000000E-03 0.  1.
         23    2    1    2    0    0  0.00000000000E+00  0.00000000000E+00  0.00000000000E+00  0.91188000000E+02  0.91188000000E+02 0.  0.
    9900012    2    3    3    0    0  0.54440163160E+01  0.18163333309E+02 -0.39039443487E+02  0.47787284127E+02  0.20000059648E+02 0.  0.
         12    1    3    3    0    0 -0.54440163160E+01 -0.18163333309E+02  0.39039443487E+02  0.43400715873E+02  0.00000000000E+00 0. -1.
         11    1    4    4    0    0 -0.37079146736E+01  0.35657686783E+01 -0.12681353537E+02  0.13685030701E+02  0.51100000000E-03 0. -1.
        -11    1    4    4    0    0  0.33377092995E+01  0.17005026917E+01  0.46735434129E+00  0.37749745846E+01  0.51100000000E-03 0.  1.
        -12    1    4    4    0    0  0.58142216900E+01  0.12897061939E+02 -0.26825444290E+02  0.30327278841E+02  0.00000000000E+00 0.  1.
</event>
<event>
 8    1  0.5250708E-010  0.9118800E+02  0.7816164E-02  0.1184000E+00
        -11   -1    0    0    0    0  0.00000000000E+00  0.00000000000E+00  0.45593999997E+02  0.45594000000E+02  0.51100000000E-03 0. -1.
         11   -1    0    0    0    0 -0.00000000000E+00 -0.00000000000E+00 -0.45593999997E+02  0.45594000000E+02  0.51100000000E-03 0.  1.
         23    2    1    2    0    0  0.00000000000E+00  0.00000000000E+00 -0.88817841970E-15  0.91188000000E+02  0.91188000000E+02 0.  0.
    9900012    2    3    3    0    0  0.41565706446E+02  0.11705535483E+02 -0.43469178101E+01  0.47787271806E+02  0.20000003472E+02 0.  0.
         12    1    3    3    0    0 -0.41565706446E+02 -0.11705535483E+02  0.43469178101E+01  0.43400728194E+02  0.00000000000E+00 0. -1.
         11    1    4    4    0    0  0.44110237412E+01  0.56103247868E+01  0.64627902586E+00  0.71659299117E+01  0.51100000000E-03 0. -1.
        -11    1    4    4    0    0  0.24227727915E+02 -0.30994783508E+01 -0.23321777111E+01  0.24536271500E+02  0.51100000000E-03 0.  1.
         12    1    4    4    0    0  0.12926954790E+02  0.91946890469E+01 -0.26610191249E+01  0.16085070394E+02  0.00000000000E+00 0. -1.
</event>
<event>
 8    1  0.5250708E-010  0.9118800E+02  0.7816164E-02  0.1184000E+00
        -11   -1    0    0    0    0  0.00000000000E+00  0.00000000000E+00  0.45593999997E+02  0.45594000000E+02  0.51100000000E-03 0. -1.
         11   -1    0    0    0    0 -0.00000000000E+00 -0.00000000000E+00 -0.45593999997E+02  0.45594000000E+02  0.51100000000E-03 0.  1.
         23    2    1    2    0    0  0.00000000000E+00  0.00000000000E+00 -0.71054273576E-14  0.91188000000E+02  0.91188000000E+02 0.  0.
    9900012    2    3    3    0    0  0.11960845232E+02  0.24547028050E+02 -0.33734333459E+02  0.47787266612E+02  0.19999979789E+02 0.  0.
         12    1    3    3    0    0 -0.11960845232E+02 -0.24547028050E+02  0.33734333459E+02  0.43400733388E+02  0.00000000000E+00 0. -1.
         11    1    4    4    0    0  0.32235275978E+00 -0.24723368069E+00 -0.63071958731E+01  0.63202654879E+01  0.51100000000E-03 0. -1.
        -11    1    4    4    0    0  0.12113374551E+02  0.14456480257E+02 -0.10390010060E+02  0.21533136644E+02  0.51100000000E-03 0.  1.
         12    1    4    4    0    0 -0.47488207791E+00  0.10337781474E+02 -0.17037127526E+02  0.19933864480E+02  0.00000000000E+00 0. -1.
</event>
<event>
 8    1  0.5250708E-010  0.9118800E+02  0.7816164E-02  0.1184000E+00
        -11   -1    0    0    0    0  0.00000000000E+00  0.00000000000E+00  0.45593999997E+02  0.45594000000E+02  0.51100000000E-03 0. -1.
         11   -1    0    0    0    0 -0.00000000000E+00 -0.00000000000E+00 -0.45593999997E+02  0.45594000000E+02  0.51100000000E-03 0.  1.
         23    2    1    2    0    0  0.00000000000E+00  0.00000000000E+00  0.00000000000E+00  0.91188000000E+02  0.91188000000E+02 0.  0.
    9900012    2    3    3    0    0  0.17691740153E+02  0.18201464586E+02 -0.35204151817E+02  0.47787270883E+02  0.19999999266E+02 0.  0.
         12    1    3    3    0    0 -0.17691740153E+02 -0.18201464586E+02  0.35204151817E+02  0.43400729117E+02  0.00000000000E+00 0. -1.
         11    1    4    4    0    0 -0.31283240114E+01  0.12050819293E+01 -0.50927071545E+01  0.60970730682E+01  0.51100000000E-03 0. -1.
        -11    1    4    4    0    0  0.10145861197E+02  0.24199217171E+01 -0.14175468475E+02  0.17599387128E+02  0.51100000000E-03 0.  1.
        -12    1    4    4    0    0  0.10674202967E+02  0.14576460940E+02 -0.15935976188E+02  0.24090810687E+02  0.00000000000E+00 0.  1.
</event>
<event>
 8    1  0.5250708E-010  0.9118800E+02  0.7816164E-02  0.1184000E+00
        -11   -1    0    0    0    0  0.00000000000E+00  0.00000000000E+00  0.45593999997E+02  0.45594000000E+02  0.51100000000E-03 0. -1.
         11   -1    0    0    0    0 -0.00000000000E+00 -0.00000000000E+00 -0.45593999997E+02  0.45594000000E+02  0.51100000000E-03 0.  1.
         23    2    1    2    0    0  0.00000000000E+00  0.00000000000E+00  0.00000000000E+00  0.91188000000E+02  0.91188000000E+02 0.  0.
    9900012    2    3    3    0    0 -0.18224001983E+02  0.40931033616E+01  0.39175955830E+02  0.47787271220E+02  0.20000000803E+02 0.  0.
        -12    1    3    3    0    0  0.18224001983E+02 -0.40931033616E+01 -0.39175955830E+02  0.43400728780E+02  0.00000000000E+00 0.  1.
         11    1    4    4    0    0 -0.13739140880E+02  0.61166823147E+00  0.17465274414E+02  0.22230023409E+02  0.51100000000E-03 0. -1.
        -11    1    4    4    0    0 -0.13099928381E+01  0.15000907855E+01 -0.12118063434E+01  0.23312718580E+01  0.51100000000E-03 0.  1.
        -12    1    4    4    0    0 -0.31748682646E+01  0.19813443445E+01  0.22922487759E+02  0.23225975953E+02  0.00000000000E+00 0.  1.
</event>
<event>
 8    1  0.5250708E-010  0.9118800E+02  0.7816164E-02  0.1184000E+00
        -11   -1    0    0    0    0  0.00000000000E+00  0.00000000000E+00  0.45593999997E+02  0.45594000000E+02  0.51100000000E-03 0. -1.
         11   -1    0    0    0    0 -0.00000000000E+00 -0.00000000000E+00 -0.45593999997E+02  0.45594000000E+02  0.51100000000E-03 0.  1.
         23    2    1    2    0    0  0.00000000000E+00  0.71054273576E-14  0.00000000000E+00  0.91188000000E+02  0.91188000000E+02 0.  0.
    9900012    2    3    3    0    0  0.14010109581E+02 -0.35744016023E+02  0.20241184296E+02  0.47787269664E+02  0.19999993707E+02 0.  0.
        -12    1    3    3    0    0 -0.14010109581E+02  0.35744016023E+02 -0.20241184296E+02  0.43400730336E+02  0.00000000000E+00 0.  1.
         11    1    4    4    0    0  0.50804117195E+01 -0.41430788405E+01  0.94776078195E+01  0.11523920156E+02  0.51100000000E-03 0. -1.
        -11    1    4    4    0    0  0.96819294404E+01 -0.27602744098E+02  0.12537416763E+02  0.31825116791E+02  0.51100000000E-03 0.  1.
        -12    1    4    4    0    0 -0.75223157844E+00 -0.39981930851E+01 -0.17738402858E+01  0.44382327173E+01  0.00000000000E+00 0.  1.
</event>
<event>
 8    1  0.5250708E-010  0.9118800E+02  0.7816164E-02  0.1184000E+00
        -11   -1    0    0    0    0  0.00000000000E+00  0.00000000000E+00  0.45593999997E+02  0.45594000000E+02  0.51100000000E-03 0.  1.
         11   -1    0    0    0    0 -0.00000000000E+00 -0.00000000000E+00 -0.45593999997E+02  0.45594000000E+02  0.51100000000E-03 0. -1.
         23    2    1    2    0    0  0.00000000000E+00 -0.35527136788E-14 -0.44408920985E-15  0.91188000000E+02  0.91188000000E+02 0.  0.
    9900012    2    3    3    0    0  0.41233759752E+02  0.13523414067E+02  0.71801375555E+00  0.47787294763E+02  0.20000108143E+02 0.  0.
        -12    1    3    3    0    0 -0.41233759752E+02 -0.13523414067E+02 -0.71801375555E+00  0.43400705237E+02  0.00000000000E+00 0.  1.
         11    1    4    4    0    0  0.64970427226E+01  0.38517242233E+00 -0.31318309365E+01  0.72227617439E+01  0.51100000000E-03 0. -1.
        -11    1    4    4    0    0  0.32329247375E+02  0.16206878953E+02  0.49761169178E+01  0.36504861335E+02  0.51100000000E-03 0.  1.
        -12    1    4    4    0    0  0.24074696537E+01 -0.30686373075E+01 -0.11262722257E+01  0.40596716844E+01  0.00000000000E+00 0.  1.
</event>
<event>
 8    1  0.5250708E-010  0.9118800E+02  0.7816164E-02  0.1184000E+00
        -11   -1    0    0    0    0  0.00000000000E+00  0.00000000000E+00  0.45593999997E+02  0.45594000000E+02  0.51100000000E-03 0. -1.
         11   -1    0    0    0    0 -0.00000000000E+00 -0.00000000000E+00 -0.45593999997E+02  0.45594000000E+02  0.51100000000E-03 0.  1.
         23    2    1    2    0    0  0.88817841970E-15  0.00000000000E+00  0.00000000000E+00  0.91188000000E+02  0.91188000000E+02 0.  0.
    9900012    2    3    3    0    0 -0.58589545008E+01  0.87689032981E+01 -0.42099904162E+02  0.47787274852E+02  0.20000017361E+02 0.  0.
         12    1    3    3    0    0  0.58589545008E+01 -0.87689032981E+01  0.42099904162E+02  0.43400725148E+02  0.00000000000E+00 0. -1.
         11    1    4    4    0    0 -0.36622940738E+01  0.49197549999E+01 -0.28500365621E+01  0.67630685202E+01  0.51100000000E-03 0. -1.
        -11    1    4    4    0    0  0.11477612957E+00 -0.38698144194E+01 -0.12165811105E+02  0.12766972911E+02  0.51100000000E-03 0.  1.
        -12    1    4    4    0    0 -0.23114365566E+01  0.77189627176E+01 -0.27084056495E+02  0.28257233421E+02  0.00000000000E+00 0.  1.
</event>
<event>
 8    1  0.5250708E-010  0.9118800E+02  0.7816164E-02  0.1184000E+00
        -11   -1    0    0    0    0  0.00000000000E+00  0.00000000000E+00  0.45593999997E+02  0.45594000000E+02  0.51100000000E-03 0. -1.
         11   -1    0    0    0    0 -0.00000000000E+00 -0.00000000000E+00 -0.45593999997E+02  0.45594000000E+02  0.51100000000E-03 0.  1.
         23    2    1    2    0    0  0.00000000000E+00  0.00000000000E+00  0.35527136788E-14  0.91188000000E+02  0.91188000000E+02 0.  0.
    9900012    2    3    3    0    0 -0.14578648875E+02  0.25853663064E+02 -0.31665037006E+02  0.47787268837E+02  0.19999989937E+02 0.  0.
         12    1    3    3    0    0  0.14578648875E+02 -0.25853663064E+02  0.31665037006E+02  0.43400731163E+02  0.00000000000E+00 0. -1.
         11    1    4    4    0    0 -0.69896145038E+01  0.70265807277E+01 -0.19688736422E+01  0.10104652954E+02  0.51100000000E-03 0. -1.
        -11    1    4    4    0    0 -0.61735672850E+01  0.22708721237E+01 -0.86859730251E+01  0.10895683589E+02  0.51100000000E-03 0.  1.
         12    1    4    4    0    0 -0.14154670863E+01  0.16556210213E+02 -0.21010190339E+02  0.26786932294E+02  0.00000000000E+00 0. -1.
</event>
<event>
 8    1  0.5250708E-010  0.9118800E+02  0.7816164E-02  0.1184000E+00
        -11   -1    0    0    0    0  0.00000000000E+00  0.00000000000E+00  0.45593999997E+02  0.45594000000E+02  0.51100000000E-03 0. -1.
         11   -1    0    0    0    0 -0.00000000000E+00 -0.00000000000E+00 -0.45593999997E+02  0.45594000000E+02  0.51100000000E-03 0.  1.
         23    2    1    2    0    0 -0.17763568394E-14  0.00000000000E+00  0.00000000000E+00  0.91188000000E+02  0.91188000000E+02 0.  0.
    9900012    2    3    3    0    0 -0.12347741788E+02  0.13795232697E+01 -0.41584290582E+02  0.47787273797E+02  0.20000012551E+02 0.  0.
         12    1    3    3    0    0  0.12347741788E+02 -0.13795232697E+01  0.41584290582E+02  0.43400726203E+02  0.00000000000E+00 0. -1.
         11    1    4    4    0    0 -0.36353520664E+01  0.24229869944E+01 -0.19844077603E+01  0.47983877544E+01  0.51100000000E-03 0. -1.
        -11    1    4    4    0    0 -0.49789574928E+01  0.24235240719E+01 -0.35432154094E+01  0.65740293839E+01  0.51100000000E-03 0.  1.
         12    1    4    4    0    0 -0.37334322288E+01 -0.34669877966E+01 -0.36056667412E+02  0.36414856659E+02  0.00000000000E+00 0. -1.
</event>
<event>
 8    1  0.5250708E-010  0.9118800E+02  0.7816164E-02  0.1184000E+00
        -11   -1    0    0    0    0  0.00000000000E+00  0.00000000000E+00  0.45593999997E+02  0.45594000000E+02  0.51100000000E-03 0. -1.
         11   -1    0    0    0    0 -0.00000000000E+00 -0.00000000000E+00 -0.45593999997E+02  0.45594000000E+02  0.51100000000E-03 0.  1.
         23    2    1    2    0    0  0.17763568394E-14  0.35527136788E-14  0.00000000000E+00  0.91188000000E+02  0.91188000000E+02 0.  0.
    9900012    2    3    3    0    0  0.11548678063E+02 -0.19694732600E+02  0.36910283308E+02  0.47787268773E+02  0.19999989643E+02 0.  0.
        -12    1    3    3    0    0 -0.11548678063E+02  0.19694732600E+02 -0.36910283308E+02  0.43400731227E+02  0.00000000000E+00 0.  1.
         11    1    4    4    0    0  0.11019072623E+02 -0.17285558159E+02  0.30199323522E+02  0.36499446897E+02  0.51100000000E-03 0. -1.
        -11    1    4    4    0    0  0.28906504385E+00  0.88808795721E+00  0.77625868910E+01  0.78185685595E+01  0.51100000000E-03 0.  1.
         12    1    4    4    0    0  0.24054039651E+00 -0.32972623977E+01 -0.10516271054E+01  0.34692533160E+01  0.00000000000E+00 0. -1.
</event>
<event>
 8    1  0.5250708E-010  0.9118800E+02  0.7816164E-02  0.1184000E+00
        -11   -1    0    0    0    0  0.00000000000E+00  0.00000000000E+00  0.45593999997E+02  0.45594000000E+02  0.51100000000E-03 0. -1.
         11   -1    0    0    0    0 -0.00000000000E+00 -0.00000000000E+00 -0.45593999997E+02  0.45594000000E+02  0.51100000000E-03 0.  1.
         23    2    1    2    0    0  0.11102230246E-15  0.00000000000E+00 -0.35527136788E-14  0.91188000000E+02  0.91188000000E+02 0.  0.
    9900012    2    3    3    0    0 -0.81158285963E+00  0.38649079392E+02 -0.19728484680E+02  0.47787272906E+02  0.20000008486E+02 0.  0.
         12    1    3    3    0    0  0.81158285963E+00 -0.38649079392E+02  0.19728484680E+02  0.43400727094E+02  0.00000000000E+00 0. -1.
         11    1    4    4    0    0  0.48401269248E+00  0.14277017470E+01  0.26360496062E+01  0.30366689566E+01  0.51100000000E-03 0. -1.
        -11    1    4    4    0    0  0.27520661619E+01  0.27368061105E+02 -0.12428476062E+02  0.30183632225E+02  0.51100000000E-03 0.  1.
         12    1    4    4    0    0 -0.40476617140E+01  0.98533165399E+01 -0.99360582242E+01  0.14566971724E+02  0.00000000000E+00 0. -1.
</event>
<event>
 8    1  0.1018442E-009  0.9118800E+02  0.7816164E-02  0.1184000E+00
        -11   -1    0    0    0    0  0.00000000000E+00  0.00000000000E+00  0.45593999997E+02  0.45594000000E+02  0.51100000000E-03 0. -1.
         11   -1    0    0    0    0 -0.00000000000E+00 -0.00000000000E+00 -0.45593999997E+02  0.45594000000E+02  0.51100000000E-03 0.  1.
         23    2    1    2    0    0  0.00000000000E+00  0.00000000000E+00  0.00000000000E+00  0.91188000000E+02  0.91188000000E+02 0.  0.
    9900012    2    3    3    0    0 -0.16049080829E+02 -0.57595647921E+01 -0.39910872342E+02  0.47787270592E+02  0.19999997938E+02 0.  0.
         12    1    3    3    0    0  0.16049080829E+02  0.57595647921E+01  0.39910872342E+02  0.43400729408E+02  0.00000000000E+00 0. -1.
         11    1    4    4    0    0 -0.13009304278E+02  0.18455040348E+00 -0.18903219649E+02  0.22947936073E+02  0.51100000000E-03 0. -1.
        -11    1    4    4    0    0 -0.36542178558E+01 -0.54172762476E+01 -0.22342387241E+02  0.23278368886E+02  0.51100000000E-03 0.  1.
         12    1    4    4    0    0  0.61444130481E+00 -0.52683894800E+00  0.13347345484E+01  0.15609656335E+01  0.00000000000E+00 0. -1.
</event>
<event>
 8    1  0.5250708E-010  0.9118800E+02  0.7816164E-02  0.1184000E+00
        -11   -1    0    0    0    0  0.00000000000E+00  0.00000000000E+00  0.45593999997E+02  0.45594000000E+02  0.51100000000E-03 0. -1.
         11   -1    0    0    0    0 -0.00000000000E+00 -0.00000000000E+00 -0.45593999997E+02  0.45594000000E+02  0.51100000000E-03 0.  1.
         23    2    1    2    0    0  0.00000000000E+00  0.00000000000E+00  0.71054273576E-14  0.91188000000E+02  0.91188000000E+02 0.  0.
    9900012    2    3    3    0    0  0.23669144300E+02 -0.10790933116E+02 -0.34741193582E+02  0.47787272345E+02  0.20000005932E+02 0.  0.
         12    1    3    3    0    0 -0.23669144300E+02  0.10790933116E+02  0.34741193582E+02  0.43400727655E+02  0.00000000000E+00 0. -1.
         11    1    4    4    0    0  0.22691705715E+01  0.10590608099E+01 -0.17770197347E+02  0.17945769944E+02  0.51100000000E-03 0. -1.
        -11    1    4    4    0    0  0.56368427280E+01 -0.40546238396E+01 -0.43100356932E+01  0.81725380610E+01  0.51100000000E-03 0.  1.
         12    1    4    4    0    0  0.15763131001E+02 -0.77953700860E+01 -0.12660960542E+02  0.21668964340E+02  0.00000000000E+00 0. -1.
</event>
<event>
 8    1  0.5250708E-010  0.9118800E+02  0.7816164E-02  0.1184000E+00
        -11   -1    0    0    0    0  0.00000000000E+00  0.00000000000E+00  0.45593999997E+02  0.45594000000E+02  0.51100000000E-03 0.  1.
         11   -1    0    0    0    0 -0.00000000000E+00 -0.00000000000E+00 -0.45593999997E+02  0.45594000000E+02  0.51100000000E-03 0. -1.
         23    2    1    2    0    0  0.00000000000E+00  0.17763568394E-14 -0.35527136788E-14  0.91188000000E+02  0.91188000000E+02 0.  0.
    9900012    2    3    3    0    0  0.32035739200E+02 -0.86243623728E+01  0.27981342126E+02  0.47787265909E+02  0.19999976585E+02 0.  0.
        -12    1    3    3    0    0 -0.32035739200E+02  0.86243623728E+01 -0.27981342126E+02  0.43400734091E+02  0.00000000000E+00 0.  1.
         11    1    4    4    0    0  0.12493776950E+02 -0.44923165425E+01  0.65927647929E+01  0.14823627028E+02  0.51100000000E-03 0. -1.
        -11    1    4    4    0    0  0.13804017105E+02 -0.58934304875E+01  0.55106207275E+01  0.15989069773E+02  0.51100000000E-03 0.  1.
        -12    1    4    4    0    0  0.57379451449E+01  0.17613846573E+01  0.15877956606E+02  0.16974569107E+02  0.00000000000E+00 0.  1.
</event>
<event>
 8    1  0.5250708E-010  0.9118800E+02  0.7816164E-02  0.1184000E+00
        -11   -1    0    0    0    0  0.00000000000E+00  0.00000000000E+00  0.45593999997E+02  0.45594000000E+02  0.51100000000E-03 0. -1.
         11   -1    0    0    0    0 -0.00000000000E+00 -0.00000000000E+00 -0.45593999997E+02  0.45594000000E+02  0.51100000000E-03 0.  1.
         23    2    1    2    0    0  0.00000000000E+00  0.00000000000E+00 -0.35527136788E-14  0.91188000000E+02  0.91188000000E+02 0.  0.
    9900012    2    3    3    0    0  0.93401812784E+01  0.33590817560E+02 -0.25846529628E+02  0.47787249955E+02  0.19999903844E+02 0.  0.
         12    1    3    3    0    0 -0.93401812784E+01 -0.33590817560E+02  0.25846529628E+02  0.43400750045E+02  0.00000000000E+00 0. -1.
         11    1    4    4    0    0 -0.11087696585E+01  0.10329686386E+02 -0.11032956033E+02  0.15154468320E+02  0.51100000000E-03 0. -1.
        -11    1    4    4    0    0  0.91500336529E+01  0.44869210127E+01 -0.41592656361E+01  0.11007046239E+02  0.51100000000E-03 0.  1.
         12    1    4    4    0    0  0.12989172840E+01  0.18774210161E+02 -0.10654307959E+02  0.21625735395E+02  0.00000000000E+00 0. -1.
</event>
<event>
 8    1  0.5250708E-010  0.9118800E+02  0.7816164E-02  0.1184000E+00
        -11   -1    0    0    0    0  0.00000000000E+00  0.00000000000E+00  0.45593999997E+02  0.45594000000E+02  0.51100000000E-03 0. -1.
         11   -1    0    0    0    0 -0.00000000000E+00 -0.00000000000E+00 -0.45593999997E+02  0.45594000000E+02  0.51100000000E-03 0.  1.
         23    2    1    2    0    0  0.71054273576E-14 -0.88817841970E-15 -0.35527136788E-14  0.91188000000E+02  0.91188000000E+02 0.  0.
    9900012    2    3    3    0    0 -0.34954171344E+02  0.41355049274E+01 -0.25391470105E+02  0.47787271326E+02  0.20000001286E+02 0.  0.
         12    1    3    3    0    0  0.34954171344E+02 -0.41355049274E+01  0.25391470105E+02  0.43400728674E+02  0.00000000000E+00 0. -1.
         11    1    4    4    0    0 -0.15927521424E+02 -0.27271781464E+01 -0.22130635108E+01  0.16310152964E+02  0.51100000000E-03 0. -1.
        -11    1    4    4    0    0 -0.15421981038E+02  0.54060422287E+01 -0.14035825388E+02  0.21542218695E+02  0.51100000000E-03 0.  1.
         12    1    4    4    0    0 -0.36046688821E+01  0.14566408450E+01 -0.91425812058E+01  0.99348996676E+01  0.00000000000E+00 0. -1.
</event>
<event>
 8    1  0.5250708E-010  0.9118800E+02  0.7816164E-02  0.1184000E+00
        -11   -1    0    0    0    0  0.00000000000E+00  0.00000000000E+00  0.45593999997E+02  0.45594000000E+02  0.51100000000E-03 0. -1.
         11   -1    0    0    0    0 -0.00000000000E+00 -0.00000000000E+00 -0.45593999997E+02  0.45594000000E+02  0.51100000000E-03 0.  1.
         23    2    1    2    0    0  0.17763568394E-14  0.17763568394E-14  0.71054273576E-14  0.91188000000E+02  0.91188000000E+02 0.  0.
    9900012    2    3    3    0    0 -0.10348267695E+02 -0.12759605142E+02  0.40171248214E+02  0.47787270159E+02  0.19999995964E+02 0.  0.
        -12    1    3    3    0    0  0.10348267695E+02  0.12759605142E+02 -0.40171248214E+02  0.43400729841E+02  0.00000000000E+00 0.  1.
         11    1    4    4    0    0 -0.84778039935E+01 -0.10619338010E+02  0.27813579464E+02  0.30955430915E+02  0.51100000000E-03 0. -1.
        -11    1    4    4    0    0 -0.57916208561E+01  0.10837000570E+01  0.42457699626E+01  0.72624954933E+01  0.51100000000E-03 0.  1.
        -12    1    4    4    0    0  0.39211571551E+01 -0.32239671896E+01  0.81118987876E+01  0.95693437505E+01  0.00000000000E+00 0.  1.
</event>
<event>
 8    1  0.5250708E-010  0.9118800E+02  0.7816164E-02  0.1184000E+00
        -11   -1    0    0    0    0  0.00000000000E+00  0.00000000000E+00  0.45593999997E+02  0.45594000000E+02  0.51100000000E-03 0. -1.
         11   -1    0    0    0    0 -0.00000000000E+00 -0.00000000000E+00 -0.45593999997E+02  0.45594000000E+02  0.51100000000E-03 0.  1.
         23    2    1    2    0    0  0.00000000000E+00  0.00000000000E+00  0.00000000000E+00  0.91188000000E+02  0.91188000000E+02 0.  0.
    9900012    2    3    3    0    0 -0.35525369917E+02 -0.16586078003E+02  0.18613795001E+02  0.47787271255E+02  0.20000000959E+02 0.  0.
        -12    1    3    3    0    0  0.35525369917E+02  0.16586078003E+02 -0.18613795001E+02  0.43400728745E+02  0.00000000000E+00 0.  1.
         11    1    4    4    0    0 -0.10605838758E+02 -0.86232723049E+01  0.78765908785E+01  0.15776099808E+02  0.51100000000E-03 0. -1.
        -11    1    4    4    0    0 -0.79793115270E+01 -0.10214424947E+02  0.33089245830E+01  0.13377326773E+02  0.51100000000E-03 0.  1.
        -12    1    4    4    0    0 -0.16940219632E+02  0.22516192484E+01  0.74282795399E+01  0.18633844674E+02  0.00000000000E+00 0.  1.
</event>
<event>
 8    1  0.5250708E-010  0.9118800E+02  0.7816164E-02  0.1184000E+00
        -11   -1    0    0    0    0  0.00000000000E+00  0.00000000000E+00  0.45593999997E+02  0.45594000000E+02  0.51100000000E-03 0. -1.
         11   -1    0    0    0    0 -0.00000000000E+00 -0.00000000000E+00 -0.45593999997E+02  0.45594000000E+02  0.51100000000E-03 0.  1.
         23    2    1    2    0    0 -0.17763568394E-14  0.00000000000E+00  0.00000000000E+00  0.91188000000E+02  0.91188000000E+02 0.  0.
    9900012    2    3    3    0    0  0.14529173892E+02  0.17807769066E+02  0.36815887690E+02  0.47787272823E+02  0.20000008110E+02 0.  0.
        -12    1    3    3    0    0 -0.14529173892E+02 -0.17807769066E+02 -0.36815887690E+02  0.43400727177E+02  0.00000000000E+00 0.  1.
         11    1    4    4    0    0  0.57989864625E+01  0.54303666244E+01  0.28541916167E+01  0.84417732565E+01  0.51100000000E-03 0. -1.
        -11    1    4    4    0    0  0.13124811506E+01  0.15587860739E+01  0.20314328656E+02  0.20416277079E+02  0.51100000000E-03 0.  1.
         12    1    4    4    0    0  0.74177062793E+01  0.10818616367E+02  0.13647367417E+02  0.18929222487E+02  0.00000000000E+00 0. -1.
</event>
<event>
 8    1  0.5250708E-010  0.9118800E+02  0.7816164E-02  0.1184000E+00
        -11   -1    0    0    0    0  0.00000000000E+00  0.00000000000E+00  0.45593999997E+02  0.45594000000E+02  0.51100000000E-03 0. -1.
         11   -1    0    0    0    0 -0.00000000000E+00 -0.00000000000E+00 -0.45593999997E+02  0.45594000000E+02  0.51100000000E-03 0.  1.
         23    2    1    2    0    0  0.35527136788E-14 -0.35527136788E-14 -0.35527136788E-14  0.91188000000E+02  0.91188000000E+02 0.  0.
    9900012    2    3    3    0    0  0.23986135969E+02 -0.27794885389E+02 -0.23145917989E+02  0.47787263923E+02  0.19999967531E+02 0.  0.
         12    1    3    3    0    0 -0.23986135969E+02  0.27794885389E+02  0.23145917989E+02  0.43400736077E+02  0.00000000000E+00 0. -1.
         11    1    4    4    0    0  0.81219357612E+01 -0.21306786292E+02 -0.66406138152E+01  0.23749583885E+02  0.51100000000E-03 0. -1.
        -11    1    4    4    0    0  0.42736562669E+01 -0.29078363407E+00 -0.33098084430E+01  0.54132730579E+01  0.51100000000E-03 0.  1.
        -12    1    4    4    0    0  0.11590543941E+02 -0.61973154625E+01 -0.13195495731E+02  0.18624406980E+02  0.00000000000E+00 0.  1.
</event>
<event>
 8    1  0.5250708E-010  0.9118800E+02  0.7816164E-02  0.1184000E+00
        -11   -1    0    0    0    0  0.00000000000E+00  0.00000000000E+00  0.45593999997E+02  0.45594000000E+02  0.51100000000E-03 0. -1.
         11   -1    0    0    0    0 -0.00000000000E+00 -0.00000000000E+00 -0.45593999997E+02  0.45594000000E+02  0.51100000000E-03 0.  1.
         23    2    1    2    0    0  0.00000000000E+00  0.44408920985E-15 -0.35527136788E-14  0.91188000000E+02  0.91188000000E+02 0.  0.
    9900012    2    3    3    0    0  0.34216567355E+02 -0.30386602368E+01  0.26525768522E+02  0.47787270360E+02  0.19999996881E+02 0.  0.
        -12    1    3    3    0    0 -0.34216567355E+02  0.30386602368E+01 -0.26525768522E+02  0.43400729640E+02  0.00000000000E+00 0.  1.
         11    1    4    4    0    0  0.13301812679E+02 -0.99325808701E+00  0.14864610985E+01  0.13421413823E+02  0.51100000000E-03 0. -1.
        -11    1    4    4    0    0  0.82691314644E+01 -0.60648896106E+01  0.10323959926E+02  0.14551479993E+02  0.51100000000E-03 0.  1.
        -12    1    4    4    0    0  0.12645623212E+02  0.40194874608E+01  0.14715347497E+02  0.19814376544E+02  0.00000000000E+00 0.  1.
</event>
<event>
 8    1  0.5250708E-010  0.9118800E+02  0.7816164E-02  0.1184000E+00
        -11   -1    0    0    0    0  0.00000000000E+00  0.00000000000E+00  0.45593999997E+02  0.45594000000E+02  0.51100000000E-03 0. -1.
         11   -1    0    0    0    0 -0.00000000000E+00 -0.00000000000E+00 -0.45593999997E+02  0.45594000000E+02  0.51100000000E-03 0.  1.
         23    2    1    2    0    0 -0.44408920985E-15  0.33306690739E-15  0.00000000000E+00  0.91188000000E+02  0.91188000000E+02 0.  0.
    9900012    2    3    3    0    0  0.26434312864E+01  0.40194041261E+00  0.43318287532E+02  0.47787270516E+02  0.19999997590E+02 0.  0.
        -12    1    3    3    0    0 -0.26434312864E+01 -0.40194041261E+00 -0.43318287532E+02  0.43400729484E+02  0.00000000000E+00 0.  1.
         11    1    4    4    0    0  0.28987394580E+01  0.18149965222E+01  0.39079590327E+02  0.39228959752E+02  0.51100000000E-03 0. -1.
        -11    1    4    4    0    0 -0.64598422222E+00  0.29657427353E+01  0.16033839834E+01  0.34327490510E+01  0.51100000000E-03 0.  1.
         12    1    4    4    0    0  0.39067605069E+00 -0.43787988449E+01  0.26353132214E+01  0.51255617132E+01  0.00000000000E+00 0. -1.
</event>
<event>
 8    1  0.5250708E-010  0.9118800E+02  0.7816164E-02  0.1184000E+00
        -11   -1    0    0    0    0  0.00000000000E+00  0.00000000000E+00  0.45593999997E+02  0.45594000000E+02  0.51100000000E-03 0. -1.
         11   -1    0    0    0    0 -0.00000000000E+00 -0.00000000000E+00 -0.45593999997E+02  0.45594000000E+02  0.51100000000E-03 0.  1.
         23    2    1    2    0    0  0.00000000000E+00  0.00000000000E+00  0.44408920985E-15  0.91188000000E+02  0.91188000000E+02 0.  0.
    9900012    2    3    3    0    0  0.30537106965E+02 -0.30696917105E+02  0.29677310176E+01  0.47787273636E+02  0.20000011816E+02 0.  0.
        -12    1    3    3    0    0 -0.30537106965E+02  0.30696917105E+02 -0.29677310176E+01  0.43400726364E+02  0.00000000000E+00 0.  1.
         11    1    4    4    0    0  0.35457810862E+01 -0.12649348107E+02 -0.75721931360E+00  0.13158721533E+02  0.51100000000E-03 0. -1.
        -11    1    4    4    0    0  0.57931840858E+01 -0.22963178893E+01  0.52878122751E+01  0.81728218272E+01  0.51100000000E-03 0.  1.
        -12    1    4    4    0    0  0.21198141793E+02 -0.15751251109E+02 -0.15628619439E+01  0.26455730276E+02  0.00000000000E+00 0.  1.
</event>
<event>
 8    1  0.5250708E-010  0.9118800E+02  0.7816164E-02  0.1184000E+00
        -11   -1    0    0    0    0  0.00000000000E+00  0.00000000000E+00  0.45593999997E+02  0.45594000000E+02  0.51100000000E-03 0. -1.
         11   -1    0    0    0    0 -0.00000000000E+00 -0.00000000000E+00 -0.45593999997E+02  0.45594000000E+02  0.51100000000E-03 0.  1.
         23    2    1    2    0    0  0.00000000000E+00  0.00000000000E+00 -0.35527136788E-14  0.91188000000E+02  0.91188000000E+02 0.  0.
    9900012    2    3    3    0    0 -0.10091732472E+02  0.35088776155E+02 -0.23463973791E+02  0.47787270255E+02  0.19999996401E+02 0.  0.
         12    1    3    3    0    0  0.10091732472E+02 -0.35088776155E+02  0.23463973791E+02  0.43400729745E+02  0.00000000000E+00 0. -1.
         11    1    4    4    0    0  0.19341366346E+01  0.11060945328E+02 -0.12368633109E+02  0.16705342897E+02  0.51100000000E-03 0. -1.
        -11    1    4    4    0    0 -0.41648232257E+01  0.18637636551E+02 -0.49068659192E+01  0.19717621107E+02  0.51100000000E-03 0.  1.
        -12    1    4    4    0    0 -0.78610458812E+01  0.53901942766E+01 -0.61884747623E+01  0.11364306251E+02  0.00000000000E+00 0.  1.
</event>
<event>
 8    1  0.5250708E-010  0.9118800E+02  0.7816164E-02  0.1184000E+00
        -11   -1    0    0    0    0  0.00000000000E+00  0.00000000000E+00  0.45593999997E+02  0.45594000000E+02  0.51100000000E-03 0. -1.
         11   -1    0    0    0    0 -0.00000000000E+00 -0.00000000000E+00 -0.45593999997E+02  0.45594000000E+02  0.51100000000E-03 0.  1.
         23    2    1    2    0    0  0.71054273576E-14  0.44408920985E-15  0.00000000000E+00  0.91188000000E+02  0.91188000000E+02 0.  0.
    9900012    2    3    3    0    0  0.39722909006E+02  0.23357868104E+01  0.17327961023E+02  0.47787266905E+02  0.19999981128E+02 0.  0.
        -12    1    3    3    0    0 -0.39722909006E+02 -0.23357868104E+01 -0.17327961023E+02  0.43400733095E+02  0.00000000000E+00 0.  1.
         11    1    4    4    0    0  0.12333997421E+02 -0.31745959253E-01  0.12481343957E+02  0.17547434212E+02  0.51100000000E-03 0. -1.
        -11    1    4    4    0    0  0.19815018488E+02  0.67617733823E+01  0.48147823342E+01  0.21483450983E+02  0.51100000000E-03 0.  1.
         12    1    4    4    0    0  0.75738930969E+01 -0.43942406126E+01  0.31834731939E-01  0.87563817102E+01  0.00000000000E+00 0. -1.
</event>
<event>
 8    1  0.5250708E-010  0.9118800E+02  0.7816164E-02  0.1184000E+00
        -11   -1    0    0    0    0  0.00000000000E+00  0.00000000000E+00  0.45593999997E+02  0.45594000000E+02  0.51100000000E-03 0. -1.
         11   -1    0    0    0    0 -0.00000000000E+00 -0.00000000000E+00 -0.45593999997E+02  0.45594000000E+02  0.51100000000E-03 0.  1.
         23    2    1    2    0    0 -0.35527136788E-14  0.00000000000E+00  0.35527136788E-14  0.91188000000E+02  0.91188000000E+02 0.  0.
    9900012    2    3    3    0    0  0.27314663984E+02 -0.26126328918E+02 -0.21329497265E+02  0.47787269766E+02  0.19999994171E+02 0.  0.
         12    1    3    3    0    0 -0.27314663984E+02  0.26126328918E+02  0.21329497265E+02  0.43400730234E+02  0.00000000000E+00 0. -1.
         11    1    4    4    0    0  0.20649455800E+02 -0.17188313180E+02 -0.77034657326E+01  0.27949624673E+02  0.51100000000E-03 0. -1.
        -11    1    4    4    0    0  0.28892603228E+01  0.15183777152E+01 -0.25217395199E+01  0.41246171418E+01  0.51100000000E-03 0.  1.
        -12    1    4    4    0    0  0.37759478609E+01 -0.10456393454E+02 -0.11104292012E+02  0.15713027952E+02  0.00000000000E+00 0.  1.
</event>
<event>
 8    1  0.5250708E-010  0.9118800E+02  0.7816164E-02  0.1184000E+00
        -11   -1    0    0    0    0  0.00000000000E+00  0.00000000000E+00  0.45593999997E+02  0.45594000000E+02  0.51100000000E-03 0. -1.
         11   -1    0    0    0    0 -0.00000000000E+00 -0.00000000000E+00 -0.45593999997E+02  0.45594000000E+02  0.51100000000E-03 0.  1.
         23    2    1    2    0    0  0.00000000000E+00 -0.88817841970E-15  0.00000000000E+00  0.91188000000E+02  0.91188000000E+02 0.  0.
    9900012    2    3    3    0    0 -0.53193775039E+01 -0.69048332412E+01 -0.42516445115E+02  0.47787301799E+02  0.20000140223E+02 0.  0.
         12    1    3    3    0    0  0.53193775039E+01  0.69048332412E+01  0.42516445115E+02  0.43400698201E+02  0.00000000000E+00 0. -1.
         11    1    4    4    0    0  0.14008669139E+01 -0.15196071335E+01 -0.14648633422E+02  0.14793718104E+02  0.51100000000E-03 0. -1.
        -11    1    4    4    0    0  0.41681721543E+00 -0.47956019577E+01 -0.24696819120E+02  0.25161566120E+02  0.51100000000E-03 0.  1.
         12    1    4    4    0    0 -0.71370616332E+01 -0.58962415000E+00 -0.31709925729E+01  0.78320175748E+01  0.00000000000E+00 0. -1.
</event>
<event>
 8    1  0.5250708E-010  0.9118800E+02  0.7816164E-02  0.1184000E+00
        -11   -1    0    0    0    0  0.00000000000E+00  0.00000000000E+00  0.45593999997E+02  0.45594000000E+02  0.51100000000E-03 0.  1.
         11   -1    0    0    0    0 -0.00000000000E+00 -0.00000000000E+00 -0.45593999997E+02  0.45594000000E+02  0.51100000000E-03 0. -1.
         23    2    1    2    0    0  0.00000000000E+00  0.35527136788E-14  0.00000000000E+00  0.91188000000E+02  0.91188000000E+02 0.  0.
    9900012    2    3    3    0    0 -0.33137451552E+02 -0.27640152313E+02 -0.46427042825E+01  0.47787269380E+02  0.19999992413E+02 0.  0.
         12    1    3    3    0    0  0.33137451552E+02  0.27640152313E+02  0.46427042825E+01  0.43400730620E+02  0.00000000000E+00 0. -1.
         11    1    4    4    0    0 -0.46299955064E+01  0.93506671277E+00 -0.11668937586E+00  0.47249153239E+01  0.51100000000E-03 0. -1.
        -11    1    4    4    0    0 -0.26834459762E+02 -0.23003003737E+02 -0.80646188647E+01  0.36252785953E+02  0.51100000000E-03 0.  1.
        -12    1    4    4    0    0 -0.16729962838E+01 -0.55722152883E+01  0.35386039581E+01  0.68095681035E+01  0.00000000000E+00 0.  1.
</event>
<event>
 8    1  0.5250708E-010  0.9118800E+02  0.7816164E-02  0.1184000E+00
        -11   -1    0    0    0    0  0.00000000000E+00  0.00000000000E+00  0.45593999997E+02  0.45594000000E+02  0.51100000000E-03 0. -1.
         11   -1    0    0    0    0 -0.00000000000E+00 -0.00000000000E+00 -0.45593999997E+02  0.45594000000E+02  0.51100000000E-03 0.  1.
         23    2    1    2    0    0  0.00000000000E+00  0.00000000000E+00  0.00000000000E+00  0.91188000000E+02  0.91188000000E+02 0.  0.
    9900012    2    3    3    0    0  0.13737060811E+02 -0.39684592305E+02  0.10956717351E+02  0.47787270038E+02  0.19999995411E+02 0.  0.
        -12    1    3    3    0    0 -0.13737060811E+02  0.39684592305E+02 -0.10956717351E+02  0.43400729962E+02  0.00000000000E+00 0.  1.
         11    1    4    4    0    0  0.63430670766E+01 -0.34672608331E+01 -0.13822122318E+01  0.73598171539E+01  0.51100000000E-03 0. -1.
        -11    1    4    4    0    0 -0.22588956411E+01 -0.15017717919E+02  0.42672255015E+01  0.15774779705E+02  0.51100000000E-03 0.  1.
         12    1    4    4    0    0  0.96528893754E+01 -0.21199613553E+02  0.80717040809E+01  0.24652673179E+02  0.00000000000E+00 0. -1.
</event>
<event>
 8    1  0.5250708E-010  0.9118800E+02  0.7816164E-02  0.1184000E+00
        -11   -1    0    0    0    0  0.00000000000E+00  0.00000000000E+00  0.45593999997E+02  0.45594000000E+02  0.51100000000E-03 0. -1.
         11   -1    0    0    0    0 -0.00000000000E+00 -0.00000000000E+00 -0.45593999997E+02  0.45594000000E+02  0.51100000000E-03 0.  1.
         23    2    1    2    0    0  0.35527136788E-14  0.35527136788E-14  0.00000000000E+00  0.91188000000E+02  0.91188000000E+02 0.  0.
    9900012    2    3    3    0    0 -0.13657102514E+02 -0.21703049426E+02 -0.35015490137E+02  0.47787270133E+02  0.19999995844E+02 0.  0.
         12    1    3    3    0    0  0.13657102514E+02  0.21703049426E+02  0.35015490137E+02  0.43400729867E+02  0.00000000000E+00 0. -1.
         11    1    4    4    0    0 -0.14941757967E+01 -0.41824732471E-01  0.10506934640E+01  0.18270926731E+01  0.51100000000E-03 0. -1.
        -11    1    4    4    0    0 -0.77809665449E+00 -0.59534131474E+01 -0.12932352169E+01  0.61417440597E+01  0.51100000000E-03 0.  1.
        -12    1    4    4    0    0 -0.11384830063E+02 -0.15707811546E+02 -0.34772948384E+02  0.39818433400E+02  0.00000000000E+00 0.  1.
</event>
<event>
 8    1  0.5250708E-010  0.9118800E+02  0.7816164E-02  0.1184000E+00
        -11   -1    0    0    0    0  0.00000000000E+00  0.00000000000E+00  0.45593999997E+02  0.45594000000E+02  0.51100000000E-03 0. -1.
         11   -1    0    0    0    0 -0.00000000000E+00 -0.00000000000E+00 -0.45593999997E+02  0.45594000000E+02  0.51100000000E-03 0.  1.
         23    2    1    2    0    0  0.00000000000E+00 -0.28865798640E-14  0.00000000000E+00  0.91188000000E+02  0.91188000000E+02 0.  0.
    9900012    2    3    3    0    0  0.59494044846E+01 -0.17878951554E+01 -0.42953827138E+02  0.47787271335E+02  0.20000001326E+02 0.  0.
         12    1    3    3    0    0 -0.59494044846E+01  0.17878951554E+01  0.42953827138E+02  0.43400728665E+02  0.00000000000E+00 0. -1.
         11    1    4    4    0    0  0.27948465873E-01 -0.43408190056E+01 -0.97056638702E+01  0.10632187083E+02  0.51100000000E-03 0. -1.
        -11    1    4    4    0    0  0.29251414036E+01 -0.44851092075E+01 -0.34013244201E+01  0.63436318388E+01  0.51100000000E-03 0.  1.
        -12    1    4    4    0    0  0.29963146151E+01  0.70380330576E+01 -0.29846838848E+02  0.30811452413E+02  0.00000000000E+00 0.  1.
</event>
<event>
 8    1  0.5250708E-010  0.9118800E+02  0.7816164E-02  0.1184000E+00
        -11   -1    0    0    0    0  0.00000000000E+00  0.00000000000E+00  0.45593999997E+02  0.45594000000E+02  0.51100000000E-03 0. -1.
         11   -1    0    0    0    0 -0.00000000000E+00 -0.00000000000E+00 -0.45593999997E+02  0.45594000000E+02  0.51100000000E-03 0.  1.
         23    2    1    2    0    0  0.00000000000E+00  0.00000000000E+00 -0.35527136788E-14  0.91188000000E+02  0.91188000000E+02 0.  0.
    9900012    2    3    3    0    0 -0.20562986422E+01  0.40873712770E+02 -0.14447649249E+02  0.47787270415E+02  0.19999997131E+02 0.  0.
         12    1    3    3    0    0  0.20562986422E+01 -0.40873712770E+02  0.14447649249E+02  0.43400729585E+02  0.00000000000E+00 0. -1.
         11    1    4    4    0    0  0.39118030248E+01  0.40647409970E+01 -0.48116828278E+01  0.74146216474E+01  0.51100000000E-03 0.  1.
        -11    1    4    4    0    0 -0.52262401527E+00  0.31767743039E+02 -0.82181710273E+01  0.32817692926E+02  0.51100000000E-03 0. -1.
         12    1    4    4    0    0 -0.54454776517E+01  0.50412287336E+01 -0.14177953935E+01  0.75549558422E+01  0.00000000000E+00 0. -1.
</event>
<event>
 8    1  0.5250708E-010  0.9118800E+02  0.7816164E-02  0.1184000E+00
        -11   -1    0    0    0    0  0.00000000000E+00  0.00000000000E+00  0.45593999997E+02  0.45594000000E+02  0.51100000000E-03 0. -1.
         11   -1    0    0    0    0 -0.00000000000E+00 -0.00000000000E+00 -0.45593999997E+02  0.45594000000E+02  0.51100000000E-03 0.  1.
         23    2    1    2    0    0 -0.35527136788E-14 -0.35527136788E-14  0.35527136788E-14  0.91188000000E+02  0.91188000000E+02 0.  0.
    9900012    2    3    3    0    0 -0.25866786478E+02 -0.21308719851E+02  0.27576640446E+02  0.47787270943E+02  0.19999999538E+02 0.  0.
        -12    1    3    3    0    0  0.25866786478E+02  0.21308719851E+02 -0.27576640446E+02  0.43400729057E+02  0.00000000000E+00 0.  1.
         11    1    4    4    0    0 -0.65080713200E+01 -0.18610212228E+01  0.12758655940E+02  0.14443050022E+02  0.51100000000E-03 0. -1.
        -11    1    4    4    0    0 -0.28655973713E+01 -0.33932802681E+01 -0.19668509455E+01  0.48574172330E+01  0.51100000000E-03 0.  1.
        -12    1    4    4    0    0 -0.16493117786E+02 -0.16054418360E+02  0.16784835452E+02  0.28486803688E+02  0.00000000000E+00 0.  1.
</event>
<event>
 8    1  0.5250708E-010  0.9118800E+02  0.7816164E-02  0.1184000E+00
        -11   -1    0    0    0    0  0.00000000000E+00  0.00000000000E+00  0.45593999997E+02  0.45594000000E+02  0.51100000000E-03 0. -1.
         11   -1    0    0    0    0 -0.00000000000E+00 -0.00000000000E+00 -0.45593999997E+02  0.45594000000E+02  0.51100000000E-03 0.  1.
         23    2    1    2    0    0  0.00000000000E+00  0.00000000000E+00  0.35527136788E-14  0.91188000000E+02  0.91188000000E+02 0.  0.
    9900012    2    3    3    0    0  0.25092671356E+02 -0.24711112373E+02  0.25364188205E+02  0.47787271045E+02  0.20000000004E+02 0.  0.
        -12    1    3    3    0    0 -0.25092671356E+02  0.24711112373E+02 -0.25364188205E+02  0.43400728955E+02  0.00000000000E+00 0.  1.
         11    1    4    4    0    0  0.64184884970E+01 -0.12304583071E+02  0.20625255324E+02  0.24859624225E+02  0.51100000000E-03 0.  1.
        -11    1    4    4    0    0  0.57190085546E+01 -0.40850989153E+01  0.12219560595E+01  0.71336013954E+01  0.51100000000E-03 0. -1.
        -12    1    4    4    0    0  0.12955174304E+02 -0.83214303863E+01  0.35169768218E+01  0.15794045425E+02  0.00000000000E+00 0.  1.
</event>
<event>
 8    1  0.5250708E-010  0.9118800E+02  0.7816164E-02  0.1184000E+00
        -11   -1    0    0    0    0  0.00000000000E+00  0.00000000000E+00  0.45593999997E+02  0.45594000000E+02  0.51100000000E-03 0. -1.
         11   -1    0    0    0    0 -0.00000000000E+00 -0.00000000000E+00 -0.45593999997E+02  0.45594000000E+02  0.51100000000E-03 0.  1.
         23    2    1    2    0    0  0.00000000000E+00  0.00000000000E+00  0.17763568394E-14  0.91188000000E+02  0.91188000000E+02 0.  0.
    9900012    2    3    3    0    0  0.20013287659E+02 -0.35395917639E+02  0.15173032710E+02  0.47787267402E+02  0.19999983392E+02 0.  0.
        -12    1    3    3    0    0 -0.20013287659E+02  0.35395917639E+02 -0.15173032710E+02  0.43400732598E+02  0.00000000000E+00 0.  1.
         11    1    4    4    0    0  0.26674244764E+01 -0.33873803926E+01  0.10963576501E+01  0.44487638305E+01  0.51100000000E-03 0. -1.
        -11    1    4    4    0    0  0.61073868302E+01 -0.27448146453E+02  0.13510729601E+02  0.31196806442E+02  0.51100000000E-03 0.  1.
         12    1    4    4    0    0  0.11238476352E+02 -0.45603907936E+01  0.56594545922E+00  0.12141697129E+02  0.00000000000E+00 0. -1.
</event>
<event>
 8    1  0.5547657E-010  0.9118800E+02  0.7816164E-02  0.1184000E+00
        -11   -1    0    0    0    0  0.00000000000E+00  0.00000000000E+00  0.45593999997E+02  0.45594000000E+02  0.51100000000E-03 0. -1.
         11   -1    0    0    0    0 -0.00000000000E+00 -0.00000000000E+00 -0.45593999997E+02  0.45594000000E+02  0.51100000000E-03 0.  1.
         23    2    1    2    0    0 -0.35527136788E-14  0.00000000000E+00  0.00000000000E+00  0.91188000000E+02  0.91188000000E+02 0.  0.
    9900012    2    3    3    0    0 -0.26547843671E+02 -0.84759134484E+01 -0.33271511009E+02  0.47787279301E+02  0.20000037646E+02 0.  0.
         12    1    3    3    0    0  0.26547843671E+02  0.84759134484E+01  0.33271511009E+02  0.43400720699E+02  0.00000000000E+00 0. -1.
         11    1    4    4    0    0 -0.23343676450E+01 -0.64775611419E+01 -0.10618612513E+02  0.12655552244E+02  0.51100000000E-03 0. -1.
        -11    1    4    4    0    0 -0.19935381248E+02 -0.43166758844E+01 -0.22346976434E+02  0.30256246830E+02  0.51100000000E-03 0.  1.
         12    1    4    4    0    0 -0.42780947775E+01  0.23183235779E+01 -0.30592206173E+00  0.48754802271E+01  0.00000000000E+00 0. -1.
</event>
<event>
 8    1  0.5250708E-010  0.9118800E+02  0.7816164E-02  0.1184000E+00
        -11   -1    0    0    0    0  0.00000000000E+00  0.00000000000E+00  0.45593999997E+02  0.45594000000E+02  0.51100000000E-03 0. -1.
         11   -1    0    0    0    0 -0.00000000000E+00 -0.00000000000E+00 -0.45593999997E+02  0.45594000000E+02  0.51100000000E-03 0.  1.
         23    2    1    2    0    0  0.17763568394E-14  0.00000000000E+00 -0.44408920985E-15  0.91188000000E+02  0.91188000000E+02 0.  0.
    9900012    2    3    3    0    0  0.92678732473E+01 -0.42229434217E+02 -0.37956641583E+01  0.47787243610E+02  0.19999874915E+02 0.  0.
         12    1    3    3    0    0 -0.92678732473E+01  0.42229434217E+02  0.37956641583E+01  0.43400756390E+02  0.00000000000E+00 0. -1.
         11    1    4    4    0    0 -0.13043844229E+01 -0.37246483739E+01 -0.45829270418E+01  0.60479454994E+01  0.51100000000E-03 0. -1.
        -11    1    4    4    0    0  0.89498974366E+01 -0.38431101794E+02 -0.80116157888E+00  0.39467608357E+02  0.51100000000E-03 0.  1.
         12    1    4    4    0    0  0.16223602336E+01 -0.73684048823E-01  0.15884244624E+01  0.22716897542E+01  0.00000000000E+00 0. -1.
</event>
<event>
 8    1  0.5250708E-010  0.9118800E+02  0.7816164E-02  0.1184000E+00
        -11   -1    0    0    0    0  0.00000000000E+00  0.00000000000E+00  0.45593999997E+02  0.45594000000E+02  0.51100000000E-03 0. -1.
         11   -1    0    0    0    0 -0.00000000000E+00 -0.00000000000E+00 -0.45593999997E+02  0.45594000000E+02  0.51100000000E-03 0.  1.
         23    2    1    2    0    0  0.00000000000E+00  0.00000000000E+00  0.00000000000E+00  0.91188000000E+02  0.91188000000E+02 0.  0.
    9900012    2    3    3    0    0 -0.87234275790E+01  0.42669026776E+00  0.42512846547E+02  0.47787281402E+02  0.20000047223E+02 0.  0.
        -12    1    3    3    0    0  0.87234275790E+01 -0.42669026776E+00 -0.42512846547E+02  0.43400718598E+02  0.00000000000E+00 0.  1.
         11    1    4    4    0    0 -0.18498417171E+01 -0.49311403159E+01  0.29469164928E+02  0.29936094285E+02  0.51100000000E-03 0. -1.
        -11    1    4    4    0    0 -0.21135179338E+01 -0.15131852837E+01  0.30813247163E+00  0.26175625380E+01  0.51100000000E-03 0.  1.
        -12    1    4    4    0    0 -0.47600679281E+01  0.68710158673E+01  0.12735549147E+02  0.15233624579E+02  0.00000000000E+00 0.  1.
</event>
<event>
 8    1  0.5250708E-010  0.9118800E+02  0.7816164E-02  0.1184000E+00
        -11   -1    0    0    0    0  0.00000000000E+00  0.00000000000E+00  0.45593999997E+02  0.45594000000E+02  0.51100000000E-03 0. -1.
         11   -1    0    0    0    0 -0.00000000000E+00 -0.00000000000E+00 -0.45593999997E+02  0.45594000000E+02  0.51100000000E-03 0.  1.
         23    2    1    2    0    0  0.00000000000E+00  0.00000000000E+00 -0.71054273576E-14  0.91188000000E+02  0.91188000000E+02 0.  0.
    9900012    2    3    3    0    0  0.16084846723E+02 -0.23289017212E+01  0.40242728307E+02  0.47787271217E+02  0.20000000787E+02 0.  0.
        -12    1    3    3    0    0 -0.16084846723E+02  0.23289017212E+01 -0.40242728307E+02  0.43400728783E+02  0.00000000000E+00 0.  1.
         11    1    4    4    0    0  0.48768031537E+01  0.39194967413E+01  0.21493116957E+02  0.22385257213E+02  0.51100000000E-03 0. -1.
        -11    1    4    4    0    0  0.31809989661E+01 -0.25986088281E+00 -0.92692240303E+00  0.33234722058E+01  0.51100000000E-03 0.  1.
         12    1    4    4    0    0  0.80270446028E+01 -0.59885375797E+01  0.19676533753E+02  0.22078541798E+02  0.00000000000E+00 0. -1.
</event>
<event>
 8    1  0.5250708E-010  0.9118800E+02  0.7816164E-02  0.1184000E+00
        -11   -1    0    0    0    0  0.00000000000E+00  0.00000000000E+00  0.45593999997E+02  0.45594000000E+02  0.51100000000E-03 0. -1.
         11   -1    0    0    0    0 -0.00000000000E+00 -0.00000000000E+00 -0.45593999997E+02  0.45594000000E+02  0.51100000000E-03 0.  1.
         23    2    1    2    0    0 -0.35527136788E-14  0.13322676296E-14  0.35527136788E-14  0.91188000000E+02  0.91188000000E+02 0.  0.
    9900012    2    3    3    0    0 -0.30405193375E+02  0.28736525657E+00  0.30968771280E+02  0.47787272385E+02  0.20000006111E+02 0.  0.
        -12    1    3    3    0    0  0.30405193375E+02 -0.28736525657E+00 -0.30968771280E+02  0.43400727615E+02  0.00000000000E+00 0.  1.
         11    1    4    4    0    0 -0.20845096470E+02  0.88265355481E+01  0.22667381667E+02  0.32034917958E+02  0.51100000000E-03 0. -1.
        -11    1    4    4    0    0 -0.22290929975E+01 -0.43643216391E+01  0.23999932052E+01  0.54567505539E+01  0.51100000000E-03 0.  1.
        -12    1    4    4    0    0 -0.73310039068E+01 -0.41748486525E+01  0.59013964077E+01  0.10295603873E+02  0.00000000000E+00 0.  1.
</event>
<event>
 8    1  0.5250708E-010  0.9118800E+02  0.7816164E-02  0.1184000E+00
        -11   -1    0    0    0    0  0.00000000000E+00  0.00000000000E+00  0.45593999997E+02  0.45594000000E+02  0.51100000000E-03 0. -1.
         11   -1    0    0    0    0 -0.00000000000E+00 -0.00000000000E+00 -0.45593999997E+02  0.45594000000E+02  0.51100000000E-03 0.  1.
         23    2    1    2    0    0  0.17763568394E-14 -0.35527136788E-14 -0.71054273576E-14  0.91188000000E+02  0.91188000000E+02 0.  0.
    9900012    2    3    3    0    0  0.14770024454E+02 -0.27316205505E+02 -0.30319871840E+02  0.47787270352E+02  0.19999996844E+02 0.  0.
         12    1    3    3    0    0 -0.14770024454E+02  0.27316205505E+02  0.30319871840E+02  0.43400729648E+02  0.00000000000E+00 0. -1.
         11    1    4    4    0    0 -0.19831241216E+01 -0.40614796268E+01 -0.48112564278E+01  0.66012564497E+01  0.51100000000E-03 0. -1.
        -11    1    4    4    0    0  0.11272472300E+02 -0.37935512104E+01 -0.11830904446E+02  0.16775874428E+02  0.51100000000E-03 0.  1.
        -12    1    4    4    0    0  0.54806762754E+01 -0.19461174668E+02 -0.13677710966E+02  0.24410139474E+02  0.00000000000E+00 0.  1.
</event>
<event>
 8    1  0.5250708E-010  0.9118800E+02  0.7816164E-02  0.1184000E+00
        -11   -1    0    0    0    0  0.00000000000E+00  0.00000000000E+00  0.45593999997E+02  0.45594000000E+02  0.51100000000E-03 0.  1.
         11   -1    0    0    0    0 -0.00000000000E+00 -0.00000000000E+00 -0.45593999997E+02  0.45594000000E+02  0.51100000000E-03 0. -1.
         23    2    1    2    0    0  0.00000000000E+00  0.00000000000E+00  0.17763568394E-14  0.91188000000E+02  0.91188000000E+02 0.  0.
    9900012    2    3    3    0    0  0.37217825579E+02  0.21602714989E+02 -0.56373118346E+01  0.47787272812E+02  0.20000008060E+02 0.  0.
        -12    1    3    3    0    0 -0.37217825579E+02 -0.21602714989E+02  0.56373118346E+01  0.43400727188E+02  0.00000000000E+00 0.  1.
         11    1    4    4    0    0  0.18933836615E+02  0.59415479956E+01 -0.54035153255E+01  0.20566724087E+02  0.51100000000E-03 0. -1.
        -11    1    4    4    0    0  0.88091444894E+01  0.12430381018E+02 -0.51312597413E+01  0.16076231700E+02  0.51100000000E-03 0.  1.
        -12    1    4    4    0    0  0.94748444743E+01  0.32307859754E+01  0.48974632322E+01  0.11144317024E+02  0.00000000000E+00 0.  1.
</event>
<event>
 8    1  0.5250708E-010  0.9118800E+02  0.7816164E-02  0.1184000E+00
        -11   -1    0    0    0    0  0.00000000000E+00  0.00000000000E+00  0.45593999997E+02  0.45594000000E+02  0.51100000000E-03 0.  1.
         11   -1    0    0    0    0 -0.00000000000E+00 -0.00000000000E+00 -0.45593999997E+02  0.45594000000E+02  0.51100000000E-03 0. -1.
         23    2    1    2    0    0  0.00000000000E+00  0.00000000000E+00  0.88817841970E-15  0.91188000000E+02  0.91188000000E+02 0.  0.
    9900012    2    3    3    0    0 -0.32218338833E+02  0.28998344184E+02 -0.21674736785E+01  0.47787271150E+02  0.20000000482E+02 0.  0.
        -12    1    3    3    0    0  0.32218338833E+02 -0.28998344184E+02  0.21674736785E+01  0.43400728850E+02  0.00000000000E+00 0.  1.
         11    1    4    4    0    0 -0.34164150219E+01  0.47838942443E+01  0.22429473684E+01  0.62919272803E+01  0.51100000000E-03 0. -1.
        -11    1    4    4    0    0 -0.99167348891E+01  0.59380193409E+01  0.62436356667E+01  0.13137149278E+02  0.51100000000E-03 0.  1.
         12    1    4    4    0    0 -0.18885188922E+02  0.18276430598E+02 -0.10654056714E+02  0.28358194592E+02  0.00000000000E+00 0. -1.
</event>
<event>
 8    1  0.5250708E-010  0.9118800E+02  0.7816164E-02  0.1184000E+00
        -11   -1    0    0    0    0  0.00000000000E+00  0.00000000000E+00  0.45593999997E+02  0.45594000000E+02  0.51100000000E-03 0. -1.
         11   -1    0    0    0    0 -0.00000000000E+00 -0.00000000000E+00 -0.45593999997E+02  0.45594000000E+02  0.51100000000E-03 0.  1.
         23    2    1    2    0    0 -0.88817841970E-15 -0.35527136788E-14  0.00000000000E+00  0.91188000000E+02  0.91188000000E+02 0.  0.
    9900012    2    3    3    0    0  0.57207150939E+01 -0.28407248093E+02  0.32309826606E+02  0.47787271657E+02  0.20000002793E+02 0.  0.
        -12    1    3    3    0    0 -0.57207150939E+01  0.28407248093E+02 -0.32309826606E+02  0.43400728343E+02  0.00000000000E+00 0.  1.
         11    1    4    4    0    0  0.22421466587E+01 -0.86685302929E+00  0.93569252227E+01  0.96607818368E+01  0.51100000000E-03 0. -1.
        -11    1    4    4    0    0  0.58260812976E+01 -0.87607460880E+01  0.37625788618E+01  0.11173669731E+02  0.51100000000E-03 0.  1.
         12    1    4    4    0    0 -0.23475128624E+01 -0.18779648976E+02  0.19190322522E+02  0.26952820089E+02  0.00000000000E+00 0. -1.
</event>
<event>
 8    1  0.5250708E-010  0.9118800E+02  0.7816164E-02  0.1184000E+00
        -11   -1    0    0    0    0  0.00000000000E+00  0.00000000000E+00  0.45593999997E+02  0.45594000000E+02  0.51100000000E-03 0. -1.
         11   -1    0    0    0    0 -0.00000000000E+00 -0.00000000000E+00 -0.45593999997E+02  0.45594000000E+02  0.51100000000E-03 0.  1.
         23    2    1    2    0    0  0.00000000000E+00  0.00000000000E+00  0.00000000000E+00  0.91188000000E+02  0.91188000000E+02 0.  0.
    9900012    2    3    3    0    0 -0.34483062887E+02  0.99674080600E+01  0.24396565884E+02  0.47787271015E+02  0.19999999866E+02 0.  0.
        -12    1    3    3    0    0  0.34483062887E+02 -0.99674080600E+01 -0.24396565884E+02  0.43400728985E+02  0.00000000000E+00 0.  1.
         11    1    4    4    0    0 -0.24328327023E+00 -0.31393936083E-01  0.41977195892E+01  0.42048807759E+01  0.51100000000E-03 0. -1.
        -11    1    4    4    0    0 -0.97028833132E+00  0.20326035486E+01  0.62402776636E+01  0.66343049531E+01  0.51100000000E-03 0.  1.
         12    1    4    4    0    0 -0.33269491285E+02  0.79661984475E+01  0.13958568631E+02  0.36948085286E+02  0.00000000000E+00 0. -1.
</event>
<event>
 8    1  0.5250708E-010  0.9118800E+02  0.7816164E-02  0.1184000E+00
        -11   -1    0    0    0    0  0.00000000000E+00  0.00000000000E+00  0.45593999997E+02  0.45594000000E+02  0.51100000000E-03 0. -1.
         11   -1    0    0    0    0 -0.00000000000E+00 -0.00000000000E+00 -0.45593999997E+02  0.45594000000E+02  0.51100000000E-03 0.  1.
         23    2    1    2    0    0  0.00000000000E+00  0.00000000000E+00  0.00000000000E+00  0.91188000000E+02  0.91188000000E+02 0.  0.
    9900012    2    3    3    0    0  0.25235346934E+02  0.34061376971E+02 -0.93071618725E+01  0.47787269612E+02  0.19999993471E+02 0.  0.
         12    1    3    3    0    0 -0.25235346934E+02 -0.34061376971E+02  0.93071618725E+01  0.43400730388E+02  0.00000000000E+00 0. -1.
         11    1    4    4    0    0  0.77048274092E+00 -0.11836404884E+01 -0.16760544466E+01  0.21917589349E+01  0.51100000000E-03 0. -1.
        -11    1    4    4    0    0  0.91665507207E+01  0.21282472098E+02 -0.89512560435E+01  0.24841381921E+02  0.51100000000E-03 0.  1.
         12    1    4    4    0    0  0.15298313472E+02  0.13962545362E+02  0.13201486176E+01  0.20754128757E+02  0.00000000000E+00 0. -1.
</event>
<event>
 8    1  0.5250708E-010  0.9118800E+02  0.7816164E-02  0.1184000E+00
        -11   -1    0    0    0    0  0.00000000000E+00  0.00000000000E+00  0.45593999997E+02  0.45594000000E+02  0.51100000000E-03 0.  1.
         11   -1    0    0    0    0 -0.00000000000E+00 -0.00000000000E+00 -0.45593999997E+02  0.45594000000E+02  0.51100000000E-03 0. -1.
         23    2    1    2    0    0  0.00000000000E+00 -0.71054273576E-14  0.00000000000E+00  0.91188000000E+02  0.91188000000E+02 0.  0.
    9900012    2    3    3    0    0  0.29406085711E+02 -0.24267319164E+02  0.20736490798E+02  0.47787277577E+02  0.20000029782E+02 0.  0.
        -12    1    3    3    0    0 -0.29406085711E+02  0.24267319164E+02 -0.20736490798E+02  0.43400722423E+02  0.00000000000E+00 0.  1.
         11    1    4    4    0    0  0.27798921214E+02 -0.15454761788E+02  0.13357013042E+02  0.34496948854E+02  0.51100000000E-03 0. -1.
        -11    1    4    4    0    0  0.22680393497E+01 -0.40881019946E+01  0.71137713439E+01  0.85124804496E+01  0.51100000000E-03 0.  1.
         12    1    4    4    0    0 -0.66087485249E+00 -0.47244553810E+01  0.26570641214E+00  0.47778482725E+01  0.00000000000E+00 0. -1.
</event>
<event>
 8    1  0.5250708E-010  0.9118800E+02  0.7816164E-02  0.1184000E+00
        -11   -1    0    0    0    0  0.00000000000E+00  0.00000000000E+00  0.45593999997E+02  0.45594000000E+02  0.51100000000E-03 0.  1.
         11   -1    0    0    0    0 -0.00000000000E+00 -0.00000000000E+00 -0.45593999997E+02  0.45594000000E+02  0.51100000000E-03 0. -1.
         23    2    1    2    0    0  0.71054273576E-14  0.00000000000E+00 -0.17763568394E-14  0.91188000000E+02  0.91188000000E+02 0.  0.
    9900012    2    3    3    0    0  0.33632508827E+02  0.24410258064E+02 -0.12514756353E+02  0.47787245682E+02  0.19999884364E+02 0.  0.
         12    1    3    3    0    0 -0.33632508827E+02 -0.24410258064E+02  0.12514756353E+02  0.43400754318E+02  0.00000000000E+00 0. -1.
         11    1    4    4    0    0  0.68011788507E-01  0.16636302458E+01 -0.25283711205E+01  0.30273671701E+01  0.51100000000E-03 0. -1.
        -11    1    4    4    0    0  0.22069070959E+02  0.14900677345E+02  0.15628781516E+01  0.26674269750E+02  0.51100000000E-03 0.  1.
        -12    1    4    4    0    0  0.11495426080E+02  0.78459504727E+01 -0.11549263384E+02  0.18085608762E+02  0.00000000000E+00 0.  1.
</event>
<event>
 8    1  0.5250708E-010  0.9118800E+02  0.7816164E-02  0.1184000E+00
        -11   -1    0    0    0    0  0.00000000000E+00  0.00000000000E+00  0.45593999997E+02  0.45594000000E+02  0.51100000000E-03 0. -1.
         11   -1    0    0    0    0 -0.00000000000E+00 -0.00000000000E+00 -0.45593999997E+02  0.45594000000E+02  0.51100000000E-03 0.  1.
         23    2    1    2    0    0  0.00000000000E+00  0.00000000000E+00  0.00000000000E+00  0.91188000000E+02  0.91188000000E+02 0.  0.
    9900012    2    3    3    0    0  0.15962655797E+02  0.94607120280E+01  0.39234059588E+02  0.47787275537E+02  0.20000020482E+02 0.  0.
        -12    1    3    3    0    0 -0.15962655797E+02 -0.94607120280E+01 -0.39234059588E+02  0.43400724463E+02  0.00000000000E+00 0.  1.
         11    1    4    4    0    0 -0.95877887266E+00  0.44841487334E+01  0.61546693928E+01  0.76750767022E+01  0.51100000000E-03 0. -1.
        -11    1    4    4    0    0  0.71320276508E+01 -0.44277500096E+01  0.17758136289E+02  0.19642357121E+02  0.51100000000E-03 0.  1.
         12    1    4    4    0    0  0.97894070193E+01  0.94043133042E+01  0.15321253907E+02  0.20469841714E+02  0.00000000000E+00 0. -1.
</event>
<event>
 8    1  0.5250708E-010  0.9118800E+02  0.7816164E-02  0.1184000E+00
        -11   -1    0    0    0    0  0.00000000000E+00  0.00000000000E+00  0.45593999997E+02  0.45594000000E+02  0.51100000000E-03 0. -1.
         11   -1    0    0    0    0 -0.00000000000E+00 -0.00000000000E+00 -0.45593999997E+02  0.45594000000E+02  0.51100000000E-03 0.  1.
         23    2    1    2    0    0 -0.26645352591E-14  0.44408920985E-15  0.00000000000E+00  0.91188000000E+02  0.91188000000E+02 0.  0.
    9900012    2    3    3    0    0  0.54814939111E+01 -0.10289731549E+01  0.43040885338E+02  0.47787269914E+02  0.19999994848E+02 0.  0.
        -12    1    3    3    0    0 -0.54814939111E+01  0.10289731549E+01 -0.43040885338E+02  0.43400730086E+02  0.00000000000E+00 0.  1.
         11    1    4    4    0    0  0.47586372073E+01 -0.21868133125E+01  0.51834238186E+01  0.73684912485E+01  0.51100000000E-03 0. -1.
        -11    1    4    4    0    0  0.46092956091E+01  0.41535307921E+01  0.32763390527E+02  0.33345722111E+02  0.51100000000E-03 0.  1.
        -12    1    4    4    0    0 -0.38864389052E+01 -0.29956906345E+01  0.50940709928E+01  0.70730565544E+01  0.00000000000E+00 0.  1.
</event>
<event>
 8    1  0.5250708E-010  0.9118800E+02  0.7816164E-02  0.1184000E+00
        -11   -1    0    0    0    0  0.00000000000E+00  0.00000000000E+00  0.45593999997E+02  0.45594000000E+02  0.51100000000E-03 0.  1.
         11   -1    0    0    0    0 -0.00000000000E+00 -0.00000000000E+00 -0.45593999997E+02  0.45594000000E+02  0.51100000000E-03 0. -1.
         23    2    1    2    0    0  0.00000000000E+00  0.71054273576E-14 -0.88817841970E-15  0.91188000000E+02  0.91188000000E+02 0.  0.
    9900012    2    3    3    0    0  0.31016126370E+02 -0.29915980116E+02 -0.51630604739E+01  0.47787272417E+02  0.20000006258E+02 0.  0.
        -12    1    3    3    0    0 -0.31016126370E+02  0.29915980116E+02  0.51630604739E+01  0.43400727583E+02  0.00000000000E+00 0.  1.
         11    1    4    4    0    0  0.50111322301E+00 -0.96254327643E+00  0.28982868643E+01  0.30947812573E+01  0.51100000000E-03 0. -1.
        -11    1    4    4    0    0  0.14306025984E+02 -0.13444603761E+02 -0.10260343018E+02  0.22151622714E+02  0.51100000000E-03 0.  1.
         12    1    4    4    0    0  0.16208987163E+02 -0.15508833078E+02  0.21989956799E+01  0.22540868446E+02  0.00000000000E+00 0. -1.
</event>
<event>
 8    1  0.5250708E-010  0.9118800E+02  0.7816164E-02  0.1184000E+00
        -11   -1    0    0    0    0  0.00000000000E+00  0.00000000000E+00  0.45593999997E+02  0.45594000000E+02  0.51100000000E-03 0. -1.
         11   -1    0    0    0    0 -0.00000000000E+00 -0.00000000000E+00 -0.45593999997E+02  0.45594000000E+02  0.51100000000E-03 0.  1.
         23    2    1    2    0    0 -0.88817841970E-15  0.00000000000E+00  0.00000000000E+00  0.91188000000E+02  0.91188000000E+02 0.  0.
    9900012    2    3    3    0    0 -0.44050911444E+01  0.21561024185E+02 -0.37407762187E+02  0.47787271161E+02  0.20000000532E+02 0.  0.
         12    1    3    3    0    0  0.44050911444E+01 -0.21561024185E+02  0.37407762187E+02  0.43400728839E+02  0.00000000000E+00 0. -1.
         11    1    4    4    0    0  0.53860157254E+01  0.11557031612E+02 -0.27576941347E+02  0.30381932779E+02  0.51100000000E-03 0. -1.
        -11    1    4    4    0    0 -0.22774671436E+01  0.41125097724E+01 -0.22390683514E+01  0.52070164741E+01  0.51100000000E-03 0.  1.
         12    1    4    4    0    0 -0.75136397261E+01  0.58914828004E+01 -0.75917524887E+01  0.12198321908E+02  0.00000000000E+00 0. -1.
</event>
<event>
 8    1  0.5250708E-010  0.9118800E+02  0.7816164E-02  0.1184000E+00
        -11   -1    0    0    0    0  0.00000000000E+00  0.00000000000E+00  0.45593999997E+02  0.45594000000E+02  0.51100000000E-03 0. -1.
         11   -1    0    0    0    0 -0.00000000000E+00 -0.00000000000E+00 -0.45593999997E+02  0.45594000000E+02  0.51100000000E-03 0.  1.
         23    2    1    2    0    0 -0.71054273576E-14  0.44408920985E-15  0.00000000000E+00  0.91188000000E+02  0.91188000000E+02 0.  0.
    9900012    2    3    3    0    0  0.35097104501E+02 -0.37171793656E+01 -0.25258643297E+02  0.47787271573E+02  0.20000002408E+02 0.  0.
         12    1    3    3    0    0 -0.35097104501E+02  0.37171793656E+01  0.25258643297E+02  0.43400728427E+02  0.00000000000E+00 0. -1.
         11    1    4    4    0    0  0.46872162943E+01 -0.50536421208E+01 -0.70544656848E+01  0.98627978603E+01  0.51100000000E-03 0. -1.
        -11    1    4    4    0    0  0.11788174879E+02  0.63263619995E-01  0.90354336831E-01  0.11788690913E+02  0.51100000000E-03 0.  1.
        -12    1    4    4    0    0  0.18621713328E+02  0.12731991351E+01 -0.18294531949E+02  0.26135782800E+02  0.00000000000E+00 0.  1.
</event>
<event>
 8    1  0.5250708E-010  0.9118800E+02  0.7816164E-02  0.1184000E+00
        -11   -1    0    0    0    0  0.00000000000E+00  0.00000000000E+00  0.45593999997E+02  0.45594000000E+02  0.51100000000E-03 0. -1.
         11   -1    0    0    0    0 -0.00000000000E+00 -0.00000000000E+00 -0.45593999997E+02  0.45594000000E+02  0.51100000000E-03 0.  1.
         23    2    1    2    0    0  0.00000000000E+00 -0.35527136788E-14  0.00000000000E+00  0.91188000000E+02  0.91188000000E+02 0.  0.
    9900012    2    3    3    0    0  0.32785115027E+02  0.24771758848E+02  0.13968525520E+02  0.47787268336E+02  0.19999987651E+02 0.  0.
        -12    1    3    3    0    0 -0.32785115027E+02 -0.24771758848E+02 -0.13968525520E+02  0.43400731664E+02  0.00000000000E+00 0.  1.
         11    1    4    4    0    0  0.93987685484E+01  0.75612182910E+01  0.85715150700E+01  0.14797964155E+02  0.51100000000E-03 0. -1.
        -11    1    4    4    0    0  0.18351239350E+02  0.18627331416E+02  0.10191815981E+01  0.26168381546E+02  0.51100000000E-03 0.  1.
        -12    1    4    4    0    0  0.50351071289E+01 -0.14167908590E+01  0.43778288518E+01  0.68209226350E+01  0.00000000000E+00 0.  1.
</event>
<event>
 8    1  0.5250708E-010  0.9118800E+02  0.7816164E-02  0.1184000E+00
        -11   -1    0    0    0    0  0.00000000000E+00  0.00000000000E+00  0.45593999997E+02  0.45594000000E+02  0.51100000000E-03 0. -1.
         11   -1    0    0    0    0 -0.00000000000E+00 -0.00000000000E+00 -0.45593999997E+02  0.45594000000E+02  0.51100000000E-03 0.  1.
         23    2    1    2    0    0  0.00000000000E+00 -0.35527136788E-14  0.35527136788E-14  0.91188000000E+02  0.91188000000E+02 0.  0.
    9900012    2    3    3    0    0  0.13972325393E+02  0.26228167167E+02  0.31630377914E+02  0.47787269168E+02  0.19999991444E+02 0.  0.
        -12    1    3    3    0    0 -0.13972325393E+02 -0.26228167167E+02 -0.31630377914E+02  0.43400730832E+02  0.00000000000E+00 0.  1.
         11    1    4    4    0    0 -0.50650841564E+00  0.19606798792E+02  0.16486399069E+02  0.25621952778E+02  0.51100000000E-03 0. -1.
        -11    1    4    4    0    0  0.38403252532E+01  0.97863253556E+00  0.24067789957E+01  0.46366372605E+01  0.51100000000E-03 0.  1.
         12    1    4    4    0    0  0.10638508555E+02  0.56427358394E+01  0.12737199849E+02  0.17528679129E+02  0.00000000000E+00 0. -1.
</event>
<event>
 8    1  0.5250708E-010  0.9118800E+02  0.7816164E-02  0.1184000E+00
        -11   -1    0    0    0    0  0.00000000000E+00  0.00000000000E+00  0.45593999997E+02  0.45594000000E+02  0.51100000000E-03 0. -1.
         11   -1    0    0    0    0 -0.00000000000E+00 -0.00000000000E+00 -0.45593999997E+02  0.45594000000E+02  0.51100000000E-03 0.  1.
         23    2    1    2    0    0  0.00000000000E+00  0.00000000000E+00  0.00000000000E+00  0.91188000000E+02  0.91188000000E+02 0.  0.
    9900012    2    3    3    0    0  0.10913064905E+02  0.24849570834E+02 -0.33867789106E+02  0.47787270799E+02  0.19999998882E+02 0.  0.
         12    1    3    3    0    0 -0.10913064905E+02 -0.24849570834E+02  0.33867789106E+02  0.43400729201E+02  0.00000000000E+00 0. -1.
         11    1    4    4    0    0  0.15757461860E+01 -0.17623223350E+01 -0.15902369475E+01  0.28491419525E+01  0.51100000000E-03 0. -1.
        -11    1    4    4    0    0  0.76235739522E+01  0.15038066169E+02 -0.27590593990E+02  0.32334241771E+02  0.51100000000E-03 0.  1.
        -12    1    4    4    0    0  0.17137447670E+01  0.11573827000E+02 -0.46869581682E+01  0.12603887076E+02  0.00000000000E+00 0.  1.
</event>
<event>
 8    1  0.5250708E-010  0.9118800E+02  0.7816164E-02  0.1184000E+00
        -11   -1    0    0    0    0  0.00000000000E+00  0.00000000000E+00  0.45593999997E+02  0.45594000000E+02  0.51100000000E-03 0. -1.
         11   -1    0    0    0    0 -0.00000000000E+00 -0.00000000000E+00 -0.45593999997E+02  0.45594000000E+02  0.51100000000E-03 0.  1.
         23    2    1    2    0    0  0.35527136788E-14  0.55511151231E-15 -0.71054273576E-14  0.91188000000E+02  0.91188000000E+02 0.  0.
    9900012    2    3    3    0    0  0.31670703827E+02 -0.72318847831E+00 -0.29665916345E+02  0.47787273335E+02  0.20000010442E+02 0.  0.
         12    1    3    3    0    0 -0.31670703827E+02  0.72318847831E+00  0.29665916345E+02  0.43400726665E+02  0.00000000000E+00 0. -1.
         11    1    4    4    0    0  0.78719316454E+01  0.44455229561E+01 -0.44934121742E+01  0.10095579994E+02  0.51100000000E-03 0. -1.
        -11    1    4    4    0    0  0.18100342772E+02 -0.31090304834E+01 -0.25724272303E+02  0.31607383074E+02  0.51100000000E-03 0.  1.
         12    1    4    4    0    0  0.56984294095E+01 -0.20596809510E+01  0.55176813131E+00  0.60843102670E+01  0.00000000000E+00 0. -1.
</event>
<event>
 8    1  0.5250708E-010  0.9118800E+02  0.7816164E-02  0.1184000E+00
        -11   -1    0    0    0    0  0.00000000000E+00  0.00000000000E+00  0.45593999997E+02  0.45594000000E+02  0.51100000000E-03 0. -1.
         11   -1    0    0    0    0 -0.00000000000E+00 -0.00000000000E+00 -0.45593999997E+02  0.45594000000E+02  0.51100000000E-03 0.  1.
         23    2    1    2    0    0  0.00000000000E+00  0.00000000000E+00  0.00000000000E+00  0.91188000000E+02  0.91188000000E+02 0.  0.
    9900012    2    3    3    0    0  0.16042798687E+02 -0.15459093732E+02 -0.37246057085E+02  0.47787265708E+02  0.19999975668E+02 0.  0.
         12    1    3    3    0    0 -0.16042798687E+02  0.15459093732E+02  0.37246057085E+02  0.43400734292E+02  0.00000000000E+00 0. -1.
         11    1    4    4    0    0  0.33572833759E+01 -0.68538631276E+01 -0.15646392875E+01  0.77906923825E+01  0.51100000000E-03 0. -1.
        -11    1    4    4    0    0  0.34700726654E+01  0.20068526975E+01 -0.84060500955E+01  0.93129233070E+01  0.51100000000E-03 0.  1.
         12    1    4    4    0    0  0.92154426461E+01 -0.10612083302E+02 -0.27275367702E+02  0.30683650018E+02  0.00000000000E+00 0. -1.
</event>
<event>
 8    1  0.5250708E-010  0.9118800E+02  0.7816164E-02  0.1184000E+00
        -11   -1    0    0    0    0  0.00000000000E+00  0.00000000000E+00  0.45593999997E+02  0.45594000000E+02  0.51100000000E-03 0. -1.
         11   -1    0    0    0    0 -0.00000000000E+00 -0.00000000000E+00 -0.45593999997E+02  0.45594000000E+02  0.51100000000E-03 0.  1.
         23    2    1    2    0    0  0.00000000000E+00 -0.88817841970E-15 -0.17763568394E-14  0.91188000000E+02  0.91188000000E+02 0.  0.
    9900012    2    3    3    0    0 -0.41523637941E+02 -0.64967193025E+01 -0.10826058150E+02  0.47787269538E+02  0.19999993131E+02 0.  0.
        -12    1    3    3    0    0  0.41523637941E+02  0.64967193025E+01  0.10826058150E+02  0.43400730462E+02  0.00000000000E+00 0.  1.
         11    1    4    4    0    0 -0.32565965104E+02 -0.30782032407E+01 -0.11886696723E+02  0.34803893138E+02  0.51100000000E-03 0. -1.
        -11    1    4    4    0    0  0.86430966150E-02 -0.80742439363E+00 -0.27731383928E+01  0.28883049807E+01  0.51100000000E-03 0.  1.
         12    1    4    4    0    0 -0.89663159344E+01 -0.26110916682E+01  0.38337769657E+01  0.10095071419E+02  0.00000000000E+00 0. -1.
</event>
<event>
 8    1  0.5250708E-010  0.9118800E+02  0.7816164E-02  0.1184000E+00
        -11   -1    0    0    0    0  0.00000000000E+00  0.00000000000E+00  0.45593999997E+02  0.45594000000E+02  0.51100000000E-03 0. -1.
         11   -1    0    0    0    0 -0.00000000000E+00 -0.00000000000E+00 -0.45593999997E+02  0.45594000000E+02  0.51100000000E-03 0.  1.
         23    2    1    2    0    0 -0.71054273576E-14  0.00000000000E+00 -0.35527136788E-14  0.91188000000E+02  0.91188000000E+02 0.  0.
    9900012    2    3    3    0    0 -0.38242033052E+02 -0.26430941458E+01 -0.20351524970E+02  0.47787267204E+02  0.19999982490E+02 0.  0.
         12    1    3    3    0    0  0.38242033052E+02  0.26430941458E+01  0.20351524970E+02  0.43400732796E+02  0.00000000000E+00 0. -1.
         11    1    4    4    0    0 -0.18091715427E+02  0.12283213644E+01 -0.54468261805E+01  0.18933749131E+02  0.51100000000E-03 0. -1.
        -11    1    4    4    0    0 -0.33832532034E+01 -0.25772730172E+01 -0.10706729446E+02  0.11520537927E+02  0.51100000000E-03 0.  1.
        -12    1    4    4    0    0 -0.16767064422E+02 -0.12941424929E+01 -0.41979693435E+01  0.17332980145E+02  0.00000000000E+00 0.  1.
</event>
<event>
 8    1  0.5250708E-010  0.9118800E+02  0.7816164E-02  0.1184000E+00
        -11   -1    0    0    0    0  0.00000000000E+00  0.00000000000E+00  0.45593999997E+02  0.45594000000E+02  0.51100000000E-03 0. -1.
         11   -1    0    0    0    0 -0.00000000000E+00 -0.00000000000E+00 -0.45593999997E+02  0.45594000000E+02  0.51100000000E-03 0.  1.
         23    2    1    2    0    0 -0.35527136788E-14  0.00000000000E+00 -0.35527136788E-14  0.91188000000E+02  0.91188000000E+02 0.  0.
    9900012    2    3    3    0    0 -0.28809535223E+02 -0.13353895647E+02 -0.29585594246E+02  0.47787271486E+02  0.20000002012E+02 0.  0.
         12    1    3    3    0    0  0.28809535223E+02  0.13353895647E+02  0.29585594246E+02  0.43400728514E+02  0.00000000000E+00 0. -1.
         11    1    4    4    0    0 -0.70202260416E+01 -0.12008680904E+02 -0.73874897751E+01  0.15750142734E+02  0.51100000000E-03 0.  1.
        -11    1    4    4    0    0 -0.36840628554E+01  0.13906563251E+01 -0.78215409667E+01  0.87568685894E+01  0.51100000000E-03 0. -1.
        -12    1    4    4    0    0 -0.18105246326E+02 -0.27358710682E+01 -0.14376563504E+02  0.23280260162E+02  0.00000000000E+00 0.  1.
</event>
<event>
 8    1  0.5250708E-010  0.9118800E+02  0.7816164E-02  0.1184000E+00
        -11   -1    0    0    0    0  0.00000000000E+00  0.00000000000E+00  0.45593999997E+02  0.45594000000E+02  0.51100000000E-03 0.  1.
         11   -1    0    0    0    0 -0.00000000000E+00 -0.00000000000E+00 -0.45593999997E+02  0.45594000000E+02  0.51100000000E-03 0. -1.
         23    2    1    2    0    0  0.00000000000E+00  0.00000000000E+00  0.00000000000E+00  0.91188000000E+02  0.91188000000E+02 0.  0.
    9900012    2    3    3    0    0 -0.13280878455E+02  0.37695173385E+02  0.16920840963E+02  0.47787277794E+02  0.20000030775E+02 0.  0.
        -12    1    3    3    0    0  0.13280878455E+02 -0.37695173385E+02 -0.16920840963E+02  0.43400722206E+02  0.00000000000E+00 0.  1.
         11    1    4    4    0    0 -0.99077569511E+01  0.27820029138E+02  0.14713247305E+02  0.32993898157E+02  0.51100000000E-03 0. -1.
        -11    1    4    4    0    0 -0.15133252667E+01  0.93507814894E+01 -0.24215972353E+01  0.97770855195E+01  0.51100000000E-03 0.  1.
         12    1    4    4    0    0 -0.18597962370E+01  0.52436275751E+00  0.46291908941E+01  0.50162941180E+01  0.00000000000E+00 0. -1.
</event>
<event>
 8    1  0.5250708E-010  0.9118800E+02  0.7816164E-02  0.1184000E+00
        -11   -1    0    0    0    0  0.00000000000E+00  0.00000000000E+00  0.45593999997E+02  0.45594000000E+02  0.51100000000E-03 0. -1.
         11   -1    0    0    0    0 -0.00000000000E+00 -0.00000000000E+00 -0.45593999997E+02  0.45594000000E+02  0.51100000000E-03 0.  1.
         23    2    1    2    0    0  0.35527136788E-14  0.00000000000E+00  0.00000000000E+00  0.91188000000E+02  0.91188000000E+02 0.  0.
    9900012    2    3    3    0    0 -0.18351985210E+02  0.26229633379E+02 -0.29305873635E+02  0.47787271229E+02  0.20000000841E+02 0.  0.
         12    1    3    3    0    0  0.18351985210E+02 -0.26229633379E+02  0.29305873635E+02  0.43400728771E+02  0.00000000000E+00 0. -1.
         11    1    4    4    0    0 -0.83980541438E+00  0.11360132149E+02 -0.12674630032E+02  0.17041247674E+02  0.51100000000E-03 0. -1.
        -11    1    4    4    0    0 -0.72639491132E+01  0.30837623799E+01 -0.12167340092E+02  0.14502369196E+02  0.51100000000E-03 0.  1.
         12    1    4    4    0    0 -0.10248230683E+02  0.11785738850E+02 -0.44639035113E+01  0.16243654359E+02  0.00000000000E+00 0. -1.
</event>
<event>
 8    1  0.5250708E-010  0.9118800E+02  0.7816164E-02  0.1184000E+00
        -11   -1    0    0    0    0  0.00000000000E+00  0.00000000000E+00  0.45593999997E+02  0.45594000000E+02  0.51100000000E-03 0.  1.
         11   -1    0    0    0    0 -0.00000000000E+00 -0.00000000000E+00 -0.45593999997E+02  0.45594000000E+02  0.51100000000E-03 0. -1.
         23    2    1    2    0    0  0.00000000000E+00  0.00000000000E+00  0.00000000000E+00  0.91188000000E+02  0.91188000000E+02 0.  0.
    9900012    2    3    3    0    0 -0.19794493787E+02 -0.35212853248E+02  0.15869981963E+02  0.47787270217E+02  0.19999996226E+02 0.  0.
        -12    1    3    3    0    0  0.19794493787E+02  0.35212853248E+02 -0.15869981963E+02  0.43400729783E+02  0.00000000000E+00 0.  1.
         11    1    4    4    0    0 -0.13877127045E+02 -0.30431613493E+02  0.61098570202E+01  0.33999825115E+02  0.51100000000E-03 0. -1.
        -11    1    4    4    0    0 -0.60010832533E+01 -0.35369477846E+01  0.42987479729E+01  0.81854892487E+01  0.51100000000E-03 0.  1.
         12    1    4    4    0    0  0.83716511355E-01 -0.12442919710E+01  0.54613769703E+01  0.56019558526E+01  0.00000000000E+00 0. -1.
</event>
<event>
 8    1  0.5250708E-010  0.9118800E+02  0.7816164E-02  0.1184000E+00
        -11   -1    0    0    0    0  0.00000000000E+00  0.00000000000E+00  0.45593999997E+02  0.45594000000E+02  0.51100000000E-03 0. -1.
         11   -1    0    0    0    0 -0.00000000000E+00 -0.00000000000E+00 -0.45593999997E+02  0.45594000000E+02  0.51100000000E-03 0.  1.
         23    2    1    2    0    0  0.00000000000E+00  0.00000000000E+00  0.17763568394E-14  0.91188000000E+02  0.91188000000E+02 0.  0.
    9900012    2    3    3    0    0  0.10773637256E+02  0.40739084959E+02  0.10386461586E+02  0.47787275498E+02  0.20000020305E+02 0.  0.
        -12    1    3    3    0    0 -0.10773637256E+02 -0.40739084959E+02 -0.10386461586E+02  0.43400724502E+02  0.00000000000E+00 0.  1.
         11    1    4    4    0    0  0.60747075747E+01  0.89289136204E+01  0.80014455445E+01  0.13440636206E+02  0.51100000000E-03 0. -1.
        -11    1    4    4    0    0 -0.39168378505E+01  0.73704299372E+01  0.37832926581E+00  0.83551175636E+01  0.51100000000E-03 0.  1.
         12    1    4    4    0    0  0.86157675315E+01  0.24439741402E+02  0.20066867754E+01  0.25991521728E+02  0.00000000000E+00 0. -1.
</event>
<event>
 8    1  0.5250708E-010  0.9118800E+02  0.7816164E-02  0.1184000E+00
        -11   -1    0    0    0    0  0.00000000000E+00  0.00000000000E+00  0.45593999997E+02  0.45594000000E+02  0.51100000000E-03 0. -1.
         11   -1    0    0    0    0 -0.00000000000E+00 -0.00000000000E+00 -0.45593999997E+02  0.45594000000E+02  0.51100000000E-03 0.  1.
         23    2    1    2    0    0  0.00000000000E+00  0.00000000000E+00  0.00000000000E+00  0.91188000000E+02  0.91188000000E+02 0.  0.
    9900012    2    3    3    0    0  0.17884885877E+02  0.32041285306E+02  0.23175636328E+02  0.47787271595E+02  0.20000002510E+02 0.  0.
        -12    1    3    3    0    0 -0.17884885877E+02 -0.32041285306E+02 -0.23175636328E+02  0.43400728405E+02  0.00000000000E+00 0.  1.
         11    1    4    4    0    0  0.59513819327E+01  0.11393476410E+01  0.25940634176E+01  0.65913750638E+01  0.51100000000E-03 0.  1.
        -11    1    4    4    0    0  0.37062304062E+01  0.48774602852E+01  0.10389600354E+02  0.12061076172E+02  0.51100000000E-03 0. -1.
        -12    1    4    4    0    0  0.82272735378E+01  0.26024477380E+02  0.10191972556E+02  0.29134820359E+02  0.00000000000E+00 0.  1.
</event>
<event>
 8    1  0.5250708E-010  0.9118800E+02  0.7816164E-02  0.1184000E+00
        -11   -1    0    0    0    0  0.00000000000E+00  0.00000000000E+00  0.45593999997E+02  0.45594000000E+02  0.51100000000E-03 0. -1.
         11   -1    0    0    0    0 -0.00000000000E+00 -0.00000000000E+00 -0.45593999997E+02  0.45594000000E+02  0.51100000000E-03 0.  1.
         23    2    1    2    0    0  0.00000000000E+00  0.00000000000E+00  0.00000000000E+00  0.91188000000E+02  0.91188000000E+02 0.  0.
    9900012    2    3    3    0    0 -0.11451400492E+02 -0.40037783134E+02 -0.12225576082E+02  0.47787270029E+02  0.19999995369E+02 0.  0.
         12    1    3    3    0    0  0.11451400492E+02  0.40037783134E+02  0.12225576082E+02  0.43400729971E+02  0.00000000000E+00 0. -1.
         11    1    4    4    0    0 -0.11303727146E+02 -0.16016516000E+02 -0.68116449272E+01  0.20753350068E+02  0.51100000000E-03 0. -1.
        -11    1    4    4    0    0  0.33412242330E+01 -0.16009058891E+01  0.78115892474E-02  0.37049615818E+01  0.51100000000E-03 0.  1.
        -12    1    4    4    0    0 -0.34888975790E+01 -0.22420361245E+02 -0.54217427438E+01  0.23328958379E+02  0.00000000000E+00 0.  1.
</event>
<event>
 8    1  0.5250708E-010  0.9118800E+02  0.7816164E-02  0.1184000E+00
        -11   -1    0    0    0    0  0.00000000000E+00  0.00000000000E+00  0.45593999997E+02  0.45594000000E+02  0.51100000000E-03 0. -1.
         11   -1    0    0    0    0 -0.00000000000E+00 -0.00000000000E+00 -0.45593999997E+02  0.45594000000E+02  0.51100000000E-03 0.  1.
         23    2    1    2    0    0  0.35527136788E-14  0.00000000000E+00  0.35527136788E-14  0.91188000000E+02  0.91188000000E+02 0.  0.
    9900012    2    3    3    0    0 -0.28974482696E+02 -0.56055738113E+01 -0.31822634595E+02  0.47787272152E+02  0.20000005048E+02 0.  0.
         12    1    3    3    0    0  0.28974482696E+02  0.56055738113E+01  0.31822634595E+02  0.43400727848E+02  0.00000000000E+00 0. -1.
         11    1    4    4    0    0 -0.10709877633E+02  0.73507872753E+00 -0.31124835641E+01  0.11177180943E+02  0.51100000000E-03 0. -1.
        -11    1    4    4    0    0 -0.16999844205E+02 -0.75193347629E+01 -0.18397229608E+02  0.26153262813E+02  0.51100000000E-03 0.  1.
        -12    1    4    4    0    0 -0.12647608578E+01  0.11786822241E+01 -0.10312921423E+02  0.10456828395E+02  0.00000000000E+00 0.  1.
</event>
<event>
 8    1  0.5250708E-010  0.9118800E+02  0.7816164E-02  0.1184000E+00
        -11   -1    0    0    0    0  0.00000000000E+00  0.00000000000E+00  0.45593999997E+02  0.45594000000E+02  0.51100000000E-03 0. -1.
         11   -1    0    0    0    0 -0.00000000000E+00 -0.00000000000E+00 -0.45593999997E+02  0.45594000000E+02  0.51100000000E-03 0.  1.
         23    2    1    2    0    0  0.00000000000E+00  0.00000000000E+00  0.35527136788E-14  0.91188000000E+02  0.91188000000E+02 0.  0.
    9900012    2    3    3    0    0  0.34118347377E+02  0.43497574418E+01  0.26469644750E+02  0.47787261403E+02  0.19999956042E+02 0.  0.
        -12    1    3    3    0    0 -0.34118347377E+02 -0.43497574418E+01 -0.26469644750E+02  0.43400738597E+02  0.00000000000E+00 0.  1.
         11    1    4    4    0    0  0.75590729391E+01 -0.38903776585E+01  0.65690272137E+01  0.10743683764E+02  0.51100000000E-03 0. -1.
        -11    1    4    4    0    0  0.22790700886E+02  0.56756785524E+01  0.88659642635E+01  0.25104475627E+02  0.51100000000E-03 0.  1.
        -12    1    4    4    0    0  0.37685735515E+01  0.25644565479E+01  0.11034653273E+02  0.11939102012E+02  0.00000000000E+00 0.  1.
</event>
<event>
 8    1  0.5250708E-010  0.9118800E+02  0.7816164E-02  0.1184000E+00
        -11   -1    0    0    0    0  0.00000000000E+00  0.00000000000E+00  0.45593999997E+02  0.45594000000E+02  0.51100000000E-03 0. -1.
         11   -1    0    0    0    0 -0.00000000000E+00 -0.00000000000E+00 -0.45593999997E+02  0.45594000000E+02  0.51100000000E-03 0.  1.
         23    2    1    2    0    0  0.00000000000E+00  0.17763568394E-14  0.00000000000E+00  0.91188000000E+02  0.91188000000E+02 0.  0.
    9900012    2    3    3    0    0 -0.18007656567E+02  0.12022183708E+02  0.37614025941E+02  0.47787267937E+02  0.19999985831E+02 0.  0.
        -12    1    3    3    0    0  0.18007656567E+02 -0.12022183708E+02 -0.37614025941E+02  0.43400732063E+02  0.00000000000E+00 0.  1.
         11    1    4    4    0    0 -0.10118295879E+02  0.37961609865E+01  0.20532047915E+02  0.23202494297E+02  0.51100000000E-03 0. -1.
        -11    1    4    4    0    0  0.31904506614E+00 -0.33701818286E+01  0.23688305897E+01  0.41317398195E+01  0.51100000000E-03 0.  1.
         12    1    4    4    0    0 -0.82084057538E+01  0.11596204550E+02  0.14713147436E+02  0.20453033821E+02  0.00000000000E+00 0. -1.
</event>
<event>
 8    1  0.5250708E-010  0.9118800E+02  0.7816164E-02  0.1184000E+00
        -11   -1    0    0    0    0  0.00000000000E+00  0.00000000000E+00  0.45593999997E+02  0.45594000000E+02  0.51100000000E-03 0.  1.
         11   -1    0    0    0    0 -0.00000000000E+00 -0.00000000000E+00 -0.45593999997E+02  0.45594000000E+02  0.51100000000E-03 0. -1.
         23    2    1    2    0    0  0.00000000000E+00 -0.35527136788E-14  0.00000000000E+00  0.91188000000E+02  0.91188000000E+02 0.  0.
    9900012    2    3    3    0    0  0.20797769936E+02 -0.16069597206E+02  0.34537571888E+02  0.47787273501E+02  0.20000011202E+02 0.  0.
        -12    1    3    3    0    0 -0.20797769936E+02  0.16069597206E+02 -0.34537571888E+02  0.43400726499E+02  0.00000000000E+00 0.  1.
         11    1    4    4    0    0  0.36652510108E+01 -0.16436157097E+01 -0.18936512393E+01  0.44408842419E+01  0.51100000000E-03 0. -1.
        -11    1    4    4    0    0  0.17524886111E+01 -0.66617229456E+00  0.54993730160E+00  0.19538252621E+01  0.51100000000E-03 0.  1.
        -12    1    4    4    0    0  0.15380030314E+02 -0.13759809202E+02  0.35881285826E+02  0.41392563997E+02  0.00000000000E+00 0.  1.
</event>
<event>
 8    1  0.5250708E-010  0.9118800E+02  0.7816164E-02  0.1184000E+00
        -11   -1    0    0    0    0  0.00000000000E+00  0.00000000000E+00  0.45593999997E+02  0.45594000000E+02  0.51100000000E-03 0. -1.
         11   -1    0    0    0    0 -0.00000000000E+00 -0.00000000000E+00 -0.45593999997E+02  0.45594000000E+02  0.51100000000E-03 0.  1.
         23    2    1    2    0    0  0.00000000000E+00  0.17763568394E-14  0.00000000000E+00  0.91188000000E+02  0.91188000000E+02 0.  0.
    9900012    2    3    3    0    0  0.22511918258E+02 -0.12223756825E+02  0.35034508750E+02  0.47787268464E+02  0.19999988233E+02 0.  0.
        -12    1    3    3    0    0 -0.22511918258E+02  0.12223756825E+02 -0.35034508750E+02  0.43400731536E+02  0.00000000000E+00 0.  1.
         11    1    4    4    0    0  0.16266231598E+02  0.85447400289E+00  0.15608502999E+02  0.22559826736E+02  0.51100000000E-03 0. -1.
        -11    1    4    4    0    0 -0.63259218055E+00  0.35929322108E+00  0.14808238811E+00  0.74242382801E+00  0.51100000000E-03 0.  1.
         12    1    4    4    0    0  0.68782788398E+01 -0.13437524049E+02  0.19277923363E+02  0.24485017900E+02  0.00000000000E+00 0. -1.
</event>
<event>
 8    1  0.5250708E-010  0.9118800E+02  0.7816164E-02  0.1184000E+00
        -11   -1    0    0    0    0  0.00000000000E+00  0.00000000000E+00  0.45593999997E+02  0.45594000000E+02  0.51100000000E-03 0. -1.
         11   -1    0    0    0    0 -0.00000000000E+00 -0.00000000000E+00 -0.45593999997E+02  0.45594000000E+02  0.51100000000E-03 0.  1.
         23    2    1    2    0    0  0.00000000000E+00  0.00000000000E+00  0.00000000000E+00  0.91188000000E+02  0.91188000000E+02 0.  0.
    9900012    2    3    3    0    0 -0.93987270341E+01  0.38867839768E+02 -0.16869452569E+02  0.47787268807E+02  0.19999989801E+02 0.  0.
         12    1    3    3    0    0  0.93987270341E+01 -0.38867839768E+02  0.16869452569E+02  0.43400731193E+02  0.00000000000E+00 0. -1.
         11    1    4    4    0    0 -0.85355454113E+00 -0.11178443702E+00 -0.26921054774E+01  0.28263905034E+01  0.51100000000E-03 0. -1.
        -11    1    4    4    0    0 -0.10980906960E+02  0.25380354232E+02 -0.43205737501E+01  0.27989463310E+02  0.51100000000E-03 0.  1.
        -12    1    4    4    0    0  0.24357344669E+01  0.13599269973E+02 -0.98567733420E+01  0.16971414994E+02  0.00000000000E+00 0.  1.
</event>
<event>
 8    1  0.5250708E-010  0.9118800E+02  0.7816164E-02  0.1184000E+00
        -11   -1    0    0    0    0  0.00000000000E+00  0.00000000000E+00  0.45593999997E+02  0.45594000000E+02  0.51100000000E-03 0. -1.
         11   -1    0    0    0    0 -0.00000000000E+00 -0.00000000000E+00 -0.45593999997E+02  0.45594000000E+02  0.51100000000E-03 0.  1.
         23    2    1    2    0    0  0.00000000000E+00  0.00000000000E+00  0.00000000000E+00  0.91188000000E+02  0.91188000000E+02 0.  0.
    9900012    2    3    3    0    0 -0.34296964194E+02  0.15540095277E+02  0.21583514160E+02  0.47787258098E+02  0.19999940973E+02 0.  0.
        -12    1    3    3    0    0  0.34296964194E+02 -0.15540095277E+02 -0.21583514160E+02  0.43400741902E+02  0.00000000000E+00 0.  1.
         11    1    4    4    0    0 -0.17241900816E+02  0.82331275537E+01  0.91016137144E+01  0.21163811224E+02  0.51100000000E-03 0. -1.
        -11    1    4    4    0    0 -0.55344861471E+01 -0.15820983128E+01  0.10450729250E+02  0.11931106994E+02  0.51100000000E-03 0.  1.
        -12    1    4    4    0    0 -0.11520577231E+02  0.88890660365E+01  0.20311711952E+01  0.14692339880E+02  0.00000000000E+00 0.  1.
</event>
<event>
 8    1  0.5250708E-010  0.9118800E+02  0.7816164E-02  0.1184000E+00
        -11   -1    0    0    0    0  0.00000000000E+00  0.00000000000E+00  0.45593999997E+02  0.45594000000E+02  0.51100000000E-03 0. -1.
         11   -1    0    0    0    0 -0.00000000000E+00 -0.00000000000E+00 -0.45593999997E+02  0.45594000000E+02  0.51100000000E-03 0.  1.
         23    2    1    2    0    0  0.00000000000E+00 -0.45796699766E-15  0.71054273576E-14  0.91188000000E+02  0.91188000000E+02 0.  0.
    9900012    2    3    3    0    0  0.10508049483E+02  0.67664296490E-01  0.42109355563E+02  0.47787291385E+02  0.20000092739E+02 0.  0.
        -12    1    3    3    0    0 -0.10508049483E+02 -0.67664296490E-01 -0.42109355563E+02  0.43400708615E+02  0.00000000000E+00 0.  1.
         11    1    4    4    0    0  0.42834488879E+01 -0.25138548423E+01  0.18677665421E+02  0.19326732429E+02  0.51100000000E-03 0. -1.
        -11    1    4    4    0    0 -0.19056584784E+01  0.63348183299E+01  0.13832759056E+02  0.15333188869E+02  0.51100000000E-03 0.  1.
        -12    1    4    4    0    0  0.81302590733E+01 -0.37532991912E+01  0.95989310858E+01  0.13127370087E+02  0.00000000000E+00 0.  1.
</event>
<event>
 8    1  0.5250708E-010  0.9118800E+02  0.7816164E-02  0.1184000E+00
        -11   -1    0    0    0    0  0.00000000000E+00  0.00000000000E+00  0.45593999997E+02  0.45594000000E+02  0.51100000000E-03 0. -1.
         11   -1    0    0    0    0 -0.00000000000E+00 -0.00000000000E+00 -0.45593999997E+02  0.45594000000E+02  0.51100000000E-03 0.  1.
         23    2    1    2    0    0  0.00000000000E+00  0.00000000000E+00  0.00000000000E+00  0.91188000000E+02  0.91188000000E+02 0.  0.
    9900012    2    3    3    0    0 -0.36608106341E+02  0.95186361848E+01 -0.21280621048E+02  0.47787277462E+02  0.20000029258E+02 0.  0.
         12    1    3    3    0    0  0.36608106341E+02 -0.95186361848E+01  0.21280621048E+02  0.43400722538E+02  0.00000000000E+00 0. -1.
         11    1    4    4    0    0 -0.95920479062E+01  0.83510252743E+01 -0.80685792932E+01  0.15061506506E+02  0.51100000000E-03 0.  1.
        -11    1    4    4    0    0 -0.14103369281E+02  0.13983613214E+01  0.10775485640E+00  0.14172933742E+02  0.51100000000E-03 0. -1.
        -12    1    4    4    0    0 -0.12912689153E+02 -0.23075041089E+00 -0.13319796611E+02  0.18552837214E+02  0.00000000000E+00 0.  1.
</event>
<event>
 8    1  0.5250708E-010  0.9118800E+02  0.7816164E-02  0.1184000E+00
        -11   -1    0    0    0    0  0.00000000000E+00  0.00000000000E+00  0.45593999997E+02  0.45594000000E+02  0.51100000000E-03 0.  1.
         11   -1    0    0    0    0 -0.00000000000E+00 -0.00000000000E+00 -0.45593999997E+02  0.45594000000E+02  0.51100000000E-03 0. -1.
         23    2    1    2    0    0  0.00000000000E+00 -0.71054273576E-14  0.00000000000E+00  0.91188000000E+02  0.91188000000E+02 0.  0.
    9900012    2    3    3    0    0 -0.11500814183E+02  0.34669428767E+02 -0.23438963357E+02  0.47787273956E+02  0.20000013276E+02 0.  0.
         12    1    3    3    0    0  0.11500814183E+02 -0.34669428767E+02  0.23438963357E+02  0.43400726044E+02  0.00000000000E+00 0. -1.
         11    1    4    4    0    0  0.45952537618E+01  0.65553266237E+01 -0.35122995998E+01  0.87421343514E+01  0.51100000000E-03 0. -1.
        -11    1    4    4    0    0 -0.65456083408E+01  0.10210678022E+02 -0.26954737744E+01  0.12424512600E+02  0.51100000000E-03 0.  1.
        -12    1    4    4    0    0 -0.95504596043E+01  0.17903424121E+02 -0.17231189982E+02  0.26620627005E+02  0.00000000000E+00 0.  1.
</event>
<event>
 8    1  0.5250708E-010  0.9118800E+02  0.7816164E-02  0.1184000E+00
        -11   -1    0    0    0    0  0.00000000000E+00  0.00000000000E+00  0.45593999997E+02  0.45594000000E+02  0.51100000000E-03 0. -1.
         11   -1    0    0    0    0 -0.00000000000E+00 -0.00000000000E+00 -0.45593999997E+02  0.45594000000E+02  0.51100000000E-03 0.  1.
         23    2    1    2    0    0  0.00000000000E+00 -0.17763568394E-14 -0.71054273576E-14  0.91188000000E+02  0.91188000000E+02 0.  0.
    9900012    2    3    3    0    0 -0.53841514856E+01  0.14197217250E+02  0.40658001925E+02  0.47787272064E+02  0.20000004647E+02 0.  0.
        -12    1    3    3    0    0  0.53841514856E+01 -0.14197217250E+02 -0.40658001925E+02  0.43400727936E+02  0.00000000000E+00 0.  1.
         11    1    4    4    0    0 -0.43543479841E+01  0.51683249100E+01  0.42353039646E+01  0.79755707429E+01  0.51100000000E-03 0.  1.
        -11    1    4    4    0    0 -0.15162007689E+01  0.12417332815E+02  0.26247377724E+02  0.29076001387E+02  0.51100000000E-03 0. -1.
         12    1    4    4    0    0  0.48639726743E+00 -0.33884404749E+01  0.10175320237E+02  0.10735699934E+02  0.00000000000E+00 0. -1.
</event>
<event>
 8    1  0.5250708E-010  0.9118800E+02  0.7816164E-02  0.1184000E+00
        -11   -1    0    0    0    0  0.00000000000E+00  0.00000000000E+00  0.45593999997E+02  0.45594000000E+02  0.51100000000E-03 0. -1.
         11   -1    0    0    0    0 -0.00000000000E+00 -0.00000000000E+00 -0.45593999997E+02  0.45594000000E+02  0.51100000000E-03 0.  1.
         23    2    1    2    0    0  0.00000000000E+00  0.17763568394E-14  0.00000000000E+00  0.91188000000E+02  0.91188000000E+02 0.  0.
    9900012    2    3    3    0    0 -0.33401808717E+02  0.11077138543E+02  0.25401557965E+02  0.47787274534E+02  0.20000015911E+02 0.  0.
        -12    1    3    3    0    0  0.33401808717E+02 -0.11077138543E+02 -0.25401557965E+02  0.43400725466E+02  0.00000000000E+00 0.  1.
         11    1    4    4    0    0 -0.12632306605E+02  0.40738469713E+01  0.13864639530E+02  0.19193739314E+02  0.51100000000E-03 0. -1.
        -11    1    4    4    0    0 -0.17315397185E+01 -0.38626401607E+01  0.21488696543E+01  0.47471949465E+01  0.51100000000E-03 0.  1.
         12    1    4    4    0    0 -0.19037962394E+02  0.10865931732E+02  0.93880487812E+01  0.23846340273E+02  0.00000000000E+00 0. -1.
</event>
<event>
 8    1  0.5250708E-010  0.9118800E+02  0.7816164E-02  0.1184000E+00
        -11   -1    0    0    0    0  0.00000000000E+00  0.00000000000E+00  0.45593999997E+02  0.45594000000E+02  0.51100000000E-03 0. -1.
         11   -1    0    0    0    0 -0.00000000000E+00 -0.00000000000E+00 -0.45593999997E+02  0.45594000000E+02  0.51100000000E-03 0.  1.
         23    2    1    2    0    0 -0.33306690739E-15  0.00000000000E+00 -0.71054273576E-14  0.91188000000E+02  0.91188000000E+02 0.  0.
    9900012    2    3    3    0    0  0.67443719606E+00 -0.32265968071E+02 -0.29018547729E+02  0.47787266442E+02  0.19999979016E+02 0.  0.
         12    1    3    3    0    0 -0.67443719606E+00  0.32265968071E+02  0.29018547729E+02  0.43400733558E+02  0.00000000000E+00 0. -1.
         11    1    4    4    0    0 -0.39615228389E+01 -0.26482396602E+02 -0.14641782629E+02  0.30518728542E+02  0.51100000000E-03 0. -1.
        -11    1    4    4    0    0  0.14939640650E+01 -0.62066072751E+01 -0.10005917732E+02  0.11868963410E+02  0.51100000000E-03 0.  1.
         12    1    4    4    0    0  0.31419959700E+01  0.42303580641E+00 -0.43708473674E+01  0.53995744904E+01  0.00000000000E+00 0. -1.
</event>
<event>
 8    1  0.5250708E-010  0.9118800E+02  0.7816164E-02  0.1184000E+00
        -11   -1    0    0    0    0  0.00000000000E+00  0.00000000000E+00  0.45593999997E+02  0.45594000000E+02  0.51100000000E-03 0. -1.
         11   -1    0    0    0    0 -0.00000000000E+00 -0.00000000000E+00 -0.45593999997E+02  0.45594000000E+02  0.51100000000E-03 0.  1.
         23    2    1    2    0    0  0.00000000000E+00  0.00000000000E+00  0.00000000000E+00  0.91188000000E+02  0.91188000000E+02 0.  0.
    9900012    2    3    3    0    0 -0.14387315284E+02 -0.14665886358E+02  0.38230094867E+02  0.47787271696E+02  0.20000002972E+02 0.  0.
        -12    1    3    3    0    0  0.14387315284E+02  0.14665886358E+02 -0.38230094867E+02  0.43400728304E+02  0.00000000000E+00 0.  1.
         11    1    4    4    0    0 -0.48513169709E+01 -0.37764907583E+01  0.18099372187E+02  0.19115031589E+02  0.51100000000E-03 0. -1.
        -11    1    4    4    0    0 -0.50639815317E+01 -0.74132862833E+01  0.21095608454E+02  0.22926522169E+02  0.51100000000E-03 0.  1.
        -12    1    4    4    0    0 -0.44720167816E+01 -0.34761093161E+01 -0.96488577391E+00  0.57457179385E+01  0.00000000000E+00 0.  1.
</event>
<event>
 8    1  0.5250708E-010  0.9118800E+02  0.7816164E-02  0.1184000E+00
        -11   -1    0    0    0    0  0.00000000000E+00  0.00000000000E+00  0.45593999997E+02  0.45594000000E+02  0.51100000000E-03 0. -1.
         11   -1    0    0    0    0 -0.00000000000E+00 -0.00000000000E+00 -0.45593999997E+02  0.45594000000E+02  0.51100000000E-03 0.  1.
         23    2    1    2    0    0 -0.88817841970E-15  0.00000000000E+00  0.00000000000E+00  0.91188000000E+02  0.91188000000E+02 0.  0.
    9900012    2    3    3    0    0 -0.59029803988E+01  0.91032982731E+01 -0.42022708905E+02  0.47787270965E+02  0.19999999637E+02 0.  0.
         12    1    3    3    0    0  0.59029803988E+01 -0.91032982731E+01  0.42022708905E+02  0.43400729035E+02  0.00000000000E+00 0. -1.
         11    1    4    4    0    0 -0.26440515759E+01 -0.31104794716E+01 -0.86155177493E+01  0.95337945031E+01  0.51100000000E-03 0. -1.
        -11    1    4    4    0    0  0.17107993679E+00  0.14152483644E+02 -0.29422758247E+02  0.32649973427E+02  0.51100000000E-03 0.  1.
        -12    1    4    4    0    0 -0.34300087597E+01 -0.19387058996E+01 -0.39844329092E+01  0.56035030351E+01  0.00000000000E+00 0.  1.
</event>
<event>
 8    1  0.5250708E-010  0.9118800E+02  0.7816164E-02  0.1184000E+00
        -11   -1    0    0    0    0  0.00000000000E+00  0.00000000000E+00  0.45593999997E+02  0.45594000000E+02  0.51100000000E-03 0.  1.
         11   -1    0    0    0    0 -0.00000000000E+00 -0.00000000000E+00 -0.45593999997E+02  0.45594000000E+02  0.51100000000E-03 0. -1.
         23    2    1    2    0    0  0.17763568394E-14 -0.71054273576E-14 -0.71054273576E-14  0.91188000000E+02  0.91188000000E+02 0.  0.
    9900012    2    3    3    0    0 -0.13738351050E+02  0.32636273416E+02  0.25094911595E+02  0.47787271665E+02  0.20000002830E+02 0.  0.
        -12    1    3    3    0    0  0.13738351050E+02 -0.32636273416E+02 -0.25094911595E+02  0.43400728335E+02  0.00000000000E+00 0.  1.
         11    1    4    4    0    0 -0.15877675228E+02  0.20507164753E+02  0.16316814102E+02  0.30641194486E+02  0.51100000000E-03 0. -1.
        -11    1    4    4    0    0  0.93564493512E+00  0.85373417506E+01  0.11972930391E+01  0.86715135065E+01  0.51100000000E-03 0.  1.
        -12    1    4    4    0    0  0.12036792428E+01  0.35917669123E+01  0.75808044539E+01  0.84745636726E+01  0.00000000000E+00 0.  1.
</event>
<event>
 8    1  0.5250708E-010  0.9118800E+02  0.7816164E-02  0.1184000E+00
        -11   -1    0    0    0    0  0.00000000000E+00  0.00000000000E+00  0.45593999997E+02  0.45594000000E+02  0.51100000000E-03 0. -1.
         11   -1    0    0    0    0 -0.00000000000E+00 -0.00000000000E+00 -0.45593999997E+02  0.45594000000E+02  0.51100000000E-03 0.  1.
         23    2    1    2    0    0  0.00000000000E+00  0.35527136788E-14  0.00000000000E+00  0.91188000000E+02  0.91188000000E+02 0.  0.
    9900012    2    3    3    0    0  0.19722369557E+02 -0.28372064614E+02 -0.26261717151E+02  0.47787266145E+02  0.19999977663E+02 0.  0.
         12    1    3    3    0    0 -0.19722369557E+02  0.28372064614E+02  0.26261717151E+02  0.43400733855E+02  0.00000000000E+00 0. -1.
         11    1    4    4    0    0  0.49996058233E+01 -0.14607061328E+02 -0.16596826994E+02  0.22667531086E+02  0.51100000000E-03 0. -1.
        -11    1    4    4    0    0  0.51773797016E+01 -0.17743728657E+00 -0.63356664318E+01  0.81839729937E+01  0.51100000000E-03 0.  1.
         12    1    4    4    0    0  0.95453840320E+01 -0.13587566000E+02 -0.33292237253E+01  0.16935762065E+02  0.00000000000E+00 0. -1.
</event>
<event>
 8    1  0.5250708E-010  0.9118800E+02  0.7816164E-02  0.1184000E+00
        -11   -1    0    0    0    0  0.00000000000E+00  0.00000000000E+00  0.45593999997E+02  0.45594000000E+02  0.51100000000E-03 0. -1.
         11   -1    0    0    0    0 -0.00000000000E+00 -0.00000000000E+00 -0.45593999997E+02  0.45594000000E+02  0.51100000000E-03 0.  1.
         23    2    1    2    0    0 -0.17763568394E-14  0.00000000000E+00 -0.35527136788E-14  0.91188000000E+02  0.91188000000E+02 0.  0.
    9900012    2    3    3    0    0  0.84371150856E+01 -0.34263430711E+02  0.25267680972E+02  0.47787270781E+02  0.19999998797E+02 0.  0.
        -12    1    3    3    0    0 -0.84371150856E+01  0.34263430711E+02 -0.25267680972E+02  0.43400729219E+02  0.00000000000E+00 0.  1.
         11    1    4    4    0    0  0.33458720536E+01 -0.14105325596E+02  0.25585724918E+01  0.14720779987E+02  0.51100000000E-03 0. -1.
        -11    1    4    4    0    0  0.44309959569E+01 -0.36595201547E+01  0.10673545273E+01  0.58450884408E+01  0.51100000000E-03 0.  1.
         12    1    4    4    0    0  0.66024707509E+00 -0.16498584960E+02  0.21641753953E+02  0.27221402353E+02  0.00000000000E+00 0. -1.
</event>
<event>
 8    1  0.5250708E-010  0.9118800E+02  0.7816164E-02  0.1184000E+00
        -11   -1    0    0    0    0  0.00000000000E+00  0.00000000000E+00  0.45593999997E+02  0.45594000000E+02  0.51100000000E-03 0. -1.
         11   -1    0    0    0    0 -0.00000000000E+00 -0.00000000000E+00 -0.45593999997E+02  0.45594000000E+02  0.51100000000E-03 0.  1.
         23    2    1    2    0    0  0.00000000000E+00  0.00000000000E+00  0.00000000000E+00  0.91188000000E+02  0.91188000000E+02 0.  0.
    9900012    2    3    3    0    0 -0.11707436290E+02  0.21462828860E+02  0.35859528040E+02  0.47787276061E+02  0.20000022875E+02 0.  0.
        -12    1    3    3    0    0  0.11707436290E+02 -0.21462828860E+02 -0.35859528040E+02  0.43400723939E+02  0.00000000000E+00 0.  1.
         11    1    4    4    0    0 -0.52125011240E+01  0.31874965169E+00  0.23889739569E+01  0.57427315918E+01  0.51100000000E-03 0. -1.
        -11    1    4    4    0    0  0.32968423741E+01  0.79144336217E+01  0.15217862312E+02  0.17466847535E+02  0.51100000000E-03 0.  1.
         12    1    4    4    0    0 -0.97917775402E+01  0.13229645586E+02  0.18252691771E+02  0.24577696935E+02  0.00000000000E+00 0. -1.
</event>
<event>
 8    1  0.5250708E-010  0.9118800E+02  0.7816164E-02  0.1184000E+00
        -11   -1    0    0    0    0  0.00000000000E+00  0.00000000000E+00  0.45593999997E+02  0.45594000000E+02  0.51100000000E-03 0.  1.
         11   -1    0    0    0    0 -0.00000000000E+00 -0.00000000000E+00 -0.45593999997E+02  0.45594000000E+02  0.51100000000E-03 0. -1.
         23    2    1    2    0    0 -0.71054273576E-14  0.00000000000E+00  0.00000000000E+00  0.91188000000E+02  0.91188000000E+02 0.  0.
    9900012    2    3    3    0    0  0.41964627886E+02 -0.10913247781E+02  0.18690929835E+01  0.47787280198E+02  0.20000041735E+02 0.  0.
         12    1    3    3    0    0 -0.41964627886E+02  0.10913247781E+02 -0.18690929835E+01  0.43400719802E+02  0.00000000000E+00 0. -1.
         11    1    4    4    0    0  0.30541623659E+01 -0.27222247701E+01  0.41884848313E+01  0.58550679671E+01  0.51100000000E-03 0. -1.
        -11    1    4    4    0    0  0.31929240079E+02 -0.11547587415E+02 -0.41703777075E+00  0.33955810517E+02  0.51100000000E-03 0.  1.
         12    1    4    4    0    0  0.69812254413E+01  0.33565644043E+01 -0.19023540771E+01  0.79764017136E+01  0.00000000000E+00 0. -1.
</event>
<event>
 8    1  0.5250708E-010  0.9118800E+02  0.7816164E-02  0.1184000E+00
        -11   -1    0    0    0    0  0.00000000000E+00  0.00000000000E+00  0.45593999997E+02  0.45594000000E+02  0.51100000000E-03 0. -1.
         11   -1    0    0    0    0 -0.00000000000E+00 -0.00000000000E+00 -0.45593999997E+02  0.45594000000E+02  0.51100000000E-03 0.  1.
         23    2    1    2    0    0  0.00000000000E+00 -0.35527136788E-14  0.00000000000E+00  0.91188000000E+02  0.91188000000E+02 0.  0.
    9900012    2    3    3    0    0 -0.35303816370E+02  0.18874394782E+02 -0.16763676926E+02  0.47787273131E+02  0.20000009513E+02 0.  0.
         12    1    3    3    0    0  0.35303816370E+02 -0.18874394782E+02  0.16763676926E+02  0.43400726869E+02  0.00000000000E+00 0. -1.
         11    1    4    4    0    0 -0.17060121979E+01  0.17839751729E+01 -0.62289278390E+01  0.67001930809E+01  0.51100000000E-03 0. -1.
        -11    1    4    4    0    0 -0.10785398891E+02  0.58403636053E+01  0.24827335987E+01  0.12513937936E+02  0.51100000000E-03 0.  1.
        -12    1    4    4    0    0 -0.22812405281E+02  0.11250056004E+02 -0.13017482686E+02  0.28573142114E+02  0.00000000000E+00 0.  1.
</event>
<event>
 8    1  0.5250708E-010  0.9118800E+02  0.7816164E-02  0.1184000E+00
        -11   -1    0    0    0    0  0.00000000000E+00  0.00000000000E+00  0.45593999997E+02  0.45594000000E+02  0.51100000000E-03 0. -1.
         11   -1    0    0    0    0 -0.00000000000E+00 -0.00000000000E+00 -0.45593999997E+02  0.45594000000E+02  0.51100000000E-03 0.  1.
         23    2    1    2    0    0  0.00000000000E+00  0.00000000000E+00  0.71054273576E-14  0.91188000000E+02  0.91188000000E+02 0.  0.
    9900012    2    3    3    0    0  0.13310060867E+02 -0.18783737758E+02  0.36791767546E+02  0.47787300886E+02  0.20000136059E+02 0.  0.
        -12    1    3    3    0    0 -0.13310060867E+02  0.18783737758E+02 -0.36791767546E+02  0.43400699114E+02  0.00000000000E+00 0.  1.
         11    1    4    4    0    0 -0.26776798686E+01 -0.46945273986E+01  0.12901001473E+02  0.13987294100E+02  0.51100000000E-03 0. -1.
        -11    1    4    4    0    0 -0.17376683073E+00 -0.51248415602E+01  0.31415887023E+01  0.60136324933E+01  0.51100000000E-03 0.  1.
        -12    1    4    4    0    0  0.16161507566E+02 -0.89643687995E+01  0.20749177371E+02  0.27786374293E+02  0.00000000000E+00 0.  1.
</event>
<event>
 8    1  0.5250708E-010  0.9118800E+02  0.7816164E-02  0.1184000E+00
        -11   -1    0    0    0    0  0.00000000000E+00  0.00000000000E+00  0.45593999997E+02  0.45594000000E+02  0.51100000000E-03 0.  1.
         11   -1    0    0    0    0 -0.00000000000E+00 -0.00000000000E+00 -0.45593999997E+02  0.45594000000E+02  0.51100000000E-03 0. -1.
         23    2    1    2    0    0  0.00000000000E+00  0.00000000000E+00  0.35527136788E-14  0.91188000000E+02  0.91188000000E+02 0.  0.
    9900012    2    3    3    0    0  0.32129693455E+01  0.33157519384E+02 -0.27818661764E+02  0.47787283347E+02  0.20000056090E+02 0.  0.
         12    1    3    3    0    0 -0.32129693455E+01 -0.33157519384E+02  0.27818661764E+02  0.43400716653E+02  0.00000000000E+00 0. -1.
         11    1    4    4    0    0  0.59220048721E+01  0.14983009104E+02 -0.11168087734E+02  0.19603236656E+02  0.51100000000E-03 0. -1.
        -11    1    4    4    0    0  0.33713543053E+01  0.14520615674E+01  0.20222152509E+00  0.36763305692E+01  0.51100000000E-03 0.  1.
        -12    1    4    4    0    0 -0.60803898319E+01  0.16722448712E+02 -0.16852795555E+02  0.24507716121E+02  0.00000000000E+00 0.  1.
</event>
<event>
 8    1  0.5250708E-010  0.9118800E+02  0.7816164E-02  0.1184000E+00
        -11   -1    0    0    0    0  0.00000000000E+00  0.00000000000E+00  0.45593999997E+02  0.45594000000E+02  0.51100000000E-03 0. -1.
         11   -1    0    0    0    0 -0.00000000000E+00 -0.00000000000E+00 -0.45593999997E+02  0.45594000000E+02  0.51100000000E-03 0.  1.
         23    2    1    2    0    0  0.35527136788E-14 -0.17763568394E-14  0.00000000000E+00  0.91188000000E+02  0.91188000000E+02 0.  0.
    9900012    2    3    3    0    0 -0.18763398838E+02  0.14175855613E+02  0.36477439229E+02  0.47787267390E+02  0.19999983340E+02 0.  0.
        -12    1    3    3    0    0  0.18763398838E+02 -0.14175855613E+02 -0.36477439229E+02  0.43400732610E+02  0.00000000000E+00 0.  1.
         11    1    4    4    0    0 -0.19456364519E+02  0.14193217660E+02  0.23546693249E+02  0.33681512897E+02  0.51100000000E-03 0. -1.
        -11    1    4    4    0    0 -0.10836504969E+01  0.58711404696E+00  0.21355233937E+00  0.12508421828E+01  0.51100000000E-03 0.  1.
         12    1    4    4    0    0  0.17766161784E+01 -0.60447609364E+00  0.12717193642E+02  0.12854912310E+02  0.00000000000E+00 0. -1.
</event>
<event>
 8    1  0.5250708E-010  0.9118800E+02  0.7816164E-02  0.1184000E+00
        -11   -1    0    0    0    0  0.00000000000E+00  0.00000000000E+00  0.45593999997E+02  0.45594000000E+02  0.51100000000E-03 0. -1.
         11   -1    0    0    0    0 -0.00000000000E+00 -0.00000000000E+00 -0.45593999997E+02  0.45594000000E+02  0.51100000000E-03 0.  1.
         23    2    1    2    0    0 -0.88817841970E-15 -0.88817841970E-15  0.00000000000E+00  0.91188000000E+02  0.91188000000E+02 0.  0.
    9900012    2    3    3    0    0 -0.43767756488E+01  0.79470054729E+01  0.42441861413E+02  0.47787278102E+02  0.20000032178E+02 0.  0.
        -12    1    3    3    0    0  0.43767756488E+01 -0.79470054729E+01 -0.42441861413E+02  0.43400721898E+02  0.00000000000E+00 0.  1.
         11    1    4    4    0    0 -0.44618392073E+01 -0.12747712361E+01  0.70422868492E+01  0.84336738818E+01  0.51100000000E-03 0. -1.
        -11    1    4    4    0    0  0.17895789403E+01  0.86707130009E+01  0.81137224339E+01  0.12009011147E+02  0.51100000000E-03 0.  1.
        -12    1    4    4    0    0 -0.17045153817E+01  0.55106370810E+00  0.27285852130E+02  0.27344593073E+02  0.00000000000E+00 0.  1.
</event>
<event>
 8    1  0.5250708E-010  0.9118800E+02  0.7816164E-02  0.1184000E+00
        -11   -1    0    0    0    0  0.00000000000E+00  0.00000000000E+00  0.45593999997E+02  0.45594000000E+02  0.51100000000E-03 0. -1.
         11   -1    0    0    0    0 -0.00000000000E+00 -0.00000000000E+00 -0.45593999997E+02  0.45594000000E+02  0.51100000000E-03 0.  1.
         23    2    1    2    0    0 -0.17763568394E-14 -0.22204460493E-15 -0.71054273576E-14  0.91188000000E+02  0.91188000000E+02 0.  0.
    9900012    2    3    3    0    0 -0.87752926772E+01 -0.10752163481E+01 -0.42490720773E+02  0.47787271854E+02  0.20000003693E+02 0.  0.
         12    1    3    3    0    0  0.87752926772E+01  0.10752163481E+01  0.42490720773E+02  0.43400728146E+02  0.00000000000E+00 0. -1.
         11    1    4    4    0    0 -0.57039699130E+01  0.51207755640E+01 -0.12921864518E+02  0.15024386777E+02  0.51100000000E-03 0. -1.
        -11    1    4    4    0    0 -0.30581204815E+01  0.22480612405E+01 -0.18254573494E+02  0.18644981467E+02  0.51100000000E-03 0.  1.
         12    1    4    4    0    0 -0.13202282760E-01 -0.84440531526E+01 -0.11314282761E+02  0.14117903610E+02  0.00000000000E+00 0. -1.
</event>
<event>
 8    1  0.5250708E-010  0.9118800E+02  0.7816164E-02  0.1184000E+00
        -11   -1    0    0    0    0  0.00000000000E+00  0.00000000000E+00  0.45593999997E+02  0.45594000000E+02  0.51100000000E-03 0. -1.
         11   -1    0    0    0    0 -0.00000000000E+00 -0.00000000000E+00 -0.45593999997E+02  0.45594000000E+02  0.51100000000E-03 0.  1.
         23    2    1    2    0    0  0.00000000000E+00  0.71054273576E-14  0.35527136788E-14  0.91188000000E+02  0.91188000000E+02 0.  0.
    9900012    2    3    3    0    0 -0.15168135644E+01 -0.36742588260E+02 -0.23050050846E+02  0.47787270059E+02  0.19999995506E+02 0.  0.
         12    1    3    3    0    0  0.15168135644E+01  0.36742588260E+02  0.23050050846E+02  0.43400729941E+02  0.00000000000E+00 0. -1.
         11    1    4    4    0    0 -0.15477774992E+01  0.57938871796E+00 -0.14057529745E+01  0.21696654488E+01  0.51100000000E-03 0. -1.
        -11    1    4    4    0    0  0.20695256690E+01 -0.24194551392E+02 -0.58470867668E+01  0.24976942917E+02  0.51100000000E-03 0.  1.
        -12    1    4    4    0    0 -0.20385617342E+01 -0.13127425586E+02 -0.15797211104E+02  0.20640661693E+02  0.00000000000E+00 0.  1.
</event>
<event>
 8    1  0.5250708E-010  0.9118800E+02  0.7816164E-02  0.1184000E+00
        -11   -1    0    0    0    0  0.00000000000E+00  0.00000000000E+00  0.45593999997E+02  0.45594000000E+02  0.51100000000E-03 0. -1.
         11   -1    0    0    0    0 -0.00000000000E+00 -0.00000000000E+00 -0.45593999997E+02  0.45594000000E+02  0.51100000000E-03 0.  1.
         23    2    1    2    0    0  0.00000000000E+00  0.00000000000E+00  0.00000000000E+00  0.91188000000E+02  0.91188000000E+02 0.  0.
    9900012    2    3    3    0    0  0.27985675454E+02  0.17350993127E+02 -0.28273091822E+02  0.47787277491E+02  0.20000029393E+02 0.  0.
         12    1    3    3    0    0 -0.27985675454E+02 -0.17350993127E+02  0.28273091822E+02  0.43400722509E+02  0.00000000000E+00 0. -1.
         11    1    4    4    0    0 -0.58600990106E+00 -0.23720539302E+01 -0.78829817689E+00  0.25673842192E+01  0.51100000000E-03 0. -1.
        -11    1    4    4    0    0  0.75583002042E+01  0.10234749137E+02 -0.11637268021E+02  0.17242505593E+02  0.51100000000E-03 0.  1.
         12    1    4    4    0    0  0.21013385151E+02  0.94882979199E+01 -0.15847525624E+02  0.27977387679E+02  0.00000000000E+00 0. -1.
</event>
<event>
 8    1  0.5250708E-010  0.9118800E+02  0.7816164E-02  0.1184000E+00
        -11   -1    0    0    0    0  0.00000000000E+00  0.00000000000E+00  0.45593999997E+02  0.45594000000E+02  0.51100000000E-03 0. -1.
         11   -1    0    0    0    0 -0.00000000000E+00 -0.00000000000E+00 -0.45593999997E+02  0.45594000000E+02  0.51100000000E-03 0.  1.
         23    2    1    2    0    0  0.44408920985E-15  0.88817841970E-15  0.00000000000E+00  0.91188000000E+02  0.91188000000E+02 0.  0.
    9900012    2    3    3    0    0 -0.32724502760E+01 -0.49748261430E+01 -0.42990295308E+02  0.47787270552E+02  0.19999997753E+02 0.  0.
         12    1    3    3    0    0  0.32724502760E+01  0.49748261430E+01  0.42990295308E+02  0.43400729448E+02  0.00000000000E+00 0. -1.
         11    1    4    4    0    0  0.33466559548E+00 -0.15939786410E+00 -0.35714477776E+02  0.35716401440E+02  0.51100000000E-03 0.  1.
        -11    1    4    4    0    0 -0.24106143233E+01 -0.60490234900E+01 -0.79042430165E+01  0.10241035325E+02  0.51100000000E-03 0. -1.
        -12    1    4    4    0    0 -0.11965015481E+01  0.12335952112E+01  0.62842548391E+00  0.18298337871E+01  0.00000000000E+00 0.  1.
</event>
<event>
 8    1  0.5250708E-010  0.9118800E+02  0.7816164E-02  0.1184000E+00
        -11   -1    0    0    0    0  0.00000000000E+00  0.00000000000E+00  0.45593999997E+02  0.45594000000E+02  0.51100000000E-03 0. -1.
         11   -1    0    0    0    0 -0.00000000000E+00 -0.00000000000E+00 -0.45593999997E+02  0.45594000000E+02  0.51100000000E-03 0.  1.
         23    2    1    2    0    0  0.71054273576E-14  0.00000000000E+00  0.00000000000E+00  0.91188000000E+02  0.91188000000E+02 0.  0.
    9900012    2    3    3    0    0 -0.39845499163E+02 -0.16333164015E+02 -0.54025246024E+01  0.47787270486E+02  0.19999997453E+02 0.  0.
         12    1    3    3    0    0  0.39845499163E+02  0.16333164015E+02  0.54025246024E+01  0.43400729514E+02  0.00000000000E+00 0. -1.
         11    1    4    4    0    0 -0.26601340732E+02 -0.23966971152E+01 -0.29758591362E+01  0.26874359968E+02  0.51100000000E-03 0.  1.
        -11    1    4    4    0    0 -0.66334806823E+01 -0.56240881190E+01  0.27184056796E+01  0.91117047161E+01  0.51100000000E-03 0. -1.
        -12    1    4    4    0    0 -0.66106777485E+01 -0.83123787808E+01 -0.51450711458E+01  0.11801205802E+02  0.00000000000E+00 0.  1.
</event>
<event>
 8    1  0.5250708E-010  0.9118800E+02  0.7816164E-02  0.1184000E+00
        -11   -1    0    0    0    0  0.00000000000E+00  0.00000000000E+00  0.45593999997E+02  0.45594000000E+02  0.51100000000E-03 0. -1.
         11   -1    0    0    0    0 -0.00000000000E+00 -0.00000000000E+00 -0.45593999997E+02  0.45594000000E+02  0.51100000000E-03 0.  1.
         23    2    1    2    0    0  0.35527136788E-14 -0.44408920985E-15 -0.35527136788E-14  0.91188000000E+02  0.91188000000E+02 0.  0.
    9900012    2    3    3    0    0  0.31740068555E+02  0.31212149860E+01 -0.29435512897E+02  0.47787270117E+02  0.19999995773E+02 0.  0.
         12    1    3    3    0    0 -0.31740068555E+02 -0.31212149860E+01  0.29435512897E+02  0.43400729883E+02  0.00000000000E+00 0. -1.
         11    1    4    4    0    0  0.20890626466E+02 -0.34161677238E+01 -0.15404935455E+02  0.26180154940E+02  0.51100000000E-03 0. -1.
        -11    1    4    4    0    0  0.68760720328E+01  0.40878344867E+01 -0.13731312374E+01  0.81164183632E+01  0.51100000000E-03 0.  1.
         12    1    4    4    0    0  0.39733700554E+01  0.24495482230E+01 -0.12657446205E+02  0.13490696814E+02  0.00000000000E+00 0. -1.
</event>
<event>
 8    1  0.5250708E-010  0.9118800E+02  0.7816164E-02  0.1184000E+00
        -11   -1    0    0    0    0  0.00000000000E+00  0.00000000000E+00  0.45593999997E+02  0.45594000000E+02  0.51100000000E-03 0. -1.
         11   -1    0    0    0    0 -0.00000000000E+00 -0.00000000000E+00 -0.45593999997E+02  0.45594000000E+02  0.51100000000E-03 0.  1.
         23    2    1    2    0    0  0.71054273576E-14 -0.17763568394E-14  0.00000000000E+00  0.91188000000E+02  0.91188000000E+02 0.  0.
    9900012    2    3    3    0    0  0.32582966631E+02 -0.97022513651E+01  0.26978517216E+02  0.47787265131E+02  0.19999973039E+02 0.  0.
        -12    1    3    3    0    0 -0.32582966631E+02  0.97022513651E+01 -0.26978517216E+02  0.43400734869E+02  0.00000000000E+00 0.  1.
         11    1    4    4    0    0  0.23978059171E+01 -0.57368684979E+01  0.33744893236E+01  0.70744831497E+01  0.51100000000E-03 0.  1.
        -11    1    4    4    0    0  0.26769169343E+02 -0.72082050080E+01  0.16729124201E+02  0.32379163725E+02  0.51100000000E-03 0. -1.
         12    1    4    4    0    0  0.34159913707E+01  0.32428221408E+01  0.68749036912E+01  0.83336182565E+01  0.00000000000E+00 0. -1.
</event>
<event>
 8    1  0.5250708E-010  0.9118800E+02  0.7816164E-02  0.1184000E+00
        -11   -1    0    0    0    0  0.00000000000E+00  0.00000000000E+00  0.45593999997E+02  0.45594000000E+02  0.51100000000E-03 0. -1.
         11   -1    0    0    0    0 -0.00000000000E+00 -0.00000000000E+00 -0.45593999997E+02  0.45594000000E+02  0.51100000000E-03 0.  1.
         23    2    1    2    0    0  0.35527136788E-14  0.44408920985E-15  0.35527136788E-14  0.91188000000E+02  0.91188000000E+02 0.  0.
    9900012    2    3    3    0    0  0.29771505621E+02  0.16153864134E+01 -0.31538415232E+02  0.47787266647E+02  0.19999979951E+02 0.  0.
         12    1    3    3    0    0 -0.29771505621E+02 -0.16153864134E+01  0.31538415232E+02  0.43400733353E+02  0.00000000000E+00 0. -1.
         11    1    4    4    0    0  0.14276801238E+02  0.77049346652E+00 -0.89418052953E+01  0.16863469274E+02  0.51100000000E-03 0. -1.
        -11    1    4    4    0    0  0.11998418757E+02  0.32178957234E+01 -0.23519577217E+02  0.26598635647E+02  0.51100000000E-03 0.  1.
        -12    1    4    4    0    0  0.34962856259E+01 -0.23730027765E+01  0.92296727987E+00  0.43251617259E+01  0.00000000000E+00 0.  1.
</event>
<event>
 8    1  0.5250708E-010  0.9118800E+02  0.7816164E-02  0.1184000E+00
        -11   -1    0    0    0    0  0.00000000000E+00  0.00000000000E+00  0.45593999997E+02  0.45594000000E+02  0.51100000000E-03 0. -1.
         11   -1    0    0    0    0 -0.00000000000E+00 -0.00000000000E+00 -0.45593999997E+02  0.45594000000E+02  0.51100000000E-03 0.  1.
         23    2    1    2    0    0  0.00000000000E+00 -0.35527136788E-14  0.71054273576E-14  0.91188000000E+02  0.91188000000E+02 0.  0.
    9900012    2    3    3    0    0 -0.91584076158E+01 -0.25945151147E+02  0.33564787389E+02  0.47787282834E+02  0.20000053751E+02 0.  0.
        -12    1    3    3    0    0  0.91584076158E+01  0.25945151147E+02 -0.33564787389E+02  0.43400717166E+02  0.00000000000E+00 0.  1.
         11    1    4    4    0    0 -0.53954527040E+01 -0.59913815264E+01  0.12393574409E+02  0.14785406635E+02  0.51100000000E-03 0. -1.
        -11    1    4    4    0    0 -0.30930112835E+01 -0.21954294768E+02  0.15782216585E+02  0.27214630958E+02  0.51100000000E-03 0.  1.
        -12    1    4    4    0    0 -0.66994362830E+00  0.20005251477E+01  0.53889963950E+01  0.57872452408E+01  0.00000000000E+00 0.  1.
</event>
<event>
 8    1  0.5250708E-010  0.9118800E+02  0.7816164E-02  0.1184000E+00
        -11   -1    0    0    0    0  0.00000000000E+00  0.00000000000E+00  0.45593999997E+02  0.45594000000E+02  0.51100000000E-03 0. -1.
         11   -1    0    0    0    0 -0.00000000000E+00 -0.00000000000E+00 -0.45593999997E+02  0.45594000000E+02  0.51100000000E-03 0.  1.
         23    2    1    2    0    0  0.00000000000E+00  0.44408920985E-15  0.00000000000E+00  0.91188000000E+02  0.91188000000E+02 0.  0.
    9900012    2    3    3    0    0  0.38669700632E+02 -0.12939198740E+01  0.19662227624E+02  0.47787272232E+02  0.20000005417E+02 0.  0.
        -12    1    3    3    0    0 -0.38669700632E+02  0.12939198740E+01 -0.19662227624E+02  0.43400727768E+02  0.00000000000E+00 0.  1.
         11    1    4    4    0    0  0.13095061984E+01  0.96408859273E+00 -0.31129002716E+01  0.35120395300E+01  0.51100000000E-03 0. -1.
        -11    1    4    4    0    0  0.11965620924E+02  0.19878641361E+01  0.87476352316E+01  0.14954892521E+02  0.51100000000E-03 0.  1.
         12    1    4    4    0    0  0.25394573510E+02 -0.42458726028E+01  0.14027492664E+02  0.29320340181E+02  0.00000000000E+00 0. -1.
</event>
<event>
 8    1  0.5250708E-010  0.9118800E+02  0.7816164E-02  0.1184000E+00
        -11   -1    0    0    0    0  0.00000000000E+00  0.00000000000E+00  0.45593999997E+02  0.45594000000E+02  0.51100000000E-03 0. -1.
         11   -1    0    0    0    0 -0.00000000000E+00 -0.00000000000E+00 -0.45593999997E+02  0.45594000000E+02  0.51100000000E-03 0.  1.
         23    2    1    2    0    0 -0.88817841970E-15  0.00000000000E+00  0.00000000000E+00  0.91188000000E+02  0.91188000000E+02 0.  0.
    9900012    2    3    3    0    0 -0.61004417458E+01 -0.33855609173E+02 -0.26461401120E+02  0.47787269462E+02  0.19999992786E+02 0.  0.
         12    1    3    3    0    0  0.61004417458E+01  0.33855609173E+02  0.26461401120E+02  0.43400730538E+02  0.00000000000E+00 0. -1.
         11    1    4    4    0    0 -0.32298022508E+01 -0.77679545842E+01 -0.58578648819E+00  0.84330236020E+01  0.51100000000E-03 0. -1.
        -11    1    4    4    0    0 -0.60866093173E+01 -0.15477585805E+02 -0.22065000439E+02  0.27630901541E+02  0.51100000000E-03 0.  1.
        -12    1    4    4    0    0  0.32159698224E+01 -0.10610068784E+02 -0.38106141929E+01  0.11723344319E+02  0.00000000000E+00 0.  1.
</event>
<event>
 8    1  0.5250708E-010  0.9118800E+02  0.7816164E-02  0.1184000E+00
        -11   -1    0    0    0    0  0.00000000000E+00  0.00000000000E+00  0.45593999997E+02  0.45594000000E+02  0.51100000000E-03 0. -1.
         11   -1    0    0    0    0 -0.00000000000E+00 -0.00000000000E+00 -0.45593999997E+02  0.45594000000E+02  0.51100000000E-03 0.  1.
         23    2    1    2    0    0  0.00000000000E+00 -0.35527136788E-14  0.00000000000E+00  0.91188000000E+02  0.91188000000E+02 0.  0.
    9900012    2    3    3    0    0 -0.20833227888E+02 -0.17513136209E+02  0.33806658383E+02  0.47787268726E+02  0.19999989428E+02 0.  0.
        -12    1    3    3    0    0  0.20833227888E+02  0.17513136209E+02 -0.33806658383E+02  0.43400731274E+02  0.00000000000E+00 0.  1.
         11    1    4    4    0    0  0.66165490476E+00  0.61205294408E+00 -0.12796663741E+01  0.15652291556E+01  0.51100000000E-03 0. -1.
        -11    1    4    4    0    0 -0.90633604190E+01 -0.32212545472E+01  0.17796434678E+02  0.20229534608E+02  0.51100000000E-03 0.  1.
         12    1    4    4    0    0 -0.12431522374E+02 -0.14903934606E+02  0.17289890079E+02  0.25992504962E+02  0.00000000000E+00 0. -1.
</event>
<event>
 8    1  0.5250708E-010  0.9118800E+02  0.7816164E-02  0.1184000E+00
        -11   -1    0    0    0    0  0.00000000000E+00  0.00000000000E+00  0.45593999997E+02  0.45594000000E+02  0.51100000000E-03 0. -1.
         11   -1    0    0    0    0 -0.00000000000E+00 -0.00000000000E+00 -0.45593999997E+02  0.45594000000E+02  0.51100000000E-03 0.  1.
         23    2    1    2    0    0  0.00000000000E+00  0.00000000000E+00  0.35527136788E-14  0.91188000000E+02  0.91188000000E+02 0.  0.
    9900012    2    3    3    0    0  0.18083289351E+02  0.34438351896E+02 -0.19251430219E+02  0.47787274193E+02  0.20000014356E+02 0.  0.
         12    1    3    3    0    0 -0.18083289351E+02 -0.34438351896E+02  0.19251430219E+02  0.43400725807E+02  0.00000000000E+00 0. -1.
         11    1    4    4    0    0  0.97439188055E+01  0.96887167995E+01 -0.97218068466E+01  0.16832371061E+02  0.51100000000E-03 0. -1.
        -11    1    4    4    0    0  0.78440051136E+01  0.25082644774E+02 -0.54600027709E+01  0.26841742037E+02  0.51100000000E-03 0.  1.
         12    1    4    4    0    0  0.49536543201E+00 -0.33300967690E+00 -0.40696206013E+01  0.41131610952E+01  0.00000000000E+00 0. -1.
</event>
<event>
 8    1  0.5250708E-010  0.9118800E+02  0.7816164E-02  0.1184000E+00
        -11   -1    0    0    0    0  0.00000000000E+00  0.00000000000E+00  0.45593999997E+02  0.45594000000E+02  0.51100000000E-03 0.  1.
         11   -1    0    0    0    0 -0.00000000000E+00 -0.00000000000E+00 -0.45593999997E+02  0.45594000000E+02  0.51100000000E-03 0. -1.
         23    2    1    2    0    0  0.00000000000E+00  0.00000000000E+00  0.00000000000E+00  0.91188000000E+02  0.91188000000E+02 0.  0.
    9900012    2    3    3    0    0 -0.32512541411E+02 -0.28672113201E+02  0.21137146240E+01  0.47787271735E+02  0.20000003149E+02 0.  0.
         12    1    3    3    0    0  0.32512541411E+02  0.28672113201E+02 -0.21137146240E+01  0.43400728265E+02  0.00000000000E+00 0. -1.
         11    1    4    4    0    0 -0.82140863477E+01 -0.82527984813E+01 -0.63285489572E+01  0.13252563128E+02  0.51100000000E-03 0. -1.
        -11    1    4    4    0    0 -0.17331795208E+02 -0.83947481446E+01  0.24952952032E+01  0.19418790383E+02  0.51100000000E-03 0.  1.
        -12    1    4    4    0    0 -0.69666598555E+01 -0.12024566575E+02  0.59469683780E+01  0.15115918224E+02  0.00000000000E+00 0.  1.
</event>
<event>
 8    1  0.5250708E-010  0.9118800E+02  0.7816164E-02  0.1184000E+00
        -11   -1    0    0    0    0  0.00000000000E+00  0.00000000000E+00  0.45593999997E+02  0.45594000000E+02  0.51100000000E-03 0. -1.
         11   -1    0    0    0    0 -0.00000000000E+00 -0.00000000000E+00 -0.45593999997E+02  0.45594000000E+02  0.51100000000E-03 0.  1.
         23    2    1    2    0    0  0.00000000000E+00  0.00000000000E+00  0.00000000000E+00  0.91188000000E+02  0.91188000000E+02 0.  0.
    9900012    2    3    3    0    0 -0.19018282591E+02 -0.10743212060E+02 -0.37503487835E+02  0.47787270998E+02  0.19999999790E+02 0.  0.
         12    1    3    3    0    0  0.19018282591E+02  0.10743212060E+02  0.37503487835E+02  0.43400729002E+02  0.00000000000E+00 0. -1.
         11    1    4    4    0    0  0.16622390349E+01 -0.19131082925E+01 -0.27787910780E+00  0.25495566297E+01  0.51100000000E-03 0. -1.
        -11    1    4    4    0    0 -0.56683061311E+01  0.19910791927E+01 -0.15927630405E+02  0.17023028559E+02  0.51100000000E-03 0.  1.
        -12    1    4    4    0    0 -0.15012215495E+02 -0.10821182961E+02 -0.21297978323E+02  0.28214685810E+02  0.00000000000E+00 0.  1.
</event>
<event>
 8    1  0.5250708E-010  0.9118800E+02  0.7816164E-02  0.1184000E+00
        -11   -1    0    0    0    0  0.00000000000E+00  0.00000000000E+00  0.45593999997E+02  0.45594000000E+02  0.51100000000E-03 0. -1.
         11   -1    0    0    0    0 -0.00000000000E+00 -0.00000000000E+00 -0.45593999997E+02  0.45594000000E+02  0.51100000000E-03 0.  1.
         23    2    1    2    0    0  0.00000000000E+00 -0.35527136788E-14 -0.71054273576E-14  0.91188000000E+02  0.91188000000E+02 0.  0.
    9900012    2    3    3    0    0  0.45105449842E+01 -0.24000715808E+02  0.35878180141E+02  0.47787272062E+02  0.20000004638E+02 0.  0.
        -12    1    3    3    0    0 -0.45105449842E+01  0.24000715808E+02 -0.35878180141E+02  0.43400727938E+02  0.00000000000E+00 0.  1.
         11    1    4    4    0    0  0.13813024088E+01 -0.15379175749E+02  0.27571276056E+02  0.31600669402E+02  0.51100000000E-03 0. -1.
        -11    1    4    4    0    0  0.57385580117E+01 -0.94943897109E+01  0.61063070967E+01  0.12663390962E+02  0.51100000000E-03 0.  1.
        -12    1    4    4    0    0 -0.26093154363E+01  0.87284965156E+00  0.22005969885E+01  0.35232116976E+01  0.00000000000E+00 0.  1.
</event>
<event>
 8    1  0.5250708E-010  0.9118800E+02  0.7816164E-02  0.1184000E+00
        -11   -1    0    0    0    0  0.00000000000E+00  0.00000000000E+00  0.45593999997E+02  0.45594000000E+02  0.51100000000E-03 0. -1.
         11   -1    0    0    0    0 -0.00000000000E+00 -0.00000000000E+00 -0.45593999997E+02  0.45594000000E+02  0.51100000000E-03 0.  1.
         23    2    1    2    0    0 -0.35527136788E-14 -0.35527136788E-14  0.00000000000E+00  0.91188000000E+02  0.91188000000E+02 0.  0.
    9900012    2    3    3    0    0 -0.20863437110E+02 -0.26442020038E+02  0.27370776874E+02  0.47787275831E+02  0.20000021823E+02 0.  0.
        -12    1    3    3    0    0  0.20863437110E+02  0.26442020038E+02 -0.27370776874E+02  0.43400724169E+02  0.00000000000E+00 0.  1.
         11    1    4    4    0    0 -0.12606386186E+02 -0.16961311110E+02  0.15980033350E+02  0.26494688400E+02  0.51100000000E-03 0. -1.
        -11    1    4    4    0    0  0.23127586729E+01 -0.54185472126E+01  0.69958157681E+01  0.91460890601E+01  0.51100000000E-03 0.  1.
        -12    1    4    4    0    0 -0.10569809596E+02 -0.40621617158E+01  0.43949277550E+01  0.12146498371E+02  0.00000000000E+00 0.  1.
</event>
<event>
 8    1  0.5250708E-010  0.9118800E+02  0.7816164E-02  0.1184000E+00
        -11   -1    0    0    0    0  0.00000000000E+00  0.00000000000E+00  0.45593999997E+02  0.45594000000E+02  0.51100000000E-03 0. -1.
         11   -1    0    0    0    0 -0.00000000000E+00 -0.00000000000E+00 -0.45593999997E+02  0.45594000000E+02  0.51100000000E-03 0.  1.
         23    2    1    2    0    0 -0.71054273576E-14  0.00000000000E+00  0.00000000000E+00  0.91188000000E+02  0.91188000000E+02 0.  0.
    9900012    2    3    3    0    0  0.42772986657E+02 -0.58830366374E+01 -0.44141633485E+01  0.47787270217E+02  0.19999996227E+02 0.  0.
        -12    1    3    3    0    0 -0.42772986657E+02  0.58830366374E+01  0.44141633485E+01  0.43400729783E+02  0.00000000000E+00 0.  1.
         11    1    4    4    0    0  0.27148405643E+02  0.40572979012E-02  0.25323653851E+01  0.27266257905E+02  0.51100000000E-03 0. -1.
        -11    1    4    4    0    0  0.16086988971E+02 -0.30559516615E+01 -0.65009520262E+01  0.17617957663E+02  0.51100000000E-03 0.  1.
         12    1    4    4    0    0 -0.46240795718E+00 -0.28311422738E+01 -0.44557670743E+00  0.29030546491E+01  0.00000000000E+00 0. -1.
</event>
<event>
 8    1  0.5250708E-010  0.9118800E+02  0.7816164E-02  0.1184000E+00
        -11   -1    0    0    0    0  0.00000000000E+00  0.00000000000E+00  0.45593999997E+02  0.45594000000E+02  0.51100000000E-03 0. -1.
         11   -1    0    0    0    0 -0.00000000000E+00 -0.00000000000E+00 -0.45593999997E+02  0.45594000000E+02  0.51100000000E-03 0.  1.
         23    2    1    2    0    0  0.00000000000E+00  0.00000000000E+00  0.00000000000E+00  0.91188000000E+02  0.91188000000E+02 0.  0.
    9900012    2    3    3    0    0 -0.21680449968E+02  0.19902879105E+02  0.31897600810E+02  0.47787269074E+02  0.19999991015E+02 0.  0.
        -12    1    3    3    0    0  0.21680449968E+02 -0.19902879105E+02 -0.31897600810E+02  0.43400730926E+02  0.00000000000E+00 0.  1.
         11    1    4    4    0    0 -0.15197341756E+01  0.15120318429E+01  0.67052718906E+01  0.70396380338E+01  0.51100000000E-03 0. -1.
        -11    1    4    4    0    0  0.39858120350E+00 -0.92516472766E+00 -0.15684285198E+01  0.18640721639E+01  0.51100000000E-03 0.  1.
         12    1    4    4    0    0 -0.20559296996E+02  0.19316011990E+02  0.26760757439E+02  0.38883558876E+02  0.00000000000E+00 0. -1.
</event>
<event>
 8    1  0.5250708E-010  0.9118800E+02  0.7816164E-02  0.1184000E+00
        -11   -1    0    0    0    0  0.00000000000E+00  0.00000000000E+00  0.45593999997E+02  0.45594000000E+02  0.51100000000E-03 0. -1.
         11   -1    0    0    0    0 -0.00000000000E+00 -0.00000000000E+00 -0.45593999997E+02  0.45594000000E+02  0.51100000000E-03 0.  1.
         23    2    1    2    0    0 -0.35527136788E-14 -0.17763568394E-14  0.00000000000E+00  0.91188000000E+02  0.91188000000E+02 0.  0.
    9900012    2    3    3    0    0  0.22792305623E+02  0.14358967176E+02 -0.34028713428E+02  0.47787280288E+02  0.20000042144E+02 0.  0.
         12    1    3    3    0    0 -0.22792305623E+02 -0.14358967176E+02  0.34028713428E+02  0.43400719712E+02  0.00000000000E+00 0. -1.
         11    1    4    4    0    0  0.12890982885E+01 -0.27903149205E+01  0.95459823043E+00  0.32185229214E+01  0.51100000000E-03 0. -1.
        -11    1    4    4    0    0  0.99764023137E+01  0.67126852226E+01 -0.14071814000E+02  0.18509583883E+02  0.51100000000E-03 0.  1.
         12    1    4    4    0    0  0.11526805021E+02  0.10436596874E+02 -0.20911497659E+02  0.26059173483E+02  0.00000000000E+00 0. -1.
</event>
<event>
 8    1  0.5250708E-010  0.9118800E+02  0.7816164E-02  0.1184000E+00
        -11   -1    0    0    0    0  0.00000000000E+00  0.00000000000E+00  0.45593999997E+02  0.45594000000E+02  0.51100000000E-03 0. -1.
         11   -1    0    0    0    0 -0.00000000000E+00 -0.00000000000E+00 -0.45593999997E+02  0.45594000000E+02  0.51100000000E-03 0.  1.
         23    2    1    2    0    0  0.00000000000E+00  0.00000000000E+00  0.71054273576E-14  0.91188000000E+02  0.91188000000E+02 0.  0.
    9900012    2    3    3    0    0  0.26306318892E+02 -0.11735557205E+02 -0.32463472527E+02  0.47787276906E+02  0.20000026727E+02 0.  0.
         12    1    3    3    0    0 -0.26306318892E+02  0.11735557205E+02  0.32463472527E+02  0.43400723094E+02  0.00000000000E+00 0. -1.
         11    1    4    4    0    0  0.10047781803E+02 -0.42284335163E+01 -0.85627727593E+01  0.13862129950E+02  0.51100000000E-03 0.  1.
        -11    1    4    4    0    0  0.17155827344E+01 -0.54300262438E+01 -0.16541738566E+02  0.17494499826E+02  0.51100000000E-03 0. -1.
         12    1    4    4    0    0  0.14542954354E+02 -0.20770974446E+01 -0.73589612017E+01  0.16430647130E+02  0.00000000000E+00 0. -1.
</event>
<event>
 8    1  0.5250708E-010  0.9118800E+02  0.7816164E-02  0.1184000E+00
        -11   -1    0    0    0    0  0.00000000000E+00  0.00000000000E+00  0.45593999997E+02  0.45594000000E+02  0.51100000000E-03 0.  1.
         11   -1    0    0    0    0 -0.00000000000E+00 -0.00000000000E+00 -0.45593999997E+02  0.45594000000E+02  0.51100000000E-03 0. -1.
         23    2    1    2    0    0 -0.88817841970E-15  0.00000000000E+00  0.35527136788E-14  0.91188000000E+02  0.91188000000E+02 0.  0.
    9900012    2    3    3    0    0  0.59976797749E+01  0.38317942031E+02 -0.19477833830E+02  0.47787275871E+02  0.20000022008E+02 0.  0.
         12    1    3    3    0    0 -0.59976797749E+01 -0.38317942031E+02  0.19477833830E+02  0.43400724129E+02  0.00000000000E+00 0. -1.
         11    1    4    4    0    0  0.34389747334E+01  0.15935468743E+01  0.11905502433E+01  0.39728263240E+01  0.51100000000E-03 0. -1.
        -11    1    4    4    0    0 -0.60723711555E+00  0.25483338355E+02 -0.83095873105E+01  0.26810790965E+02  0.51100000000E-03 0.  1.
         12    1    4    4    0    0  0.31659421571E+01  0.11241056801E+02 -0.12358796763E+02  0.17003658582E+02  0.00000000000E+00 0. -1.
</event>
<event>
 8    1  0.5250708E-010  0.9118800E+02  0.7816164E-02  0.1184000E+00
        -11   -1    0    0    0    0  0.00000000000E+00  0.00000000000E+00  0.45593999997E+02  0.45594000000E+02  0.51100000000E-03 0. -1.
         11   -1    0    0    0    0 -0.00000000000E+00 -0.00000000000E+00 -0.45593999997E+02  0.45594000000E+02  0.51100000000E-03 0.  1.
         23    2    1    2    0    0 -0.35527136788E-14  0.35527136788E-14  0.00000000000E+00  0.91188000000E+02  0.91188000000E+02 0.  0.
    9900012    2    3    3    0    0 -0.18546026737E+02  0.26721937887E+02  0.28733282483E+02  0.47787324955E+02  0.20000245798E+02 0.  0.
        -12    1    3    3    0    0  0.18546026737E+02 -0.26721937887E+02 -0.28733282483E+02  0.43400675045E+02  0.00000000000E+00 0.  1.
         11    1    4    4    0    0 -0.10806873027E+02  0.14022535421E+02  0.50461786348E+01  0.18408800160E+02  0.51100000000E-03 0. -1.
        -11    1    4    4    0    0  0.72524756666E-01  0.17309717637E+01 -0.40441612360E+00  0.17790659767E+01  0.51100000000E-03 0.  1.
        -12    1    4    4    0    0 -0.78116784663E+01  0.10968430702E+02  0.24091519971E+02  0.27599458818E+02  0.00000000000E+00 0.  1.
</event>
<event>
 8    1  0.5250708E-010  0.9118800E+02  0.7816164E-02  0.1184000E+00
        -11   -1    0    0    0    0  0.00000000000E+00  0.00000000000E+00  0.45593999997E+02  0.45594000000E+02  0.51100000000E-03 0. -1.
         11   -1    0    0    0    0 -0.00000000000E+00 -0.00000000000E+00 -0.45593999997E+02  0.45594000000E+02  0.51100000000E-03 0.  1.
         23    2    1    2    0    0  0.00000000000E+00  0.11102230246E-15  0.00000000000E+00  0.91188000000E+02  0.91188000000E+02 0.  0.
    9900012    2    3    3    0    0 -0.39872152053E+02  0.60762404062E+00 -0.17130827276E+02  0.47787274666E+02  0.20000016513E+02 0.  0.
         12    1    3    3    0    0  0.39872152053E+02 -0.60762404062E+00  0.17130827276E+02  0.43400725334E+02  0.00000000000E+00 0. -1.
         11    1    4    4    0    0 -0.84933637817E+01 -0.50198262943E+01 -0.76208317613E+01  0.12466473493E+02  0.51100000000E-03 0. -1.
        -11    1    4    4    0    0 -0.23426625451E+02  0.46822897181E+01 -0.12261905887E+02  0.26853025030E+02  0.51100000000E-03 0.  1.
         12    1    4    4    0    0 -0.79521628203E+01  0.94516061681E+00  0.27519103722E+01  0.84677761430E+01  0.00000000000E+00 0. -1.
</event>
<event>
 8    1  0.5250708E-010  0.9118800E+02  0.7816164E-02  0.1184000E+00
        -11   -1    0    0    0    0  0.00000000000E+00  0.00000000000E+00  0.45593999997E+02  0.45594000000E+02  0.51100000000E-03 0.  1.
         11   -1    0    0    0    0 -0.00000000000E+00 -0.00000000000E+00 -0.45593999997E+02  0.45594000000E+02  0.51100000000E-03 0. -1.
         23    2    1    2    0    0 -0.66613381478E-15  0.00000000000E+00  0.44408920985E-15  0.91188000000E+02  0.91188000000E+02 0.  0.
    9900012    2    3    3    0    0 -0.18374025757E+01 -0.43206060973E+02  0.36720163440E+01  0.47787268934E+02  0.19999990376E+02 0.  0.
        -12    1    3    3    0    0  0.18374025757E+01  0.43206060973E+02 -0.36720163440E+01  0.43400731066E+02  0.00000000000E+00 0.  1.
         11    1    4    4    0    0 -0.42403146516E+01 -0.38247013805E+02  0.67371109530E+01  0.39066648149E+02  0.51100000000E-03 0. -1.
        -11    1    4    4    0    0 -0.17698623314E+01 -0.38364192541E+00 -0.14529053642E+01  0.23217510757E+01  0.51100000000E-03 0.  1.
        -12    1    4    4    0    0  0.41727744072E+01 -0.45754052426E+01 -0.16121892449E+01  0.63988697087E+01  0.00000000000E+00 0.  1.
</event>
<event>
 8    1  0.5250708E-010  0.9118800E+02  0.7816164E-02  0.1184000E+00
        -11   -1    0    0    0    0  0.00000000000E+00  0.00000000000E+00  0.45593999997E+02  0.45594000000E+02  0.51100000000E-03 0. -1.
         11   -1    0    0    0    0 -0.00000000000E+00 -0.00000000000E+00 -0.45593999997E+02  0.45594000000E+02  0.51100000000E-03 0.  1.
         23    2    1    2    0    0  0.00000000000E+00  0.00000000000E+00  0.35527136788E-14  0.91188000000E+02  0.91188000000E+02 0.  0.
    9900012    2    3    3    0    0  0.25894562972E+02 -0.15924753644E+02  0.30975749527E+02  0.47787271563E+02  0.20000002363E+02 0.  0.
        -12    1    3    3    0    0 -0.25894562972E+02  0.15924753644E+02 -0.30975749527E+02  0.43400728437E+02  0.00000000000E+00 0.  1.
         11    1    4    4    0    0  0.12286370085E+02 -0.22949144026E+01  0.65544422069E+01  0.14113193646E+02  0.51100000000E-03 0. -1.
        -11    1    4    4    0    0  0.15825751064E+02 -0.13747132273E+02  0.22195144131E+02  0.30529698094E+02  0.51100000000E-03 0.  1.
        -12    1    4    4    0    0 -0.22175581768E+01  0.11729303226E+00  0.22261631889E+01  0.31443798223E+01  0.00000000000E+00 0.  1.
</event>
<event>
 8    1  0.5250708E-010  0.9118800E+02  0.7816164E-02  0.1184000E+00
        -11   -1    0    0    0    0  0.00000000000E+00  0.00000000000E+00  0.45593999997E+02  0.45594000000E+02  0.51100000000E-03 0.  1.
         11   -1    0    0    0    0 -0.00000000000E+00 -0.00000000000E+00 -0.45593999997E+02  0.45594000000E+02  0.51100000000E-03 0. -1.
         23    2    1    2    0    0 -0.35527136788E-14  0.00000000000E+00  0.00000000000E+00  0.91188000000E+02  0.91188000000E+02 0.  0.
    9900012    2    3    3    0    0  0.20682150400E+02 -0.37770546080E+02  0.54090434733E+01  0.47787271347E+02  0.20000001379E+02 0.  0.
         12    1    3    3    0    0 -0.20682150400E+02  0.37770546080E+02 -0.54090434733E+01  0.43400728653E+02  0.00000000000E+00 0. -1.
         11    1    4    4    0    0  0.81507961979E+01 -0.75874709864E+01  0.65889466446E+01  0.12939065375E+02  0.51100000000E-03 0. -1.
        -11    1    4    4    0    0  0.33498476453E+01 -0.31585884974E+01 -0.40902649738E+01  0.61586060403E+01  0.51100000000E-03 0.  1.
         12    1    4    4    0    0  0.91815065567E+01 -0.27024486596E+02  0.29103618025E+01  0.28689599932E+02  0.00000000000E+00 0. -1.
</event>
<event>
 8    1  0.5250708E-010  0.9118800E+02  0.7816164E-02  0.1184000E+00
        -11   -1    0    0    0    0  0.00000000000E+00  0.00000000000E+00  0.45593999997E+02  0.45594000000E+02  0.51100000000E-03 0. -1.
         11   -1    0    0    0    0 -0.00000000000E+00 -0.00000000000E+00 -0.45593999997E+02  0.45594000000E+02  0.51100000000E-03 0.  1.
         23    2    1    2    0    0  0.33306690739E-15  0.00000000000E+00  0.00000000000E+00  0.91188000000E+02  0.91188000000E+02 0.  0.
    9900012    2    3    3    0    0  0.80886723657E+00  0.37191666554E+02  0.22355062708E+02  0.47787272403E+02  0.20000006193E+02 0.  0.
        -12    1    3    3    0    0 -0.80886723657E+00 -0.37191666554E+02 -0.22355062708E+02  0.43400727597E+02  0.00000000000E+00 0.  1.
         11    1    4    4    0    0 -0.65266848697E+01  0.21238003941E+02  0.12020351674E+02  0.25261418833E+02  0.51100000000E-03 0. -1.
        -11    1    4    4    0    0  0.11406568985E+01  0.10799068004E+02  0.22091337449E+01  0.11081572094E+02  0.51100000000E-03 0.  1.
        -12    1    4    4    0    0  0.61948952077E+01  0.51545946086E+01  0.81255772892E+01  0.11444281476E+02  0.00000000000E+00 0.  1.
</event>
<event>
 8    1  0.5250708E-010  0.9118800E+02  0.7816164E-02  0.1184000E+00
        -11   -1    0    0    0    0  0.00000000000E+00  0.00000000000E+00  0.45593999997E+02  0.45594000000E+02  0.51100000000E-03 0.  1.
         11   -1    0    0    0    0 -0.00000000000E+00 -0.00000000000E+00 -0.45593999997E+02  0.45594000000E+02  0.51100000000E-03 0. -1.
         23    2    1    2    0    0 -0.44408920985E-15  0.00000000000E+00  0.00000000000E+00  0.91188000000E+02  0.91188000000E+02 0.  0.
    9900012    2    3    3    0    0 -0.21019615785E+01 -0.43117566004E+02 -0.44811249943E+01  0.47787271644E+02  0.20000002735E+02 0.  0.
        -12    1    3    3    0    0  0.21019615785E+01  0.43117566004E+02  0.44811249943E+01  0.43400728356E+02  0.00000000000E+00 0.  1.
         11    1    4    4    0    0 -0.70090845416E-01 -0.10559052445E+02 -0.73524117082E+01  0.12866874502E+02  0.51100000000E-03 0.  1.
        -11    1    4    4    0    0  0.44845659072E+01 -0.21459263659E+02  0.14361274470E+01  0.21969838199E+02  0.51100000000E-03 0. -1.
        -12    1    4    4    0    0 -0.65164366403E+01 -0.11099249900E+02  0.14351592670E+01  0.12950558944E+02  0.00000000000E+00 0.  1.
</event>
<event>
 8    1  0.5250708E-010  0.9118800E+02  0.7816164E-02  0.1184000E+00
        -11   -1    0    0    0    0  0.00000000000E+00  0.00000000000E+00  0.45593999997E+02  0.45594000000E+02  0.51100000000E-03 0. -1.
         11   -1    0    0    0    0 -0.00000000000E+00 -0.00000000000E+00 -0.45593999997E+02  0.45594000000E+02  0.51100000000E-03 0.  1.
         23    2    1    2    0    0  0.00000000000E+00  0.00000000000E+00  0.71054273576E-14  0.91188000000E+02  0.91188000000E+02 0.  0.
    9900012    2    3    3    0    0  0.20186868625E+02 -0.11496404889E+02  0.36659897573E+02  0.47787250234E+02  0.19999905115E+02 0.  0.
        -12    1    3    3    0    0 -0.20186868625E+02  0.11496404889E+02 -0.36659897573E+02  0.43400749766E+02  0.00000000000E+00 0.  1.
         11    1    4    4    0    0  0.60701688780E+01 -0.78692286079E+01  0.87353662811E+01  0.13231716949E+02  0.51100000000E-03 0. -1.
        -11    1    4    4    0    0  0.10162439318E+02 -0.76158071942E+01  0.25399820399E+02  0.28397650760E+02  0.51100000000E-03 0.  1.
        -12    1    4    4    0    0  0.39542604283E+01  0.39886309129E+01  0.25247108923E+01  0.61578825244E+01  0.00000000000E+00 0.  1.
</event>
<event>
 8    1  0.5250708E-010  0.9118800E+02  0.7816164E-02  0.1184000E+00
        -11   -1    0    0    0    0  0.00000000000E+00  0.00000000000E+00  0.45593999997E+02  0.45594000000E+02  0.51100000000E-03 0.  1.
         11   -1    0    0    0    0 -0.00000000000E+00 -0.00000000000E+00 -0.45593999997E+02  0.45594000000E+02  0.51100000000E-03 0. -1.
         23    2    1    2    0    0  0.00000000000E+00  0.00000000000E+00  0.17763568394E-14  0.91188000000E+02  0.91188000000E+02 0.  0.
    9900012    2    3    3    0    0 -0.34140795010E+02  0.23621979290E+02 -0.12650366766E+02  0.47787267646E+02  0.19999984507E+02 0.  0.
         12    1    3    3    0    0  0.34140795010E+02 -0.23621979290E+02  0.12650366766E+02  0.43400732354E+02  0.00000000000E+00 0. -1.
         11    1    4    4    0    0 -0.19406291164E+01  0.67344993117E+01  0.22182509503E+01  0.73512012547E+01  0.51100000000E-03 0. -1.
        -11    1    4    4    0    0 -0.11249112239E+02  0.99740262390E+01 -0.93136367519E+01  0.17685235520E+02  0.51100000000E-03 0.  1.
        -12    1    4    4    0    0 -0.20951053655E+02  0.69134537397E+01 -0.55549809641E+01  0.22750830872E+02  0.00000000000E+00 0.  1.
</event>
<event>
 8    1  0.5250708E-010  0.9118800E+02  0.7816164E-02  0.1184000E+00
        -11   -1    0    0    0    0  0.00000000000E+00  0.00000000000E+00  0.45593999997E+02  0.45594000000E+02  0.51100000000E-03 0. -1.
         11   -1    0    0    0    0 -0.00000000000E+00 -0.00000000000E+00 -0.45593999997E+02  0.45594000000E+02  0.51100000000E-03 0.  1.
         23    2    1    2    0    0  0.00000000000E+00 -0.71054273576E-14 -0.35527136788E-14  0.91188000000E+02  0.91188000000E+02 0.  0.
    9900012    2    3    3    0    0  0.19162802601E+02  0.34257813436E+02  0.18515198865E+02  0.47787269891E+02  0.19999994741E+02 0.  0.
        -12    1    3    3    0    0 -0.19162802601E+02 -0.34257813436E+02 -0.18515198865E+02  0.43400730109E+02  0.00000000000E+00 0.  1.
         11    1    4    4    0    0  0.11432048991E+02  0.22321567796E+02  0.57212130945E+01  0.25723071600E+02  0.51100000000E-03 0. -1.
        -11    1    4    4    0    0  0.98862604388E+01  0.60928502664E+01  0.95859897084E+01  0.15058292359E+02  0.51100000000E-03 0.  1.
         12    1    4    4    0    0 -0.21555068286E+01  0.58433953738E+01  0.32079960626E+01  0.70059059315E+01  0.00000000000E+00 0. -1.
</event>
<event>
 8    1  0.5250708E-010  0.9118800E+02  0.7816164E-02  0.1184000E+00
        -11   -1    0    0    0    0  0.00000000000E+00  0.00000000000E+00  0.45593999997E+02  0.45594000000E+02  0.51100000000E-03 0. -1.
         11   -1    0    0    0    0 -0.00000000000E+00 -0.00000000000E+00 -0.45593999997E+02  0.45594000000E+02  0.51100000000E-03 0.  1.
         23    2    1    2    0    0  0.00000000000E+00  0.00000000000E+00  0.00000000000E+00  0.91188000000E+02  0.91188000000E+02 0.  0.
    9900012    2    3    3    0    0 -0.97159615364E+01  0.25216559047E+02  0.33960979239E+02  0.47787275702E+02  0.20000021234E+02 0.  0.
        -12    1    3    3    0    0  0.97159615364E+01 -0.25216559047E+02 -0.33960979239E+02  0.43400724298E+02  0.00000000000E+00 0.  1.
         11    1    4    4    0    0 -0.62649498869E+00  0.34975726499E+01  0.12102335366E+02  0.12613168991E+02  0.51100000000E-03 0. -1.
        -11    1    4    4    0    0  0.98376879887E+00  0.12057664505E+02  0.45174713800E+01  0.12913660298E+02  0.51100000000E-03 0.  1.
        -12    1    4    4    0    0 -0.10073235347E+02  0.96613218919E+01  0.17341172493E+02  0.22260446412E+02  0.00000000000E+00 0.  1.
</event>
<event>
 8    1  0.5250708E-010  0.9118800E+02  0.7816164E-02  0.1184000E+00
        -11   -1    0    0    0    0  0.00000000000E+00  0.00000000000E+00  0.45593999997E+02  0.45594000000E+02  0.51100000000E-03 0. -1.
         11   -1    0    0    0    0 -0.00000000000E+00 -0.00000000000E+00 -0.45593999997E+02  0.45594000000E+02  0.51100000000E-03 0.  1.
         23    2    1    2    0    0 -0.88817841970E-15  0.00000000000E+00  0.00000000000E+00  0.91188000000E+02  0.91188000000E+02 0.  0.
    9900012    2    3    3    0    0  0.70393559809E+01  0.14436528927E+02 -0.40319441932E+02  0.47787270769E+02  0.19999998742E+02 0.  0.
         12    1    3    3    0    0 -0.70393559809E+01 -0.14436528927E+02  0.40319441932E+02  0.43400729231E+02  0.00000000000E+00 0. -1.
         11    1    4    4    0    0  0.10596834647E+02  0.65472555918E+01 -0.13461689507E+02  0.18340571010E+02  0.51100000000E-03 0. -1.
        -11    1    4    4    0    0 -0.77470804101E+00 -0.17809224673E+01 -0.56091663753E+01  0.59358744150E+01  0.51100000000E-03 0.  1.
        -12    1    4    4    0    0 -0.27827706254E+01  0.96701958023E+01 -0.21248586050E+02  0.23510825344E+02  0.00000000000E+00 0.  1.
</event>
<event>
 8    1  0.5250708E-010  0.9118800E+02  0.7816164E-02  0.1184000E+00
        -11   -1    0    0    0    0  0.00000000000E+00  0.00000000000E+00  0.45593999997E+02  0.45594000000E+02  0.51100000000E-03 0.  1.
         11   -1    0    0    0    0 -0.00000000000E+00 -0.00000000000E+00 -0.45593999997E+02  0.45594000000E+02  0.51100000000E-03 0. -1.
         23    2    1    2    0    0  0.35527136788E-14  0.00000000000E+00  0.88817841970E-15  0.91188000000E+02  0.91188000000E+02 0.  0.
    9900012    2    3    3    0    0 -0.19159780216E+02 -0.38291973138E+02 -0.70887838831E+01  0.47787271416E+02  0.20000001693E+02 0.  0.
         12    1    3    3    0    0  0.19159780216E+02  0.38291973138E+02  0.70887838831E+01  0.43400728584E+02  0.00000000000E+00 0. -1.
         11    1    4    4    0    0 -0.30170051317E+01 -0.90633238169E+00  0.11195099991E+01  0.33432112182E+01  0.51100000000E-03 0. -1.
        -11    1    4    4    0    0 -0.18904385065E+02 -0.35232031448E+02 -0.86673221121E+01  0.40912031085E+02  0.51100000000E-03 0.  1.
        -12    1    4    4    0    0  0.27616099806E+01 -0.21536093077E+01  0.45902822991E+00  0.35320291124E+01  0.00000000000E+00 0.  1.
</event>
<event>
 8    1  0.5250708E-010  0.9118800E+02  0.7816164E-02  0.1184000E+00
        -11   -1    0    0    0    0  0.00000000000E+00  0.00000000000E+00  0.45593999997E+02  0.45594000000E+02  0.51100000000E-03 0. -1.
         11   -1    0    0    0    0 -0.00000000000E+00 -0.00000000000E+00 -0.45593999997E+02  0.45594000000E+02  0.51100000000E-03 0.  1.
         23    2    1    2    0    0  0.00000000000E+00  0.00000000000E+00  0.00000000000E+00  0.91188000000E+02  0.91188000000E+02 0.  0.
    9900012    2    3    3    0    0  0.14552606502E+02 -0.15474626658E+01  0.40858906635E+02  0.47787271341E+02  0.20000001353E+02 0.  0.
        -12    1    3    3    0    0 -0.14552606502E+02  0.15474626658E+01 -0.40858906635E+02  0.43400728659E+02  0.00000000000E+00 0.  1.
         11    1    4    4    0    0  0.18960814808E+01  0.14627546281E+00  0.16563018443E+02  0.16671835582E+02  0.51100000000E-03 0. -1.
        -11    1    4    4    0    0 -0.69798479060E+00 -0.13701468325E+01  0.14422527910E+02  0.14504268223E+02  0.51100000000E-03 0.  1.
         12    1    4    4    0    0  0.13354509811E+02 -0.32359129606E+00  0.98733602827E+01  0.16611167536E+02  0.00000000000E+00 0. -1.
</event>
<event>
 8    1  0.5250708E-010  0.9118800E+02  0.7816164E-02  0.1184000E+00
        -11   -1    0    0    0    0  0.00000000000E+00  0.00000000000E+00  0.45593999997E+02  0.45594000000E+02  0.51100000000E-03 0. -1.
         11   -1    0    0    0    0 -0.00000000000E+00 -0.00000000000E+00 -0.45593999997E+02  0.45594000000E+02  0.51100000000E-03 0.  1.
         23    2    1    2    0    0  0.35527136788E-14  0.00000000000E+00 -0.35527136788E-14  0.91188000000E+02  0.91188000000E+02 0.  0.
    9900012    2    3    3    0    0 -0.22821066813E+02  0.21120412650E+02  0.30277880516E+02  0.47787274551E+02  0.20000015988E+02 0.  0.
        -12    1    3    3    0    0  0.22821066813E+02 -0.21120412650E+02 -0.30277880516E+02  0.43400725449E+02  0.00000000000E+00 0.  1.
         11    1    4    4    0    0 -0.84149192529E+00  0.43791376319E+01 -0.10896264089E+01  0.45904510706E+01  0.51100000000E-03 0. -1.
        -11    1    4    4    0    0 -0.99957674417E+01  0.14839756398E+01  0.13141379086E+02  0.16577496644E+02  0.51100000000E-03 0.  1.
         12    1    4    4    0    0 -0.11983807446E+02  0.15257299378E+02  0.18226127839E+02  0.26619326836E+02  0.00000000000E+00 0. -1.
</event>
<event>
 8    1  0.5250708E-010  0.9118800E+02  0.7816164E-02  0.1184000E+00
        -11   -1    0    0    0    0  0.00000000000E+00  0.00000000000E+00  0.45593999997E+02  0.45594000000E+02  0.51100000000E-03 0. -1.
         11   -1    0    0    0    0 -0.00000000000E+00 -0.00000000000E+00 -0.45593999997E+02  0.45594000000E+02  0.51100000000E-03 0.  1.
         23    2    1    2    0    0  0.00000000000E+00  0.00000000000E+00  0.00000000000E+00  0.91188000000E+02  0.91188000000E+02 0.  0.
    9900012    2    3    3    0    0  0.35137003978E+02 -0.90949482941E+01  0.23796978054E+02  0.47787270772E+02  0.19999998758E+02 0.  0.
        -12    1    3    3    0    0 -0.35137003978E+02  0.90949482941E+01 -0.23796978054E+02  0.43400729228E+02  0.00000000000E+00 0.  1.
         11    1    4    4    0    0  0.70016520482E+01 -0.35651656478E+01  0.15984651652E+02  0.17811306134E+02  0.51100000000E-03 0. -1.
        -11    1    4    4    0    0  0.11805475165E+02 -0.75154843726E+00  0.44091295603E+01  0.12624361079E+02  0.51100000000E-03 0.  1.
         12    1    4    4    0    0  0.16329876765E+02 -0.47782342091E+01  0.34031968417E+01  0.17351603559E+02  0.00000000000E+00 0. -1.
</event>
<event>
 8    1  0.5250708E-010  0.9118800E+02  0.7816164E-02  0.1184000E+00
        -11   -1    0    0    0    0  0.00000000000E+00  0.00000000000E+00  0.45593999997E+02  0.45594000000E+02  0.51100000000E-03 0. -1.
         11   -1    0    0    0    0 -0.00000000000E+00 -0.00000000000E+00 -0.45593999997E+02  0.45594000000E+02  0.51100000000E-03 0.  1.
         23    2    1    2    0    0  0.00000000000E+00  0.00000000000E+00  0.00000000000E+00  0.91188000000E+02  0.91188000000E+02 0.  0.
    9900012    2    3    3    0    0  0.41523456156E+02 -0.76446629916E+01 -0.10049119187E+02  0.47787273279E+02  0.20000010190E+02 0.  0.
         12    1    3    3    0    0 -0.41523456156E+02  0.76446629916E+01  0.10049119187E+02  0.43400726721E+02  0.00000000000E+00 0. -1.
         11    1    4    4    0    0  0.28550092174E+02  0.16744133994E+01 -0.10772029950E+02  0.30560563687E+02  0.51100000000E-03 0. -1.
        -11    1    4    4    0    0  0.18359586188E+01  0.64217807539E+00 -0.99737524779E+00  0.21858395130E+01  0.51100000000E-03 0.  1.
         12    1    4    4    0    0  0.11137405364E+02 -0.99612544664E+01  0.17202860107E+01  0.15040870079E+02  0.00000000000E+00 0. -1.
</event>
<event>
 8    1  0.5250708E-010  0.9118800E+02  0.7816164E-02  0.1184000E+00
        -11   -1    0    0    0    0  0.00000000000E+00  0.00000000000E+00  0.45593999997E+02  0.45594000000E+02  0.51100000000E-03 0.  1.
         11   -1    0    0    0    0 -0.00000000000E+00 -0.00000000000E+00 -0.45593999997E+02  0.45594000000E+02  0.51100000000E-03 0. -1.
         23    2    1    2    0    0  0.00000000000E+00  0.00000000000E+00 -0.35527136788E-14  0.91188000000E+02  0.91188000000E+02 0.  0.
    9900012    2    3    3    0    0 -0.65350219631E+01  0.30680085324E+02  0.29994158337E+02  0.47787266344E+02  0.19999978568E+02 0.  0.
        -12    1    3    3    0    0  0.65350219631E+01 -0.30680085324E+02 -0.29994158337E+02  0.43400733656E+02  0.00000000000E+00 0.  1.
         11    1    4    4    0    0 -0.14962371304E+01  0.20741719480E+02  0.28715556060E+02  0.35454771366E+02  0.51100000000E-03 0. -1.
        -11    1    4    4    0    0 -0.11140940747E+01  0.71748520815E+01  0.18657004558E+01  0.74967023717E+01  0.51100000000E-03 0.  1.
         12    1    4    4    0    0 -0.39246907579E+01  0.27635137621E+01 -0.58709817815E+00  0.48357926061E+01  0.00000000000E+00 0. -1.
</event>
<event>
 8    1  0.5250708E-010  0.9118800E+02  0.7816164E-02  0.1184000E+00
        -11   -1    0    0    0    0  0.00000000000E+00  0.00000000000E+00  0.45593999997E+02  0.45594000000E+02  0.51100000000E-03 0. -1.
         11   -1    0    0    0    0 -0.00000000000E+00 -0.00000000000E+00 -0.45593999997E+02  0.45594000000E+02  0.51100000000E-03 0.  1.
         23    2    1    2    0    0 -0.88817841970E-15 -0.71054273576E-14  0.00000000000E+00  0.91188000000E+02  0.91188000000E+02 0.  0.
    9900012    2    3    3    0    0  0.54306735321E+01  0.42860588098E+02 -0.41353413122E+01  0.47787271033E+02  0.19999999949E+02 0.  0.
        -12    1    3    3    0    0 -0.54306735321E+01 -0.42860588098E+02  0.41353413122E+01  0.43400728967E+02  0.00000000000E+00 0.  1.
         11    1    4    4    0    0  0.12865461195E+00  0.37779172436E+02 -0.86767725515E+01  0.38762982395E+02  0.51100000000E-03 0. -1.
        -11    1    4    4    0    0  0.93637283120E+00  0.18044546566E-01  0.12789107739E+01  0.15851601538E+01  0.51100000000E-03 0.  1.
        -12    1    4    4    0    0  0.43656460890E+01  0.50633711148E+01  0.32625204655E+01  0.74391284844E+01  0.00000000000E+00 0.  1.
</event>
<event>
 8    1  0.5250708E-010  0.9118800E+02  0.7816164E-02  0.1184000E+00
        -11   -1    0    0    0    0  0.00000000000E+00  0.00000000000E+00  0.45593999997E+02  0.45594000000E+02  0.51100000000E-03 0. -1.
         11   -1    0    0    0    0 -0.00000000000E+00 -0.00000000000E+00 -0.45593999997E+02  0.45594000000E+02  0.51100000000E-03 0.  1.
         23    2    1    2    0    0  0.00000000000E+00  0.00000000000E+00  0.00000000000E+00  0.91188000000E+02  0.91188000000E+02 0.  0.
    9900012    2    3    3    0    0  0.79477595665E+01 -0.94163338861E+01 -0.41614770245E+02  0.47787270414E+02  0.19999997127E+02 0.  0.
         12    1    3    3    0    0 -0.79477595665E+01  0.94163338861E+01  0.41614770245E+02  0.43400729586E+02  0.00000000000E+00 0. -1.
         11    1    4    4    0    0 -0.14304696041E+00  0.81725493217E+00 -0.77664113926E+01  0.78106026808E+01  0.51100000000E-03 0. -1.
        -11    1    4    4    0    0 -0.18971849841E+01 -0.35629930532E+01 -0.24300039905E+02  0.24633030061E+02  0.51100000000E-03 0.  1.
         12    1    4    4    0    0  0.99879915111E+01 -0.66705957651E+01 -0.95483189479E+01  0.15343637672E+02  0.00000000000E+00 0. -1.
</event>
<event>
 8    1  0.5250708E-010  0.9118800E+02  0.7816164E-02  0.1184000E+00
        -11   -1    0    0    0    0  0.00000000000E+00  0.00000000000E+00  0.45593999997E+02  0.45594000000E+02  0.51100000000E-03 0. -1.
         11   -1    0    0    0    0 -0.00000000000E+00 -0.00000000000E+00 -0.45593999997E+02  0.45594000000E+02  0.51100000000E-03 0.  1.
         23    2    1    2    0    0  0.35527136788E-14  0.00000000000E+00  0.00000000000E+00  0.91188000000E+02  0.91188000000E+02 0.  0.
    9900012    2    3    3    0    0 -0.25988342427E+02  0.17318510527E+02  0.30137991430E+02  0.47787271016E+02  0.19999999869E+02 0.  0.
        -12    1    3    3    0    0  0.25988342427E+02 -0.17318510527E+02 -0.30137991430E+02  0.43400728984E+02  0.00000000000E+00 0.  1.
         11    1    4    4    0    0 -0.86550161053E+00  0.26050332271E+01  0.15465653592E+01  0.31507389329E+01  0.51100000000E-03 0.  1.
        -11    1    4    4    0    0 -0.26521880805E+02  0.13479506108E+02  0.20008304504E+02  0.35853026312E+02  0.51100000000E-03 0. -1.
        -12    1    4    4    0    0  0.13990399894E+01  0.12339711917E+01  0.85831215666E+01  0.87835057705E+01  0.00000000000E+00 0.  1.
</event>
<event>
 8    1  0.5250708E-010  0.9118800E+02  0.7816164E-02  0.1184000E+00
        -11   -1    0    0    0    0  0.00000000000E+00  0.00000000000E+00  0.45593999997E+02  0.45594000000E+02  0.51100000000E-03 0. -1.
         11   -1    0    0    0    0 -0.00000000000E+00 -0.00000000000E+00 -0.45593999997E+02  0.45594000000E+02  0.51100000000E-03 0.  1.
         23    2    1    2    0    0  0.71054273576E-14  0.71054273576E-14  0.00000000000E+00  0.91188000000E+02  0.91188000000E+02 0.  0.
    9900012    2    3    3    0    0  0.24813085680E+02  0.34571855048E+02  0.85276674900E+01  0.47787268494E+02  0.19999988373E+02 0.  0.
        -12    1    3    3    0    0 -0.24813085680E+02 -0.34571855048E+02 -0.85276674900E+01  0.43400731506E+02  0.00000000000E+00 0.  1.
         11    1    4    4    0    0  0.40859394964E+01  0.21943868551E+01 -0.27268654988E+01  0.53801515730E+01  0.51100000000E-03 0. -1.
        -11    1    4    4    0    0  0.18431690649E+02  0.27175095345E+02  0.38351908512E+01  0.33059366544E+02  0.51100000000E-03 0.  1.
        -12    1    4    4    0    0  0.22954555348E+01  0.52023728477E+01  0.74193421377E+01  0.93477503772E+01  0.00000000000E+00 0.  1.
</event>
<event>
 8    1  0.5250708E-010  0.9118800E+02  0.7816164E-02  0.1184000E+00
        -11   -1    0    0    0    0  0.00000000000E+00  0.00000000000E+00  0.45593999997E+02  0.45594000000E+02  0.51100000000E-03 0. -1.
         11   -1    0    0    0    0 -0.00000000000E+00 -0.00000000000E+00 -0.45593999997E+02  0.45594000000E+02  0.51100000000E-03 0.  1.
         23    2    1    2    0    0 -0.71054273576E-14  0.00000000000E+00 -0.71054273576E-14  0.91188000000E+02  0.91188000000E+02 0.  0.
    9900012    2    3    3    0    0  0.26778101694E+02  0.10549567060E+02  0.32484812997E+02  0.47787272230E+02  0.20000005406E+02 0.  0.
        -12    1    3    3    0    0 -0.26778101694E+02 -0.10549567060E+02 -0.32484812997E+02  0.43400727770E+02  0.00000000000E+00 0.  1.
         11    1    4    4    0    0  0.15913184005E+02  0.10509458645E+02  0.19931323628E+02  0.27585064945E+02  0.51100000000E-03 0. -1.
        -11    1    4    4    0    0  0.69135438635E+01 -0.18239458257E+01  0.13899364566E+02  0.15630617477E+02  0.51100000000E-03 0.  1.
         12    1    4    4    0    0  0.39513738260E+01  0.18640542409E+01 -0.13458751970E+01  0.45715898079E+01  0.00000000000E+00 0. -1.
</event>
<event>
 8    1  0.5250708E-010  0.9118800E+02  0.7816164E-02  0.1184000E+00
        -11   -1    0    0    0    0  0.00000000000E+00  0.00000000000E+00  0.45593999997E+02  0.45594000000E+02  0.51100000000E-03 0. -1.
         11   -1    0    0    0    0 -0.00000000000E+00 -0.00000000000E+00 -0.45593999997E+02  0.45594000000E+02  0.51100000000E-03 0.  1.
         23    2    1    2    0    0  0.71054273576E-14  0.00000000000E+00  0.17763568394E-14  0.91188000000E+02  0.91188000000E+02 0.  0.
    9900012    2    3    3    0    0 -0.40959081963E+02  0.11630762375E+02  0.84084546541E+01  0.47787272606E+02  0.20000007118E+02 0.  0.
        -12    1    3    3    0    0  0.40959081963E+02 -0.11630762375E+02 -0.84084546541E+01  0.43400727394E+02  0.00000000000E+00 0.  1.
         11    1    4    4    0    0 -0.11806581835E+02  0.62721009594E+01  0.36205862288E+01  0.13850749798E+02  0.51100000000E-03 0. -1.
        -11    1    4    4    0    0 -0.23298499141E+02 -0.28955337205E+01  0.33519117663E+01  0.23715806764E+02  0.51100000000E-03 0.  1.
        -12    1    4    4    0    0 -0.58540009873E+01  0.82541951361E+01  0.14359566590E+01  0.10220716043E+02  0.00000000000E+00 0.  1.
</event>
<event>
 8    1  0.5250708E-010  0.9118800E+02  0.7816164E-02  0.1184000E+00
        -11   -1    0    0    0    0  0.00000000000E+00  0.00000000000E+00  0.45593999997E+02  0.45594000000E+02  0.51100000000E-03 0. -1.
         11   -1    0    0    0    0 -0.00000000000E+00 -0.00000000000E+00 -0.45593999997E+02  0.45594000000E+02  0.51100000000E-03 0.  1.
         23    2    1    2    0    0  0.71054273576E-14  0.00000000000E+00  0.71054273576E-14  0.91188000000E+02  0.91188000000E+02 0.  0.
    9900012    2    3    3    0    0  0.33426280637E+02 -0.82040509655E+01  0.26438628029E+02  0.47787265656E+02  0.19999975434E+02 0.  0.
        -12    1    3    3    0    0 -0.33426280637E+02  0.82040509655E+01 -0.26438628029E+02  0.43400734344E+02  0.00000000000E+00 0.  1.
         11    1    4    4    0    0  0.11480193033E+02  0.74322644392E+00  0.13815259871E+02  0.17978003871E+02  0.51100000000E-03 0. -1.
        -11    1    4    4    0    0  0.12744126793E+02 -0.11797286490E+02  0.83929807707E+01  0.19288101584E+02  0.51100000000E-03 0.  1.
        -12    1    4    4    0    0  0.92019608107E+01  0.28500090806E+01  0.42303873881E+01  0.10521160201E+02  0.00000000000E+00 0.  1.
</event>
<event>
 8    1  0.5250708E-010  0.9118800E+02  0.7816164E-02  0.1184000E+00
        -11   -1    0    0    0    0  0.00000000000E+00  0.00000000000E+00  0.45593999997E+02  0.45594000000E+02  0.51100000000E-03 0. -1.
         11   -1    0    0    0    0 -0.00000000000E+00 -0.00000000000E+00 -0.45593999997E+02  0.45594000000E+02  0.51100000000E-03 0.  1.
         23    2    1    2    0    0 -0.66613381478E-15  0.00000000000E+00  0.00000000000E+00  0.91188000000E+02  0.91188000000E+02 0.  0.
    9900012    2    3    3    0    0  0.18268417256E+01 -0.10348918628E+02 -0.42109212740E+02  0.47787271146E+02  0.20000000464E+02 0.  0.
         12    1    3    3    0    0 -0.18268417256E+01  0.10348918628E+02  0.42109212740E+02  0.43400728854E+02  0.00000000000E+00 0. -1.
         11    1    4    4    0    0 -0.20907523865E+01 -0.91002268172E-01 -0.78013279856E+00  0.22334131724E+01  0.51100000000E-03 0. -1.
        -11    1    4    4    0    0  0.91402050024E+01 -0.28124638712E+01 -0.26330876650E+02  0.28013717460E+02  0.51100000000E-03 0.  1.
        -12    1    4    4    0    0 -0.52226108903E+01 -0.74454524889E+01 -0.14998203291E+02  0.17540140514E+02  0.00000000000E+00 0.  1.
</event>
<event>
 8    1  0.5250708E-010  0.9118800E+02  0.7816164E-02  0.1184000E+00
        -11   -1    0    0    0    0  0.00000000000E+00  0.00000000000E+00  0.45593999997E+02  0.45594000000E+02  0.51100000000E-03 0.  1.
         11   -1    0    0    0    0 -0.00000000000E+00 -0.00000000000E+00 -0.45593999997E+02  0.45594000000E+02  0.51100000000E-03 0. -1.
         23    2    1    2    0    0  0.00000000000E+00  0.00000000000E+00 -0.35527136788E-14  0.91188000000E+02  0.91188000000E+02 0.  0.
    9900012    2    3    3    0    0 -0.15068071408E+02 -0.35811529407E+02  0.19341939145E+02  0.47787273920E+02  0.20000013109E+02 0.  0.
        -12    1    3    3    0    0  0.15068071408E+02  0.35811529407E+02 -0.19341939145E+02  0.43400726080E+02  0.00000000000E+00 0.  1.
         11    1    4    4    0    0 -0.20318523298E+01 -0.12638565380E+01  0.41981905863E+01  0.48322418916E+01  0.51100000000E-03 0. -1.
        -11    1    4    4    0    0 -0.14445532473E+01 -0.33831840266E+01 -0.32912342190E+01  0.49360805492E+01  0.51100000000E-03 0.  1.
         12    1    4    4    0    0 -0.11591665831E+02 -0.31164488842E+02  0.18434982778E+02  0.38018951479E+02  0.00000000000E+00 0. -1.
</event>
<event>
 8    1  0.5250708E-010  0.9118800E+02  0.7816164E-02  0.1184000E+00
        -11   -1    0    0    0    0  0.00000000000E+00  0.00000000000E+00  0.45593999997E+02  0.45594000000E+02  0.51100000000E-03 0. -1.
         11   -1    0    0    0    0 -0.00000000000E+00 -0.00000000000E+00 -0.45593999997E+02  0.45594000000E+02  0.51100000000E-03 0.  1.
         23    2    1    2    0    0  0.00000000000E+00 -0.71054273576E-14 -0.35527136788E-14  0.91188000000E+02  0.91188000000E+02 0.  0.
    9900012    2    3    3    0    0  0.85861601534E+01 -0.37339689436E+02  0.20387458650E+02  0.47787273928E+02  0.20000013149E+02 0.  0.
        -12    1    3    3    0    0 -0.85861601534E+01  0.37339689436E+02 -0.20387458650E+02  0.43400726072E+02  0.00000000000E+00 0.  1.
         11    1    4    4    0    0  0.57052856118E+01 -0.18853585468E+02  0.10637003771E+02  0.22386465071E+02  0.51100000000E-03 0. -1.
        -11    1    4    4    0    0  0.27169282201E+01  0.10101030231E+01 -0.10853099965E+01  0.30951421809E+01  0.51100000000E-03 0.  1.
         12    1    4    4    0    0  0.16394632155E+00 -0.19496206991E+02  0.10835764876E+02  0.22305666676E+02  0.00000000000E+00 0. -1.
</event>
<event>
 8    1  0.5250708E-010  0.9118800E+02  0.7816164E-02  0.1184000E+00
        -11   -1    0    0    0    0  0.00000000000E+00  0.00000000000E+00  0.45593999997E+02  0.45594000000E+02  0.51100000000E-03 0. -1.
         11   -1    0    0    0    0 -0.00000000000E+00 -0.00000000000E+00 -0.45593999997E+02  0.45594000000E+02  0.51100000000E-03 0.  1.
         23    2    1    2    0    0  0.00000000000E+00  0.00000000000E+00  0.00000000000E+00  0.91188000000E+02  0.91188000000E+02 0.  0.
    9900012    2    3    3    0    0  0.80751914640E+01 -0.40645978470E+02 -0.12896473206E+02  0.47787270696E+02  0.19999998412E+02 0.  0.
         12    1    3    3    0    0 -0.80751914640E+01  0.40645978470E+02  0.12896473206E+02  0.43400729304E+02  0.00000000000E+00 0. -1.
         11    1    4    4    0    0 -0.13021927646E+01 -0.18816233759E+01 -0.31210149700E+01  0.38700061019E+01  0.51100000000E-03 0.  1.
        -11    1    4    4    0    0  0.60619718823E+01 -0.11603900172E+02  0.34321619368E+01  0.13534317054E+02  0.51100000000E-03 0. -1.
        -12    1    4    4    0    0  0.33154123464E+01 -0.27160454921E+02 -0.13207620173E+02  0.30382947540E+02  0.00000000000E+00 0.  1.
</event>
<event>
 8    1  0.5250708E-010  0.9118800E+02  0.7816164E-02  0.1184000E+00
        -11   -1    0    0    0    0  0.00000000000E+00  0.00000000000E+00  0.45593999997E+02  0.45594000000E+02  0.51100000000E-03 0. -1.
         11   -1    0    0    0    0 -0.00000000000E+00 -0.00000000000E+00 -0.45593999997E+02  0.45594000000E+02  0.51100000000E-03 0.  1.
         23    2    1    2    0    0  0.44408920985E-15  0.00000000000E+00  0.00000000000E+00  0.91188000000E+02  0.91188000000E+02 0.  0.
    9900012    2    3    3    0    0  0.18649344512E+01  0.20983600649E+02 -0.37945134996E+02  0.47787277120E+02  0.20000027699E+02 0.  0.
         12    1    3    3    0    0 -0.18649344512E+01 -0.20983600649E+02  0.37945134996E+02  0.43400722880E+02  0.00000000000E+00 0. -1.
         11    1    4    4    0    0 -0.16421192401E+01 -0.30597579887E+00 -0.10302347978E+01  0.19625393723E+01  0.51100000000E-03 0. -1.
        -11    1    4    4    0    0  0.77499727000E+01  0.15751921774E+02 -0.33998681264E+02  0.38263500159E+02  0.51100000000E-03 0.  1.
         12    1    4    4    0    0 -0.42429190086E+01  0.55376546742E+01 -0.29162189333E+01  0.75612375886E+01  0.00000000000E+00 0. -1.
</event>
<event>
 8    1  0.5250708E-010  0.9118800E+02  0.7816164E-02  0.1184000E+00
        -11   -1    0    0    0    0  0.00000000000E+00  0.00000000000E+00  0.45593999997E+02  0.45594000000E+02  0.51100000000E-03 0. -1.
         11   -1    0    0    0    0 -0.00000000000E+00 -0.00000000000E+00 -0.45593999997E+02  0.45594000000E+02  0.51100000000E-03 0.  1.
         23    2    1    2    0    0  0.00000000000E+00 -0.35527136788E-14  0.00000000000E+00  0.91188000000E+02  0.91188000000E+02 0.  0.
    9900012    2    3    3    0    0  0.14991595188E+02 -0.19715904650E+02 -0.35639284024E+02  0.47787269727E+02  0.19999993994E+02 0.  0.
         12    1    3    3    0    0 -0.14991595188E+02  0.19715904650E+02  0.35639284024E+02  0.43400730273E+02  0.00000000000E+00 0. -1.
         11    1    4    4    0    0  0.38505534592E+01  0.22280694015E+01 -0.17048607860E+00  0.44519794433E+01  0.51100000000E-03 0. -1.
        -11    1    4    4    0    0  0.51508754512E+01 -0.63430668720E+01 -0.12375331959E+02  0.14829526513E+02  0.51100000000E-03 0.  1.
         12    1    4    4    0    0  0.59901662778E+01 -0.15600907180E+02 -0.23093465987E+02  0.28505763771E+02  0.00000000000E+00 0. -1.
</event>
<event>
 8    1  0.5250708E-010  0.9118800E+02  0.7816164E-02  0.1184000E+00
        -11   -1    0    0    0    0  0.00000000000E+00  0.00000000000E+00  0.45593999997E+02  0.45594000000E+02  0.51100000000E-03 0. -1.
         11   -1    0    0    0    0 -0.00000000000E+00 -0.00000000000E+00 -0.45593999997E+02  0.45594000000E+02  0.51100000000E-03 0.  1.
         23    2    1    2    0    0  0.00000000000E+00 -0.88817841970E-15  0.00000000000E+00  0.91188000000E+02  0.91188000000E+02 0.  0.
    9900012    2    3    3    0    0  0.34742660889E+02  0.18947462600E+01 -0.25941871476E+02  0.47787271380E+02  0.20000001531E+02 0.  0.
         12    1    3    3    0    0 -0.34742660889E+02 -0.18947462600E+01  0.25941871476E+02  0.43400728620E+02  0.00000000000E+00 0. -1.
         11    1    4    4    0    0  0.13574393640E+02 -0.23148243493E+01 -0.86763614893E+01  0.16275804847E+02  0.51100000000E-03 0. -1.
        -11    1    4    4    0    0  0.17042374230E+02  0.90516700705E+01 -0.15903140895E+02  0.25005702171E+02  0.51100000000E-03 0.  1.
        -12    1    4    4    0    0  0.41258930194E+01 -0.48420994612E+01 -0.13623690908E+01  0.65057643624E+01  0.00000000000E+00 0.  1.
</event>
<event>
 8    1  0.5474493E-010  0.9118800E+02  0.7816164E-02  0.1184000E+00
        -11   -1    0    0    0    0  0.00000000000E+00  0.00000000000E+00  0.45593999997E+02  0.45594000000E+02  0.51100000000E-03 0. -1.
         11   -1    0    0    0    0 -0.00000000000E+00 -0.00000000000E+00 -0.45593999997E+02  0.45594000000E+02  0.51100000000E-03 0.  1.
         23    2    1    2    0    0  0.00000000000E+00 -0.44408920985E-15  0.00000000000E+00  0.91188000000E+02  0.91188000000E+02 0.  0.
    9900012    2    3    3    0    0  0.85379986372E+01 -0.32627259697E+01  0.42427353533E+02  0.47787272710E+02  0.20000007595E+02 0.  0.
        -12    1    3    3    0    0 -0.85379986372E+01  0.32627259697E+01 -0.42427353533E+02  0.43400727290E+02  0.00000000000E+00 0.  1.
         11    1    4    4    0    0 -0.13460983205E+01 -0.43033745547E+01  0.16822527937E+02  0.17416327389E+02  0.51100000000E-03 0. -1.
        -11    1    4    4    0    0  0.20690048535E+01  0.10997566083E+01 -0.10692189969E+01  0.25755533786E+01  0.51100000000E-03 0.  1.
         12    1    4    4    0    0  0.78150921042E+01 -0.59108023388E-01  0.26674044592E+02  0.27795391943E+02  0.00000000000E+00 0. -1.
</event>
<event>
 8    1  0.5250708E-010  0.9118800E+02  0.7816164E-02  0.1184000E+00
        -11   -1    0    0    0    0  0.00000000000E+00  0.00000000000E+00  0.45593999997E+02  0.45594000000E+02  0.51100000000E-03 0. -1.
         11   -1    0    0    0    0 -0.00000000000E+00 -0.00000000000E+00 -0.45593999997E+02  0.45594000000E+02  0.51100000000E-03 0.  1.
         23    2    1    2    0    0  0.26645352591E-14  0.14210854715E-13 -0.71054273576E-14  0.91188000000E+02  0.91188000000E+02 0.  0.
    9900012    2    3    3    0    0 -0.74127306277E+01 -0.35345340573E+02  0.24070411707E+02  0.47787235083E+02  0.19999836038E+02 0.  0.
        -12    1    3    3    0    0  0.74127306277E+01  0.35345340573E+02 -0.24070411707E+02  0.43400764917E+02  0.00000000000E+00 0.  1.
         11    1    4    4    0    0  0.19473360601E+01 -0.20575594243E+02  0.15436755199E+02  0.25796135515E+02  0.51100000000E-03 0. -1.
        -11    1    4    4    0    0 -0.85460194727E+01 -0.82034839167E+01  0.99886217944E+00  0.11888201004E+02  0.51100000000E-03 0.  1.
        -12    1    4    4    0    0 -0.81404721503E+00 -0.65662624139E+01  0.76347943292E+01  0.10102898565E+02  0.00000000000E+00 0.  1.
</event>
<event>
 8    1  0.5250708E-010  0.9118800E+02  0.7816164E-02  0.1184000E+00
        -11   -1    0    0    0    0  0.00000000000E+00  0.00000000000E+00  0.45593999997E+02  0.45594000000E+02  0.51100000000E-03 0. -1.
         11   -1    0    0    0    0 -0.00000000000E+00 -0.00000000000E+00 -0.45593999997E+02  0.45594000000E+02  0.51100000000E-03 0.  1.
         23    2    1    2    0    0  0.00000000000E+00  0.00000000000E+00  0.00000000000E+00  0.91188000000E+02  0.91188000000E+02 0.  0.
    9900012    2    3    3    0    0 -0.12064249553E+02 -0.70878088752E+01 -0.41083327931E+02  0.47787274363E+02  0.20000015131E+02 0.  0.
         12    1    3    3    0    0  0.12064249553E+02  0.70878088752E+01  0.41083327931E+02  0.43400725637E+02  0.00000000000E+00 0. -1.
         11    1    4    4    0    0  0.13406081505E+01 -0.33019074774E+01 -0.15177885421E+01  0.38734358808E+01  0.51100000000E-03 0. -1.
        -11    1    4    4    0    0 -0.15684876935E+02 -0.49025711239E+01 -0.32770424240E+02  0.36659940988E+02  0.51100000000E-03 0.  1.
         12    1    4    4    0    0  0.22800192319E+01  0.11166697261E+01 -0.67951151485E+01  0.72538974942E+01  0.00000000000E+00 0. -1.
</event>
<event>
 8    1  0.5250708E-010  0.9118800E+02  0.7816164E-02  0.1184000E+00
        -11   -1    0    0    0    0  0.00000000000E+00  0.00000000000E+00  0.45593999997E+02  0.45594000000E+02  0.51100000000E-03 0.  1.
         11   -1    0    0    0    0 -0.00000000000E+00 -0.00000000000E+00 -0.45593999997E+02  0.45594000000E+02  0.51100000000E-03 0. -1.
         23    2    1    2    0    0  0.00000000000E+00 -0.35527136788E-14  0.00000000000E+00  0.91188000000E+02  0.91188000000E+02 0.  0.
    9900012    2    3    3    0    0  0.18869348533E+02  0.29772100464E+02  0.25321795166E+02  0.47787267397E+02  0.19999983369E+02 0.  0.
         12    1    3    3    0    0 -0.18869348533E+02 -0.29772100464E+02 -0.25321795166E+02  0.43400732603E+02  0.00000000000E+00 0. -1.
         11    1    4    4    0    0  0.96526797990E+00  0.16908835836E+02  0.10057162757E+02  0.19697385476E+02  0.51100000000E-03 0. -1.
        -11    1    4    4    0    0  0.70278451809E+01  0.60639422258E+01  0.17286682504E+01  0.94419435174E+01  0.51100000000E-03 0.  1.
        -12    1    4    4    0    0  0.10876235372E+02  0.67993224014E+01  0.13535964158E+02  0.18647938403E+02  0.00000000000E+00 0.  1.
</event>
<event>
 8    1  0.5250708E-010  0.9118800E+02  0.7816164E-02  0.1184000E+00
        -11   -1    0    0    0    0  0.00000000000E+00  0.00000000000E+00  0.45593999997E+02  0.45594000000E+02  0.51100000000E-03 0. -1.
         11   -1    0    0    0    0 -0.00000000000E+00 -0.00000000000E+00 -0.45593999997E+02  0.45594000000E+02  0.51100000000E-03 0.  1.
         23    2    1    2    0    0 -0.71054273576E-14  0.35527136788E-14 -0.35527136788E-14  0.91188000000E+02  0.91188000000E+02 0.  0.
    9900012    2    3    3    0    0 -0.26303659170E+02  0.20366910118E+02 -0.27873466710E+02  0.47787266596E+02  0.19999979720E+02 0.  0.
         12    1    3    3    0    0  0.26303659170E+02 -0.20366910118E+02  0.27873466710E+02  0.43400733404E+02  0.00000000000E+00 0. -1.
         11    1    4    4    0    0  0.14745539337E+01  0.26829675438E+01 -0.49666503450E+01  0.58344014308E+01  0.51100000000E-03 0. -1.
        -11    1    4    4    0    0 -0.16854970409E+02  0.14146182232E+02 -0.86411543285E+01  0.23640517076E+02  0.51100000000E-03 0.  1.
         12    1    4    4    0    0 -0.10923242695E+02  0.35377603428E+01 -0.14265662037E+02  0.18312348090E+02  0.00000000000E+00 0. -1.
</event>
<event>
 8    1  0.5250708E-010  0.9118800E+02  0.7816164E-02  0.1184000E+00
        -11   -1    0    0    0    0  0.00000000000E+00  0.00000000000E+00  0.45593999997E+02  0.45594000000E+02  0.51100000000E-03 0. -1.
         11   -1    0    0    0    0 -0.00000000000E+00 -0.00000000000E+00 -0.45593999997E+02  0.45594000000E+02  0.51100000000E-03 0.  1.
         23    2    1    2    0    0  0.00000000000E+00  0.00000000000E+00  0.17763568394E-14  0.91188000000E+02  0.91188000000E+02 0.  0.
    9900012    2    3    3    0    0  0.36990969533E+02 -0.20943213421E+02 -0.87563292517E+01  0.47787270543E+02  0.19999997716E+02 0.  0.
         12    1    3    3    0    0 -0.36990969533E+02  0.20943213421E+02  0.87563292517E+01  0.43400729457E+02  0.00000000000E+00 0. -1.
         11    1    4    4    0    0  0.94969575079E+01 -0.36119400101E-01 -0.14679415353E+01  0.96098053638E+01  0.51100000000E-03 0. -1.
        -11    1    4    4    0    0  0.13032703661E+02 -0.13914713004E+02 -0.10546041617E+02  0.21787372415E+02  0.51100000000E-03 0.  1.
        -12    1    4    4    0    0  0.14461308364E+02 -0.69923810166E+01  0.32576539007E+01  0.16390092764E+02  0.00000000000E+00 0.  1.
</event>
<event>
 8    1  0.5250708E-010  0.9118800E+02  0.7816164E-02  0.1184000E+00
        -11   -1    0    0    0    0  0.00000000000E+00  0.00000000000E+00  0.45593999997E+02  0.45594000000E+02  0.51100000000E-03 0.  1.
         11   -1    0    0    0    0 -0.00000000000E+00 -0.00000000000E+00 -0.45593999997E+02  0.45594000000E+02  0.51100000000E-03 0. -1.
         23    2    1    2    0    0  0.00000000000E+00  0.00000000000E+00  0.00000000000E+00  0.91188000000E+02  0.91188000000E+02 0.  0.
    9900012    2    3    3    0    0 -0.92196444847E+01 -0.42243702602E+02  0.37538180075E+01  0.47787269550E+02  0.19999993185E+02 0.  0.
        -12    1    3    3    0    0  0.92196444847E+01  0.42243702602E+02 -0.37538180075E+01  0.43400730450E+02  0.00000000000E+00 0.  1.
         11    1    4    4    0    0  0.59949262063E+01 -0.12811184396E+02  0.22243919911E+01  0.14318292700E+02  0.51100000000E-03 0. -1.
        -11    1    4    4    0    0 -0.41481372298E+01 -0.60391630858E+01 -0.12819231596E+01  0.74378666634E+01  0.51100000000E-03 0.  1.
         12    1    4    4    0    0 -0.11066433461E+02 -0.23393355121E+02  0.28113491759E+01  0.26031110187E+02  0.00000000000E+00 0. -1.
</event>
<event>
 8    1  0.5250708E-010  0.9118800E+02  0.7816164E-02  0.1184000E+00
        -11   -1    0    0    0    0  0.00000000000E+00  0.00000000000E+00  0.45593999997E+02  0.45594000000E+02  0.51100000000E-03 0. -1.
         11   -1    0    0    0    0 -0.00000000000E+00 -0.00000000000E+00 -0.45593999997E+02  0.45594000000E+02  0.51100000000E-03 0.  1.
         23    2    1    2    0    0  0.88817841970E-15  0.00000000000E+00  0.00000000000E+00  0.91188000000E+02  0.91188000000E+02 0.  0.
    9900012    2    3    3    0    0 -0.13970866139E+01  0.41097529892E+01 -0.43183114750E+02  0.47787270511E+02  0.19999997570E+02 0.  0.
         12    1    3    3    0    0  0.13970866139E+01 -0.41097529892E+01  0.43183114750E+02  0.43400729489E+02  0.00000000000E+00 0. -1.
         11    1    4    4    0    0 -0.30457439830E+01 -0.27385240490E+01 -0.11225998022E+02  0.11949857833E+02  0.51100000000E-03 0. -1.
        -11    1    4    4    0    0 -0.39642481523E+01 -0.72263415381E+00 -0.21323606807E+01  0.45589939534E+01  0.51100000000E-03 0.  1.
        -12    1    4    4    0    0  0.56129055214E+01  0.75709111919E+01 -0.29824756047E+02  0.31278418725E+02  0.00000000000E+00 0.  1.
</event>
<event>
 8    1  0.5250708E-010  0.9118800E+02  0.7816164E-02  0.1184000E+00
        -11   -1    0    0    0    0  0.00000000000E+00  0.00000000000E+00  0.45593999997E+02  0.45594000000E+02  0.51100000000E-03 0. -1.
         11   -1    0    0    0    0 -0.00000000000E+00 -0.00000000000E+00 -0.45593999997E+02  0.45594000000E+02  0.51100000000E-03 0.  1.
         23    2    1    2    0    0  0.00000000000E+00  0.00000000000E+00  0.00000000000E+00  0.91188000000E+02  0.91188000000E+02 0.  0.
    9900012    2    3    3    0    0  0.12110942369E+02 -0.73859736255E+01  0.41017018026E+02  0.47787270753E+02  0.19999998669E+02 0.  0.
        -12    1    3    3    0    0 -0.12110942369E+02  0.73859736255E+01 -0.41017018026E+02  0.43400729247E+02  0.00000000000E+00 0.  1.
         11    1    4    4    0    0  0.15410665375E+01 -0.76944757846E+01  0.29906409408E+02  0.30918815754E+02  0.51100000000E-03 0. -1.
        -11    1    4    4    0    0  0.37743167551E+01  0.25676085740E+01  0.76651824634E+01  0.89214966914E+01  0.51100000000E-03 0.  1.
         12    1    4    4    0    0  0.67955590763E+01 -0.22591064149E+01  0.34454261549E+01  0.79469583075E+01  0.00000000000E+00 0. -1.
</event>
<event>
 8    1  0.5250708E-010  0.9118800E+02  0.7816164E-02  0.1184000E+00
        -11   -1    0    0    0    0  0.00000000000E+00  0.00000000000E+00  0.45593999997E+02  0.45594000000E+02  0.51100000000E-03 0. -1.
         11   -1    0    0    0    0 -0.00000000000E+00 -0.00000000000E+00 -0.45593999997E+02  0.45594000000E+02  0.51100000000E-03 0.  1.
         23    2    1    2    0    0  0.17763568394E-14  0.00000000000E+00  0.71054273576E-14  0.91188000000E+02  0.91188000000E+02 0.  0.
    9900012    2    3    3    0    0 -0.14022469704E+02 -0.40266193190E+01  0.40875176139E+02  0.47787270235E+02  0.19999996311E+02 0.  0.
        -12    1    3    3    0    0  0.14022469704E+02  0.40266193190E+01 -0.40875176139E+02  0.43400729765E+02  0.00000000000E+00 0.  1.
         11    1    4    4    0    0 -0.19132697346E+01 -0.41190705696E+01  0.12319826438E+02  0.13130326239E+02  0.51100000000E-03 0. -1.
        -11    1    4    4    0    0 -0.44972213293E+01  0.66726979207E+01  0.19597993060E+02  0.21185637339E+02  0.51100000000E-03 0.  1.
         12    1    4    4    0    0 -0.76119786399E+01 -0.65802466701E+01  0.89573566415E+01  0.13471306657E+02  0.00000000000E+00 0. -1.
</event>
<event>
 8    1  0.5250708E-010  0.9118800E+02  0.7816164E-02  0.1184000E+00
        -11   -1    0    0    0    0  0.00000000000E+00  0.00000000000E+00  0.45593999997E+02  0.45594000000E+02  0.51100000000E-03 0. -1.
         11   -1    0    0    0    0 -0.00000000000E+00 -0.00000000000E+00 -0.45593999997E+02  0.45594000000E+02  0.51100000000E-03 0.  1.
         23    2    1    2    0    0  0.00000000000E+00 -0.35527136788E-14  0.00000000000E+00  0.91188000000E+02  0.91188000000E+02 0.  0.
    9900012    2    3    3    0    0 -0.14865317412E+02 -0.16546690904E+02 -0.37267272777E+02  0.47787305745E+02  0.20000158212E+02 0.  0.
         12    1    3    3    0    0  0.14865317412E+02  0.16546690904E+02  0.37267272777E+02  0.43400694255E+02  0.00000000000E+00 0. -1.
         11    1    4    4    0    0 -0.10405929227E+02 -0.52667010021E+01 -0.62967129793E+01  0.13254059647E+02  0.51100000000E-03 0. -1.
        -11    1    4    4    0    0 -0.40504170218E+01 -0.33588664549E+01 -0.45781958281E+01  0.69747931305E+01  0.51100000000E-03 0.  1.
        -12    1    4    4    0    0 -0.40897116410E+00 -0.79211234468E+01 -0.26392363969E+02  0.27558452967E+02  0.00000000000E+00 0.  1.
</event>
<event>
 8    1  0.5762884E-010  0.9118800E+02  0.7816164E-02  0.1184000E+00
        -11   -1    0    0    0    0  0.00000000000E+00  0.00000000000E+00  0.45593999997E+02  0.45594000000E+02  0.51100000000E-03 0. -1.
         11   -1    0    0    0    0 -0.00000000000E+00 -0.00000000000E+00 -0.45593999997E+02  0.45594000000E+02  0.51100000000E-03 0.  1.
         23    2    1    2    0    0  0.00000000000E+00 -0.35527136788E-14  0.00000000000E+00  0.91188000000E+02  0.91188000000E+02 0.  0.
    9900012    2    3    3    0    0 -0.10281094826E+02  0.30294217022E+02 -0.29328869885E+02  0.47787272996E+02  0.20000008897E+02 0.  0.
         12    1    3    3    0    0  0.10281094826E+02 -0.30294217022E+02  0.29328869885E+02  0.43400727004E+02  0.00000000000E+00 0. -1.
         11    1    4    4    0    0 -0.28691439718E+01  0.10219480365E+02 -0.18818275813E+01  0.10780122512E+02  0.51100000000E-03 0. -1.
        -11    1    4    4    0    0 -0.98973471321E+01  0.19752970157E+02 -0.22934470059E+02  0.31845364301E+02  0.51100000000E-03 0.  1.
         12    1    4    4    0    0  0.24853962779E+01  0.32176649894E+00 -0.45125722443E+01  0.51617861829E+01  0.00000000000E+00 0. -1.
</event>
<event>
 8    1  0.5250708E-010  0.9118800E+02  0.7816164E-02  0.1184000E+00
        -11   -1    0    0    0    0  0.00000000000E+00  0.00000000000E+00  0.45593999997E+02  0.45594000000E+02  0.51100000000E-03 0. -1.
         11   -1    0    0    0    0 -0.00000000000E+00 -0.00000000000E+00 -0.45593999997E+02  0.45594000000E+02  0.51100000000E-03 0.  1.
         23    2    1    2    0    0  0.22204460493E-15  0.17763568394E-14 -0.71054273576E-14  0.91188000000E+02  0.91188000000E+02 0.  0.
    9900012    2    3    3    0    0  0.18553861648E+01  0.10658806465E+02 -0.42030595046E+02  0.47787268059E+02  0.19999986390E+02 0.  0.
         12    1    3    3    0    0 -0.18553861648E+01 -0.10658806465E+02  0.42030595046E+02  0.43400731941E+02  0.00000000000E+00 0. -1.
         11    1    4    4    0    0  0.41369388707E+01  0.18911671341E+01 -0.58801223548E+01  0.74341519703E+01  0.51100000000E-03 0. -1.
        -11    1    4    4    0    0 -0.27818936170E+01  0.95265254603E+01 -0.37463730584E+02  0.38755963786E+02  0.51100000000E-03 0.  1.
        -12    1    4    4    0    0  0.50034091120E+00 -0.75888612979E+00  0.13132578932E+01  0.15971523032E+01  0.00000000000E+00 0.  1.
</event>
<event>
 8    1  0.5250708E-010  0.9118800E+02  0.7816164E-02  0.1184000E+00
        -11   -1    0    0    0    0  0.00000000000E+00  0.00000000000E+00  0.45593999997E+02  0.45594000000E+02  0.51100000000E-03 0. -1.
         11   -1    0    0    0    0 -0.00000000000E+00 -0.00000000000E+00 -0.45593999997E+02  0.45594000000E+02  0.51100000000E-03 0.  1.
         23    2    1    2    0    0  0.00000000000E+00  0.44408920985E-15  0.00000000000E+00  0.91188000000E+02  0.91188000000E+02 0.  0.
    9900012    2    3    3    0    0 -0.33670113078E+02  0.21022187936E+01  0.27304369795E+02  0.47787257513E+02  0.19999938305E+02 0.  0.
        -12    1    3    3    0    0  0.33670113078E+02 -0.21022187936E+01 -0.27304369795E+02  0.43400742487E+02  0.00000000000E+00 0.  1.
         11    1    4    4    0    0 -0.47352818647E+01 -0.26596660089E+01  0.71367504851E+01  0.89682732655E+01  0.51100000000E-03 0. -1.
        -11    1    4    4    0    0 -0.68510169326E+00 -0.13983547575E+00  0.73998980871E+01  0.74328601663E+01  0.51100000000E-03 0.  1.
        -12    1    4    4    0    0 -0.28249729520E+02  0.49017202782E+01  0.12767721223E+02  0.31386124081E+02  0.00000000000E+00 0.  1.
</event>
<event>
 8    1  0.5250708E-010  0.9118800E+02  0.7816164E-02  0.1184000E+00
        -11   -1    0    0    0    0  0.00000000000E+00  0.00000000000E+00  0.45593999997E+02  0.45594000000E+02  0.51100000000E-03 0. -1.
         11   -1    0    0    0    0 -0.00000000000E+00 -0.00000000000E+00 -0.45593999997E+02  0.45594000000E+02  0.51100000000E-03 0.  1.
         23    2    1    2    0    0  0.00000000000E+00  0.35527136788E-14  0.00000000000E+00  0.91188000000E+02  0.91188000000E+02 0.  0.
    9900012    2    3    3    0    0 -0.32802735698E+02  0.22457560127E+02  0.17414385457E+02  0.47787282298E+02  0.20000051310E+02 0.  0.
        -12    1    3    3    0    0  0.32802735698E+02 -0.22457560127E+02 -0.17414385457E+02  0.43400717702E+02  0.00000000000E+00 0.  1.
         11    1    4    4    0    0 -0.80903483586E+01  0.10432495983E+02  0.10343491879E+02  0.16771360515E+02  0.51100000000E-03 0. -1.
        -11    1    4    4    0    0 -0.24202760627E+02  0.12990519390E+02  0.89096636009E+01  0.28877488148E+02  0.51100000000E-03 0.  1.
        -12    1    4    4    0    0 -0.50962671317E+00 -0.96545524644E+00 -0.18387700222E+01  0.21384336357E+01  0.00000000000E+00 0.  1.
</event>
<event>
 8    1  0.5250708E-010  0.9118800E+02  0.7816164E-02  0.1184000E+00
        -11   -1    0    0    0    0  0.00000000000E+00  0.00000000000E+00  0.45593999997E+02  0.45594000000E+02  0.51100000000E-03 0. -1.
         11   -1    0    0    0    0 -0.00000000000E+00 -0.00000000000E+00 -0.45593999997E+02  0.45594000000E+02  0.51100000000E-03 0.  1.
         23    2    1    2    0    0  0.00000000000E+00  0.00000000000E+00  0.00000000000E+00  0.91188000000E+02  0.91188000000E+02 0.  0.
    9900012    2    3    3    0    0  0.17524554380E+02  0.70153518646E+01 -0.39080661248E+02  0.47787271301E+02  0.20000001169E+02 0.  0.
         12    1    3    3    0    0 -0.17524554380E+02 -0.70153518646E+01  0.39080661248E+02  0.43400728699E+02  0.00000000000E+00 0. -1.
         11    1    4    4    0    0  0.88200387839E+01 -0.33475431377E+01 -0.91946714272E+01  0.13173500375E+02  0.51100000000E-03 0. -1.
        -11    1    4    4    0    0  0.76719920386E+01  0.84001273646E+01 -0.11794825072E+02  0.16387174873E+02  0.51100000000E-03 0.  1.
        -12    1    4    4    0    0  0.10325235578E+01  0.19627676376E+01 -0.18091164749E+02  0.18226596053E+02  0.00000000000E+00 0.  1.
</event>
<event>
 8    1  0.5250708E-010  0.9118800E+02  0.7816164E-02  0.1184000E+00
        -11   -1    0    0    0    0  0.00000000000E+00  0.00000000000E+00  0.45593999997E+02  0.45594000000E+02  0.51100000000E-03 0. -1.
         11   -1    0    0    0    0 -0.00000000000E+00 -0.00000000000E+00 -0.45593999997E+02  0.45594000000E+02  0.51100000000E-03 0.  1.
         23    2    1    2    0    0 -0.35527136788E-14  0.00000000000E+00  0.00000000000E+00  0.91188000000E+02  0.91188000000E+02 0.  0.
    9900012    2    3    3    0    0 -0.31573117673E+02  0.55596804068E+01  0.29254936546E+02  0.47787272838E+02  0.20000008179E+02 0.  0.
        -12    1    3    3    0    0  0.31573117673E+02 -0.55596804068E+01 -0.29254936546E+02  0.43400727162E+02  0.00000000000E+00 0.  1.
         11    1    4    4    0    0 -0.73837609941E+00 -0.15206703081E+01  0.63046376537E+01  0.65273343453E+01  0.51100000000E-03 0. -1.
        -11    1    4    4    0    0 -0.22863597389E+02 -0.98632921336E+00  0.16503706170E+02  0.28215053579E+02  0.51100000000E-03 0.  1.
        -12    1    4    4    0    0 -0.79711441844E+01  0.80666799282E+01  0.64465927231E+01  0.13044884914E+02  0.00000000000E+00 0.  1.
</event>
<event>
 8    1  0.5250708E-010  0.9118800E+02  0.7816164E-02  0.1184000E+00
        -11   -1    0    0    0    0  0.00000000000E+00  0.00000000000E+00  0.45593999997E+02  0.45594000000E+02  0.51100000000E-03 0. -1.
         11   -1    0    0    0    0 -0.00000000000E+00 -0.00000000000E+00 -0.45593999997E+02  0.45594000000E+02  0.51100000000E-03 0.  1.
         23    2    1    2    0    0  0.00000000000E+00  0.00000000000E+00  0.00000000000E+00  0.91188000000E+02  0.91188000000E+02 0.  0.
    9900012    2    3    3    0    0 -0.32323909032E+01  0.75117034176E+01  0.42623339765E+02  0.47787272680E+02  0.20000007457E+02 0.  0.
        -12    1    3    3    0    0  0.32323909032E+01 -0.75117034176E+01 -0.42623339765E+02  0.43400727320E+02  0.00000000000E+00 0.  1.
         11    1    4    4    0    0 -0.29148684390E+01  0.43182245703E+01  0.39959623363E+01  0.65659147657E+01  0.51100000000E-03 0. -1.
        -11    1    4    4    0    0  0.80356088646E+00  0.54898439664E+01  0.38235634680E+02  0.38636095254E+02  0.51100000000E-03 0.  1.
        -12    1    4    4    0    0 -0.11210833506E+01 -0.22963651191E+01  0.39174274896E+00  0.25852626599E+01  0.00000000000E+00 0.  1.
</event>
<event>
 8    1  0.5250708E-010  0.9118800E+02  0.7816164E-02  0.1184000E+00
        -11   -1    0    0    0    0  0.00000000000E+00  0.00000000000E+00  0.45593999997E+02  0.45594000000E+02  0.51100000000E-03 0. -1.
         11   -1    0    0    0    0 -0.00000000000E+00 -0.00000000000E+00 -0.45593999997E+02  0.45594000000E+02  0.51100000000E-03 0.  1.
         23    2    1    2    0    0  0.35527136788E-14  0.00000000000E+00  0.00000000000E+00  0.91188000000E+02  0.91188000000E+02 0.  0.
    9900012    2    3    3    0    0 -0.25600501697E+02 -0.22967371224E+02  0.26471455024E+02  0.47787265454E+02  0.19999974511E+02 0.  0.
        -12    1    3    3    0    0  0.25600501697E+02  0.22967371224E+02 -0.26471455024E+02  0.43400734546E+02  0.00000000000E+00 0.  1.
         11    1    4    4    0    0 -0.13997946962E+02 -0.67565399160E+01  0.12304201532E+02  0.19823892816E+02  0.51100000000E-03 0. -1.
        -11    1    4    4    0    0 -0.33405665467E+01  0.21089736854E+01  0.30938375114E+01  0.50178666450E+01  0.51100000000E-03 0.  1.
        -12    1    4    4    0    0 -0.82619881884E+01 -0.18319804993E+02  0.11073415981E+02  0.22945505993E+02  0.00000000000E+00 0.  1.
</event>
<event>
 8    1  0.5250708E-010  0.9118800E+02  0.7816164E-02  0.1184000E+00
        -11   -1    0    0    0    0  0.00000000000E+00  0.00000000000E+00  0.45593999997E+02  0.45594000000E+02  0.51100000000E-03 0.  1.
         11   -1    0    0    0    0 -0.00000000000E+00 -0.00000000000E+00 -0.45593999997E+02  0.45594000000E+02  0.51100000000E-03 0. -1.
         23    2    1    2    0    0  0.00000000000E+00  0.35527136788E-14  0.00000000000E+00  0.91188000000E+02  0.91188000000E+02 0.  0.
    9900012    2    3    3    0    0 -0.91641801581E+01 -0.31577591545E+02 -0.28328370421E+02  0.47787273549E+02  0.20000011420E+02 0.  0.
         12    1    3    3    0    0  0.91641801581E+01  0.31577591545E+02  0.28328370421E+02  0.43400726451E+02  0.00000000000E+00 0. -1.
         11    1    4    4    0    0 -0.22380579678E+01 -0.64465258378E+01 -0.18029623252E+01  0.70581351823E+01  0.51100000000E-03 0. -1.
        -11    1    4    4    0    0 -0.90377353810E+01 -0.44018953398E+01 -0.79832296602E+01  0.12837028452E+02  0.51100000000E-03 0.  1.
         12    1    4    4    0    0  0.21116131907E+01 -0.20729170367E+02 -0.18542178436E+02  0.27892109915E+02  0.00000000000E+00 0. -1.
</event>
<event>
 8    1  0.5250708E-010  0.9118800E+02  0.7816164E-02  0.1184000E+00
        -11   -1    0    0    0    0  0.00000000000E+00  0.00000000000E+00  0.45593999997E+02  0.45594000000E+02  0.51100000000E-03 0. -1.
         11   -1    0    0    0    0 -0.00000000000E+00 -0.00000000000E+00 -0.45593999997E+02  0.45594000000E+02  0.51100000000E-03 0.  1.
         23    2    1    2    0    0 -0.17763568394E-14 -0.35527136788E-14  0.71054273576E-14  0.91188000000E+02  0.91188000000E+02 0.  0.
    9900012    2    3    3    0    0 -0.10442924485E+02 -0.22929138677E+02  0.35338709280E+02  0.47787257542E+02  0.19999938437E+02 0.  0.
        -12    1    3    3    0    0  0.10442924485E+02  0.22929138677E+02 -0.35338709280E+02  0.43400742458E+02  0.00000000000E+00 0.  1.
         11    1    4    4    0    0 -0.55747124425E+01 -0.14679774878E+02  0.70586536319E+01  0.17216207499E+02  0.51100000000E-03 0. -1.
        -11    1    4    4    0    0  0.48932415205E+00 -0.54419057876E+01  0.15424449702E+02  0.16363600631E+02  0.51100000000E-03 0.  1.
         12    1    4    4    0    0 -0.53575361948E+01 -0.28074580120E+01  0.12855605946E+02  0.14207449413E+02  0.00000000000E+00 0. -1.
</event>
<event>
 8    1  0.5250708E-010  0.9118800E+02  0.7816164E-02  0.1184000E+00
        -11   -1    0    0    0    0  0.00000000000E+00  0.00000000000E+00  0.45593999997E+02  0.45594000000E+02  0.51100000000E-03 0. -1.
         11   -1    0    0    0    0 -0.00000000000E+00 -0.00000000000E+00 -0.45593999997E+02  0.45594000000E+02  0.51100000000E-03 0.  1.
         23    2    1    2    0    0 -0.35527136788E-14 -0.88817841970E-15  0.00000000000E+00  0.91188000000E+02  0.91188000000E+02 0.  0.
    9900012    2    3    3    0    0 -0.26794476645E+02  0.64398314756E+01  0.33529205468E+02  0.47787273884E+02  0.20000012946E+02 0.  0.
        -12    1    3    3    0    0  0.26794476645E+02 -0.64398314756E+01 -0.33529205468E+02  0.43400726116E+02  0.00000000000E+00 0.  1.
         11    1    4    4    0    0 -0.19180385329E+02  0.67048969203E+01  0.26207214866E+02  0.33161135918E+02  0.51100000000E-03 0. -1.
        -11    1    4    4    0    0 -0.69053290373E+01  0.29932642213E+01  0.11534960224E+01  0.76140497206E+01  0.51100000000E-03 0.  1.
        -12    1    4    4    0    0 -0.70876227841E+00 -0.32583296660E+01  0.61684945791E+01  0.70120882447E+01  0.00000000000E+00 0.  1.
</event>
<event>
 8    1  0.5250708E-010  0.9118800E+02  0.7816164E-02  0.1184000E+00
        -11   -1    0    0    0    0  0.00000000000E+00  0.00000000000E+00  0.45593999997E+02  0.45594000000E+02  0.51100000000E-03 0. -1.
         11   -1    0    0    0    0 -0.00000000000E+00 -0.00000000000E+00 -0.45593999997E+02  0.45594000000E+02  0.51100000000E-03 0.  1.
         23    2    1    2    0    0 -0.22204460493E-15 -0.17763568394E-14  0.00000000000E+00  0.91188000000E+02  0.91188000000E+02 0.  0.
    9900012    2    3    3    0    0  0.13208508312E+01  0.10989140674E+02 -0.41965675425E+02  0.47787265288E+02  0.19999973754E+02 0.  0.
         12    1    3    3    0    0 -0.13208508312E+01 -0.10989140674E+02  0.41965675425E+02  0.43400734712E+02  0.00000000000E+00 0. -1.
         11    1    4    4    0    0 -0.42216675548E+01 -0.84692356424E+00 -0.36093770085E+01  0.56184837027E+01  0.51100000000E-03 0. -1.
        -11    1    4    4    0    0  0.39023017256E+01  0.31209969200E+01 -0.28397818601E+02  0.28834088890E+02  0.51100000000E-03 0.  1.
        -12    1    4    4    0    0  0.16402166604E+01  0.87150673179E+01 -0.99584798155E+01  0.13334692695E+02  0.00000000000E+00 0.  1.
</event>
<event>
 8    1  0.5250708E-010  0.9118800E+02  0.7816164E-02  0.1184000E+00
        -11   -1    0    0    0    0  0.00000000000E+00  0.00000000000E+00  0.45593999997E+02  0.45594000000E+02  0.51100000000E-03 0.  1.
         11   -1    0    0    0    0 -0.00000000000E+00 -0.00000000000E+00 -0.45593999997E+02  0.45594000000E+02  0.51100000000E-03 0. -1.
         23    2    1    2    0    0 -0.44408920985E-15 -0.71054273576E-14  0.88817841970E-15  0.91188000000E+02  0.91188000000E+02 0.  0.
    9900012    2    3    3    0    0 -0.38362380819E+01  0.43063276261E+02  0.38027655352E+01  0.47787268316E+02  0.19999987560E+02 0.  0.
        -12    1    3    3    0    0  0.38362380819E+01 -0.43063276261E+02 -0.38027655352E+01  0.43400731684E+02  0.00000000000E+00 0.  1.
         11    1    4    4    0    0 -0.16707156194E+01  0.38636366775E+02  0.32503560723E+01  0.38808825583E+02  0.51100000000E-03 0. -1.
        -11    1    4    4    0    0  0.16403510109E+01  0.24646494835E+01  0.28581731646E+01  0.41151430856E+01  0.51100000000E-03 0.  1.
         12    1    4    4    0    0 -0.38058734733E+01  0.19622600027E+01 -0.23057637017E+01  0.48632996475E+01  0.00000000000E+00 0. -1.
</event>
<event>
 8    1  0.5250708E-010  0.9118800E+02  0.7816164E-02  0.1184000E+00
        -11   -1    0    0    0    0  0.00000000000E+00  0.00000000000E+00  0.45593999997E+02  0.45594000000E+02  0.51100000000E-03 0. -1.
         11   -1    0    0    0    0 -0.00000000000E+00 -0.00000000000E+00 -0.45593999997E+02  0.45594000000E+02  0.51100000000E-03 0.  1.
         23    2    1    2    0    0  0.88817841970E-15  0.00000000000E+00  0.00000000000E+00  0.91188000000E+02  0.91188000000E+02 0.  0.
    9900012    2    3    3    0    0  0.67525165905E+01 -0.14666245187E+02 -0.40285592066E+02  0.47787260879E+02  0.19999953651E+02 0.  0.
         12    1    3    3    0    0 -0.67525165905E+01  0.14666245187E+02  0.40285592066E+02  0.43400739121E+02  0.00000000000E+00 0. -1.
         11    1    4    4    0    0  0.24312266384E+01 -0.75277405728E+01 -0.25109855665E+02  0.26326461838E+02  0.51100000000E-03 0. -1.
        -11    1    4    4    0    0  0.65140677599E+01 -0.82356056758E+01 -0.62838192998E+01  0.12237020262E+02  0.51100000000E-03 0.  1.
         12    1    4    4    0    0 -0.21927778078E+01  0.10971010621E+01 -0.88919171007E+01  0.92237787799E+01  0.00000000000E+00 0. -1.
</event>
<event>
 8    1  0.5250708E-010  0.9118800E+02  0.7816164E-02  0.1184000E+00
        -11   -1    0    0    0    0  0.00000000000E+00  0.00000000000E+00  0.45593999997E+02  0.45594000000E+02  0.51100000000E-03 0. -1.
         11   -1    0    0    0    0 -0.00000000000E+00 -0.00000000000E+00 -0.45593999997E+02  0.45594000000E+02  0.51100000000E-03 0.  1.
         23    2    1    2    0    0  0.00000000000E+00  0.00000000000E+00  0.00000000000E+00  0.91188000000E+02  0.91188000000E+02 0.  0.
    9900012    2    3    3    0    0 -0.10998899702E+02 -0.41376054425E+02 -0.71182548787E+01  0.47787271585E+02  0.20000002464E+02 0.  0.
         12    1    3    3    0    0  0.10998899702E+02  0.41376054425E+02  0.71182548787E+01  0.43400728415E+02  0.00000000000E+00 0. -1.
         11    1    4    4    0    0 -0.34851626544E+01 -0.29048150715E+01  0.33461907932E+01  0.56374907905E+01  0.51100000000E-03 0. -1.
        -11    1    4    4    0    0 -0.36812360104E+01 -0.23763702970E+02 -0.64654044926E+00  0.24055832811E+02  0.51100000000E-03 0.  1.
         12    1    4    4    0    0 -0.38325010367E+01 -0.14707536384E+02 -0.98179052226E+01  0.18093947984E+02  0.00000000000E+00 0. -1.
</event>
<event>
 8    1  0.5250708E-010  0.9118800E+02  0.7816164E-02  0.1184000E+00
        -11   -1    0    0    0    0  0.00000000000E+00  0.00000000000E+00  0.45593999997E+02  0.45594000000E+02  0.51100000000E-03 0. -1.
         11   -1    0    0    0    0 -0.00000000000E+00 -0.00000000000E+00 -0.45593999997E+02  0.45594000000E+02  0.51100000000E-03 0.  1.
         23    2    1    2    0    0  0.71054273576E-14  0.00000000000E+00  0.11102230246E-15  0.91188000000E+02  0.91188000000E+02 0.  0.
    9900012    2    3    3    0    0  0.27429737648E+02 -0.33623973433E+02  0.81327399064E+00  0.47787268307E+02  0.19999987521E+02 0.  0.
        -12    1    3    3    0    0 -0.27429737648E+02  0.33623973433E+02 -0.81327399064E+00  0.43400731693E+02  0.00000000000E+00 0.  1.
         11    1    4    4    0    0  0.10244271988E+02 -0.19718225124E+02  0.30624896516E+01  0.22430611979E+02  0.51100000000E-03 0. -1.
        -11    1    4    4    0    0  0.11153192329E+02 -0.15408019190E+02 -0.21194791055E+01  0.19138781216E+02  0.51100000000E-03 0.  1.
        -12    1    4    4    0    0  0.60322733312E+01  0.15022708815E+01 -0.12973655546E+00  0.62178751127E+01  0.00000000000E+00 0.  1.
</event>
<event>
 8    1  0.5250708E-010  0.9118800E+02  0.7816164E-02  0.1184000E+00
        -11   -1    0    0    0    0  0.00000000000E+00  0.00000000000E+00  0.45593999997E+02  0.45594000000E+02  0.51100000000E-03 0. -1.
         11   -1    0    0    0    0 -0.00000000000E+00 -0.00000000000E+00 -0.45593999997E+02  0.45594000000E+02  0.51100000000E-03 0.  1.
         23    2    1    2    0    0  0.00000000000E+00  0.35527136788E-14  0.71054273576E-14  0.91188000000E+02  0.91188000000E+02 0.  0.
    9900012    2    3    3    0    0 -0.68277304886E+01 -0.28349363029E+02 -0.32145278738E+02  0.47787271516E+02  0.20000002149E+02 0.  0.
         12    1    3    3    0    0  0.68277304886E+01  0.28349363029E+02  0.32145278738E+02  0.43400728484E+02  0.00000000000E+00 0. -1.
         11    1    4    4    0    0  0.26835255901E+01 -0.16445653551E+02 -0.16428149711E+02  0.23399678064E+02  0.51100000000E-03 0. -1.
        -11    1    4    4    0    0  0.10669905135E+01 -0.31663355346E+01 -0.79451123923E+01  0.86191044002E+01  0.51100000000E-03 0.  1.
         12    1    4    4    0    0 -0.10578246592E+02 -0.87373739437E+01 -0.77720166348E+01  0.15768489052E+02  0.00000000000E+00 0. -1.
</event>
<event>
 8    1  0.5250708E-010  0.9118800E+02  0.7816164E-02  0.1184000E+00
        -11   -1    0    0    0    0  0.00000000000E+00  0.00000000000E+00  0.45593999997E+02  0.45594000000E+02  0.51100000000E-03 0. -1.
         11   -1    0    0    0    0 -0.00000000000E+00 -0.00000000000E+00 -0.45593999997E+02  0.45594000000E+02  0.51100000000E-03 0.  1.
         23    2    1    2    0    0  0.35527136788E-14  0.00000000000E+00  0.00000000000E+00  0.91188000000E+02  0.91188000000E+02 0.  0.
    9900012    2    3    3    0    0 -0.20924799701E+02  0.12183532676E+02  0.36018569739E+02  0.47787273312E+02  0.20000010338E+02 0.  0.
        -12    1    3    3    0    0  0.20924799701E+02 -0.12183532676E+02 -0.36018569739E+02  0.43400726688E+02  0.00000000000E+00 0.  1.
         11    1    4    4    0    0 -0.13365236849E+02  0.48352405776E+01  0.10589786242E+02  0.17724352750E+02  0.51100000000E-03 0. -1.
        -11    1    4    4    0    0  0.22163899530E+01 -0.12432753501E+01  0.18947410760E+01  0.31698835983E+01  0.51100000000E-03 0.  1.
        -12    1    4    4    0    0 -0.97759528045E+01  0.85915674482E+01  0.23534042421E+02  0.26893036964E+02  0.00000000000E+00 0.  1.
</event>
<event>
 8    1  0.5250708E-010  0.9118800E+02  0.7816164E-02  0.1184000E+00
        -11   -1    0    0    0    0  0.00000000000E+00  0.00000000000E+00  0.45593999997E+02  0.45594000000E+02  0.51100000000E-03 0. -1.
         11   -1    0    0    0    0 -0.00000000000E+00 -0.00000000000E+00 -0.45593999997E+02  0.45594000000E+02  0.51100000000E-03 0.  1.
         23    2    1    2    0    0  0.00000000000E+00  0.71054273576E-14  0.35527136788E-14  0.91188000000E+02  0.91188000000E+02 0.  0.
    9900012    2    3    3    0    0  0.23417405054E+02 -0.19277546396E+02 -0.31042307177E+02  0.47787268562E+02  0.19999988680E+02 0.  0.
         12    1    3    3    0    0 -0.23417405054E+02  0.19277546396E+02  0.31042307177E+02  0.43400731438E+02  0.00000000000E+00 0. -1.
         11    1    4    4    0    0 -0.11882304374E+01  0.61404138557E+00 -0.24698591268E+01  0.28087617847E+01  0.51100000000E-03 0. -1.
        -11    1    4    4    0    0  0.20227809949E+02 -0.20411667609E+02 -0.28636999413E+02  0.40569424516E+02  0.51100000000E-03 0.  1.
        -12    1    4    4    0    0  0.43778255422E+01  0.52007982763E+00  0.64551362766E-01  0.44090822609E+01  0.00000000000E+00 0.  1.
</event>
<event>
 8    1  0.5250708E-010  0.9118800E+02  0.7816164E-02  0.1184000E+00
        -11   -1    0    0    0    0  0.00000000000E+00  0.00000000000E+00  0.45593999997E+02  0.45594000000E+02  0.51100000000E-03 0. -1.
         11   -1    0    0    0    0 -0.00000000000E+00 -0.00000000000E+00 -0.45593999997E+02  0.45594000000E+02  0.51100000000E-03 0.  1.
         23    2    1    2    0    0  0.35527136788E-14  0.00000000000E+00  0.00000000000E+00  0.91188000000E+02  0.91188000000E+02 0.  0.
    9900012    2    3    3    0    0 -0.22584110576E+02  0.36666976558E+02 -0.53955138279E+01  0.47787299662E+02  0.20000130477E+02 0.  0.
        -12    1    3    3    0    0  0.22584110576E+02 -0.36666976558E+02  0.53955138279E+01  0.43400700338E+02  0.00000000000E+00 0.  1.
         11    1    4    4    0    0 -0.11964967005E+02  0.24832082858E+02 -0.40882686285E+01  0.27865870077E+02  0.51100000000E-03 0. -1.
        -11    1    4    4    0    0  0.13016401880E+01  0.36347924512E+01 -0.35919491743E+01  0.52733369392E+01  0.51100000000E-03 0.  1.
         12    1    4    4    0    0 -0.11920783758E+02  0.82001012489E+01  0.22847039749E+01  0.14648092646E+02  0.00000000000E+00 0. -1.
</event>
<event>
 8    1  0.5250708E-010  0.9118800E+02  0.7816164E-02  0.1184000E+00
        -11   -1    0    0    0    0  0.00000000000E+00  0.00000000000E+00  0.45593999997E+02  0.45594000000E+02  0.51100000000E-03 0.  1.
         11   -1    0    0    0    0 -0.00000000000E+00 -0.00000000000E+00 -0.45593999997E+02  0.45594000000E+02  0.51100000000E-03 0. -1.
         23    2    1    2    0    0  0.00000000000E+00  0.00000000000E+00  0.00000000000E+00  0.91188000000E+02  0.91188000000E+02 0.  0.
    9900012    2    3    3    0    0  0.38778447447E+02 -0.18704695152E+02 -0.54762883604E+01  0.47787270267E+02  0.19999996457E+02 0.  0.
         12    1    3    3    0    0 -0.38778447447E+02  0.18704695152E+02  0.54762883604E+01  0.43400729733E+02  0.00000000000E+00 0. -1.
         11    1    4    4    0    0  0.22895004784E+02 -0.10494630569E+02  0.25765449775E+01  0.25317130547E+02  0.51100000000E-03 0. -1.
        -11    1    4    4    0    0  0.27389997905E+01  0.25086816007E+01 -0.46277436875E-01  0.37145316109E+01  0.51100000000E-03 0.  1.
        -12    1    4    4    0    0  0.13144442872E+02 -0.10718746183E+02 -0.80065559010E+01  0.18755608110E+02  0.00000000000E+00 0.  1.
</event>
<event>
 8    1  0.5250708E-010  0.9118800E+02  0.7816164E-02  0.1184000E+00
        -11   -1    0    0    0    0  0.00000000000E+00  0.00000000000E+00  0.45593999997E+02  0.45594000000E+02  0.51100000000E-03 0. -1.
         11   -1    0    0    0    0 -0.00000000000E+00 -0.00000000000E+00 -0.45593999997E+02  0.45594000000E+02  0.51100000000E-03 0.  1.
         23    2    1    2    0    0  0.00000000000E+00  0.00000000000E+00  0.00000000000E+00  0.91188000000E+02  0.91188000000E+02 0.  0.
    9900012    2    3    3    0    0  0.55844633481E+01 -0.38431745592E+02 -0.19376219489E+02  0.47787272105E+02  0.20000004834E+02 0.  0.
         12    1    3    3    0    0 -0.55844633481E+01  0.38431745592E+02  0.19376219489E+02  0.43400727895E+02  0.00000000000E+00 0. -1.
         11    1    4    4    0    0  0.32055916482E+01 -0.50223955280E+00 -0.41017637492E+01  0.52299644835E+01  0.51100000000E-03 0. -1.
        -11    1    4    4    0    0  0.69543944246E+01 -0.21686225392E+02 -0.10038245620E+02  0.24888196981E+02  0.51100000000E-03 0.  1.
        -12    1    4    4    0    0 -0.45755227247E+01 -0.16243280648E+02 -0.52362101203E+01  0.17669110640E+02  0.00000000000E+00 0.  1.
</event>
<event>
 8    1  0.5250708E-010  0.9118800E+02  0.7816164E-02  0.1184000E+00
        -11   -1    0    0    0    0  0.00000000000E+00  0.00000000000E+00  0.45593999997E+02  0.45594000000E+02  0.51100000000E-03 0. -1.
         11   -1    0    0    0    0 -0.00000000000E+00 -0.00000000000E+00 -0.45593999997E+02  0.45594000000E+02  0.51100000000E-03 0.  1.
         23    2    1    2    0    0 -0.44408920985E-15  0.00000000000E+00  0.00000000000E+00  0.91188000000E+02  0.91188000000E+02 0.  0.
    9900012    2    3    3    0    0 -0.34640610981E+01  0.34311561564E+02 -0.26350341441E+02  0.47787268781E+02  0.19999989681E+02 0.  0.
         12    1    3    3    0    0  0.34640610981E+01 -0.34311561564E+02  0.26350341441E+02  0.43400731219E+02  0.00000000000E+00 0. -1.
         11    1    4    4    0    0  0.75353772881E+00  0.25233689426E+00  0.16423303246E+01  0.18244840841E+01  0.51100000000E-03 0. -1.
        -11    1    4    4    0    0 -0.42913052816E+01  0.30176195319E+02 -0.18373989390E+02  0.35589627019E+02  0.51100000000E-03 0.  1.
         12    1    4    4    0    0  0.73706454719E-01  0.38830293506E+01 -0.96186823755E+01  0.10373157678E+02  0.00000000000E+00 0. -1.
</event>
<event>
 8    1  0.5250708E-010  0.9118800E+02  0.7816164E-02  0.1184000E+00
        -11   -1    0    0    0    0  0.00000000000E+00  0.00000000000E+00  0.45593999997E+02  0.45594000000E+02  0.51100000000E-03 0.  1.
         11   -1    0    0    0    0 -0.00000000000E+00 -0.00000000000E+00 -0.45593999997E+02  0.45594000000E+02  0.51100000000E-03 0. -1.
         23    2    1    2    0    0  0.00000000000E+00  0.00000000000E+00  0.00000000000E+00  0.91188000000E+02  0.91188000000E+02 0.  0.
    9900012    2    3    3    0    0 -0.51281501401E+01  0.36634412025E+02 -0.22699008464E+02  0.47787273583E+02  0.20000011574E+02 0.  0.
         12    1    3    3    0    0  0.51281501401E+01 -0.36634412025E+02  0.22699008464E+02  0.43400726417E+02  0.00000000000E+00 0. -1.
         11    1    4    4    0    0 -0.59676692560E+00  0.29611821636E+00  0.12134742952E+01  0.13843182032E+01  0.51100000000E-03 0. -1.
        -11    1    4    4    0    0 -0.30129542204E+01  0.26098380926E+02 -0.24649317970E+02  0.36024883855E+02  0.51100000000E-03 0.  1.
        -12    1    4    4    0    0 -0.15184289941E+01  0.10239912883E+02  0.73683521031E+00  0.10378071525E+02  0.00000000000E+00 0.  1.
</event>
<event>
 8    1  0.5250708E-010  0.9118800E+02  0.7816164E-02  0.1184000E+00
        -11   -1    0    0    0    0  0.00000000000E+00  0.00000000000E+00  0.45593999997E+02  0.45594000000E+02  0.51100000000E-03 0. -1.
         11   -1    0    0    0    0 -0.00000000000E+00 -0.00000000000E+00 -0.45593999997E+02  0.45594000000E+02  0.51100000000E-03 0.  1.
         23    2    1    2    0    0  0.00000000000E+00  0.44408920985E-15  0.00000000000E+00  0.91188000000E+02  0.91188000000E+02 0.  0.
    9900012    2    3    3    0    0 -0.36096678946E+02  0.24675988348E+01  0.23970062130E+02  0.47787272432E+02  0.20000006327E+02 0.  0.
        -12    1    3    3    0    0  0.36096678946E+02 -0.24675988348E+01 -0.23970062130E+02  0.43400727568E+02  0.00000000000E+00 0.  1.
         11    1    4    4    0    0 -0.10410542611E+02  0.79731608534E+01  0.10459003664E+02  0.16773236103E+02  0.51100000000E-03 0. -1.
        -11    1    4    4    0    0 -0.12760917510E+02  0.31055979335E-01  0.21588310344E+01  0.12942276919E+02  0.51100000000E-03 0.  1.
         12    1    4    4    0    0 -0.12925218825E+02 -0.55366179980E+01  0.11352227431E+02  0.18071759410E+02  0.00000000000E+00 0. -1.
</event>
<event>
 8    1  0.5250708E-010  0.9118800E+02  0.7816164E-02  0.1184000E+00
        -11   -1    0    0    0    0  0.00000000000E+00  0.00000000000E+00  0.45593999997E+02  0.45594000000E+02  0.51100000000E-03 0. -1.
         11   -1    0    0    0    0 -0.00000000000E+00 -0.00000000000E+00 -0.45593999997E+02  0.45594000000E+02  0.51100000000E-03 0.  1.
         23    2    1    2    0    0  0.00000000000E+00 -0.27755575616E-16  0.00000000000E+00  0.91188000000E+02  0.91188000000E+02 0.  0.
    9900012    2    3    3    0    0 -0.22713298902E+02  0.11267460848E+00 -0.36982654438E+02  0.47787269916E+02  0.19999994853E+02 0.  0.
         12    1    3    3    0    0  0.22713298902E+02 -0.11267460848E+00  0.36982654438E+02  0.43400730084E+02  0.00000000000E+00 0. -1.
         11    1    4    4    0    0 -0.89834275684E+01 -0.79556394433E+00 -0.25060711381E+01  0.93603037171E+01  0.51100000000E-03 0. -1.
        -11    1    4    4    0    0  0.98227998624E-01  0.29564113116E+01 -0.69826785126E+01  0.75833908019E+01  0.51100000000E-03 0.  1.
         12    1    4    4    0    0 -0.13828099332E+02 -0.20481727588E+01 -0.27493904787E+02  0.30843575397E+02  0.00000000000E+00 0. -1.
</event>
<event>
 8    1  0.5250708E-010  0.9118800E+02  0.7816164E-02  0.1184000E+00
        -11   -1    0    0    0    0  0.00000000000E+00  0.00000000000E+00  0.45593999997E+02  0.45594000000E+02  0.51100000000E-03 0. -1.
         11   -1    0    0    0    0 -0.00000000000E+00 -0.00000000000E+00 -0.45593999997E+02  0.45594000000E+02  0.51100000000E-03 0.  1.
         23    2    1    2    0    0  0.44408920985E-15  0.71054273576E-14  0.00000000000E+00  0.91188000000E+02  0.91188000000E+02 0.  0.
    9900012    2    3    3    0    0 -0.18981234655E+01 -0.34153631374E+02  0.26712354111E+02  0.47787271079E+02  0.20000000159E+02 0.  0.
        -12    1    3    3    0    0  0.18981234655E+01  0.34153631374E+02 -0.26712354111E+02  0.43400728921E+02  0.00000000000E+00 0.  1.
         11    1    4    4    0    0  0.27201312431E+00 -0.25638455253E+02  0.19458118116E+02  0.32187307122E+02  0.51100000000E-03 0. -1.
        -11    1    4    4    0    0  0.37417021265E+01 -0.10998252152E+01  0.39666552392E+01  0.55627604978E+01  0.51100000000E-03 0.  1.
        -12    1    4    4    0    0 -0.59118387164E+01 -0.74153509058E+01  0.32875807559E+01  0.10037203460E+02  0.00000000000E+00 0.  1.
</event>
<event>
 8    1  0.5250708E-010  0.9118800E+02  0.7816164E-02  0.1184000E+00
        -11   -1    0    0    0    0  0.00000000000E+00  0.00000000000E+00  0.45593999997E+02  0.45594000000E+02  0.51100000000E-03 0. -1.
         11   -1    0    0    0    0 -0.00000000000E+00 -0.00000000000E+00 -0.45593999997E+02  0.45594000000E+02  0.51100000000E-03 0.  1.
         23    2    1    2    0    0  0.17763568394E-14 -0.22204460493E-15 -0.71054273576E-14  0.91188000000E+02  0.91188000000E+02 0.  0.
    9900012    2    3    3    0    0 -0.64961129195E+01 -0.17288147249E+01 -0.42876970915E+02  0.47787275141E+02  0.20000018678E+02 0.  0.
         12    1    3    3    0    0  0.64961129195E+01  0.17288147249E+01  0.42876970915E+02  0.43400724859E+02  0.00000000000E+00 0. -1.
         11    1    4    4    0    0 -0.82051701245E+01  0.29779491742E+01 -0.35970418072E+02  0.37014375242E+02  0.51100000000E-03 0.  1.
        -11    1    4    4    0    0 -0.41200492148E+00  0.59703589237E+00 -0.45272325646E+01  0.45849792657E+01  0.51100000000E-03 0. -1.
        -12    1    4    4    0    0  0.21210621265E+01 -0.53037997914E+01 -0.23793202790E+01  0.61879206331E+01  0.00000000000E+00 0.  1.
</event>
<event>
 8    1  0.5250708E-010  0.9118800E+02  0.7816164E-02  0.1184000E+00
        -11   -1    0    0    0    0  0.00000000000E+00  0.00000000000E+00  0.45593999997E+02  0.45594000000E+02  0.51100000000E-03 0. -1.
         11   -1    0    0    0    0 -0.00000000000E+00 -0.00000000000E+00 -0.45593999997E+02  0.45594000000E+02  0.51100000000E-03 0.  1.
         23    2    1    2    0    0  0.00000000000E+00  0.17763568394E-14  0.00000000000E+00  0.91188000000E+02  0.91188000000E+02 0.  0.
    9900012    2    3    3    0    0  0.79151549374E+01 -0.15391339343E+02  0.39800520541E+02  0.47787257613E+02  0.19999938759E+02 0.  0.
        -12    1    3    3    0    0 -0.79151549374E+01  0.15391339343E+02 -0.39800520541E+02  0.43400742387E+02  0.00000000000E+00 0.  1.
         11    1    4    4    0    0  0.57872356421E+00 -0.82967662230E+01  0.68750826483E+01  0.10790644670E+02  0.51100000000E-03 0. -1.
        -11    1    4    4    0    0  0.94984376920E+00 -0.40977715465E+00  0.24395646532E+02  0.24417569299E+02  0.51100000000E-03 0.  1.
         12    1    4    4    0    0  0.63865876040E+01 -0.66847959650E+01  0.85297913612E+01  0.12579043643E+02  0.00000000000E+00 0. -1.
</event>
<event>
 8    1  0.5250708E-010  0.9118800E+02  0.7816164E-02  0.1184000E+00
        -11   -1    0    0    0    0  0.00000000000E+00  0.00000000000E+00  0.45593999997E+02  0.45594000000E+02  0.51100000000E-03 0.  1.
         11   -1    0    0    0    0 -0.00000000000E+00 -0.00000000000E+00 -0.45593999997E+02  0.45594000000E+02  0.51100000000E-03 0. -1.
         23    2    1    2    0    0  0.71054273576E-14  0.00000000000E+00  0.00000000000E+00  0.91188000000E+02  0.91188000000E+02 0.  0.
    9900012    2    3    3    0    0  0.34185164102E+02  0.26607754117E+02 -0.26507361212E+01  0.47787257773E+02  0.19999939490E+02 0.  0.
        -12    1    3    3    0    0 -0.34185164102E+02 -0.26607754117E+02  0.26507361212E+01  0.43400742227E+02  0.00000000000E+00 0.  1.
         11    1    4    4    0    0  0.90538497891E+01  0.41513408501E+00 -0.30031018881E+01  0.95479397528E+01  0.51100000000E-03 0. -1.
        -11    1    4    4    0    0  0.13118792398E+01  0.83568889601E+01  0.61011221204E+00  0.84812061291E+01  0.51100000000E-03 0.  1.
        -12    1    4    4    0    0  0.23819435073E+02  0.17835731072E+02 -0.25774644523E+00  0.29758111891E+02  0.00000000000E+00 0.  1.
</event>
<event>
 8    1  0.5250708E-010  0.9118800E+02  0.7816164E-02  0.1184000E+00
        -11   -1    0    0    0    0  0.00000000000E+00  0.00000000000E+00  0.45593999997E+02  0.45594000000E+02  0.51100000000E-03 0. -1.
         11   -1    0    0    0    0 -0.00000000000E+00 -0.00000000000E+00 -0.45593999997E+02  0.45594000000E+02  0.51100000000E-03 0.  1.
         23    2    1    2    0    0  0.35527136788E-14  0.00000000000E+00  0.00000000000E+00  0.91188000000E+02  0.91188000000E+02 0.  0.
    9900012    2    3    3    0    0  0.19358340226E+02 -0.22986209888E+02 -0.31313119280E+02  0.47787278573E+02  0.20000034328E+02 0.  0.
         12    1    3    3    0    0 -0.19358340226E+02  0.22986209888E+02  0.31313119280E+02  0.43400721427E+02  0.00000000000E+00 0. -1.
         11    1    4    4    0    0  0.56578921421E+01 -0.38552445092E+01 -0.11145241206E+02  0.13080177962E+02  0.51100000000E-03 0. -1.
        -11    1    4    4    0    0  0.13241856403E+02 -0.20154201614E+02 -0.12891129618E+02  0.27344466109E+02  0.51100000000E-03 0.  1.
         12    1    4    4    0    0  0.45859168009E+00  0.10232362352E+01 -0.72767484562E+01  0.73626345025E+01  0.00000000000E+00 0. -1.
</event>
<event>
 8    1  0.5250708E-010  0.9118800E+02  0.7816164E-02  0.1184000E+00
        -11   -1    0    0    0    0  0.00000000000E+00  0.00000000000E+00  0.45593999997E+02  0.45594000000E+02  0.51100000000E-03 0. -1.
         11   -1    0    0    0    0 -0.00000000000E+00 -0.00000000000E+00 -0.45593999997E+02  0.45594000000E+02  0.51100000000E-03 0.  1.
         23    2    1    2    0    0  0.00000000000E+00  0.00000000000E+00  0.00000000000E+00  0.91188000000E+02  0.91188000000E+02 0.  0.
    9900012    2    3    3    0    0 -0.99740444351E+01 -0.35670244033E+01  0.42088215623E+02  0.47787272819E+02  0.20000008090E+02 0.  0.
        -12    1    3    3    0    0  0.99740444351E+01  0.35670244033E+01 -0.42088215623E+02  0.43400727181E+02  0.00000000000E+00 0.  1.
         11    1    4    4    0    0 -0.49220976581E+01 -0.66679887618E+01  0.13699323542E+02  0.16011264324E+02  0.51100000000E-03 0. -1.
        -11    1    4    4    0    0  0.25928875231E+01  0.46870538722E+01  0.18001406131E+02  0.18781431326E+02  0.51100000000E-03 0.  1.
         12    1    4    4    0    0 -0.76448343000E+01 -0.15860895137E+01  0.10387485950E+02  0.12994577169E+02  0.00000000000E+00 0. -1.
</event>
<event>
 8    1  0.5250708E-010  0.9118800E+02  0.7816164E-02  0.1184000E+00
        -11   -1    0    0    0    0  0.00000000000E+00  0.00000000000E+00  0.45593999997E+02  0.45594000000E+02  0.51100000000E-03 0. -1.
         11   -1    0    0    0    0 -0.00000000000E+00 -0.00000000000E+00 -0.45593999997E+02  0.45594000000E+02  0.51100000000E-03 0.  1.
         23    2    1    2    0    0  0.00000000000E+00 -0.88817841970E-15  0.00000000000E+00  0.91188000000E+02  0.91188000000E+02 0.  0.
    9900012    2    3    3    0    0  0.85659530421E+01  0.71671442019E+01  0.41939003194E+02  0.47787268481E+02  0.19999988311E+02 0.  0.
        -12    1    3    3    0    0 -0.85659530421E+01 -0.71671442019E+01 -0.41939003194E+02  0.43400731519E+02  0.00000000000E+00 0.  1.
         11    1    4    4    0    0  0.47244998142E+01  0.76455040449E+00  0.13661007929E+02  0.14475101855E+02  0.51100000000E-03 0. -1.
        -11    1    4    4    0    0 -0.38191261800E+01 -0.20065366947E+01  0.21603966785E+01  0.48248552679E+01  0.51100000000E-03 0.  1.
        -12    1    4    4    0    0  0.76605794079E+01  0.84091304921E+01  0.26117598586E+02  0.28487311357E+02  0.00000000000E+00 0.  1.
</event>
<event>
 8    1  0.5250708E-010  0.9118800E+02  0.7816164E-02  0.1184000E+00
        -11   -1    0    0    0    0  0.00000000000E+00  0.00000000000E+00  0.45593999997E+02  0.45594000000E+02  0.51100000000E-03 0. -1.
         11   -1    0    0    0    0 -0.00000000000E+00 -0.00000000000E+00 -0.45593999997E+02  0.45594000000E+02  0.51100000000E-03 0.  1.
         23    2    1    2    0    0  0.44408920985E-15 -0.35527136788E-14  0.00000000000E+00  0.91188000000E+02  0.91188000000E+02 0.  0.
    9900012    2    3    3    0    0 -0.26301808407E+01  0.22965771940E+02 -0.36732530606E+02  0.47787270320E+02  0.19999996697E+02 0.  0.
         12    1    3    3    0    0  0.26301808407E+01 -0.22965771940E+02  0.36732530606E+02  0.43400729680E+02  0.00000000000E+00 0. -1.
         11    1    4    4    0    0 -0.33330576734E+01  0.15704313151E+02 -0.15951685684E+02  0.22631637179E+02  0.51100000000E-03 0. -1.
        -11    1    4    4    0    0 -0.22670193764E+01  0.99267520089E+01 -0.15171616434E+02  0.18271774073E+02  0.51100000000E-03 0.  1.
         12    1    4    4    0    0  0.29698962091E+01 -0.26652932194E+01 -0.56092284871E+01  0.68838590673E+01  0.00000000000E+00 0. -1.
</event>
<event>
 8    1  0.5250708E-010  0.9118800E+02  0.7816164E-02  0.1184000E+00
        -11   -1    0    0    0    0  0.00000000000E+00  0.00000000000E+00  0.45593999997E+02  0.45594000000E+02  0.51100000000E-03 0. -1.
         11   -1    0    0    0    0 -0.00000000000E+00 -0.00000000000E+00 -0.45593999997E+02  0.45594000000E+02  0.51100000000E-03 0.  1.
         23    2    1    2    0    0  0.00000000000E+00  0.00000000000E+00 -0.71054273576E-14  0.91188000000E+02  0.91188000000E+02 0.  0.
    9900012    2    3    3    0    0  0.24463493274E+02 -0.11928955138E+02 -0.33806221577E+02  0.47787273149E+02  0.20000009595E+02 0.  0.
         12    1    3    3    0    0 -0.24463493274E+02  0.11928955138E+02  0.33806221577E+02  0.43400726851E+02  0.00000000000E+00 0. -1.
         11    1    4    4    0    0  0.57479419597E+01 -0.68886114092E+01 -0.22105660983E+02  0.23856907840E+02  0.51100000000E-03 0. -1.
        -11    1    4    4    0    0  0.74931000463E+00 -0.12841048792E+01 -0.35473195738E+01  0.38462796627E+01  0.51100000000E-03 0.  1.
        -12    1    4    4    0    0  0.17966241310E+02 -0.37562388498E+01 -0.81532410204E+01  0.20084085646E+02  0.00000000000E+00 0.  1.
</event>
<event>
 8    1  0.5250708E-010  0.9118800E+02  0.7816164E-02  0.1184000E+00
        -11   -1    0    0    0    0  0.00000000000E+00  0.00000000000E+00  0.45593999997E+02  0.45594000000E+02  0.51100000000E-03 0. -1.
         11   -1    0    0    0    0 -0.00000000000E+00 -0.00000000000E+00 -0.45593999997E+02  0.45594000000E+02  0.51100000000E-03 0.  1.
         23    2    1    2    0    0 -0.35527136788E-14  0.00000000000E+00 -0.17763568394E-14  0.91188000000E+02  0.91188000000E+02 0.  0.
    9900012    2    3    3    0    0  0.30117382988E+02  0.27668441322E+02 -0.14526662785E+02  0.47787270342E+02  0.19999996795E+02 0.  0.
         12    1    3    3    0    0 -0.30117382988E+02 -0.27668441322E+02  0.14526662785E+02  0.43400729658E+02  0.00000000000E+00 0. -1.
         11    1    4    4    0    0  0.11031434496E+01  0.29181803188E+01  0.33103374809E+01  0.45487400829E+01  0.51100000000E-03 0. -1.
        -11    1    4    4    0    0  0.22579241645E+02  0.17567554790E+02 -0.85711083943E+01  0.29864779154E+02  0.51100000000E-03 0.  1.
        -12    1    4    4    0    0  0.64349978933E+01  0.71827062132E+01 -0.92658918717E+01  0.13373751105E+02  0.00000000000E+00 0.  1.
</event>
<event>
 8    1  0.5250708E-010  0.9118800E+02  0.7816164E-02  0.1184000E+00
        -11   -1    0    0    0    0  0.00000000000E+00  0.00000000000E+00  0.45593999997E+02  0.45594000000E+02  0.51100000000E-03 0. -1.
         11   -1    0    0    0    0 -0.00000000000E+00 -0.00000000000E+00 -0.45593999997E+02  0.45594000000E+02  0.51100000000E-03 0.  1.
         23    2    1    2    0    0  0.00000000000E+00  0.35527136788E-14  0.35527136788E-14  0.91188000000E+02  0.91188000000E+02 0.  0.
    9900012    2    3    3    0    0  0.23729725591E+02 -0.24218150238E+02 -0.27092545953E+02  0.47787254341E+02  0.19999923842E+02 0.  0.
         12    1    3    3    0    0 -0.23729725591E+02  0.24218150238E+02  0.27092545953E+02  0.43400745659E+02  0.00000000000E+00 0. -1.
         11    1    4    4    0    0  0.54577408002E+01 -0.20318501099E+01 -0.10708655000E+01  0.59213260923E+01  0.51100000000E-03 0. -1.
        -11    1    4    4    0    0  0.15929259955E+02 -0.24587309588E+02 -0.24462880682E+02  0.38166865826E+02  0.51100000000E-03 0.  1.
        -12    1    4    4    0    0  0.23427248356E+01  0.24010094595E+01 -0.15587997706E+01  0.36990624224E+01  0.00000000000E+00 0.  1.
</event>
<event>
 8    1  0.5250708E-010  0.9118800E+02  0.7816164E-02  0.1184000E+00
        -11   -1    0    0    0    0  0.00000000000E+00  0.00000000000E+00  0.45593999997E+02  0.45594000000E+02  0.51100000000E-03 0. -1.
         11   -1    0    0    0    0 -0.00000000000E+00 -0.00000000000E+00 -0.45593999997E+02  0.45594000000E+02  0.51100000000E-03 0.  1.
         23    2    1    2    0    0 -0.17763568394E-14  0.00000000000E+00  0.00000000000E+00  0.91188000000E+02  0.91188000000E+02 0.  0.
    9900012    2    3    3    0    0  0.15694452737E+02 -0.15164422119E+02  0.37514633697E+02  0.47787270901E+02  0.19999999345E+02 0.  0.
        -12    1    3    3    0    0 -0.15694452737E+02  0.15164422119E+02 -0.37514633697E+02  0.43400729099E+02  0.00000000000E+00 0.  1.
         11    1    4    4    0    0  0.94311662103E+00 -0.30880286032E+01  0.52939693456E+01  0.62009274555E+01  0.51100000000E-03 0. -1.
        -11    1    4    4    0    0 -0.17085891868E+01 -0.14352440045E+01  0.15971430139E+02  0.16126555222E+02  0.51100000000E-03 0.  1.
         12    1    4    4    0    0  0.16459925303E+02 -0.10641149511E+02  0.16249234212E+02  0.25459788223E+02  0.00000000000E+00 0. -1.
</event>
<event>
 8    1  0.5250708E-010  0.9118800E+02  0.7816164E-02  0.1184000E+00
        -11   -1    0    0    0    0  0.00000000000E+00  0.00000000000E+00  0.45593999997E+02  0.45594000000E+02  0.51100000000E-03 0. -1.
         11   -1    0    0    0    0 -0.00000000000E+00 -0.00000000000E+00 -0.45593999997E+02  0.45594000000E+02  0.51100000000E-03 0.  1.
         23    2    1    2    0    0  0.35527136788E-14  0.35527136788E-14  0.00000000000E+00  0.91188000000E+02  0.91188000000E+02 0.  0.
    9900012    2    3    3    0    0  0.31791718573E+02  0.23483469920E+02 -0.17928662011E+02  0.47787266702E+02  0.19999980202E+02 0.  0.
         12    1    3    3    0    0 -0.31791718573E+02 -0.23483469920E+02  0.17928662011E+02  0.43400733298E+02  0.00000000000E+00 0. -1.
         11    1    4    4    0    0  0.76728571970E+01  0.59776271309E+01  0.33466078221E+01  0.10286133766E+02  0.51100000000E-03 0. -1.
        -11    1    4    4    0    0  0.12809750167E+02  0.44034270486E+01 -0.85440215264E+01  0.16014998384E+02  0.51100000000E-03 0.  1.
        -12    1    4    4    0    0  0.11309111208E+02  0.13102415740E+02 -0.12731248307E+02  0.21486134552E+02  0.00000000000E+00 0.  1.
</event>
<event>
 8    1  0.5250708E-010  0.9118800E+02  0.7816164E-02  0.1184000E+00
        -11   -1    0    0    0    0  0.00000000000E+00  0.00000000000E+00  0.45593999997E+02  0.45594000000E+02  0.51100000000E-03 0. -1.
         11   -1    0    0    0    0 -0.00000000000E+00 -0.00000000000E+00 -0.45593999997E+02  0.45594000000E+02  0.51100000000E-03 0.  1.
         23    2    1    2    0    0  0.88817841970E-15  0.00000000000E+00  0.00000000000E+00  0.91188000000E+02  0.91188000000E+02 0.  0.
    9900012    2    3    3    0    0  0.63015513530E+01  0.18994503761E+02  0.38511332866E+02  0.47787268651E+02  0.19999989087E+02 0.  0.
        -12    1    3    3    0    0 -0.63015513530E+01 -0.18994503761E+02 -0.38511332866E+02  0.43400731349E+02  0.00000000000E+00 0.  1.
         11    1    4    4    0    0 -0.19122764077E+00 -0.14416058268E+01  0.22589260756E+01  0.26865484635E+01  0.51100000000E-03 0. -1.
        -11    1    4    4    0    0  0.84119090798E+01  0.53897842110E+01  0.22532826598E+02  0.24648291279E+02  0.51100000000E-03 0.  1.
         12    1    4    4    0    0 -0.19191300860E+01  0.15046325376E+02  0.13719580192E+02  0.20452428909E+02  0.00000000000E+00 0. -1.
</event>
<event>
 8    1  0.5250708E-010  0.9118800E+02  0.7816164E-02  0.1184000E+00
        -11   -1    0    0    0    0  0.00000000000E+00  0.00000000000E+00  0.45593999997E+02  0.45594000000E+02  0.51100000000E-03 0. -1.
         11   -1    0    0    0    0 -0.00000000000E+00 -0.00000000000E+00 -0.45593999997E+02  0.45594000000E+02  0.51100000000E-03 0.  1.
         23    2    1    2    0    0  0.88817841970E-15  0.00000000000E+00  0.71054273576E-14  0.91188000000E+02  0.91188000000E+02 0.  0.
    9900012    2    3    3    0    0  0.52427855556E+01  0.17889905515E+02  0.39192950713E+02  0.47787275291E+02  0.20000019362E+02 0.  0.
        -12    1    3    3    0    0 -0.52427855556E+01 -0.17889905515E+02 -0.39192950713E+02  0.43400724709E+02  0.00000000000E+00 0.  1.
         11    1    4    4    0    0 -0.76628661668E+00  0.75775850082E+01  0.31344045640E+02  0.32256103098E+02  0.51100000000E-03 0. -1.
        -11    1    4    4    0    0  0.21924957497E+00  0.41357775317E+01  0.24019361541E+00  0.41485442509E+01  0.51100000000E-03 0.  1.
        -12    1    4    4    0    0  0.57898225973E+01  0.61765429748E+01  0.76087114570E+01  0.11382627942E+02  0.00000000000E+00 0.  1.
</event>
<event>
 8    1  0.5250708E-010  0.9118800E+02  0.7816164E-02  0.1184000E+00
        -11   -1    0    0    0    0  0.00000000000E+00  0.00000000000E+00  0.45593999997E+02  0.45594000000E+02  0.51100000000E-03 0. -1.
         11   -1    0    0    0    0 -0.00000000000E+00 -0.00000000000E+00 -0.45593999997E+02  0.45594000000E+02  0.51100000000E-03 0.  1.
         23    2    1    2    0    0  0.00000000000E+00  0.00000000000E+00  0.00000000000E+00  0.91188000000E+02  0.91188000000E+02 0.  0.
    9900012    2    3    3    0    0  0.42379006574E+01  0.13719905342E+02  0.40956418269E+02  0.47787264960E+02  0.19999972259E+02 0.  0.
        -12    1    3    3    0    0 -0.42379006574E+01 -0.13719905342E+02 -0.40956418269E+02  0.43400735040E+02  0.00000000000E+00 0.  1.
         11    1    4    4    0    0  0.67793935341E-01 -0.34633736134E+01  0.15039685448E+02  0.15433460125E+02  0.51100000000E-03 0. -1.
        -11    1    4    4    0    0 -0.14853103603E+01  0.10101137290E+02  0.15314180923E+02  0.18405522514E+02  0.51100000000E-03 0.  1.
        -12    1    4    4    0    0  0.56554170823E+01  0.70821416646E+01  0.10602551899E+02  0.13948282321E+02  0.00000000000E+00 0.  1.
</event>
<event>
 8    1  0.7875834E-010  0.9118800E+02  0.7816164E-02  0.1184000E+00
        -11   -1    0    0    0    0  0.00000000000E+00  0.00000000000E+00  0.45593999997E+02  0.45594000000E+02  0.51100000000E-03 0. -1.
         11   -1    0    0    0    0 -0.00000000000E+00 -0.00000000000E+00 -0.45593999997E+02  0.45594000000E+02  0.51100000000E-03 0.  1.
         23    2    1    2    0    0  0.00000000000E+00  0.88817841970E-15  0.00000000000E+00  0.91188000000E+02  0.91188000000E+02 0.  0.
    9900012    2    3    3    0    0  0.79475181578E+01 -0.46860673459E+01  0.42408736192E+02  0.47787272155E+02  0.20000005065E+02 0.  0.
        -12    1    3    3    0    0 -0.79475181578E+01  0.46860673459E+01 -0.42408736192E+02  0.43400727845E+02  0.00000000000E+00 0.  1.
         11    1    4    4    0    0 -0.45608264346E-01  0.33629915117E+01  0.25734036312E+02  0.25952888417E+02  0.51100000000E-03 0. -1.
        -11    1    4    4    0    0  0.24857824155E+01  0.14978527155E+00  0.42563428935E-01  0.24906548840E+01  0.51100000000E-03 0.  1.
         12    1    4    4    0    0  0.55073440066E+01 -0.81988441291E+01  0.16632136451E+02  0.19343728854E+02  0.00000000000E+00 0. -1.
</event>
<event>
 8    1  0.5250708E-010  0.9118800E+02  0.7816164E-02  0.1184000E+00
        -11   -1    0    0    0    0  0.00000000000E+00  0.00000000000E+00  0.45593999997E+02  0.45594000000E+02  0.51100000000E-03 0. -1.
         11   -1    0    0    0    0 -0.00000000000E+00 -0.00000000000E+00 -0.45593999997E+02  0.45594000000E+02  0.51100000000E-03 0.  1.
         23    2    1    2    0    0  0.00000000000E+00  0.35527136788E-14  0.35527136788E-14  0.91188000000E+02  0.91188000000E+02 0.  0.
    9900012    2    3    3    0    0  0.21280980876E+02 -0.21456126950E+02 -0.31150881472E+02  0.47787274808E+02  0.20000017159E+02 0.  0.
         12    1    3    3    0    0 -0.21280980876E+02  0.21456126950E+02  0.31150881472E+02  0.43400725192E+02  0.00000000000E+00 0. -1.
         11    1    4    4    0    0  0.12458296224E+01  0.23337850839E+01 -0.24113015631E+01  0.35795278676E+01  0.51100000000E-03 0. -1.
        -11    1    4    4    0    0  0.34788870595E+01 -0.11680929276E+02 -0.15803527800E+02  0.19957411033E+02  0.51100000000E-03 0.  1.
        -12    1    4    4    0    0  0.16556264194E+02 -0.12108982757E+02 -0.12936052108E+02  0.24250335908E+02  0.00000000000E+00 0.  1.
</event>
<event>
 8    1  0.5250708E-010  0.9118800E+02  0.7816164E-02  0.1184000E+00
        -11   -1    0    0    0    0  0.00000000000E+00  0.00000000000E+00  0.45593999997E+02  0.45594000000E+02  0.51100000000E-03 0. -1.
         11   -1    0    0    0    0 -0.00000000000E+00 -0.00000000000E+00 -0.45593999997E+02  0.45594000000E+02  0.51100000000E-03 0.  1.
         23    2    1    2    0    0  0.00000000000E+00  0.00000000000E+00  0.71054273576E-14  0.91188000000E+02  0.91188000000E+02 0.  0.
    9900012    2    3    3    0    0  0.18503940531E+02  0.54614009366E+01 -0.38876735697E+02  0.47787270815E+02  0.19999998953E+02 0.  0.
         12    1    3    3    0    0 -0.18503940531E+02 -0.54614009366E+01  0.38876735697E+02  0.43400729185E+02  0.00000000000E+00 0. -1.
         11    1    4    4    0    0 -0.58931723933E+00  0.46851229972E+00  0.84410075526E+00  0.11310636276E+01  0.51100000000E-03 0. -1.
        -11    1    4    4    0    0  0.35500290427E+00 -0.33834393265E+01 -0.97860605005E+01  0.10360534210E+02  0.51100000000E-03 0.  1.
        -12    1    4    4    0    0  0.18738254866E+02  0.83763279634E+01 -0.29934775951E+02  0.36295672977E+02  0.00000000000E+00 0.  1.
</event>
<event>
 8    1  0.5250708E-010  0.9118800E+02  0.7816164E-02  0.1184000E+00
        -11   -1    0    0    0    0  0.00000000000E+00  0.00000000000E+00  0.45593999997E+02  0.45594000000E+02  0.51100000000E-03 0. -1.
         11   -1    0    0    0    0 -0.00000000000E+00 -0.00000000000E+00 -0.45593999997E+02  0.45594000000E+02  0.51100000000E-03 0.  1.
         23    2    1    2    0    0  0.00000000000E+00  0.00000000000E+00 -0.17763568394E-14  0.91188000000E+02  0.91188000000E+02 0.  0.
    9900012    2    3    3    0    0  0.39195181733E+02 -0.10607471313E+02 -0.15324575346E+02  0.47787270418E+02  0.19999997143E+02 0.  0.
         12    1    3    3    0    0 -0.39195181733E+02  0.10607471313E+02  0.15324575346E+02  0.43400729582E+02  0.00000000000E+00 0. -1.
         11    1    4    4    0    0  0.13066087765E+02 -0.12623819522E+02 -0.17661777970E+01  0.18253844885E+02  0.51100000000E-03 0. -1.
        -11    1    4    4    0    0  0.71385038025E+01  0.34991064142E+00 -0.42956445799E+01  0.83386591616E+01  0.51100000000E-03 0.  1.
         12    1    4    4    0    0  0.18990590165E+02  0.16664375668E+01 -0.92627529692E+01  0.21194766372E+02  0.00000000000E+00 0. -1.
</event>
<event>
 8    1  0.5250708E-010  0.9118800E+02  0.7816164E-02  0.1184000E+00
        -11   -1    0    0    0    0  0.00000000000E+00  0.00000000000E+00  0.45593999997E+02  0.45594000000E+02  0.51100000000E-03 0.  1.
         11   -1    0    0    0    0 -0.00000000000E+00 -0.00000000000E+00 -0.45593999997E+02  0.45594000000E+02  0.51100000000E-03 0. -1.
         23    2    1    2    0    0  0.00000000000E+00  0.17763568394E-14  0.00000000000E+00  0.91188000000E+02  0.91188000000E+02 0.  0.
    9900012    2    3    3    0    0  0.39518787745E+02  0.15527947654E+02  0.89872972339E+01  0.47787271265E+02  0.20000001006E+02 0.  0.
        -12    1    3    3    0    0 -0.39518787745E+02 -0.15527947654E+02 -0.89872972339E+01  0.43400728735E+02  0.00000000000E+00 0.  1.
         11    1    4    4    0    0  0.83655766991E+01 -0.22290353662E+01  0.12969917050E-01  0.86574615594E+01  0.51100000000E-03 0. -1.
        -11    1    4    4    0    0  0.95889185378E+01  0.88486497512E+00 -0.16318355907E+01  0.97669459098E+01  0.51100000000E-03 0.  1.
         12    1    4    4    0    0  0.21564292508E+02  0.16872118045E+02  0.10606162907E+02  0.29362863796E+02  0.00000000000E+00 0. -1.
</event>
<event>
 8    1  0.8014551E-010  0.9118800E+02  0.7816164E-02  0.1184000E+00
        -11   -1    0    0    0    0  0.00000000000E+00  0.00000000000E+00  0.45593999997E+02  0.45594000000E+02  0.51100000000E-03 0. -1.
         11   -1    0    0    0    0 -0.00000000000E+00 -0.00000000000E+00 -0.45593999997E+02  0.45594000000E+02  0.51100000000E-03 0.  1.
         23    2    1    2    0    0  0.35527136788E-14  0.00000000000E+00  0.00000000000E+00  0.91188000000E+02  0.91188000000E+02 0.  0.
    9900012    2    3    3    0    0 -0.30784977558E+02 -0.20758565930E+02 -0.22472066182E+02  0.47787232021E+02  0.19999822075E+02 0.  0.
         12    1    3    3    0    0  0.30784977558E+02  0.20758565930E+02  0.22472066182E+02  0.43400767979E+02  0.00000000000E+00 0. -1.
         11    1    4    4    0    0 -0.15407561696E+02 -0.92034488758E+01 -0.19310706501E+02  0.26362849134E+02  0.51100000000E-03 0. -1.
        -11    1    4    4    0    0 -0.14277177611E+02 -0.72477066217E+01 -0.47534967910E+01  0.16702179014E+02  0.51100000000E-03 0.  1.
         12    1    4    4    0    0 -0.11002382511E+01 -0.43074104324E+01  0.15921371104E+01  0.47222038733E+01  0.00000000000E+00 0. -1.
</event>
<event>
 8    1  0.5250708E-010  0.9118800E+02  0.7816164E-02  0.1184000E+00
        -11   -1    0    0    0    0  0.00000000000E+00  0.00000000000E+00  0.45593999997E+02  0.45594000000E+02  0.51100000000E-03 0. -1.
         11   -1    0    0    0    0 -0.00000000000E+00 -0.00000000000E+00 -0.45593999997E+02  0.45594000000E+02  0.51100000000E-03 0.  1.
         23    2    1    2    0    0  0.35527136788E-14 -0.31086244690E-14  0.00000000000E+00  0.91188000000E+02  0.91188000000E+02 0.  0.
    9900012    2    3    3    0    0  0.28093176492E+02 -0.13702638108E+01 -0.33053267915E+02  0.47787277562E+02  0.20000029715E+02 0.  0.
         12    1    3    3    0    0 -0.28093176492E+02  0.13702638108E+01  0.33053267915E+02  0.43400722438E+02  0.00000000000E+00 0. -1.
         11    1    4    4    0    0  0.76657408368E+01  0.43691505658E+01 -0.88465387485E+01  0.12494571114E+02  0.51100000000E-03 0. -1.
        -11    1    4    4    0    0  0.12822382391E+02  0.37849975407E+01 -0.14396746449E+02  0.19647035531E+02  0.51100000000E-03 0.  1.
         12    1    4    4    0    0  0.76050532642E+01 -0.95244119173E+01 -0.98099827167E+01  0.15645670916E+02  0.00000000000E+00 0. -1.
</event>
<event>
 8    1  0.5250708E-010  0.9118800E+02  0.7816164E-02  0.1184000E+00
        -11   -1    0    0    0    0  0.00000000000E+00  0.00000000000E+00  0.45593999997E+02  0.45594000000E+02  0.51100000000E-03 0. -1.
         11   -1    0    0    0    0 -0.00000000000E+00 -0.00000000000E+00 -0.45593999997E+02  0.45594000000E+02  0.51100000000E-03 0.  1.
         23    2    1    2    0    0  0.00000000000E+00 -0.35527136788E-14 -0.35527136788E-14  0.91188000000E+02  0.91188000000E+02 0.  0.
    9900012    2    3    3    0    0  0.19899562274E+02  0.30342620608E+02 -0.23810836522E+02  0.47787272588E+02  0.20000007036E+02 0.  0.
         12    1    3    3    0    0 -0.19899562274E+02 -0.30342620608E+02  0.23810836522E+02  0.43400727412E+02  0.00000000000E+00 0. -1.
         11    1    4    4    0    0  0.49033469922E+01  0.81865585747E+01 -0.10098116507E+01  0.95959508572E+01  0.51100000000E-03 0. -1.
        -11    1    4    4    0    0  0.15572505755E+02  0.11296647393E+02 -0.17845340787E+02  0.26240681505E+02  0.51100000000E-03 0.  1.
         12    1    4    4    0    0 -0.57629047301E+00  0.10859414641E+02 -0.49556840840E+01  0.11950640225E+02  0.00000000000E+00 0. -1.
</event>
<event>
 8    1  0.5250708E-010  0.9118800E+02  0.7816164E-02  0.1184000E+00
        -11   -1    0    0    0    0  0.00000000000E+00  0.00000000000E+00  0.45593999997E+02  0.45594000000E+02  0.51100000000E-03 0. -1.
         11   -1    0    0    0    0 -0.00000000000E+00 -0.00000000000E+00 -0.45593999997E+02  0.45594000000E+02  0.51100000000E-03 0.  1.
         23    2    1    2    0    0  0.00000000000E+00  0.00000000000E+00 -0.71054273576E-14  0.91188000000E+02  0.91188000000E+02 0.  0.
    9900012    2    3    3    0    0  0.70639675167E+01  0.14411829731E+02 -0.40323974689E+02  0.47787269500E+02  0.19999992956E+02 0.  0.
         12    1    3    3    0    0 -0.70639675167E+01 -0.14411829731E+02  0.40323974689E+02  0.43400730500E+02  0.00000000000E+00 0. -1.
         11    1    4    4    0    0 -0.21718825306E+01  0.40220894639E+00 -0.38145700032E+01  0.44079235853E+01  0.51100000000E-03 0. -1.
        -11    1    4    4    0    0  0.10316249670E+02  0.16999447113E+02 -0.28402740614E+02  0.34671629383E+02  0.51100000000E-03 0.  1.
        -12    1    4    4    0    0 -0.10803996228E+01 -0.29898263289E+01 -0.81066640712E+01  0.87077165311E+01  0.00000000000E+00 0.  1.
</event>
<event>
 8    1  0.5250708E-010  0.9118800E+02  0.7816164E-02  0.1184000E+00
        -11   -1    0    0    0    0  0.00000000000E+00  0.00000000000E+00  0.45593999997E+02  0.45594000000E+02  0.51100000000E-03 0. -1.
         11   -1    0    0    0    0 -0.00000000000E+00 -0.00000000000E+00 -0.45593999997E+02  0.45594000000E+02  0.51100000000E-03 0.  1.
         23    2    1    2    0    0  0.44408920985E-15  0.00000000000E+00  0.00000000000E+00  0.91188000000E+02  0.91188000000E+02 0.  0.
    9900012    2    3    3    0    0 -0.30473752548E+01 -0.49964585685E+01 -0.43004327187E+02  0.47787271308E+02  0.20000001202E+02 0.  0.
         12    1    3    3    0    0  0.30473752548E+01  0.49964585685E+01  0.43004327187E+02  0.43400728692E+02  0.00000000000E+00 0. -1.
         11    1    4    4    0    0  0.28009791375E+01  0.57676657146E+00 -0.32281493405E+01  0.43126664875E+01  0.51100000000E-03 0. -1.
        -11    1    4    4    0    0  0.52902877223E+01 -0.14205054077E+01 -0.15603017654E+02  0.16536600013E+02  0.51100000000E-03 0.  1.
         12    1    4    4    0    0 -0.11138642115E+02 -0.41527197322E+01 -0.24173160193E+02  0.26938004808E+02  0.00000000000E+00 0. -1.
</event>
<event>
 8    1  0.5250708E-010  0.9118800E+02  0.7816164E-02  0.1184000E+00
        -11   -1    0    0    0    0  0.00000000000E+00  0.00000000000E+00  0.45593999997E+02  0.45594000000E+02  0.51100000000E-03 0. -1.
         11   -1    0    0    0    0 -0.00000000000E+00 -0.00000000000E+00 -0.45593999997E+02  0.45594000000E+02  0.51100000000E-03 0.  1.
         23    2    1    2    0    0  0.44408920985E-15  0.00000000000E+00  0.35527136788E-14  0.91188000000E+02  0.91188000000E+02 0.  0.
    9900012    2    3    3    0    0  0.26224769725E+01  0.29645734940E+02  0.31589157889E+02  0.47787287083E+02  0.20000073124E+02 0.  0.
        -12    1    3    3    0    0 -0.26224769725E+01 -0.29645734940E+02 -0.31589157889E+02  0.43400712917E+02  0.00000000000E+00 0.  1.
         11    1    4    4    0    0 -0.34971254014E+01  0.42839867181E+01  0.10828252141E+02  0.12158678916E+02  0.51100000000E-03 0. -1.
        -11    1    4    4    0    0  0.68184496335E+01  0.49652087757E+01  0.46816159225E+01  0.96468689997E+01  0.51100000000E-03 0.  1.
         12    1    4    4    0    0 -0.69884725959E+00  0.20396539446E+02  0.16079289825E+02  0.25981739167E+02  0.00000000000E+00 0. -1.
</event>
<event>
 8    1  0.5250708E-010  0.9118800E+02  0.7816164E-02  0.1184000E+00
        -11   -1    0    0    0    0  0.00000000000E+00  0.00000000000E+00  0.45593999997E+02  0.45594000000E+02  0.51100000000E-03 0. -1.
         11   -1    0    0    0    0 -0.00000000000E+00 -0.00000000000E+00 -0.45593999997E+02  0.45594000000E+02  0.51100000000E-03 0.  1.
         23    2    1    2    0    0  0.00000000000E+00  0.00000000000E+00  0.88817841970E-15  0.91188000000E+02  0.91188000000E+02 0.  0.
    9900012    2    3    3    0    0  0.26596246508E+01 -0.43265972180E+02  0.21457938574E+01  0.47787281305E+02  0.20000046782E+02 0.  0.
        -12    1    3    3    0    0 -0.26596246508E+01  0.43265972180E+02 -0.21457938574E+01  0.43400718695E+02  0.00000000000E+00 0.  1.
         11    1    4    4    0    0 -0.26658889352E+01 -0.18344472551E+02  0.59558835829E+01  0.19470469601E+02  0.51100000000E-03 0. -1.
        -11    1    4    4    0    0  0.55291817859E+01 -0.52217484948E+01  0.18345611291E+01  0.78233064213E+01  0.51100000000E-03 0.  1.
         12    1    4    4    0    0 -0.20366819991E+00 -0.19699751134E+02 -0.56446508546E+01  0.20493505283E+02  0.00000000000E+00 0. -1.
</event>
<event>
 8    1  0.5250708E-010  0.9118800E+02  0.7816164E-02  0.1184000E+00
        -11   -1    0    0    0    0  0.00000000000E+00  0.00000000000E+00  0.45593999997E+02  0.45594000000E+02  0.51100000000E-03 0. -1.
         11   -1    0    0    0    0 -0.00000000000E+00 -0.00000000000E+00 -0.45593999997E+02  0.45594000000E+02  0.51100000000E-03 0.  1.
         23    2    1    2    0    0  0.00000000000E+00 -0.71054273576E-14 -0.17763568394E-14  0.91188000000E+02  0.91188000000E+02 0.  0.
    9900012    2    3    3    0    0  0.20263709223E+02  0.36688795298E+02  0.11266667952E+02  0.47787269376E+02  0.19999992394E+02 0.  0.
        -12    1    3    3    0    0 -0.20263709223E+02 -0.36688795298E+02 -0.11266667952E+02  0.43400730624E+02  0.00000000000E+00 0.  1.
         11    1    4    4    0    0  0.34751576710E+01  0.21290296540E+02  0.10901685059E+02  0.24170233449E+02  0.51100000000E-03 0. -1.
        -11    1    4    4    0    0  0.68730728945E+01  0.26330752212E+01 -0.84156363082E+00  0.74081337555E+01  0.51100000000E-03 0.  1.
         12    1    4    4    0    0  0.99154786575E+01  0.12765423537E+02  0.12065465245E+01  0.16208902171E+02  0.00000000000E+00 0. -1.
</event>
<event>
 8    1  0.5250708E-010  0.9118800E+02  0.7816164E-02  0.1184000E+00
        -11   -1    0    0    0    0  0.00000000000E+00  0.00000000000E+00  0.45593999997E+02  0.45594000000E+02  0.51100000000E-03 0. -1.
         11   -1    0    0    0    0 -0.00000000000E+00 -0.00000000000E+00 -0.45593999997E+02  0.45594000000E+02  0.51100000000E-03 0.  1.
         23    2    1    2    0    0  0.00000000000E+00  0.00000000000E+00  0.00000000000E+00  0.91188000000E+02  0.91188000000E+02 0.  0.
    9900012    2    3    3    0    0 -0.18833400006E+02 -0.16955073721E+02 -0.35234240151E+02  0.47787272360E+02  0.20000005999E+02 0.  0.
         12    1    3    3    0    0  0.18833400006E+02  0.16955073721E+02  0.35234240151E+02  0.43400727640E+02  0.00000000000E+00 0. -1.
         11    1    4    4    0    0 -0.29796820740E+01 -0.14441414147E+01 -0.15826098531E+01  0.36699732827E+01  0.51100000000E-03 0. -1.
        -11    1    4    4    0    0 -0.95543438524E+01 -0.32345207969E+01 -0.30329068369E+01  0.10533097141E+02  0.51100000000E-03 0.  1.
         12    1    4    4    0    0 -0.62993740792E+01 -0.12276411509E+02 -0.30618723461E+02  0.33584201937E+02  0.00000000000E+00 0. -1.
</event>
<event>
 8    1  0.5250708E-010  0.9118800E+02  0.7816164E-02  0.1184000E+00
        -11   -1    0    0    0    0  0.00000000000E+00  0.00000000000E+00  0.45593999997E+02  0.45594000000E+02  0.51100000000E-03 0. -1.
         11   -1    0    0    0    0 -0.00000000000E+00 -0.00000000000E+00 -0.45593999997E+02  0.45594000000E+02  0.51100000000E-03 0.  1.
         23    2    1    2    0    0  0.00000000000E+00  0.66613381478E-15  0.00000000000E+00  0.91188000000E+02  0.91188000000E+02 0.  0.
    9900012    2    3    3    0    0 -0.10270132391E+02  0.10819809810E+01  0.42154192889E+02  0.47787282491E+02  0.20000052189E+02 0.  0.
        -12    1    3    3    0    0  0.10270132391E+02 -0.10819809810E+01 -0.42154192889E+02  0.43400717509E+02  0.00000000000E+00 0.  1.
         11    1    4    4    0    0 -0.19996106733E+01 -0.22288236009E+00  0.20957665323E+00  0.20228796370E+01  0.51100000000E-03 0. -1.
        -11    1    4    4    0    0  0.93821959041E+00 -0.61566727019E+01  0.11211680856E+02  0.12825235383E+02  0.51100000000E-03 0.  1.
         12    1    4    4    0    0 -0.92087413085E+01  0.74615360430E+01  0.30732935380E+02  0.32939167471E+02  0.00000000000E+00 0. -1.
</event>
<event>
 8    1  0.5250708E-010  0.9118800E+02  0.7816164E-02  0.1184000E+00
        -11   -1    0    0    0    0  0.00000000000E+00  0.00000000000E+00  0.45593999997E+02  0.45594000000E+02  0.51100000000E-03 0. -1.
         11   -1    0    0    0    0 -0.00000000000E+00 -0.00000000000E+00 -0.45593999997E+02  0.45594000000E+02  0.51100000000E-03 0.  1.
         23    2    1    2    0    0  0.00000000000E+00  0.66613381478E-15  0.00000000000E+00  0.91188000000E+02  0.91188000000E+02 0.  0.
    9900012    2    3    3    0    0 -0.17200577702E+02  0.11985086067E+01 -0.39828719499E+02  0.47787271975E+02  0.20000004242E+02 0.  0.
         12    1    3    3    0    0  0.17200577702E+02 -0.11985086067E+01  0.39828719499E+02  0.43400728025E+02  0.00000000000E+00 0. -1.
         11    1    4    4    0    0 -0.80045494243E+01  0.53259076329E+01 -0.84585999002E+01  0.12805702485E+02  0.51100000000E-03 0. -1.
        -11    1    4    4    0    0 -0.10818734647E+02 -0.56247084550E+01 -0.20197158906E+02  0.23592532562E+02  0.51100000000E-03 0.  1.
         12    1    4    4    0    0  0.16227063691E+01  0.14973094288E+01 -0.11172960693E+02  0.11389036927E+02  0.00000000000E+00 0. -1.
</event>
<event>
 8    1  0.5250708E-010  0.9118800E+02  0.7816164E-02  0.1184000E+00
        -11   -1    0    0    0    0  0.00000000000E+00  0.00000000000E+00  0.45593999997E+02  0.45594000000E+02  0.51100000000E-03 0. -1.
         11   -1    0    0    0    0 -0.00000000000E+00 -0.00000000000E+00 -0.45593999997E+02  0.45594000000E+02  0.51100000000E-03 0.  1.
         23    2    1    2    0    0  0.00000000000E+00  0.22204460493E-15  0.00000000000E+00  0.91188000000E+02  0.91188000000E+02 0.  0.
    9900012    2    3    3    0    0 -0.11104764563E+02 -0.16354366760E+01 -0.41924132398E+02  0.47787270439E+02  0.19999997240E+02 0.  0.
         12    1    3    3    0    0  0.11104764563E+02  0.16354366760E+01  0.41924132398E+02  0.43400729561E+02  0.00000000000E+00 0. -1.
         11    1    4    4    0    0 -0.90448835174E+01 -0.34109634127E+01 -0.81112667225E+01  0.12618923779E+02  0.51100000000E-03 0. -1.
        -11    1    4    4    0    0 -0.13150407399E+01 -0.29564288392E+01 -0.24330547835E+02  0.24544762411E+02  0.51100000000E-03 0.  1.
        -12    1    4    4    0    0 -0.74484030546E+00  0.47319555760E+01 -0.94823178407E+01  0.10623584249E+02  0.00000000000E+00 0.  1.
</event>
<event>
 8    1  0.5250708E-010  0.9118800E+02  0.7816164E-02  0.1184000E+00
        -11   -1    0    0    0    0  0.00000000000E+00  0.00000000000E+00  0.45593999997E+02  0.45594000000E+02  0.51100000000E-03 0. -1.
         11   -1    0    0    0    0 -0.00000000000E+00 -0.00000000000E+00 -0.45593999997E+02  0.45594000000E+02  0.51100000000E-03 0.  1.
         23    2    1    2    0    0  0.88817841970E-15  0.00000000000E+00  0.00000000000E+00  0.91188000000E+02  0.91188000000E+02 0.  0.
    9900012    2    3    3    0    0  0.41489948131E+01  0.22922679076E+02  0.36619119935E+02  0.47787270527E+02  0.19999997640E+02 0.  0.
        -12    1    3    3    0    0 -0.41489948131E+01 -0.22922679076E+02 -0.36619119935E+02  0.43400729473E+02  0.00000000000E+00 0.  1.
         11    1    4    4    0    0 -0.37057685574E+01  0.11116683197E+02  0.13338202780E+02  0.17754464778E+02  0.51100000000E-03 0. -1.
        -11    1    4    4    0    0 -0.28307080420E+01  0.20551351453E+01  0.13266213445E+01  0.37411780147E+01  0.51100000000E-03 0.  1.
         12    1    4    4    0    0  0.10685471413E+02  0.97508607341E+01  0.21954295810E+02  0.26291627734E+02  0.00000000000E+00 0. -1.
</event>
<event>
 8    1  0.5250708E-010  0.9118800E+02  0.7816164E-02  0.1184000E+00
        -11   -1    0    0    0    0  0.00000000000E+00  0.00000000000E+00  0.45593999997E+02  0.45594000000E+02  0.51100000000E-03 0. -1.
         11   -1    0    0    0    0 -0.00000000000E+00 -0.00000000000E+00 -0.45593999997E+02  0.45594000000E+02  0.51100000000E-03 0.  1.
         23    2    1    2    0    0  0.00000000000E+00  0.00000000000E+00  0.00000000000E+00  0.91188000000E+02  0.91188000000E+02 0.  0.
    9900012    2    3    3    0    0 -0.24126105923E+02 -0.84413108646E+01  0.35075618272E+02  0.47787265982E+02  0.19999976917E+02 0.  0.
        -12    1    3    3    0    0  0.24126105923E+02  0.84413108646E+01 -0.35075618272E+02  0.43400734018E+02  0.00000000000E+00 0.  1.
         11    1    4    4    0    0 -0.79291103712E+01  0.22441835576E+01  0.23846155272E+02  0.25229868661E+02  0.51100000000E-03 0.  1.
        -11    1    4    4    0    0 -0.97260539361E+01 -0.59655265449E+01  0.52365393858E+01  0.12554082090E+02  0.51100000000E-03 0. -1.
        -12    1    4    4    0    0 -0.64709416159E+01 -0.47199678773E+01  0.59929236146E+01  0.10003315231E+02  0.00000000000E+00 0.  1.
</event>
<event>
 8    1  0.5250708E-010  0.9118800E+02  0.7816164E-02  0.1184000E+00
        -11   -1    0    0    0    0  0.00000000000E+00  0.00000000000E+00  0.45593999997E+02  0.45594000000E+02  0.51100000000E-03 0. -1.
         11   -1    0    0    0    0 -0.00000000000E+00 -0.00000000000E+00 -0.45593999997E+02  0.45594000000E+02  0.51100000000E-03 0.  1.
         23    2    1    2    0    0  0.88817841970E-15 -0.44408920985E-15  0.00000000000E+00  0.91188000000E+02  0.91188000000E+02 0.  0.
    9900012    2    3    3    0    0 -0.77136076953E+01  0.36692238663E+01  0.42551854632E+02  0.47787270973E+02  0.19999999676E+02 0.  0.
        -12    1    3    3    0    0  0.77136076953E+01 -0.36692238663E+01 -0.42551854632E+02  0.43400729027E+02  0.00000000000E+00 0.  1.
         11    1    4    4    0    0 -0.74395485239E+01  0.10868730066E+02  0.32421940432E+02  0.34995119619E+02  0.51100000000E-03 0. -1.
        -11    1    4    4    0    0 -0.15402295275E+01 -0.25038700495E+01  0.35255843638E+01  0.45903613790E+01  0.51100000000E-03 0.  1.
         12    1    4    4    0    0  0.12661703562E+01 -0.46956361502E+01  0.66043298357E+01  0.82017899757E+01  0.00000000000E+00 0. -1.
</event>
<event>
 8    1  0.5250708E-010  0.9118800E+02  0.7816164E-02  0.1184000E+00
        -11   -1    0    0    0    0  0.00000000000E+00  0.00000000000E+00  0.45593999997E+02  0.45594000000E+02  0.51100000000E-03 0. -1.
         11   -1    0    0    0    0 -0.00000000000E+00 -0.00000000000E+00 -0.45593999997E+02  0.45594000000E+02  0.51100000000E-03 0.  1.
         23    2    1    2    0    0  0.35527136788E-14  0.00000000000E+00  0.00000000000E+00  0.91188000000E+02  0.91188000000E+02 0.  0.
    9900012    2    3    3    0    0  0.21256716239E+02  0.61581750271E+01  0.37334329783E+02  0.47787270913E+02  0.19999999402E+02 0.  0.
        -12    1    3    3    0    0 -0.21256716239E+02 -0.61581750271E+01 -0.37334329783E+02  0.43400729087E+02  0.00000000000E+00 0.  1.
         11    1    4    4    0    0  0.14131491854E+02  0.47852392377E+01  0.23220477544E+02  0.27600510036E+02  0.51100000000E-03 0. -1.
        -11    1    4    4    0    0  0.35973606291E+01 -0.12874166421E+01  0.15170007026E+02  0.15643770598E+02  0.51100000000E-03 0.  1.
        -12    1    4    4    0    0  0.35278637562E+01  0.26603524315E+01 -0.10561547876E+01  0.45429902792E+01  0.00000000000E+00 0.  1.
</event>
<event>
 8    1  0.5250708E-010  0.9118800E+02  0.7816164E-02  0.1184000E+00
        -11   -1    0    0    0    0  0.00000000000E+00  0.00000000000E+00  0.45593999997E+02  0.45594000000E+02  0.51100000000E-03 0. -1.
         11   -1    0    0    0    0 -0.00000000000E+00 -0.00000000000E+00 -0.45593999997E+02  0.45594000000E+02  0.51100000000E-03 0.  1.
         23    2    1    2    0    0  0.00000000000E+00  0.00000000000E+00  0.00000000000E+00  0.91188000000E+02  0.91188000000E+02 0.  0.
    9900012    2    3    3    0    0 -0.25315331767E+02 -0.20056900795E+02  0.28990991576E+02  0.47787275530E+02  0.20000020451E+02 0.  0.
        -12    1    3    3    0    0  0.25315331767E+02  0.20056900795E+02 -0.28990991576E+02  0.43400724470E+02  0.00000000000E+00 0.  1.
         11    1    4    4    0    0 -0.71628514666E+01 -0.11325098399E+02  0.15521971384E+02  0.20505996459E+02  0.51100000000E-03 0. -1.
        -11    1    4    4    0    0 -0.53780594810E+01 -0.93898656422E+01  0.48572300883E+01  0.11861103867E+02  0.51100000000E-03 0.  1.
        -12    1    4    4    0    0 -0.12774420819E+02  0.65806324698E+00  0.86117901044E+01  0.15420175204E+02  0.00000000000E+00 0.  1.
</event>
<event>
 8    1  0.5250708E-010  0.9118800E+02  0.7816164E-02  0.1184000E+00
        -11   -1    0    0    0    0  0.00000000000E+00  0.00000000000E+00  0.45593999997E+02  0.45594000000E+02  0.51100000000E-03 0. -1.
         11   -1    0    0    0    0 -0.00000000000E+00 -0.00000000000E+00 -0.45593999997E+02  0.45594000000E+02  0.51100000000E-03 0.  1.
         23    2    1    2    0    0  0.00000000000E+00 -0.35527136788E-14  0.00000000000E+00  0.91188000000E+02  0.91188000000E+02 0.  0.
    9900012    2    3    3    0    0 -0.24191586010E+02 -0.27298089519E+02 -0.23520254462E+02  0.47787298450E+02  0.20000124953E+02 0.  0.
         12    1    3    3    0    0  0.24191586010E+02  0.27298089519E+02  0.23520254462E+02  0.43400701550E+02  0.00000000000E+00 0. -1.
         11    1    4    4    0    0 -0.33856477077E+00 -0.40772139429E+01  0.21524495938E+01  0.46229145737E+01  0.51100000000E-03 0. -1.
        -11    1    4    4    0    0 -0.54466862244E+01 -0.77566663857E+01 -0.12701252414E+02  0.15847841411E+02  0.51100000000E-03 0.  1.
        -12    1    4    4    0    0 -0.18406335015E+02 -0.15464209190E+02 -0.12971451642E+02  0.27316542465E+02  0.00000000000E+00 0.  1.
</event>
<event>
 8    1  0.5250708E-010  0.9118800E+02  0.7816164E-02  0.1184000E+00
        -11   -1    0    0    0    0  0.00000000000E+00  0.00000000000E+00  0.45593999997E+02  0.45594000000E+02  0.51100000000E-03 0. -1.
         11   -1    0    0    0    0 -0.00000000000E+00 -0.00000000000E+00 -0.45593999997E+02  0.45594000000E+02  0.51100000000E-03 0.  1.
         23    2    1    2    0    0  0.00000000000E+00  0.00000000000E+00  0.00000000000E+00  0.91188000000E+02  0.91188000000E+02 0.  0.
    9900012    2    3    3    0    0  0.15050565843E+02 -0.14527498945E+02  0.38027035836E+02  0.47787271754E+02  0.20000003234E+02 0.  0.
        -12    1    3    3    0    0 -0.15050565843E+02  0.14527498945E+02 -0.38027035836E+02  0.43400728246E+02  0.00000000000E+00 0.  1.
         11    1    4    4    0    0  0.25780001234E+01 -0.56121417917E+01  0.10206925091E+02  0.11929943010E+02  0.51100000000E-03 0. -1.
        -11    1    4    4    0    0  0.38125574244E+01 -0.66246721898E+01  0.11580150420E+01  0.77306451759E+01  0.51100000000E-03 0.  1.
        -12    1    4    4    0    0  0.86600082953E+01 -0.22906849637E+01  0.26662095703E+02  0.28126683568E+02  0.00000000000E+00 0.  1.
</event>
<event>
 8    1  0.5250708E-010  0.9118800E+02  0.7816164E-02  0.1184000E+00
        -11   -1    0    0    0    0  0.00000000000E+00  0.00000000000E+00  0.45593999997E+02  0.45594000000E+02  0.51100000000E-03 0. -1.
         11   -1    0    0    0    0 -0.00000000000E+00 -0.00000000000E+00 -0.45593999997E+02  0.45594000000E+02  0.51100000000E-03 0.  1.
         23    2    1    2    0    0  0.00000000000E+00  0.00000000000E+00  0.00000000000E+00  0.91188000000E+02  0.91188000000E+02 0.  0.
    9900012    2    3    3    0    0 -0.32714568853E+02  0.25373760160E+02 -0.13021226570E+02  0.47787273494E+02  0.20000011166E+02 0.  0.
         12    1    3    3    0    0  0.32714568853E+02 -0.25373760160E+02  0.13021226570E+02  0.43400726506E+02  0.00000000000E+00 0. -1.
         11    1    4    4    0    0 -0.32715600733E+01  0.26789744001E+01 -0.73329880145E+01  0.84647931240E+01  0.51100000000E-03 0. -1.
        -11    1    4    4    0    0 -0.15096659034E+02  0.10826498074E+02  0.29271520076E+01  0.18806658227E+02  0.51100000000E-03 0.  1.
        -12    1    4    4    0    0 -0.14346349746E+02  0.11868287686E+02 -0.86153905636E+01  0.20515822142E+02  0.00000000000E+00 0.  1.
</event>
<event>
 8    1  0.5250708E-010  0.9118800E+02  0.7816164E-02  0.1184000E+00
        -11   -1    0    0    0    0  0.00000000000E+00  0.00000000000E+00  0.45593999997E+02  0.45594000000E+02  0.51100000000E-03 0. -1.
         11   -1    0    0    0    0 -0.00000000000E+00 -0.00000000000E+00 -0.45593999997E+02  0.45594000000E+02  0.51100000000E-03 0.  1.
         23    2    1    2    0    0  0.35527136788E-14 -0.35527136788E-14  0.00000000000E+00  0.91188000000E+02  0.91188000000E+02 0.  0.
    9900012    2    3    3    0    0  0.16776273318E+02 -0.15009910365E+02  0.37106366056E+02  0.47787272386E+02  0.20000006115E+02 0.  0.
        -12    1    3    3    0    0 -0.16776273318E+02  0.15009910365E+02 -0.37106366056E+02  0.43400727614E+02  0.00000000000E+00 0.  1.
         11    1    4    4    0    0  0.88622957079E+01 -0.16869083420E+02  0.20130611445E+02  0.27719086890E+02  0.51100000000E-03 0. -1.
        -11    1    4    4    0    0  0.49558026203E+01 -0.17627456244E-01  0.33076680697E+01  0.59582680922E+01  0.51100000000E-03 0.  1.
         12    1    4    4    0    0  0.29581749895E+01  0.18768005105E+01  0.13668086541E+02  0.14109917403E+02  0.00000000000E+00 0. -1.
</event>
<event>
 8    1  0.5250708E-010  0.9118800E+02  0.7816164E-02  0.1184000E+00
        -11   -1    0    0    0    0  0.00000000000E+00  0.00000000000E+00  0.45593999997E+02  0.45594000000E+02  0.51100000000E-03 0. -1.
         11   -1    0    0    0    0 -0.00000000000E+00 -0.00000000000E+00 -0.45593999997E+02  0.45594000000E+02  0.51100000000E-03 0.  1.
         23    2    1    2    0    0  0.17763568394E-14  0.00000000000E+00  0.00000000000E+00  0.91188000000E+02  0.91188000000E+02 0.  0.
    9900012    2    3    3    0    0  0.11862475192E+02  0.36620427543E+02  0.20046175023E+02  0.47787272309E+02  0.20000005764E+02 0.  0.
        -12    1    3    3    0    0 -0.11862475192E+02 -0.36620427543E+02 -0.20046175023E+02  0.43400727691E+02  0.00000000000E+00 0.  1.
         11    1    4    4    0    0  0.10021848091E+01 -0.11695416001E+01  0.13172411586E+01  0.20266540102E+01  0.51100000000E-03 0. -1.
        -11    1    4    4    0    0  0.54457883816E+01  0.19070020072E+02  0.17416001309E+01  0.19908677704E+02  0.51100000000E-03 0.  1.
         12    1    4    4    0    0  0.54145020011E+01  0.18719949071E+02  0.16987333733E+02  0.25851940594E+02  0.00000000000E+00 0. -1.
</event>
<event>
 8    1  0.5250708E-010  0.9118800E+02  0.7816164E-02  0.1184000E+00
        -11   -1    0    0    0    0  0.00000000000E+00  0.00000000000E+00  0.45593999997E+02  0.45594000000E+02  0.51100000000E-03 0. -1.
         11   -1    0    0    0    0 -0.00000000000E+00 -0.00000000000E+00 -0.45593999997E+02  0.45594000000E+02  0.51100000000E-03 0.  1.
         23    2    1    2    0    0 -0.17763568394E-14  0.00000000000E+00 -0.71054273576E-14  0.91188000000E+02  0.91188000000E+02 0.  0.
    9900012    2    3    3    0    0  0.90912305245E+01 -0.19683645550E+02 -0.37596899232E+02  0.47787271822E+02  0.20000003543E+02 0.  0.
         12    1    3    3    0    0 -0.90912305245E+01  0.19683645550E+02  0.37596899232E+02  0.43400728178E+02  0.00000000000E+00 0. -1.
         11    1    4    4    0    0  0.83039273383E+00  0.13092489596E+01  0.69959640633E+00  0.17009174946E+01  0.51100000000E-03 0. -1.
        -11    1    4    4    0    0  0.65640891598E+01 -0.65693188676E+01 -0.23882940913E+02  0.25624950415E+02  0.51100000000E-03 0.  1.
         12    1    4    4    0    0  0.16967486308E+01 -0.14423575642E+02 -0.14413554725E+02  0.20461403911E+02  0.00000000000E+00 0. -1.
</event>
<event>
 8    1  0.5250708E-010  0.9118800E+02  0.7816164E-02  0.1184000E+00
        -11   -1    0    0    0    0  0.00000000000E+00  0.00000000000E+00  0.45593999997E+02  0.45594000000E+02  0.51100000000E-03 0. -1.
         11   -1    0    0    0    0 -0.00000000000E+00 -0.00000000000E+00 -0.45593999997E+02  0.45594000000E+02  0.51100000000E-03 0.  1.
         23    2    1    2    0    0  0.00000000000E+00  0.71054273576E-14  0.35527136788E-14  0.91188000000E+02  0.91188000000E+02 0.  0.
    9900012    2    3    3    0    0  0.10390004944E+02  0.34567124225E+02  0.24099485038E+02  0.47787268911E+02  0.19999990275E+02 0.  0.
        -12    1    3    3    0    0 -0.10390004944E+02 -0.34567124225E+02 -0.24099485038E+02  0.43400731089E+02  0.00000000000E+00 0.  1.
         11    1    4    4    0    0  0.86822534474E+01  0.10411559637E+02  0.46736323337E+01  0.14339628254E+02  0.51100000000E-03 0. -1.
        -11    1    4    4    0    0  0.52305355707E+01  0.21276142868E+02  0.18770725681E+02  0.28850873480E+02  0.51100000000E-03 0.  1.
        -12    1    4    4    0    0 -0.35227840737E+01  0.28794217200E+01  0.65512702288E+00  0.45967671779E+01  0.00000000000E+00 0.  1.
</event>
<event>
 8    1  0.5250708E-010  0.9118800E+02  0.7816164E-02  0.1184000E+00
        -11   -1    0    0    0    0  0.00000000000E+00  0.00000000000E+00  0.45593999997E+02  0.45594000000E+02  0.51100000000E-03 0. -1.
         11   -1    0    0    0    0 -0.00000000000E+00 -0.00000000000E+00 -0.45593999997E+02  0.45594000000E+02  0.51100000000E-03 0.  1.
         23    2    1    2    0    0  0.35527136788E-14  0.17763568394E-14  0.00000000000E+00  0.91188000000E+02  0.91188000000E+02 0.  0.
    9900012    2    3    3    0    0 -0.31984510181E+02 -0.11374380323E+02 -0.27041412869E+02  0.47787269255E+02  0.19999991839E+02 0.  0.
         12    1    3    3    0    0  0.31984510181E+02  0.11374380323E+02  0.27041412869E+02  0.43400730745E+02  0.00000000000E+00 0. -1.
         11    1    4    4    0    0  0.21993030309E+01 -0.26011481926E+01 -0.31228716787E+01  0.46211723106E+01  0.51100000000E-03 0. -1.
        -11    1    4    4    0    0 -0.19640346362E+02 -0.15733739014E+01 -0.13350468499E+02  0.23800288235E+02  0.51100000000E-03 0.  1.
        -12    1    4    4    0    0 -0.14543466850E+02 -0.71998582294E+01 -0.10568072691E+02  0.19365808709E+02  0.00000000000E+00 0.  1.
</event>
<event>
 8    1  0.5250708E-010  0.9118800E+02  0.7816164E-02  0.1184000E+00
        -11   -1    0    0    0    0  0.00000000000E+00  0.00000000000E+00  0.45593999997E+02  0.45594000000E+02  0.51100000000E-03 0. -1.
         11   -1    0    0    0    0 -0.00000000000E+00 -0.00000000000E+00 -0.45593999997E+02  0.45594000000E+02  0.51100000000E-03 0.  1.
         23    2    1    2    0    0  0.35527136788E-14  0.17763568394E-14  0.00000000000E+00  0.91188000000E+02  0.91188000000E+02 0.  0.
    9900012    2    3    3    0    0 -0.24601012124E+02  0.13745405406E+02 -0.33007227280E+02  0.47787273969E+02  0.20000013336E+02 0.  0.
         12    1    3    3    0    0  0.24601012124E+02 -0.13745405406E+02  0.33007227280E+02  0.43400726031E+02  0.00000000000E+00 0. -1.
         11    1    4    4    0    0 -0.18221986550E+01  0.81329104473E+00 -0.75871771993E+01  0.78451965161E+01  0.51100000000E-03 0. -1.
        -11    1    4    4    0    0 -0.23932541142E+02  0.12099951721E+02 -0.17792578584E+02  0.32183088883E+02  0.51100000000E-03 0.  1.
        -12    1    4    4    0    0  0.11537276729E+01  0.83216264032E+00 -0.76274714962E+01  0.77589885700E+01  0.00000000000E+00 0.  1.
</event>
<event>
 8    1  0.5250708E-010  0.9118800E+02  0.7816164E-02  0.1184000E+00
        -11   -1    0    0    0    0  0.00000000000E+00  0.00000000000E+00  0.45593999997E+02  0.45594000000E+02  0.51100000000E-03 0. -1.
         11   -1    0    0    0    0 -0.00000000000E+00 -0.00000000000E+00 -0.45593999997E+02  0.45594000000E+02  0.51100000000E-03 0.  1.
         23    2    1    2    0    0  0.35527136788E-14  0.00000000000E+00  0.00000000000E+00  0.91188000000E+02  0.91188000000E+02 0.  0.
    9900012    2    3    3    0    0  0.22513059652E+02 -0.33821980748E+02 -0.15259702933E+02  0.47787276847E+02  0.20000026456E+02 0.  0.
         12    1    3    3    0    0 -0.22513059652E+02  0.33821980748E+02  0.15259702933E+02  0.43400723153E+02  0.00000000000E+00 0. -1.
         11    1    4    4    0    0  0.23187308674E+01 -0.23597187774E+01 -0.54959142839E+01  0.64148156342E+01  0.51100000000E-03 0. -1.
        -11    1    4    4    0    0  0.15295778512E+02 -0.14690008570E+02 -0.10934289412E+02  0.23860341097E+02  0.51100000000E-03 0.  1.
        -12    1    4    4    0    0  0.48985502724E+01 -0.16772253400E+02  0.11705007631E+01  0.17512120115E+02  0.00000000000E+00 0.  1.
</event>
<event>
 8    1  0.5250708E-010  0.9118800E+02  0.7816164E-02  0.1184000E+00
        -11   -1    0    0    0    0  0.00000000000E+00  0.00000000000E+00  0.45593999997E+02  0.45594000000E+02  0.51100000000E-03 0. -1.
         11   -1    0    0    0    0 -0.00000000000E+00 -0.00000000000E+00 -0.45593999997E+02  0.45594000000E+02  0.51100000000E-03 0.  1.
         23    2    1    2    0    0  0.00000000000E+00  0.00000000000E+00  0.00000000000E+00  0.91188000000E+02  0.91188000000E+02 0.  0.
    9900012    2    3    3    0    0 -0.19405961129E+02  0.30616330329E+02 -0.23867814922E+02  0.47787267296E+02  0.19999982907E+02 0.  0.
         12    1    3    3    0    0  0.19405961129E+02 -0.30616330329E+02  0.23867814922E+02  0.43400732704E+02  0.00000000000E+00 0. -1.
         11    1    4    4    0    0 -0.83721463713E+01  0.63189348104E+01 -0.10524483952E+02  0.14858887398E+02  0.51100000000E-03 0. -1.
        -11    1    4    4    0    0  0.19247594174E+01  0.11241538286E+02 -0.74063314885E+01  0.13598920112E+02  0.51100000000E-03 0.  1.
        -12    1    4    4    0    0 -0.12958574175E+02  0.13055857233E+02 -0.59369994814E+01  0.19329459785E+02  0.00000000000E+00 0.  1.
</event>
<event>
 8    1  0.5250708E-010  0.9118800E+02  0.7816164E-02  0.1184000E+00
        -11   -1    0    0    0    0  0.00000000000E+00  0.00000000000E+00  0.45593999997E+02  0.45594000000E+02  0.51100000000E-03 0. -1.
         11   -1    0    0    0    0 -0.00000000000E+00 -0.00000000000E+00 -0.45593999997E+02  0.45594000000E+02  0.51100000000E-03 0.  1.
         23    2    1    2    0    0 -0.88817841970E-15 -0.35527136788E-14  0.00000000000E+00  0.91188000000E+02  0.91188000000E+02 0.  0.
    9900012    2    3    3    0    0  0.61233952405E+01  0.28244102960E+02 -0.32378973830E+02  0.47787271117E+02  0.20000000329E+02 0.  0.
         12    1    3    3    0    0 -0.61233952405E+01 -0.28244102960E+02  0.32378973830E+02  0.43400728883E+02  0.00000000000E+00 0. -1.
         11    1    4    4    0    0  0.53830874391E+01  0.16355769921E+02 -0.74108973218E+01  0.18745939280E+02  0.51100000000E-03 0. -1.
        -11    1    4    4    0    0  0.27789744223E+00  0.12380744612E+02 -0.16934735154E+02  0.20979640586E+02  0.51100000000E-03 0.  1.
         12    1    4    4    0    0  0.46241035916E+00 -0.49241157353E+00 -0.80333413546E+01  0.80616912505E+01  0.00000000000E+00 0. -1.
</event>
<event>
 8    1  0.5250708E-010  0.9118800E+02  0.7816164E-02  0.1184000E+00
        -11   -1    0    0    0    0  0.00000000000E+00  0.00000000000E+00  0.45593999997E+02  0.45594000000E+02  0.51100000000E-03 0. -1.
         11   -1    0    0    0    0 -0.00000000000E+00 -0.00000000000E+00 -0.45593999997E+02  0.45594000000E+02  0.51100000000E-03 0.  1.
         23    2    1    2    0    0  0.00000000000E+00  0.00000000000E+00  0.35527136788E-14  0.91188000000E+02  0.91188000000E+02 0.  0.
    9900012    2    3    3    0    0 -0.23771450059E+02 -0.24145819080E+02  0.27120484446E+02  0.47787273122E+02  0.20000009472E+02 0.  0.
        -12    1    3    3    0    0  0.23771450059E+02  0.24145819080E+02 -0.27120484446E+02  0.43400726878E+02  0.00000000000E+00 0.  1.
         11    1    4    4    0    0 -0.19396121625E+02 -0.90019036488E+01  0.14633468639E+02  0.25911044134E+02  0.51100000000E-03 0. -1.
        -11    1    4    4    0    0  0.14840181818E+01 -0.19602985340E+01  0.51140216273E+01  0.56743543925E+01  0.51100000000E-03 0.  1.
        -12    1    4    4    0    0 -0.58593466151E+01 -0.13183616897E+02  0.73729941796E+01  0.16201874596E+02  0.00000000000E+00 0.  1.
</event>
<event>
 8    1  0.5250708E-010  0.9118800E+02  0.7816164E-02  0.1184000E+00
        -11   -1    0    0    0    0  0.00000000000E+00  0.00000000000E+00  0.45593999997E+02  0.45594000000E+02  0.51100000000E-03 0. -1.
         11   -1    0    0    0    0 -0.00000000000E+00 -0.00000000000E+00 -0.45593999997E+02  0.45594000000E+02  0.51100000000E-03 0.  1.
         23    2    1    2    0    0  0.35527136788E-14  0.00000000000E+00  0.00000000000E+00  0.91188000000E+02  0.91188000000E+02 0.  0.
    9900012    2    3    3    0    0  0.20414968864E+02 -0.26582572060E+01  0.38207168361E+02  0.47787251167E+02  0.19999909371E+02 0.  0.
        -12    1    3    3    0    0 -0.20414968864E+02  0.26582572060E+01 -0.38207168361E+02  0.43400748833E+02  0.00000000000E+00 0.  1.
         11    1    4    4    0    0  0.12976745614E+02 -0.12994801525E+01  0.23795254292E+02  0.27134824534E+02  0.51100000000E-03 0. -1.
        -11    1    4    4    0    0  0.47615783190E+01 -0.67814515357E+01  0.57395705107E+01  0.10079850343E+02  0.51100000000E-03 0.  1.
        -12    1    4    4    0    0  0.26766449305E+01  0.54226744823E+01  0.86723435584E+01  0.10572576291E+02  0.00000000000E+00 0.  1.
</event>
<event>
 8    1  0.5250708E-010  0.9118800E+02  0.7816164E-02  0.1184000E+00
        -11   -1    0    0    0    0  0.00000000000E+00  0.00000000000E+00  0.45593999997E+02  0.45594000000E+02  0.51100000000E-03 0.  1.
         11   -1    0    0    0    0 -0.00000000000E+00 -0.00000000000E+00 -0.45593999997E+02  0.45594000000E+02  0.51100000000E-03 0. -1.
         23    2    1    2    0    0  0.00000000000E+00  0.17763568394E-14  0.22204460493E-15  0.91188000000E+02  0.91188000000E+02 0.  0.
    9900012    2    3    3    0    0  0.41472175199E+02 -0.12777465190E+02 -0.64680299547E+00  0.47787270899E+02  0.19999999337E+02 0.  0.
         12    1    3    3    0    0 -0.41472175199E+02  0.12777465190E+02  0.64680299547E+00  0.43400729101E+02  0.00000000000E+00 0. -1.
         11    1    4    4    0    0  0.12599069951E+02 -0.24716946552E+01  0.62552725207E+01  0.14281956191E+02  0.51100000000E-03 0. -1.
        -11    1    4    4    0    0  0.28158102832E+02 -0.10255482486E+02 -0.36661594259E+01  0.30190965558E+02  0.51100000000E-03 0.  1.
         12    1    4    4    0    0  0.71500241617E+00 -0.50288048950E-01 -0.32359160902E+01  0.33143491497E+01  0.00000000000E+00 0. -1.
</event>
<event>
 8    1  0.5250708E-010  0.9118800E+02  0.7816164E-02  0.1184000E+00
        -11   -1    0    0    0    0  0.00000000000E+00  0.00000000000E+00  0.45593999997E+02  0.45594000000E+02  0.51100000000E-03 0. -1.
         11   -1    0    0    0    0 -0.00000000000E+00 -0.00000000000E+00 -0.45593999997E+02  0.45594000000E+02  0.51100000000E-03 0.  1.
         23    2    1    2    0    0  0.00000000000E+00 -0.17763568394E-14  0.71054273576E-14  0.91188000000E+02  0.91188000000E+02 0.  0.
    9900012    2    3    3    0    0 -0.12571511868E+02 -0.10256697569E+02  0.40253962961E+02  0.47787259341E+02  0.19999946638E+02 0.  0.
        -12    1    3    3    0    0  0.12571511868E+02  0.10256697569E+02 -0.40253962961E+02  0.43400740659E+02  0.00000000000E+00 0.  1.
         11    1    4    4    0    0 -0.18415171978E+01 -0.12190955750E+02  0.12066078886E+02  0.17251111490E+02  0.51100000000E-03 0. -1.
        -11    1    4    4    0    0 -0.13562032780E+01  0.18876634499E+01  0.45996214264E+01  0.51535500540E+01  0.51100000000E-03 0.  1.
         12    1    4    4    0    0 -0.93737913926E+01  0.46594731383E-01  0.23588262649E+02  0.25382597797E+02  0.00000000000E+00 0. -1.
</event>
<event>
 8    1  0.5250708E-010  0.9118800E+02  0.7816164E-02  0.1184000E+00
        -11   -1    0    0    0    0  0.00000000000E+00  0.00000000000E+00  0.45593999997E+02  0.45594000000E+02  0.51100000000E-03 0. -1.
         11   -1    0    0    0    0 -0.00000000000E+00 -0.00000000000E+00 -0.45593999997E+02  0.45594000000E+02  0.51100000000E-03 0.  1.
         23    2    1    2    0    0  0.44408920985E-15  0.35527136788E-14  0.00000000000E+00  0.91188000000E+02  0.91188000000E+02 0.  0.
    9900012    2    3    3    0    0  0.38774725770E+01 -0.16914873321E+02  0.39780341940E+02  0.47787270306E+02  0.19999996635E+02 0.  0.
        -12    1    3    3    0    0 -0.38774725770E+01  0.16914873321E+02 -0.39780341940E+02  0.43400729694E+02  0.00000000000E+00 0.  1.
         11    1    4    4    0    0  0.45389333847E+01 -0.12022849035E+01  0.14549504828E+02  0.15288410521E+02  0.51100000000E-03 0. -1.
        -11    1    4    4    0    0  0.25523632974E+01 -0.11302282364E+02  0.71567676476E+01  0.13618937861E+02  0.51100000000E-03 0.  1.
         12    1    4    4    0    0 -0.32138241052E+01 -0.44103060541E+01  0.18074069465E+02  0.18879921925E+02  0.00000000000E+00 0. -1.
</event>
<event>
 8    1  0.5250708E-010  0.9118800E+02  0.7816164E-02  0.1184000E+00
        -11   -1    0    0    0    0  0.00000000000E+00  0.00000000000E+00  0.45593999997E+02  0.45594000000E+02  0.51100000000E-03 0. -1.
         11   -1    0    0    0    0 -0.00000000000E+00 -0.00000000000E+00 -0.45593999997E+02  0.45594000000E+02  0.51100000000E-03 0.  1.
         23    2    1    2    0    0  0.00000000000E+00  0.00000000000E+00  0.17763568394E-14  0.91188000000E+02  0.91188000000E+02 0.  0.
    9900012    2    3    3    0    0 -0.37638981846E+02 -0.17804112215E+02 -0.12245162942E+02  0.47787269803E+02  0.19999994341E+02 0.  0.
         12    1    3    3    0    0  0.37638981846E+02  0.17804112215E+02  0.12245162942E+02  0.43400730197E+02  0.00000000000E+00 0. -1.
         11    1    4    4    0    0 -0.93641681221E+01 -0.94305101327E+01  0.21829322784E+01  0.13468012458E+02  0.51100000000E-03 0. -1.
        -11    1    4    4    0    0 -0.20497451693E+02 -0.61846576441E+01 -0.51586910687E+01  0.22022888318E+02  0.51100000000E-03 0.  1.
        -12    1    4    4    0    0 -0.77773620309E+01 -0.21889444379E+01 -0.92694041520E+01  0.12296369027E+02  0.00000000000E+00 0.  1.
</event>
<event>
 8    1  0.5250708E-010  0.9118800E+02  0.7816164E-02  0.1184000E+00
        -11   -1    0    0    0    0  0.00000000000E+00  0.00000000000E+00  0.45593999997E+02  0.45594000000E+02  0.51100000000E-03 0. -1.
         11   -1    0    0    0    0 -0.00000000000E+00 -0.00000000000E+00 -0.45593999997E+02  0.45594000000E+02  0.51100000000E-03 0.  1.
         23    2    1    2    0    0  0.35527136788E-14  0.00000000000E+00  0.00000000000E+00  0.91188000000E+02  0.91188000000E+02 0.  0.
    9900012    2    3    3    0    0 -0.18878246138E+02 -0.76767666880E+01 -0.38318429719E+02  0.47787274429E+02  0.20000015430E+02 0.  0.
         12    1    3    3    0    0  0.18878246138E+02  0.76767666880E+01  0.38318429719E+02  0.43400725571E+02  0.00000000000E+00 0. -1.
         11    1    4    4    0    0  0.14135436261E+01  0.14237908369E+01  0.29025115866E+00  0.20271980481E+01  0.51100000000E-03 0. -1.
        -11    1    4    4    0    0 -0.19034357523E+00  0.16123998320E+01 -0.41206580366E+01  0.44289825932E+01  0.51100000000E-03 0.  1.
        -12    1    4    4    0    0 -0.20101446189E+02 -0.10712957357E+02 -0.34488022841E+02  0.41331093787E+02  0.00000000000E+00 0.  1.
</event>
<event>
 8    1  0.9144357E-010  0.9118800E+02  0.7816164E-02  0.1184000E+00
        -11   -1    0    0    0    0  0.00000000000E+00  0.00000000000E+00  0.45593999997E+02  0.45594000000E+02  0.51100000000E-03 0. -1.
         11   -1    0    0    0    0 -0.00000000000E+00 -0.00000000000E+00 -0.45593999997E+02  0.45594000000E+02  0.51100000000E-03 0.  1.
         23    2    1    2    0    0  0.44408920985E-15 -0.88817841970E-15  0.00000000000E+00  0.91188000000E+02  0.91188000000E+02 0.  0.
    9900012    2    3    3    0    0 -0.19761090130E+01  0.43745033964E+01 -0.43134464733E+02  0.47787270345E+02  0.19999996812E+02 0.  0.
         12    1    3    3    0    0  0.19761090130E+01 -0.43745033964E+01  0.43134464733E+02  0.43400729655E+02  0.00000000000E+00 0. -1.
         11    1    4    4    0    0  0.49173732126E+01  0.39319561295E+01 -0.15115790771E+02  0.16374613560E+02  0.51100000000E-03 0.  1.
        -11    1    4    4    0    0 -0.56533284057E+01  0.48504595154E+00 -0.29171920062E+02  0.29718618945E+02  0.51100000000E-03 0. -1.
         12    1    4    4    0    0 -0.12401538199E+01 -0.42498684690E-01  0.11532461011E+01  0.16940378404E+01  0.00000000000E+00 0. -1.
</event>
<event>
 8    1  0.5250708E-010  0.9118800E+02  0.7816164E-02  0.1184000E+00
        -11   -1    0    0    0    0  0.00000000000E+00  0.00000000000E+00  0.45593999997E+02  0.45594000000E+02  0.51100000000E-03 0. -1.
         11   -1    0    0    0    0 -0.00000000000E+00 -0.00000000000E+00 -0.45593999997E+02  0.45594000000E+02  0.51100000000E-03 0.  1.
         23    2    1    2    0    0 -0.17763568394E-14  0.00000000000E+00  0.00000000000E+00  0.91188000000E+02  0.91188000000E+02 0.  0.
    9900012    2    3    3    0    0  0.10354350147E+02 -0.40099196313E+02 -0.12979410649E+02  0.47787271749E+02  0.20000003212E+02 0.  0.
         12    1    3    3    0    0 -0.10354350147E+02  0.40099196313E+02  0.12979410649E+02  0.43400728251E+02  0.00000000000E+00 0. -1.
         11    1    4    4    0    0  0.89696020902E+01 -0.18649449554E+02 -0.15267761894E+02  0.25716926018E+02  0.51100000000E-03 0.  1.
        -11    1    4    4    0    0 -0.12376870346E+01 -0.29794890470E+01  0.96690637859E+00  0.33681051621E+01  0.51100000000E-03 0. -1.
        -12    1    4    4    0    0  0.26224350919E+01 -0.18470257712E+02  0.13214448658E+01  0.18702240569E+02  0.00000000000E+00 0.  1.
</event>
<event>
 8    1  0.5250708E-010  0.9118800E+02  0.7816164E-02  0.1184000E+00
        -11   -1    0    0    0    0  0.00000000000E+00  0.00000000000E+00  0.45593999997E+02  0.45594000000E+02  0.51100000000E-03 0. -1.
         11   -1    0    0    0    0 -0.00000000000E+00 -0.00000000000E+00 -0.45593999997E+02  0.45594000000E+02  0.51100000000E-03 0.  1.
         23    2    1    2    0    0  0.35527136788E-14  0.00000000000E+00  0.17763568394E-14  0.91188000000E+02  0.91188000000E+02 0.  0.
    9900012    2    3    3    0    0  0.21944494393E+02 -0.35508172266E+02  0.11884137807E+02  0.47787264255E+02  0.19999969043E+02 0.  0.
        -12    1    3    3    0    0 -0.21944494393E+02  0.35508172266E+02 -0.11884137807E+02  0.43400735745E+02  0.00000000000E+00 0.  1.
         11    1    4    4    0    0  0.84411413390E+01 -0.22239175526E+02  0.43148328457E+01  0.24175433356E+02  0.51100000000E-03 0. -1.
        -11    1    4    4    0    0  0.20823947974E+01 -0.61951598813E+01  0.77992282357E+01  0.10175673707E+02  0.51100000000E-03 0.  1.
        -12    1    4    4    0    0  0.11420958256E+02 -0.70738368582E+01 -0.22992327464E+00  0.13436157192E+02  0.00000000000E+00 0.  1.
</event>
<event>
 8    1  0.5250708E-010  0.9118800E+02  0.7816164E-02  0.1184000E+00
        -11   -1    0    0    0    0  0.00000000000E+00  0.00000000000E+00  0.45593999997E+02  0.45594000000E+02  0.51100000000E-03 0. -1.
         11   -1    0    0    0    0 -0.00000000000E+00 -0.00000000000E+00 -0.45593999997E+02  0.45594000000E+02  0.51100000000E-03 0.  1.
         23    2    1    2    0    0  0.35527136788E-14  0.00000000000E+00  0.00000000000E+00  0.91188000000E+02  0.91188000000E+02 0.  0.
    9900012    2    3    3    0    0 -0.27247383833E+02 -0.17357784159E+02 -0.28981220497E+02  0.47787265696E+02  0.19999975615E+02 0.  0.
         12    1    3    3    0    0  0.27247383833E+02  0.17357784159E+02  0.28981220497E+02  0.43400734304E+02  0.00000000000E+00 0. -1.
         11    1    4    4    0    0  0.98712112298E+00  0.39337639722E+00  0.37372827829E+00  0.11264218519E+01  0.51100000000E-03 0. -1.
        -11    1    4    4    0    0 -0.21615687813E+02 -0.77810169841E+01 -0.24931759073E+02  0.33902430527E+02  0.51100000000E-03 0.  1.
        -12    1    4    4    0    0 -0.66188171426E+01 -0.99701435722E+01 -0.44231897022E+01  0.12758413317E+02  0.00000000000E+00 0.  1.
</event>
<event>
 8    1  0.5250708E-010  0.9118800E+02  0.7816164E-02  0.1184000E+00
        -11   -1    0    0    0    0  0.00000000000E+00  0.00000000000E+00  0.45593999997E+02  0.45594000000E+02  0.51100000000E-03 0. -1.
         11   -1    0    0    0    0 -0.00000000000E+00 -0.00000000000E+00 -0.45593999997E+02  0.45594000000E+02  0.51100000000E-03 0.  1.
         23    2    1    2    0    0  0.00000000000E+00  0.00000000000E+00  0.00000000000E+00  0.91188000000E+02  0.91188000000E+02 0.  0.
    9900012    2    3    3    0    0 -0.31971982555E+02 -0.10854881013E+02 -0.27268790059E+02  0.47787273952E+02  0.20000013255E+02 0.  0.
         12    1    3    3    0    0  0.31971982555E+02  0.10854881013E+02  0.27268790059E+02  0.43400726048E+02  0.00000000000E+00 0. -1.
         11    1    4    4    0    0 -0.14366186149E+02  0.12301809457E+01 -0.14815453316E+02  0.20673613783E+02  0.51100000000E-03 0. -1.
        -11    1    4    4    0    0 -0.18910970800E+02 -0.10260539045E+02 -0.12475033447E+02  0.24870262119E+02  0.51100000000E-03 0.  1.
         12    1    4    4    0    0  0.13051743949E+01 -0.18245229136E+01  0.21696703771E-01  0.22433980499E+01  0.00000000000E+00 0. -1.
</event>
<event>
 8    1  0.5250708E-010  0.9118800E+02  0.7816164E-02  0.1184000E+00
        -11   -1    0    0    0    0  0.00000000000E+00  0.00000000000E+00  0.45593999997E+02  0.45594000000E+02  0.51100000000E-03 0. -1.
         11   -1    0    0    0    0 -0.00000000000E+00 -0.00000000000E+00 -0.45593999997E+02  0.45594000000E+02  0.51100000000E-03 0.  1.
         23    2    1    2    0    0 -0.17763568394E-14  0.00000000000E+00  0.71054273576E-14  0.91188000000E+02  0.91188000000E+02 0.  0.
    9900012    2    3    3    0    0 -0.12457916382E+02 -0.17041743617E+02  0.37921001552E+02  0.47787273453E+02  0.20000010981E+02 0.  0.
        -12    1    3    3    0    0  0.12457916382E+02  0.17041743617E+02 -0.37921001552E+02  0.43400726547E+02  0.00000000000E+00 0.  1.
         11    1    4    4    0    0 -0.78607560135E+01 -0.75560213259E+01  0.18303456002E+02  0.21304962926E+02  0.51100000000E-03 0. -1.
        -11    1    4    4    0    0 -0.48942427559E+01 -0.12866617183E+02  0.18161820596E+02  0.22789365448E+02  0.51100000000E-03 0.  1.
        -12    1    4    4    0    0  0.29708238705E+00  0.33808948922E+01  0.14557249544E+01  0.36929450794E+01  0.00000000000E+00 0.  1.
</event>
<event>
 8    1  0.5250708E-010  0.9118800E+02  0.7816164E-02  0.1184000E+00
        -11   -1    0    0    0    0  0.00000000000E+00  0.00000000000E+00  0.45593999997E+02  0.45594000000E+02  0.51100000000E-03 0.  1.
         11   -1    0    0    0    0 -0.00000000000E+00 -0.00000000000E+00 -0.45593999997E+02  0.45594000000E+02  0.51100000000E-03 0. -1.
         23    2    1    2    0    0  0.00000000000E+00  0.17763568394E-14 -0.17763568394E-14  0.91188000000E+02  0.91188000000E+02 0.  0.
    9900012    2    3    3    0    0  0.41183937670E+02  0.10378414338E+02 -0.89327678127E+01  0.47787279418E+02  0.20000038180E+02 0.  0.
         12    1    3    3    0    0 -0.41183937670E+02 -0.10378414338E+02  0.89327678127E+01  0.43400720582E+02  0.00000000000E+00 0. -1.
         11    1    4    4    0    0  0.22317236766E+02  0.86643198884E+01 -0.12775929029E+02  0.27135840853E+02  0.51100000000E-03 0. -1.
        -11    1    4    4    0    0  0.13832326697E+02  0.41389601280E+01  0.12534940926E+01  0.14492601578E+02  0.51100000000E-03 0.  1.
         12    1    4    4    0    0  0.50343742076E+01 -0.24248656782E+01  0.25896671242E+01  0.61588369871E+01  0.00000000000E+00 0. -1.
</event>
<event>
 8    1  0.5250708E-010  0.9118800E+02  0.7816164E-02  0.1184000E+00
        -11   -1    0    0    0    0  0.00000000000E+00  0.00000000000E+00  0.45593999997E+02  0.45594000000E+02  0.51100000000E-03 0.  1.
         11   -1    0    0    0    0 -0.00000000000E+00 -0.00000000000E+00 -0.45593999997E+02  0.45594000000E+02  0.51100000000E-03 0. -1.
         23    2    1    2    0    0  0.35527136788E-14  0.00000000000E+00  0.44408920985E-15  0.91188000000E+02  0.91188000000E+02 0.  0.
    9900012    2    3    3    0    0  0.25767199461E+02  0.34919691491E+02  0.53901640324E+00  0.47787263134E+02  0.19999963931E+02 0.  0.
        -12    1    3    3    0    0 -0.25767199461E+02 -0.34919691491E+02 -0.53901640324E+00  0.43400736866E+02  0.00000000000E+00 0.  1.
         11    1    4    4    0    0  0.14274584122E+02  0.22332914747E+02 -0.23571277680E+01  0.26609751681E+02  0.51100000000E-03 0. -1.
        -11    1    4    4    0    0  0.65486587988E+01  0.94283896215E+01 -0.39697433055E+01  0.12146535518E+02  0.51100000000E-03 0.  1.
         12    1    4    4    0    0  0.49439565408E+01  0.31583871223E+01  0.68658874768E+01  0.90309759348E+01  0.00000000000E+00 0. -1.
</event>
<event>
 8    1  0.5250708E-010  0.9118800E+02  0.7816164E-02  0.1184000E+00
        -11   -1    0    0    0    0  0.00000000000E+00  0.00000000000E+00  0.45593999997E+02  0.45594000000E+02  0.51100000000E-03 0. -1.
         11   -1    0    0    0    0 -0.00000000000E+00 -0.00000000000E+00 -0.45593999997E+02  0.45594000000E+02  0.51100000000E-03 0.  1.
         23    2    1    2    0    0  0.00000000000E+00 -0.35527136788E-14  0.00000000000E+00  0.91188000000E+02  0.91188000000E+02 0.  0.
    9900012    2    3    3    0    0 -0.81436848358E+01  0.25551172818E+02 -0.34123908550E+02  0.47787272244E+02  0.20000005467E+02 0.  0.
         12    1    3    3    0    0  0.81436848358E+01 -0.25551172818E+02  0.34123908550E+02  0.43400727756E+02  0.00000000000E+00 0. -1.
         11    1    4    4    0    0  0.31850373493E+01  0.28677171188E+01 -0.16105096649E+02  0.16665605381E+02  0.51100000000E-03 0. -1.
        -11    1    4    4    0    0 -0.62483880339E+01  0.11400860461E+02 -0.91533081586E+01  0.15899843483E+02  0.51100000000E-03 0.  1.
         12    1    4    4    0    0 -0.50803341511E+01  0.11282595238E+02 -0.88655037423E+01  0.15221823380E+02  0.00000000000E+00 0. -1.
</event>
<event>
 8    1  0.5250708E-010  0.9118800E+02  0.7816164E-02  0.1184000E+00
        -11   -1    0    0    0    0  0.00000000000E+00  0.00000000000E+00  0.45593999997E+02  0.45594000000E+02  0.51100000000E-03 0. -1.
         11   -1    0    0    0    0 -0.00000000000E+00 -0.00000000000E+00 -0.45593999997E+02  0.45594000000E+02  0.51100000000E-03 0.  1.
         23    2    1    2    0    0  0.00000000000E+00  0.00000000000E+00 -0.71054273576E-14  0.91188000000E+02  0.91188000000E+02 0.  0.
    9900012    2    3    3    0    0 -0.21019354323E+02 -0.40364315669E+01  0.37756017775E+02  0.47787275188E+02  0.20000018894E+02 0.  0.
        -12    1    3    3    0    0  0.21019354323E+02  0.40364315669E+01 -0.37756017775E+02  0.43400724812E+02  0.00000000000E+00 0.  1.
         11    1    4    4    0    0 -0.70604797984E+01  0.62089074377E-02  0.57769404706E+01  0.91226890222E+01  0.51100000000E-03 0. -1.
        -11    1    4    4    0    0 -0.85384566463E+01 -0.70606756036E+01  0.74217046589E+01  0.13335669544E+02  0.51100000000E-03 0.  1.
         12    1    4    4    0    0 -0.54204178787E+01  0.30180351292E+01  0.24557372645E+02  0.25328916622E+02  0.00000000000E+00 0. -1.
</event>
<event>
 8    1  0.5250708E-010  0.9118800E+02  0.7816164E-02  0.1184000E+00
        -11   -1    0    0    0    0  0.00000000000E+00  0.00000000000E+00  0.45593999997E+02  0.45594000000E+02  0.51100000000E-03 0. -1.
         11   -1    0    0    0    0 -0.00000000000E+00 -0.00000000000E+00 -0.45593999997E+02  0.45594000000E+02  0.51100000000E-03 0.  1.
         23    2    1    2    0    0  0.44408920985E-15  0.00000000000E+00  0.00000000000E+00  0.91188000000E+02  0.91188000000E+02 0.  0.
    9900012    2    3    3    0    0  0.25456307946E+01  0.15221154501E+02 -0.40564262289E+02  0.47787272408E+02  0.20000006215E+02 0.  0.
         12    1    3    3    0    0 -0.25456307946E+01 -0.15221154501E+02  0.40564262289E+02  0.43400727592E+02  0.00000000000E+00 0. -1.
         11    1    4    4    0    0  0.12415730031E+00  0.23346586507E+00 -0.11116601390E+02  0.11119745864E+02  0.51100000000E-03 0. -1.
        -11    1    4    4    0    0  0.45062132674E+01  0.17787932253E+02 -0.25080973637E+02  0.31076868097E+02  0.51100000000E-03 0.  1.
         12    1    4    4    0    0 -0.20847397731E+01 -0.28002436166E+01 -0.43666872616E+01  0.55906584473E+01  0.00000000000E+00 0. -1.
</event>
<event>
 8    1  0.5250708E-010  0.9118800E+02  0.7816164E-02  0.1184000E+00
        -11   -1    0    0    0    0  0.00000000000E+00  0.00000000000E+00  0.45593999997E+02  0.45594000000E+02  0.51100000000E-03 0. -1.
         11   -1    0    0    0    0 -0.00000000000E+00 -0.00000000000E+00 -0.45593999997E+02  0.45594000000E+02  0.51100000000E-03 0.  1.
         23    2    1    2    0    0  0.00000000000E+00  0.00000000000E+00  0.00000000000E+00  0.91188000000E+02  0.91188000000E+02 0.  0.
    9900012    2    3    3    0    0 -0.18464834111E+02 -0.10814794718E+02 -0.37758620940E+02  0.47787270296E+02  0.19999996589E+02 0.  0.
         12    1    3    3    0    0  0.18464834111E+02  0.10814794718E+02  0.37758620940E+02  0.43400729704E+02  0.00000000000E+00 0. -1.
         11    1    4    4    0    0 -0.77031011414E+01 -0.40975476258E+01 -0.36700762714E+01  0.94655757267E+01  0.51100000000E-03 0. -1.
        -11    1    4    4    0    0 -0.13156728769E+02 -0.39719759093E+01 -0.24968501829E+02  0.28500915570E+02  0.51100000000E-03 0.  1.
        -12    1    4    4    0    0  0.23949957995E+01 -0.27452711830E+01 -0.91200428399E+01  0.98207789992E+01  0.00000000000E+00 0.  1.
</event>
<event>
 8    1  0.5250708E-010  0.9118800E+02  0.7816164E-02  0.1184000E+00
        -11   -1    0    0    0    0  0.00000000000E+00  0.00000000000E+00  0.45593999997E+02  0.45594000000E+02  0.51100000000E-03 0. -1.
         11   -1    0    0    0    0 -0.00000000000E+00 -0.00000000000E+00 -0.45593999997E+02  0.45594000000E+02  0.51100000000E-03 0.  1.
         23    2    1    2    0    0  0.00000000000E+00  0.00000000000E+00 -0.71054273576E-14  0.91188000000E+02  0.91188000000E+02 0.  0.
    9900012    2    3    3    0    0  0.13154364999E+02 -0.49182152883E+01  0.41065743089E+02  0.47787292453E+02  0.20000097609E+02 0.  0.
        -12    1    3    3    0    0 -0.13154364999E+02  0.49182152883E+01 -0.41065743089E+02  0.43400707547E+02  0.00000000000E+00 0.  1.
         11    1    4    4    0    0  0.99808951910E+01 -0.11004559719E+01  0.31994558583E+02  0.33533282740E+02  0.51100000000E-03 0. -1.
        -11    1    4    4    0    0  0.37729503858E+01  0.22237182442E+01  0.16839334113E+01  0.46920900928E+01  0.51100000000E-03 0.  1.
        -12    1    4    4    0    0 -0.59948057787E+00 -0.60414775606E+01  0.73872510946E+01  0.95619196197E+01  0.00000000000E+00 0.  1.
</event>
<event>
 8    1  0.7801985E-010  0.9118800E+02  0.7816164E-02  0.1184000E+00
        -11   -1    0    0    0    0  0.00000000000E+00  0.00000000000E+00  0.45593999997E+02  0.45594000000E+02  0.51100000000E-03 0. -1.
         11   -1    0    0    0    0 -0.00000000000E+00 -0.00000000000E+00 -0.45593999997E+02  0.45594000000E+02  0.51100000000E-03 0.  1.
         23    2    1    2    0    0  0.00000000000E+00  0.00000000000E+00  0.00000000000E+00  0.91188000000E+02  0.91188000000E+02 0.  0.
    9900012    2    3    3    0    0  0.26292828876E+02 -0.51193755964E+01 -0.34148230491E+02  0.47787279931E+02  0.20000040519E+02 0.  0.
         12    1    3    3    0    0 -0.26292828876E+02  0.51193755964E+01  0.34148230491E+02  0.43400720069E+02  0.00000000000E+00 0. -1.
         11    1    4    4    0    0 -0.62361996844E+00  0.11221253246E+01 -0.91929345976E+01  0.92821395101E+01  0.51100000000E-03 0. -1.
        -11    1    4    4    0    0  0.13598861457E+02 -0.51012021681E+01 -0.18886963341E+02  0.23825798643E+02  0.51100000000E-03 0.  1.
         12    1    4    4    0    0  0.13317587388E+02 -0.11402987529E+01 -0.60683325531E+01  0.14679341778E+02  0.00000000000E+00 0. -1.
</event>
<event>
 8    1  0.5250708E-010  0.9118800E+02  0.7816164E-02  0.1184000E+00
        -11   -1    0    0    0    0  0.00000000000E+00  0.00000000000E+00  0.45593999997E+02  0.45594000000E+02  0.51100000000E-03 0. -1.
         11   -1    0    0    0    0 -0.00000000000E+00 -0.00000000000E+00 -0.45593999997E+02  0.45594000000E+02  0.51100000000E-03 0.  1.
         23    2    1    2    0    0  0.44408920985E-15  0.00000000000E+00  0.71054273576E-14  0.91188000000E+02  0.91188000000E+02 0.  0.
    9900012    2    3    3    0    0 -0.38322264318E+01  0.12120783683E+01 -0.43214212995E+02  0.47787270765E+02  0.19999998726E+02 0.  0.
         12    1    3    3    0    0  0.38322264318E+01 -0.12120783683E+01  0.43214212995E+02  0.43400729235E+02  0.00000000000E+00 0. -1.
         11    1    4    4    0    0  0.36980596165E+01 -0.17248501076E+01 -0.16092506639E+02  0.16601792764E+02  0.51100000000E-03 0.  1.
        -11    1    4    4    0    0 -0.38505699422E+01  0.65851195047E+01 -0.68183921432E+01  0.10231381112E+02  0.51100000000E-03 0. -1.
        -12    1    4    4    0    0 -0.36797161061E+01 -0.36481910288E+01 -0.20303314213E+02  0.20954096889E+02  0.00000000000E+00 0.  1.
</event>
<event>
 8    1  0.5250708E-010  0.9118800E+02  0.7816164E-02  0.1184000E+00
        -11   -1    0    0    0    0  0.00000000000E+00  0.00000000000E+00  0.45593999997E+02  0.45594000000E+02  0.51100000000E-03 0. -1.
         11   -1    0    0    0    0 -0.00000000000E+00 -0.00000000000E+00 -0.45593999997E+02  0.45594000000E+02  0.51100000000E-03 0.  1.
         23    2    1    2    0    0 -0.11102230246E-15  0.00000000000E+00  0.00000000000E+00  0.91188000000E+02  0.91188000000E+02 0.  0.
    9900012    2    3    3    0    0  0.70539168973E+00  0.35136246506E+02  0.25467038230E+02  0.47787269220E+02  0.19999991683E+02 0.  0.
        -12    1    3    3    0    0 -0.70539168973E+00 -0.35136246506E+02 -0.25467038230E+02  0.43400730780E+02  0.00000000000E+00 0.  1.
         11    1    4    4    0    0 -0.59745950989E+01  0.18267347681E+02  0.11512439343E+02  0.22403750529E+02  0.51100000000E-03 0. -1.
        -11    1    4    4    0    0  0.66083055584E+00 -0.14739400917E+01  0.94316588478E-01  0.16180520071E+01  0.51100000000E-03 0.  1.
         12    1    4    4    0    0  0.60191562328E+01  0.18342838917E+02  0.13860282299E+02  0.23765466684E+02  0.00000000000E+00 0. -1.
</event>
<event>
 8    1  0.5250708E-010  0.9118800E+02  0.7816164E-02  0.1184000E+00
        -11   -1    0    0    0    0  0.00000000000E+00  0.00000000000E+00  0.45593999997E+02  0.45594000000E+02  0.51100000000E-03 0. -1.
         11   -1    0    0    0    0 -0.00000000000E+00 -0.00000000000E+00 -0.45593999997E+02  0.45594000000E+02  0.51100000000E-03 0.  1.
         23    2    1    2    0    0  0.00000000000E+00 -0.17763568394E-14  0.00000000000E+00  0.91188000000E+02  0.91188000000E+02 0.  0.
    9900012    2    3    3    0    0  0.20969356044E+02 -0.88088270440E+01  0.36963727908E+02  0.47787233790E+02  0.19999830140E+02 0.  0.
        -12    1    3    3    0    0 -0.20969356044E+02  0.88088270440E+01 -0.36963727908E+02  0.43400766210E+02  0.00000000000E+00 0.  1.
         11    1    4    4    0    0  0.15241385427E+02 -0.97725373013E+01  0.34259323078E+02  0.38749239129E+02  0.51100000000E-03 0. -1.
        -11    1    4    4    0    0  0.45113394638E+01 -0.23438085853E+01  0.13269606449E+01  0.52541837860E+01  0.51100000000E-03 0.  1.
        -12    1    4    4    0    0  0.12166311526E+01  0.33075188425E+01  0.13774441856E+01  0.37838108753E+01  0.00000000000E+00 0.  1.
</event>
<event>
 8    1  0.5250708E-010  0.9118800E+02  0.7816164E-02  0.1184000E+00
        -11   -1    0    0    0    0  0.00000000000E+00  0.00000000000E+00  0.45593999997E+02  0.45594000000E+02  0.51100000000E-03 0. -1.
         11   -1    0    0    0    0 -0.00000000000E+00 -0.00000000000E+00 -0.45593999997E+02  0.45594000000E+02  0.51100000000E-03 0.  1.
         23    2    1    2    0    0 -0.44408920985E-15  0.17763568394E-14  0.00000000000E+00  0.91188000000E+02  0.91188000000E+02 0.  0.
    9900012    2    3    3    0    0 -0.34160565321E+01 -0.90984378063E+01  0.42298610103E+02  0.47787269253E+02  0.19999991833E+02 0.  0.
        -12    1    3    3    0    0  0.34160565321E+01  0.90984378063E+01 -0.42298610103E+02  0.43400730747E+02  0.00000000000E+00 0.  1.
         11    1    4    4    0    0 -0.53293777096E+01 -0.45976745046E+01  0.21627545844E+02  0.22744045751E+02  0.51100000000E-03 0. -1.
        -11    1    4    4    0    0 -0.97645666159E+00 -0.56889268813E+01  0.19943338575E+01  0.61069406800E+01  0.51100000000E-03 0.  1.
        -12    1    4    4    0    0  0.28897778390E+01  0.11881635796E+01  0.18676730401E+02  0.18936282823E+02  0.00000000000E+00 0.  1.
</event>
<event>
 8    1  0.5526605E-010  0.9118800E+02  0.7816164E-02  0.1184000E+00
        -11   -1    0    0    0    0  0.00000000000E+00  0.00000000000E+00  0.45593999997E+02  0.45594000000E+02  0.51100000000E-03 0. -1.
         11   -1    0    0    0    0 -0.00000000000E+00 -0.00000000000E+00 -0.45593999997E+02  0.45594000000E+02  0.51100000000E-03 0.  1.
         23    2    1    2    0    0  0.00000000000E+00  0.00000000000E+00  0.00000000000E+00  0.91188000000E+02  0.91188000000E+02 0.  0.
    9900012    2    3    3    0    0 -0.47031850677E+01 -0.23319698886E+02  0.36300068033E+02  0.47787271376E+02  0.20000001510E+02 0.  0.
        -12    1    3    3    0    0  0.47031850677E+01  0.23319698886E+02 -0.36300068033E+02  0.43400728624E+02  0.00000000000E+00 0.  1.
         11    1    4    4    0    0 -0.18682086530E+01 -0.11435232476E+02  0.17012272455E+02  0.20583298076E+02  0.51100000000E-03 0. -1.
        -11    1    4    4    0    0  0.31983343841E+01 -0.48424862369E+01  0.60246370544E-03  0.58033625090E+01  0.51100000000E-03 0.  1.
         12    1    4    4    0    0 -0.60333107989E+01 -0.70419801725E+01  0.19287193115E+02  0.21400610791E+02  0.00000000000E+00 0. -1.
</event>
<event>
 8    1  0.5250708E-010  0.9118800E+02  0.7816164E-02  0.1184000E+00
        -11   -1    0    0    0    0  0.00000000000E+00  0.00000000000E+00  0.45593999997E+02  0.45594000000E+02  0.51100000000E-03 0. -1.
         11   -1    0    0    0    0 -0.00000000000E+00 -0.00000000000E+00 -0.45593999997E+02  0.45594000000E+02  0.51100000000E-03 0.  1.
         23    2    1    2    0    0 -0.44408920985E-15  0.00000000000E+00  0.00000000000E+00  0.91188000000E+02  0.91188000000E+02 0.  0.
    9900012    2    3    3    0    0  0.78685543228E+00 -0.85772210276E+01  0.42537452854E+02  0.47787276995E+02  0.20000027131E+02 0.  0.
        -12    1    3    3    0    0 -0.78685543228E+00  0.85772210276E+01 -0.42537452854E+02  0.43400723005E+02  0.00000000000E+00 0.  1.
         11    1    4    4    0    0  0.23409999750E+01 -0.30774406598E+01  0.24976245835E+01  0.46031566038E+01  0.51100000000E-03 0. -1.
        -11    1    4    4    0    0  0.34407293589E+01 -0.10908783498E+01  0.34001449213E+02  0.34192501853E+02  0.51100000000E-03 0.  1.
        -12    1    4    4    0    0 -0.49948739015E+01 -0.44089020180E+01  0.60383790574E+01  0.89916185383E+01  0.00000000000E+00 0.  1.
</event>
<event>
 8    1  0.5250708E-010  0.9118800E+02  0.7816164E-02  0.1184000E+00
        -11   -1    0    0    0    0  0.00000000000E+00  0.00000000000E+00  0.45593999997E+02  0.45594000000E+02  0.51100000000E-03 0. -1.
         11   -1    0    0    0    0 -0.00000000000E+00 -0.00000000000E+00 -0.45593999997E+02  0.45594000000E+02  0.51100000000E-03 0.  1.
         23    2    1    2    0    0 -0.71054273576E-14  0.88817841970E-15 -0.17763568394E-14  0.91188000000E+02  0.91188000000E+02 0.  0.
    9900012    2    3    3    0    0 -0.42184438906E+02  0.44639039245E+01  0.91744189228E+01  0.47787270897E+02  0.19999999329E+02 0.  0.
        -12    1    3    3    0    0  0.42184438906E+02 -0.44639039245E+01 -0.91744189228E+01  0.43400729103E+02  0.00000000000E+00 0.  1.
         11    1    4    4    0    0 -0.90245862348E+01 -0.12846637319E+01  0.10285668223E+02  0.13743670859E+02  0.51100000000E-03 0. -1.
        -11    1    4    4    0    0 -0.54021866799E+01  0.10352491058E+01 -0.20575242243E+01  0.58727138386E+01  0.51100000000E-03 0.  1.
         12    1    4    4    0    0 -0.27757665992E+02  0.47133185506E+01  0.94627492387E+00  0.28170886200E+02  0.00000000000E+00 0. -1.
</event>
<event>
 8    1  0.5250708E-010  0.9118800E+02  0.7816164E-02  0.1184000E+00
        -11   -1    0    0    0    0  0.00000000000E+00  0.00000000000E+00  0.45593999997E+02  0.45594000000E+02  0.51100000000E-03 0. -1.
         11   -1    0    0    0    0 -0.00000000000E+00 -0.00000000000E+00 -0.45593999997E+02  0.45594000000E+02  0.51100000000E-03 0.  1.
         23    2    1    2    0    0  0.71054273576E-14  0.17763568394E-14  0.00000000000E+00  0.91188000000E+02  0.91188000000E+02 0.  0.
    9900012    2    3    3    0    0  0.35848165216E+02  0.11118679289E+02  0.21792365012E+02  0.47787272456E+02  0.20000006436E+02 0.  0.
        -12    1    3    3    0    0 -0.35848165216E+02 -0.11118679289E+02 -0.21792365012E+02  0.43400727544E+02  0.00000000000E+00 0.  1.
         11    1    4    4    0    0 -0.34325838587E+00  0.23806752912E+01  0.42603990386E+00  0.24427344150E+01  0.51100000000E-03 0.  1.
        -11    1    4    4    0    0  0.33449808075E+02  0.61225070851E+01  0.23169244316E+02  0.41148373427E+02  0.51100000000E-03 0. -1.
         12    1    4    4    0    0  0.27416155274E+01  0.26154969125E+01 -0.18029192074E+01  0.41961646140E+01  0.00000000000E+00 0. -1.
</event>
<event>
 8    1  0.5250708E-010  0.9118800E+02  0.7816164E-02  0.1184000E+00
        -11   -1    0    0    0    0  0.00000000000E+00  0.00000000000E+00  0.45593999997E+02  0.45594000000E+02  0.51100000000E-03 0. -1.
         11   -1    0    0    0    0 -0.00000000000E+00 -0.00000000000E+00 -0.45593999997E+02  0.45594000000E+02  0.51100000000E-03 0.  1.
         23    2    1    2    0    0  0.35527136788E-14  0.17763568394E-14 -0.71054273576E-14  0.91188000000E+02  0.91188000000E+02 0.  0.
    9900012    2    3    3    0    0  0.22928419447E+02  0.10917197642E+02 -0.35195526219E+02  0.47787277788E+02  0.20000030746E+02 0.  0.
         12    1    3    3    0    0 -0.22928419447E+02 -0.10917197642E+02  0.35195526219E+02  0.43400722212E+02  0.00000000000E+00 0. -1.
         11    1    4    4    0    0  0.90984674753E+01  0.31724704075E+01 -0.12990816045E+02  0.16174300005E+02  0.51100000000E-03 0.  1.
        -11    1    4    4    0    0  0.11391459961E+02 -0.25367817224E+01 -0.92266781472E+01  0.14877238032E+02  0.51100000000E-03 0. -1.
         12    1    4    4    0    0  0.24384920103E+01  0.10281508957E+02 -0.12978032027E+02  0.16735739751E+02  0.00000000000E+00 0. -1.
</event>
<event>
 8    1  0.5250708E-010  0.9118800E+02  0.7816164E-02  0.1184000E+00
        -11   -1    0    0    0    0  0.00000000000E+00  0.00000000000E+00  0.45593999997E+02  0.45594000000E+02  0.51100000000E-03 0. -1.
         11   -1    0    0    0    0 -0.00000000000E+00 -0.00000000000E+00 -0.45593999997E+02  0.45594000000E+02  0.51100000000E-03 0.  1.
         23    2    1    2    0    0 -0.35527136788E-14  0.00000000000E+00  0.00000000000E+00  0.91188000000E+02  0.91188000000E+02 0.  0.
    9900012    2    3    3    0    0 -0.29549485685E+02  0.29152693511E+02 -0.12671676895E+02  0.47787273756E+02  0.20000012361E+02 0.  0.
         12    1    3    3    0    0  0.29549485685E+02 -0.29152693511E+02  0.12671676895E+02  0.43400726244E+02  0.00000000000E+00 0. -1.
         11    1    4    4    0    0 -0.13038552873E+02  0.13055082761E+02 -0.45800273544E+01  0.19010936267E+02  0.51100000000E-03 0. -1.
        -11    1    4    4    0    0 -0.14734769221E+02  0.48399038877E+01 -0.78361405609E+01  0.17376512677E+02  0.51100000000E-03 0.  1.
         12    1    4    4    0    0 -0.17761635907E+01  0.11257706863E+02 -0.25550897957E+00  0.11399824812E+02  0.00000000000E+00 0. -1.
</event>
<event>
 8    1  0.5250708E-010  0.9118800E+02  0.7816164E-02  0.1184000E+00
        -11   -1    0    0    0    0  0.00000000000E+00  0.00000000000E+00  0.45593999997E+02  0.45594000000E+02  0.51100000000E-03 0. -1.
         11   -1    0    0    0    0 -0.00000000000E+00 -0.00000000000E+00 -0.45593999997E+02  0.45594000000E+02  0.51100000000E-03 0.  1.
         23    2    1    2    0    0  0.00000000000E+00  0.00000000000E+00  0.00000000000E+00  0.91188000000E+02  0.91188000000E+02 0.  0.
    9900012    2    3    3    0    0  0.15570783568E+02  0.12653273507E+02 -0.38484656645E+02  0.47787269264E+02  0.19999991881E+02 0.  0.
         12    1    3    3    0    0 -0.15570783568E+02 -0.12653273507E+02  0.38484656645E+02  0.43400730736E+02  0.00000000000E+00 0. -1.
         11    1    4    4    0    0  0.70375931987E+01  0.22328407795E+01 -0.30403958543E+01  0.79848170417E+01  0.51100000000E-03 0. -1.
        -11    1    4    4    0    0 -0.12578803505E+01 -0.67798419546E+00 -0.11950466541E+02  0.12035596220E+02  0.51100000000E-03 0.  1.
         12    1    4    4    0    0  0.97910707195E+01  0.11098416923E+02 -0.23493794249E+02  0.27766856002E+02  0.00000000000E+00 0. -1.
</event>
<event>
 8    1  0.5250708E-010  0.9118800E+02  0.7816164E-02  0.1184000E+00
        -11   -1    0    0    0    0  0.00000000000E+00  0.00000000000E+00  0.45593999997E+02  0.45594000000E+02  0.51100000000E-03 0. -1.
         11   -1    0    0    0    0 -0.00000000000E+00 -0.00000000000E+00 -0.45593999997E+02  0.45594000000E+02  0.51100000000E-03 0.  1.
         23    2    1    2    0    0  0.00000000000E+00 -0.35527136788E-14  0.00000000000E+00  0.91188000000E+02  0.91188000000E+02 0.  0.
    9900012    2    3    3    0    0 -0.21836411674E+02  0.28475619229E+02  0.24411754697E+02  0.47787268063E+02  0.19999986409E+02 0.  0.
        -12    1    3    3    0    0  0.21836411674E+02 -0.28475619229E+02 -0.24411754697E+02  0.43400731937E+02  0.00000000000E+00 0.  1.
         11    1    4    4    0    0 -0.29202037383E+01  0.77202532969E+01  0.15038190630E+01  0.83899566672E+01  0.51100000000E-03 0. -1.
        -11    1    4    4    0    0 -0.18719709748E+02  0.98656023808E+01  0.14986343755E+02  0.25929676874E+02  0.51100000000E-03 0.  1.
        -12    1    4    4    0    0 -0.19649818768E+00  0.10889763551E+02  0.79215918787E+01  0.13467634522E+02  0.00000000000E+00 0.  1.
</event>
<event>
 8    1  0.5250708E-010  0.9118800E+02  0.7816164E-02  0.1184000E+00
        -11   -1    0    0    0    0  0.00000000000E+00  0.00000000000E+00  0.45593999997E+02  0.45594000000E+02  0.51100000000E-03 0. -1.
         11   -1    0    0    0    0 -0.00000000000E+00 -0.00000000000E+00 -0.45593999997E+02  0.45594000000E+02  0.51100000000E-03 0.  1.
         23    2    1    2    0    0 -0.35527136788E-14  0.15699247458E-14  0.00000000000E+00  0.91188000000E+02  0.91188000000E+02 0.  0.
    9900012    2    3    3    0    0 -0.19481039361E+02 -0.11351185330E-01 -0.38782886927E+02  0.47787270261E+02  0.19999996429E+02 0.  0.
         12    1    3    3    0    0  0.19481039361E+02  0.11351185330E-01  0.38782886927E+02  0.43400729739E+02  0.00000000000E+00 0. -1.
         11    1    4    4    0    0  0.74165975215E+00 -0.37069208910E+00 -0.75145360479E+01  0.75601404808E+01  0.51100000000E-03 0. -1.
        -11    1    4    4    0    0 -0.18696114097E+02 -0.53021764531E+01 -0.23508035445E+02  0.30500581769E+02  0.51100000000E-03 0.  1.
        -12    1    4    4    0    0 -0.15265850168E+01  0.56615173569E+01 -0.77603154338E+01  0.97265480119E+01  0.00000000000E+00 0.  1.
</event>
<event>
 8    1  0.5250708E-010  0.9118800E+02  0.7816164E-02  0.1184000E+00
        -11   -1    0    0    0    0  0.00000000000E+00  0.00000000000E+00  0.45593999997E+02  0.45594000000E+02  0.51100000000E-03 0. -1.
         11   -1    0    0    0    0 -0.00000000000E+00 -0.00000000000E+00 -0.45593999997E+02  0.45594000000E+02  0.51100000000E-03 0.  1.
         23    2    1    2    0    0  0.00000000000E+00  0.00000000000E+00  0.00000000000E+00  0.91188000000E+02  0.91188000000E+02 0.  0.
    9900012    2    3    3    0    0  0.11456326891E+02 -0.76504096858E+01 -0.41156378904E+02  0.47787265920E+02  0.19999976635E+02 0.  0.
         12    1    3    3    0    0 -0.11456326891E+02  0.76504096858E+01  0.41156378904E+02  0.43400734080E+02  0.00000000000E+00 0. -1.
         11    1    4    4    0    0  0.10248738325E+02  0.99989681319E+00 -0.16967296544E+02  0.19847558620E+02  0.51100000000E-03 0. -1.
        -11    1    4    4    0    0  0.32282515022E+01 -0.92349842199E+00 -0.16552516147E+02  0.16889649142E+02  0.51100000000E-03 0.  1.
        -12    1    4    4    0    0 -0.20206629362E+01 -0.77268080771E+01 -0.76365662133E+01  0.11050058158E+02  0.00000000000E+00 0.  1.
</event>
<event>
 8    1  0.5250709E-010  0.9118800E+02  0.7816164E-02  0.1184000E+00
        -11   -1    0    0    0    0  0.00000000000E+00  0.00000000000E+00  0.45593999997E+02  0.45594000000E+02  0.51100000000E-03 0. -1.
         11   -1    0    0    0    0 -0.00000000000E+00 -0.00000000000E+00 -0.45593999997E+02  0.45594000000E+02  0.51100000000E-03 0.  1.
         23    2    1    2    0    0  0.00000000000E+00 -0.35527136788E-14  0.00000000000E+00  0.91188000000E+02  0.91188000000E+02 0.  0.
    9900012    2    3    3    0    0  0.18589211759E+02 -0.16340209188E+02 -0.35651986079E+02  0.47787247225E+02  0.19999891396E+02 0.  0.
         12    1    3    3    0    0 -0.18589211759E+02  0.16340209188E+02  0.35651986079E+02  0.43400752775E+02  0.00000000000E+00 0. -1.
         11    1    4    4    0    0  0.22045977321E+01 -0.13590775820E+02 -0.13137359240E+02  0.19030492548E+02  0.51100000000E-03 0. -1.
        -11    1    4    4    0    0  0.91908220831E+01 -0.48543686860E+01 -0.13158555267E+02  0.16768532520E+02  0.51100000000E-03 0.  1.
         12    1    4    4    0    0  0.71937919435E+01  0.21049353182E+01 -0.93560715715E+01  0.11988222156E+02  0.00000000000E+00 0. -1.
</event>
<event>
 8    1  0.5250708E-010  0.9118800E+02  0.7816164E-02  0.1184000E+00
        -11   -1    0    0    0    0  0.00000000000E+00  0.00000000000E+00  0.45593999997E+02  0.45594000000E+02  0.51100000000E-03 0. -1.
         11   -1    0    0    0    0 -0.00000000000E+00 -0.00000000000E+00 -0.45593999997E+02  0.45594000000E+02  0.51100000000E-03 0.  1.
         23    2    1    2    0    0  0.17763568394E-14  0.88817841970E-15 -0.71054273576E-14  0.91188000000E+02  0.91188000000E+02 0.  0.
    9900012    2    3    3    0    0  0.11617007057E+02  0.22659107012E+01  0.41755644657E+02  0.47787273451E+02  0.20000010972E+02 0.  0.
        -12    1    3    3    0    0 -0.11617007057E+02 -0.22659107012E+01 -0.41755644657E+02  0.43400726549E+02  0.00000000000E+00 0.  1.
         11    1    4    4    0    0 -0.33632270831E-01  0.43963329407E+01  0.25081899228E+02  0.25464299393E+02  0.51100000000E-03 0. -1.
        -11    1    4    4    0    0 -0.48793050307E-01 -0.29426921817E+01  0.20947368724E+01  0.36124425066E+01  0.51100000000E-03 0.  1.
        -12    1    4    4    0    0  0.11699432378E+02  0.81226994216E+00  0.14579008557E+02  0.18710531551E+02  0.00000000000E+00 0.  1.
</event>
<event>
 8    1  0.5250708E-010  0.9118800E+02  0.7816164E-02  0.1184000E+00
        -11   -1    0    0    0    0  0.00000000000E+00  0.00000000000E+00  0.45593999997E+02  0.45594000000E+02  0.51100000000E-03 0. -1.
         11   -1    0    0    0    0 -0.00000000000E+00 -0.00000000000E+00 -0.45593999997E+02  0.45594000000E+02  0.51100000000E-03 0.  1.
         23    2    1    2    0    0  0.00000000000E+00  0.00000000000E+00  0.00000000000E+00  0.91188000000E+02  0.91188000000E+02 0.  0.
    9900012    2    3    3    0    0  0.26274974309E+02 -0.32545823559E+02 -0.11576627171E+02  0.47787271865E+02  0.20000003740E+02 0.  0.
         12    1    3    3    0    0 -0.26274974309E+02  0.32545823559E+02  0.11576627171E+02  0.43400728135E+02  0.00000000000E+00 0. -1.
         11    1    4    4    0    0  0.18033898175E+02 -0.18922082789E+02 -0.38164624529E+01  0.26416511624E+02  0.51100000000E-03 0. -1.
        -11    1    4    4    0    0  0.49470452705E+01 -0.15333341722E+02 -0.70758871001E+01  0.17596954389E+02  0.51100000000E-03 0.  1.
         12    1    4    4    0    0  0.32940308633E+01  0.17096009527E+01 -0.68427761763E+00  0.37738058513E+01  0.00000000000E+00 0. -1.
</event>
<event>
 8    1  0.5250708E-010  0.9118800E+02  0.7816164E-02  0.1184000E+00
        -11   -1    0    0    0    0  0.00000000000E+00  0.00000000000E+00  0.45593999997E+02  0.45594000000E+02  0.51100000000E-03 0.  1.
         11   -1    0    0    0    0 -0.00000000000E+00 -0.00000000000E+00 -0.45593999997E+02  0.45594000000E+02  0.51100000000E-03 0. -1.
         23    2    1    2    0    0  0.17763568394E-14 -0.71054273576E-14 -0.44408920985E-15  0.91188000000E+02  0.91188000000E+02 0.  0.
    9900012    2    3    3    0    0  0.14799195693E+02 -0.40720410336E+02 -0.25407486601E+01  0.47787269421E+02  0.19999992596E+02 0.  0.
        -12    1    3    3    0    0 -0.14799195693E+02  0.40720410336E+02  0.25407486601E+01  0.43400730579E+02  0.00000000000E+00 0.  1.
         11    1    4    4    0    0  0.33501851375E+01 -0.17655523337E+02 -0.89381325414E+01  0.20070661632E+02  0.51100000000E-03 0. -1.
        -11    1    4    4    0    0  0.27971081473E+01 -0.14573524302E+02  0.32293774518E+01  0.15186846399E+02  0.51100000000E-03 0.  1.
         12    1    4    4    0    0  0.86519024084E+01 -0.84913626965E+01  0.31680064295E+01  0.12529761389E+02  0.00000000000E+00 0. -1.
</event>
<event>
 8    1  0.5250708E-010  0.9118800E+02  0.7816164E-02  0.1184000E+00
        -11   -1    0    0    0    0  0.00000000000E+00  0.00000000000E+00  0.45593999997E+02  0.45594000000E+02  0.51100000000E-03 0.  1.
         11   -1    0    0    0    0 -0.00000000000E+00 -0.00000000000E+00 -0.45593999997E+02  0.45594000000E+02  0.51100000000E-03 0. -1.
         23    2    1    2    0    0  0.00000000000E+00  0.35527136788E-14 -0.44408920985E-15  0.91188000000E+02  0.91188000000E+02 0.  0.
    9900012    2    3    3    0    0  0.36328961161E+02  0.23580381226E+02 -0.27919661499E+01  0.47787275665E+02  0.20000021068E+02 0.  0.
        -12    1    3    3    0    0 -0.36328961161E+02 -0.23580381226E+02  0.27919661499E+01  0.43400724335E+02  0.00000000000E+00 0.  1.
         11    1    4    4    0    0  0.13661581276E+02  0.16896873273E+02 -0.37913214001E+00  0.21732162129E+02  0.51100000000E-03 0. -1.
        -11    1    4    4    0    0  0.71126526171E+01  0.55816346700E+01 -0.48693058675E+01  0.10269109637E+02  0.51100000000E-03 0.  1.
        -12    1    4    4    0    0  0.15554727268E+02  0.11018732828E+01  0.24564718576E+01  0.15786003899E+02  0.00000000000E+00 0.  1.
</event>
<event>
 8    1  0.5250708E-010  0.9118800E+02  0.7816164E-02  0.1184000E+00
        -11   -1    0    0    0    0  0.00000000000E+00  0.00000000000E+00  0.45593999997E+02  0.45594000000E+02  0.51100000000E-03 0.  1.
         11   -1    0    0    0    0 -0.00000000000E+00 -0.00000000000E+00 -0.45593999997E+02  0.45594000000E+02  0.51100000000E-03 0. -1.
         23    2    1    2    0    0  0.00000000000E+00  0.44408920985E-15 -0.88817841970E-15  0.91188000000E+02  0.91188000000E+02 0.  0.
    9900012    2    3    3    0    0  0.43050805224E+02  0.30947670215E+01  0.45468430358E+01  0.47787271954E+02  0.20000004147E+02 0.  0.
         12    1    3    3    0    0 -0.43050805224E+02 -0.30947670215E+01 -0.45468430358E+01  0.43400728046E+02  0.00000000000E+00 0. -1.
         11    1    4    4    0    0  0.68035680975E+01 -0.78231468538E-01 -0.47420255844E+01  0.82934592255E+01  0.51100000000E-03 0. -1.
        -11    1    4    4    0    0  0.26817269803E+02  0.73933986476E+01  0.86968190695E+01  0.29145547953E+02  0.51100000000E-03 0.  1.
         12    1    4    4    0    0  0.94299673229E+01 -0.42204001576E+01  0.59204955059E+00  0.10348264776E+02  0.00000000000E+00 0. -1.
</event>
<event>
 8    1  0.5250708E-010  0.9118800E+02  0.7816164E-02  0.1184000E+00
        -11   -1    0    0    0    0  0.00000000000E+00  0.00000000000E+00  0.45593999997E+02  0.45594000000E+02  0.51100000000E-03 0. -1.
         11   -1    0    0    0    0 -0.00000000000E+00 -0.00000000000E+00 -0.45593999997E+02  0.45594000000E+02  0.51100000000E-03 0.  1.
         23    2    1    2    0    0  0.00000000000E+00 -0.88817841970E-15  0.00000000000E+00  0.91188000000E+02  0.91188000000E+02 0.  0.
    9900012    2    3    3    0    0  0.18358426484E+02 -0.43420310745E+01 -0.39086296463E+02  0.47787266964E+02  0.19999981396E+02 0.  0.
         12    1    3    3    0    0 -0.18358426484E+02  0.43420310745E+01  0.39086296463E+02  0.43400733036E+02  0.00000000000E+00 0. -1.
         11    1    4    4    0    0  0.40478294411E+01 -0.50451337451E+01 -0.13869361921E+02  0.15303512605E+02  0.51100000000E-03 0. -1.
        -11    1    4    4    0    0  0.12008912866E+02 -0.56952376158E+01 -0.19507358050E+02  0.23604803284E+02  0.51100000000E-03 0.  1.
         12    1    4    4    0    0  0.23016841765E+01  0.63983402864E+01 -0.57095764921E+01  0.88789510748E+01  0.00000000000E+00 0. -1.
</event>
<event>
 8    1  0.5250708E-010  0.9118800E+02  0.7816164E-02  0.1184000E+00
        -11   -1    0    0    0    0  0.00000000000E+00  0.00000000000E+00  0.45593999997E+02  0.45594000000E+02  0.51100000000E-03 0. -1.
         11   -1    0    0    0    0 -0.00000000000E+00 -0.00000000000E+00 -0.45593999997E+02  0.45594000000E+02  0.51100000000E-03 0.  1.
         23    2    1    2    0    0 -0.22204460493E-15  0.00000000000E+00  0.00000000000E+00  0.91188000000E+02  0.91188000000E+02 0.  0.
    9900012    2    3    3    0    0  0.85456731268E+00  0.37104127725E+02  0.22498372030E+02  0.47787270472E+02  0.19999997392E+02 0.  0.
        -12    1    3    3    0    0 -0.85456731268E+00 -0.37104127725E+02 -0.22498372030E+02  0.43400729528E+02  0.00000000000E+00 0.  1.
         11    1    4    4    0    0 -0.18996990497E+01  0.21546665405E+02  0.69527371234E+01  0.22720215675E+02  0.51100000000E-03 0. -1.
        -11    1    4    4    0    0 -0.35448156418E+01  0.92596338853E+01  0.11777834875E+02  0.15395581582E+02  0.51100000000E-03 0.  1.
        -12    1    4    4    0    0  0.62990820041E+01  0.62978284350E+01  0.37678000312E+01  0.96714732159E+01  0.00000000000E+00 0.  1.
</event>
<event>
 8    1  0.5250708E-010  0.9118800E+02  0.7816164E-02  0.1184000E+00
        -11   -1    0    0    0    0  0.00000000000E+00  0.00000000000E+00  0.45593999997E+02  0.45594000000E+02  0.51100000000E-03 0.  1.
         11   -1    0    0    0    0 -0.00000000000E+00 -0.00000000000E+00 -0.45593999997E+02  0.45594000000E+02  0.51100000000E-03 0. -1.
         23    2    1    2    0    0  0.00000000000E+00  0.00000000000E+00 -0.88817841970E-15  0.91188000000E+02  0.91188000000E+02 0.  0.
    9900012    2    3    3    0    0  0.19780406983E+02 -0.38011857083E+02 -0.68889306208E+01  0.47787272536E+02  0.20000006800E+02 0.  0.
         12    1    3    3    0    0 -0.19780406983E+02  0.38011857083E+02  0.68889306208E+01  0.43400727464E+02  0.00000000000E+00 0. -1.
         11    1    4    4    0    0  0.10928294682E+00  0.77474433065E+00 -0.15612737493E+01  0.17463526338E+01  0.51100000000E-03 0. -1.
        -11    1    4    4    0    0  0.44380681481E+01 -0.23834054684E+02 -0.10196685373E+01  0.24265167128E+02  0.51100000000E-03 0.  1.
         12    1    4    4    0    0  0.15233055888E+02 -0.14952546730E+02 -0.43079883342E+01  0.21775752774E+02  0.00000000000E+00 0. -1.
</event>
<event>
 8    1  0.5250708E-010  0.9118800E+02  0.7816164E-02  0.1184000E+00
        -11   -1    0    0    0    0  0.00000000000E+00  0.00000000000E+00  0.45593999997E+02  0.45594000000E+02  0.51100000000E-03 0. -1.
         11   -1    0    0    0    0 -0.00000000000E+00 -0.00000000000E+00 -0.45593999997E+02  0.45594000000E+02  0.51100000000E-03 0.  1.
         23    2    1    2    0    0  0.00000000000E+00  0.71054273576E-14 -0.11102230246E-15  0.91188000000E+02  0.91188000000E+02 0.  0.
    9900012    2    3    3    0    0  0.25800814466E+02 -0.34898830962E+02 -0.11236606288E+00  0.47787273557E+02  0.20000011457E+02 0.  0.
         12    1    3    3    0    0 -0.25800814466E+02  0.34898830962E+02  0.11236606288E+00  0.43400726443E+02  0.00000000000E+00 0. -1.
         11    1    4    4    0    0  0.11876567694E+02 -0.18240821748E+02  0.59961680724E+01  0.22577299884E+02  0.51100000000E-03 0.  1.
        -11    1    4    4    0    0  0.23930462720E+00 -0.77784993270E+01 -0.40331715998E+01  0.87652034717E+01  0.51100000000E-03 0. -1.
         12    1    4    4    0    0  0.13684942144E+02 -0.88795098874E+01 -0.20753625355E+01  0.16444770201E+02  0.00000000000E+00 0. -1.
</event>
<event>
 8    1  0.5250708E-010  0.9118800E+02  0.7816164E-02  0.1184000E+00
        -11   -1    0    0    0    0  0.00000000000E+00  0.00000000000E+00  0.45593999997E+02  0.45594000000E+02  0.51100000000E-03 0. -1.
         11   -1    0    0    0    0 -0.00000000000E+00 -0.00000000000E+00 -0.45593999997E+02  0.45594000000E+02  0.51100000000E-03 0.  1.
         23    2    1    2    0    0  0.00000000000E+00  0.17763568394E-14  0.00000000000E+00  0.91188000000E+02  0.91188000000E+02 0.  0.
    9900012    2    3    3    0    0 -0.39666457196E+02 -0.12675919071E+02  0.12227700672E+02  0.47787269424E+02  0.19999992613E+02 0.  0.
        -12    1    3    3    0    0  0.39666457196E+02  0.12675919071E+02 -0.12227700672E+02  0.43400730576E+02  0.00000000000E+00 0.  1.
         11    1    4    4    0    0 -0.99778224657E+01 -0.12634140806E+01  0.54191379653E+01  0.11424544317E+02  0.51100000000E-03 0. -1.
        -11    1    4    4    0    0 -0.22820892961E+02 -0.28815811362E+01  0.98106153250E+01  0.25006895823E+02  0.51100000000E-03 0.  1.
        -12    1    4    4    0    0 -0.68677417697E+01 -0.85309238543E+01 -0.30020526186E+01  0.11355829285E+02  0.00000000000E+00 0.  1.
</event>
<event>
 8    1  0.5250708E-010  0.9118800E+02  0.7816164E-02  0.1184000E+00
        -11   -1    0    0    0    0  0.00000000000E+00  0.00000000000E+00  0.45593999997E+02  0.45594000000E+02  0.51100000000E-03 0. -1.
         11   -1    0    0    0    0 -0.00000000000E+00 -0.00000000000E+00 -0.45593999997E+02  0.45594000000E+02  0.51100000000E-03 0.  1.
         23    2    1    2    0    0  0.35527136788E-14  0.35527136788E-14  0.00000000000E+00  0.91188000000E+02  0.91188000000E+02 0.  0.
    9900012    2    3    3    0    0  0.19544268814E+02  0.24711159903E+02 -0.29849662207E+02  0.47787283403E+02  0.20000056349E+02 0.  0.
         12    1    3    3    0    0 -0.19544268814E+02 -0.24711159903E+02  0.29849662207E+02  0.43400716597E+02  0.00000000000E+00 0. -1.
         11    1    4    4    0    0  0.44610558671E+01  0.11369909296E+02 -0.64296580835E+01  0.13802766396E+02  0.51100000000E-03 0. -1.
        -11    1    4    4    0    0  0.15331232815E+02  0.72637432130E+01 -0.11182981407E+02  0.20319147091E+02  0.51100000000E-03 0.  1.
        -12    1    4    4    0    0 -0.24801986806E+00  0.60775073937E+01 -0.12237022717E+02  0.13665369916E+02  0.00000000000E+00 0.  1.
</event>
<event>
 8    1  0.5250708E-010  0.9118800E+02  0.7816164E-02  0.1184000E+00
        -11   -1    0    0    0    0  0.00000000000E+00  0.00000000000E+00  0.45593999997E+02  0.45594000000E+02  0.51100000000E-03 0. -1.
         11   -1    0    0    0    0 -0.00000000000E+00 -0.00000000000E+00 -0.45593999997E+02  0.45594000000E+02  0.51100000000E-03 0.  1.
         23    2    1    2    0    0  0.00000000000E+00  0.00000000000E+00  0.00000000000E+00  0.91188000000E+02  0.91188000000E+02 0.  0.
    9900012    2    3    3    0    0  0.51688839673E+01 -0.40630280295E+02 -0.14355721603E+02  0.47787265202E+02  0.19999973361E+02 0.  0.
         12    1    3    3    0    0 -0.51688839673E+01  0.40630280295E+02  0.14355721603E+02  0.43400734798E+02  0.00000000000E+00 0. -1.
         11    1    4    4    0    0  0.54047011951E+00 -0.70565286294E+01 -0.85730505197E+01  0.11116829572E+02  0.51100000000E-03 0. -1.
        -11    1    4    4    0    0 -0.36509613288E+01 -0.10525138351E+02  0.11975843576E+01  0.11204564448E+02  0.51100000000E-03 0.  1.
        -12    1    4    4    0    0  0.82793751766E+01 -0.23048613315E+02 -0.69802554406E+01  0.25465871182E+02  0.00000000000E+00 0.  1.
</event>
<event>
 8    1  0.5250708E-010  0.9118800E+02  0.7816164E-02  0.1184000E+00
        -11   -1    0    0    0    0  0.00000000000E+00  0.00000000000E+00  0.45593999997E+02  0.45594000000E+02  0.51100000000E-03 0. -1.
         11   -1    0    0    0    0 -0.00000000000E+00 -0.00000000000E+00 -0.45593999997E+02  0.45594000000E+02  0.51100000000E-03 0.  1.
         23    2    1    2    0    0  0.44408920985E-15  0.00000000000E+00  0.00000000000E+00  0.91188000000E+02  0.91188000000E+02 0.  0.
    9900012    2    3    3    0    0  0.34010919106E+01  0.69764464010E+00 -0.43261637797E+02  0.47787269141E+02  0.19999991323E+02 0.  0.
         12    1    3    3    0    0 -0.34010919106E+01 -0.69764464010E+00  0.43261637797E+02  0.43400730859E+02  0.00000000000E+00 0. -1.
         11    1    4    4    0    0  0.15496820726E+01  0.37013683349E+01 -0.26791170666E+01  0.48248637903E+01  0.51100000000E-03 0. -1.
        -11    1    4    4    0    0 -0.29550549517E+01 -0.36286774389E+01 -0.42927449096E+01  0.63503786378E+01  0.51100000000E-03 0.  1.
        -12    1    4    4    0    0  0.48064647896E+01  0.62495374411E+00 -0.36289775820E+02  0.36612026713E+02  0.00000000000E+00 0.  1.
</event>
<event>
 8    1  0.5250708E-010  0.9118800E+02  0.7816164E-02  0.1184000E+00
        -11   -1    0    0    0    0  0.00000000000E+00  0.00000000000E+00  0.45593999997E+02  0.45594000000E+02  0.51100000000E-03 0.  1.
         11   -1    0    0    0    0 -0.00000000000E+00 -0.00000000000E+00 -0.45593999997E+02  0.45594000000E+02  0.51100000000E-03 0. -1.
         23    2    1    2    0    0  0.35527136788E-14 -0.17763568394E-14  0.00000000000E+00  0.91188000000E+02  0.91188000000E+02 0.  0.
    9900012    2    3    3    0    0  0.30147945042E+02 -0.12854863814E+02 -0.28451308176E+02  0.47787273614E+02  0.20000011714E+02 0.  0.
         12    1    3    3    0    0 -0.30147945042E+02  0.12854863814E+02  0.28451308176E+02  0.43400726386E+02  0.00000000000E+00 0. -1.
         11    1    4    4    0    0  0.53196103836E+01  0.31785134944E+01 -0.89299638059E+01  0.10869473607E+02  0.51100000000E-03 0. -1.
        -11    1    4    4    0    0  0.54345768088E+01  0.31387788795E+00 -0.62602094011E+01  0.82959849581E+01  0.51100000000E-03 0.  1.
        -12    1    4    4    0    0  0.19393757850E+02 -0.16347255196E+02 -0.13261134969E+02  0.28621815048E+02  0.00000000000E+00 0.  1.
</event>
<event>
 8    1  0.5250708E-010  0.9118800E+02  0.7816164E-02  0.1184000E+00
        -11   -1    0    0    0    0  0.00000000000E+00  0.00000000000E+00  0.45593999997E+02  0.45594000000E+02  0.51100000000E-03 0. -1.
         11   -1    0    0    0    0 -0.00000000000E+00 -0.00000000000E+00 -0.45593999997E+02  0.45594000000E+02  0.51100000000E-03 0.  1.
         23    2    1    2    0    0  0.00000000000E+00  0.00000000000E+00 -0.71054273576E-14  0.91188000000E+02  0.91188000000E+02 0.  0.
    9900012    2    3    3    0    0  0.54738124232E+01 -0.25801833469E+02  0.34466304172E+02  0.47787270097E+02  0.19999995681E+02 0.  0.
        -12    1    3    3    0    0 -0.54738124232E+01  0.25801833469E+02 -0.34466304172E+02  0.43400729903E+02  0.00000000000E+00 0.  1.
         11    1    4    4    0    0  0.42527069720E+01 -0.10698257329E+02  0.88031340862E+01  0.14492528988E+02  0.51100000000E-03 0. -1.
        -11    1    4    4    0    0  0.28580284762E+01 -0.97642868960E+01  0.25773685090E+02  0.27709068348E+02  0.51100000000E-03 0.  1.
        -12    1    4    4    0    0 -0.16369230251E+01 -0.53392892443E+01 -0.11051500432E+00  0.55856727608E+01  0.00000000000E+00 0.  1.
</event>
<event>
 8    1  0.5250708E-010  0.9118800E+02  0.7816164E-02  0.1184000E+00
        -11   -1    0    0    0    0  0.00000000000E+00  0.00000000000E+00  0.45593999997E+02  0.45594000000E+02  0.51100000000E-03 0. -1.
         11   -1    0    0    0    0 -0.00000000000E+00 -0.00000000000E+00 -0.45593999997E+02  0.45594000000E+02  0.51100000000E-03 0.  1.
         23    2    1    2    0    0  0.00000000000E+00  0.00000000000E+00  0.00000000000E+00  0.91188000000E+02  0.91188000000E+02 0.  0.
    9900012    2    3    3    0    0  0.36162474114E+02  0.21033252526E+02  0.11554248452E+02  0.47787275315E+02  0.20000019473E+02 0.  0.
        -12    1    3    3    0    0 -0.36162474114E+02 -0.21033252526E+02 -0.11554248452E+02  0.43400724685E+02  0.00000000000E+00 0.  1.
         11    1    4    4    0    0 -0.69442758085E+00 -0.90812783072E+00  0.65355684427E+00  0.13168381190E+01  0.51100000000E-03 0. -1.
        -11    1    4    4    0    0  0.25924456145E+02  0.77617981158E+01  0.43708989475E+01  0.27412181495E+02  0.51100000000E-03 0.  1.
         12    1    4    4    0    0  0.10932445549E+02  0.14179582240E+02  0.65297926606E+01  0.19058255702E+02  0.00000000000E+00 0. -1.
</event>
<event>
 8    1  0.5275805E-010  0.9118800E+02  0.7816164E-02  0.1184000E+00
        -11   -1    0    0    0    0  0.00000000000E+00  0.00000000000E+00  0.45593999997E+02  0.45594000000E+02  0.51100000000E-03 0. -1.
         11   -1    0    0    0    0 -0.00000000000E+00 -0.00000000000E+00 -0.45593999997E+02  0.45594000000E+02  0.51100000000E-03 0.  1.
         23    2    1    2    0    0  0.00000000000E+00  0.88817841970E-15  0.00000000000E+00  0.91188000000E+02  0.91188000000E+02 0.  0.
    9900012    2    3    3    0    0  0.16983221077E+02  0.52042927906E+01  0.39599355018E+02  0.47787269828E+02  0.19999994455E+02 0.  0.
        -12    1    3    3    0    0 -0.16983221077E+02 -0.52042927906E+01 -0.39599355018E+02  0.43400730172E+02  0.00000000000E+00 0.  1.
         11    1    4    4    0    0  0.16330439230E+02  0.88485917197E+01  0.20577505309E+02  0.27720291230E+02  0.51100000000E-03 0. -1.
        -11    1    4    4    0    0 -0.17616626711E+01 -0.48316054108E+00  0.26484033456E+01  0.32172876803E+01  0.51100000000E-03 0.  1.
         12    1    4    4    0    0  0.24144445190E+01 -0.31611383880E+01  0.16373446363E+02  0.16849690918E+02  0.00000000000E+00 0. -1.
</event>
<event>
 8    1  0.5250708E-010  0.9118800E+02  0.7816164E-02  0.1184000E+00
        -11   -1    0    0    0    0  0.00000000000E+00  0.00000000000E+00  0.45593999997E+02  0.45594000000E+02  0.51100000000E-03 0. -1.
         11   -1    0    0    0    0 -0.00000000000E+00 -0.00000000000E+00 -0.45593999997E+02  0.45594000000E+02  0.51100000000E-03 0.  1.
         23    2    1    2    0    0  0.00000000000E+00 -0.35527136788E-14  0.00000000000E+00  0.91188000000E+02  0.91188000000E+02 0.  0.
    9900012    2    3    3    0    0  0.35427067036E+02 -0.20482086178E+02  0.14457870209E+02  0.47787274845E+02  0.20000017330E+02 0.  0.
        -12    1    3    3    0    0 -0.35427067036E+02  0.20482086178E+02 -0.14457870209E+02  0.43400725155E+02  0.00000000000E+00 0.  1.
         11    1    4    4    0    0  0.31620111721E+01 -0.84855060826E+01  0.55840366303E+00  0.90727031827E+01  0.51100000000E-03 0. -1.
        -11    1    4    4    0    0  0.11698767007E+02 -0.55538032348E+01  0.10955541627E+02  0.16962599225E+02  0.51100000000E-03 0.  1.
         12    1    4    4    0    0  0.20566288857E+02 -0.64427768610E+01  0.29439249187E+01  0.21751972438E+02  0.00000000000E+00 0. -1.
</event>
<event>
 8    1  0.5250708E-010  0.9118800E+02  0.7816164E-02  0.1184000E+00
        -11   -1    0    0    0    0  0.00000000000E+00  0.00000000000E+00  0.45593999997E+02  0.45594000000E+02  0.51100000000E-03 0. -1.
         11   -1    0    0    0    0 -0.00000000000E+00 -0.00000000000E+00 -0.45593999997E+02  0.45594000000E+02  0.51100000000E-03 0.  1.
         23    2    1    2    0    0 -0.13322676296E-14  0.00000000000E+00  0.00000000000E+00  0.91188000000E+02  0.91188000000E+02 0.  0.
    9900012    2    3    3    0    0 -0.29922857069E+01  0.14430400974E+02 -0.40821970767E+02  0.47787267940E+02  0.19999985847E+02 0.  0.
         12    1    3    3    0    0  0.29922857069E+01 -0.14430400974E+02  0.40821970767E+02  0.43400732060E+02  0.00000000000E+00 0. -1.
         11    1    4    4    0    0 -0.57679198246E+01  0.55537396209E+01 -0.59456664286E+01  0.99731575953E+01  0.51100000000E-03 0. -1.
        -11    1    4    4    0    0 -0.28362903497E+00  0.76757007866E+01 -0.94571477040E+01  0.12183368621E+02  0.51100000000E-03 0.  1.
        -12    1    4    4    0    0  0.30592631527E+01  0.12009605663E+01 -0.25419156634E+02  0.25630741724E+02  0.00000000000E+00 0.  1.
</event>
<event>
 8    1  0.5250708E-010  0.9118800E+02  0.7816164E-02  0.1184000E+00
        -11   -1    0    0    0    0  0.00000000000E+00  0.00000000000E+00  0.45593999997E+02  0.45594000000E+02  0.51100000000E-03 0. -1.
         11   -1    0    0    0    0 -0.00000000000E+00 -0.00000000000E+00 -0.45593999997E+02  0.45594000000E+02  0.51100000000E-03 0.  1.
         23    2    1    2    0    0  0.00000000000E+00  0.71054273576E-14  0.00000000000E+00  0.91188000000E+02  0.91188000000E+02 0.  0.
    9900012    2    3    3    0    0  0.81528795683E+01  0.40998056839E+02 -0.11675328497E+02  0.47787269530E+02  0.19999993095E+02 0.  0.
         12    1    3    3    0    0 -0.81528795683E+01 -0.40998056839E+02  0.11675328497E+02  0.43400730470E+02  0.00000000000E+00 0. -1.
         11    1    4    4    0    0  0.24846343960E+01  0.44731952981E+01 -0.83416611476E+01  0.97860203974E+01  0.51100000000E-03 0. -1.
        -11    1    4    4    0    0 -0.23436300816E+00 -0.36875281854E+00 -0.26869818639E+00  0.51293628968E+00  0.51100000000E-03 0.  1.
        -12    1    4    4    0    0  0.59026081805E+01  0.36893614359E+02 -0.30649691629E+01  0.37488312843E+02  0.00000000000E+00 0.  1.
</event>
<event>
 8    1  0.5250708E-010  0.9118800E+02  0.7816164E-02  0.1184000E+00
        -11   -1    0    0    0    0  0.00000000000E+00  0.00000000000E+00  0.45593999997E+02  0.45594000000E+02  0.51100000000E-03 0. -1.
         11   -1    0    0    0    0 -0.00000000000E+00 -0.00000000000E+00 -0.45593999997E+02  0.45594000000E+02  0.51100000000E-03 0.  1.
         23    2    1    2    0    0  0.88817841970E-15 -0.71054273576E-14  0.00000000000E+00  0.91188000000E+02  0.91188000000E+02 0.  0.
    9900012    2    3    3    0    0  0.75629628412E+01 -0.35225749009E+02 -0.24198590308E+02  0.47787267597E+02  0.19999984284E+02 0.  0.
         12    1    3    3    0    0 -0.75629628412E+01  0.35225749009E+02  0.24198590308E+02  0.43400732403E+02  0.00000000000E+00 0. -1.
         11    1    4    4    0    0  0.38475369254E+01 -0.84469829143E+01  0.87633233474E+00  0.93232515449E+01  0.51100000000E-03 0. -1.
        -11    1    4    4    0    0 -0.28448542970E+01 -0.65488291177E+01 -0.10439543216E+02  0.12647704203E+02  0.51100000000E-03 0.  1.
         12    1    4    4    0    0  0.65602802127E+01 -0.20229936977E+02 -0.14635379428E+02  0.25816311850E+02  0.00000000000E+00 0. -1.
</event>
<event>
 8    1  0.5250708E-010  0.9118800E+02  0.7816164E-02  0.1184000E+00
        -11   -1    0    0    0    0  0.00000000000E+00  0.00000000000E+00  0.45593999997E+02  0.45594000000E+02  0.51100000000E-03 0. -1.
         11   -1    0    0    0    0 -0.00000000000E+00 -0.00000000000E+00 -0.45593999997E+02  0.45594000000E+02  0.51100000000E-03 0.  1.
         23    2    1    2    0    0  0.88817841970E-15 -0.17763568394E-14  0.00000000000E+00  0.91188000000E+02  0.91188000000E+02 0.  0.
    9900012    2    3    3    0    0  0.65503225231E+01 -0.13365806861E+02 -0.40768516678E+02  0.47787268781E+02  0.19999989682E+02 0.  0.
         12    1    3    3    0    0 -0.65503225231E+01  0.13365806861E+02  0.40768516678E+02  0.43400731219E+02  0.00000000000E+00 0. -1.
         11    1    4    4    0    0  0.18734233025E+01 -0.30385049277E+00 -0.15579299132E+01  0.24554400559E+01  0.51100000000E-03 0.  1.
        -11    1    4    4    0    0  0.11638822311E+02 -0.87301398722E+01 -0.25055476006E+02  0.28973339558E+02  0.51100000000E-03 0. -1.
         12    1    4    4    0    0 -0.69619230902E+01 -0.43318164956E+01 -0.14155110759E+02  0.16358489168E+02  0.00000000000E+00 0. -1.
</event>
<event>
 8    1  0.5250708E-010  0.9118800E+02  0.7816164E-02  0.1184000E+00
        -11   -1    0    0    0    0  0.00000000000E+00  0.00000000000E+00  0.45593999997E+02  0.45594000000E+02  0.51100000000E-03 0. -1.
         11   -1    0    0    0    0 -0.00000000000E+00 -0.00000000000E+00 -0.45593999997E+02  0.45594000000E+02  0.51100000000E-03 0.  1.
         23    2    1    2    0    0  0.00000000000E+00  0.00000000000E+00  0.00000000000E+00  0.91188000000E+02  0.91188000000E+02 0.  0.
    9900012    2    3    3    0    0  0.10617745304E+02 -0.47656119700E+01  0.41811190403E+02  0.47787271714E+02  0.20000003054E+02 0.  0.
        -12    1    3    3    0    0 -0.10617745304E+02  0.47656119700E+01 -0.41811190403E+02  0.43400728286E+02  0.00000000000E+00 0.  1.
         11    1    4    4    0    0  0.41697254647E+00  0.60130290039E+01  0.14528743839E+02  0.15729424074E+02  0.51100000000E-03 0. -1.
        -11    1    4    4    0    0  0.46812945900E+01 -0.39431924977E+01  0.43754450653E+01  0.75238159130E+01  0.51100000000E-03 0.  1.
        -12    1    4    4    0    0  0.55194781680E+01 -0.68354484762E+01  0.22907001499E+02  0.24534031728E+02  0.00000000000E+00 0.  1.
</event>
<event>
 8    1  0.5250708E-010  0.9118800E+02  0.7816164E-02  0.1184000E+00
        -11   -1    0    0    0    0  0.00000000000E+00  0.00000000000E+00  0.45593999997E+02  0.45594000000E+02  0.51100000000E-03 0. -1.
         11   -1    0    0    0    0 -0.00000000000E+00 -0.00000000000E+00 -0.45593999997E+02  0.45594000000E+02  0.51100000000E-03 0.  1.
         23    2    1    2    0    0  0.17763568394E-14  0.00000000000E+00 -0.35527136788E-14  0.91188000000E+02  0.91188000000E+02 0.  0.
    9900012    2    3    3    0    0 -0.15149165283E+02 -0.32894450629E+02 -0.23918219159E+02  0.47787270759E+02  0.19999998698E+02 0.  0.
         12    1    3    3    0    0  0.15149165283E+02  0.32894450629E+02  0.23918219159E+02  0.43400729241E+02  0.00000000000E+00 0. -1.
         11    1    4    4    0    0 -0.77630017519E+01 -0.94517208898E+01 -0.11465005115E+02  0.16764413694E+02  0.51100000000E-03 0. -1.
        -11    1    4    4    0    0  0.84692139453E+00 -0.18638338359E+02 -0.10050310253E+02  0.21192302118E+02  0.51100000000E-03 0.  1.
         12    1    4    4    0    0 -0.82330849252E+01 -0.48043913796E+01 -0.24029037917E+01  0.98305549460E+01  0.00000000000E+00 0. -1.
</event>
<event>
 8    1  0.5250708E-010  0.9118800E+02  0.7816164E-02  0.1184000E+00
        -11   -1    0    0    0    0  0.00000000000E+00  0.00000000000E+00  0.45593999997E+02  0.45594000000E+02  0.51100000000E-03 0. -1.
         11   -1    0    0    0    0 -0.00000000000E+00 -0.00000000000E+00 -0.45593999997E+02  0.45594000000E+02  0.51100000000E-03 0.  1.
         23    2    1    2    0    0  0.00000000000E+00  0.35527136788E-14  0.00000000000E+00  0.91188000000E+02  0.91188000000E+02 0.  0.
    9900012    2    3    3    0    0 -0.15089430548E+02  0.20914410294E+02  0.34907302186E+02  0.47787271687E+02  0.20000002931E+02 0.  0.
        -12    1    3    3    0    0  0.15089430548E+02 -0.20914410294E+02 -0.34907302186E+02  0.43400728313E+02  0.00000000000E+00 0.  1.
         11    1    4    4    0    0 -0.10220566884E+02  0.76722607789E+01  0.76779374785E+01  0.14908866392E+02  0.51100000000E-03 0. -1.
        -11    1    4    4    0    0  0.84170893423E+00  0.94559593619E+01  0.78338731647E+01  0.12308257814E+02  0.51100000000E-03 0.  1.
         12    1    4    4    0    0 -0.57105725976E+01  0.37861901528E+01  0.19395491543E+02  0.20570147482E+02  0.00000000000E+00 0. -1.
</event>
<event>
 8    1  0.5250708E-010  0.9118800E+02  0.7816164E-02  0.1184000E+00
        -11   -1    0    0    0    0  0.00000000000E+00  0.00000000000E+00  0.45593999997E+02  0.45594000000E+02  0.51100000000E-03 0. -1.
         11   -1    0    0    0    0 -0.00000000000E+00 -0.00000000000E+00 -0.45593999997E+02  0.45594000000E+02  0.51100000000E-03 0.  1.
         23    2    1    2    0    0  0.35527136788E-14  0.00000000000E+00 -0.35527136788E-14  0.91188000000E+02  0.91188000000E+02 0.  0.
    9900012    2    3    3    0    0 -0.20076693023E+02  0.33870715158E+02  0.18257179348E+02  0.47787267911E+02  0.19999985715E+02 0.  0.
        -12    1    3    3    0    0  0.20076693023E+02 -0.33870715158E+02 -0.18257179348E+02  0.43400732089E+02  0.00000000000E+00 0.  1.
         11    1    4    4    0    0  0.41664435004E+00  0.92333707787E+01  0.29156036763E+01  0.96917219064E+01  0.51100000000E-03 0. -1.
        -11    1    4    4    0    0 -0.98666711918E+01  0.18492558006E+02  0.39101643946E+01  0.21321709309E+02  0.51100000000E-03 0.  1.
         12    1    4    4    0    0 -0.10626666181E+02  0.61447863734E+01  0.11431411277E+02  0.16773836696E+02  0.00000000000E+00 0. -1.
</event>
<event>
 8    1  0.5250708E-010  0.9118800E+02  0.7816164E-02  0.1184000E+00
        -11   -1    0    0    0    0  0.00000000000E+00  0.00000000000E+00  0.45593999997E+02  0.45594000000E+02  0.51100000000E-03 0. -1.
         11   -1    0    0    0    0 -0.00000000000E+00 -0.00000000000E+00 -0.45593999997E+02  0.45594000000E+02  0.51100000000E-03 0.  1.
         23    2    1    2    0    0  0.00000000000E+00  0.00000000000E+00  0.00000000000E+00  0.91188000000E+02  0.91188000000E+02 0.  0.
    9900012    2    3    3    0    0 -0.31562820437E+02  0.13337939735E+02  0.26636642096E+02  0.47787274517E+02  0.20000015832E+02 0.  0.
        -12    1    3    3    0    0  0.31562820437E+02 -0.13337939735E+02 -0.26636642096E+02  0.43400725483E+02  0.00000000000E+00 0.  1.
         11    1    4    4    0    0 -0.51082484248E+01 -0.14634262577E+01  0.81505679563E+01  0.97297264429E+01  0.51100000000E-03 0. -1.
        -11    1    4    4    0    0 -0.64577107777E+01 -0.10291603987E+01  0.83663920447E+01  0.10618743604E+02  0.51100000000E-03 0.  1.
        -12    1    4    4    0    0 -0.19996861234E+02  0.15830526391E+02  0.10119682095E+02  0.27438804470E+02  0.00000000000E+00 0.  1.
</event>
<event>
 8    1  0.5250708E-010  0.9118800E+02  0.7816164E-02  0.1184000E+00
        -11   -1    0    0    0    0  0.00000000000E+00  0.00000000000E+00  0.45593999997E+02  0.45594000000E+02  0.51100000000E-03 0. -1.
         11   -1    0    0    0    0 -0.00000000000E+00 -0.00000000000E+00 -0.45593999997E+02  0.45594000000E+02  0.51100000000E-03 0.  1.
         23    2    1    2    0    0 -0.88817841970E-15  0.00000000000E+00 -0.71054273576E-14  0.91188000000E+02  0.91188000000E+02 0.  0.
    9900012    2    3    3    0    0 -0.77166582694E+01 -0.18557771596E+01 -0.42668872434E+02  0.47787269609E+02  0.19999993456E+02 0.  0.
         12    1    3    3    0    0  0.77166582694E+01  0.18557771596E+01  0.42668872434E+02  0.43400730391E+02  0.00000000000E+00 0. -1.
         11    1    4    4    0    0 -0.38154730514E+00 -0.80445329109E+01 -0.83708557275E+01  0.11615993887E+02  0.51100000000E-03 0. -1.
        -11    1    4    4    0    0 -0.73614177493E+00  0.74977756405E+00 -0.15314986154E+02  0.15350989293E+02  0.51100000000E-03 0.  1.
        -12    1    4    4    0    0 -0.65989691894E+01  0.54389781872E+01 -0.18983030552E+02  0.20820286430E+02  0.00000000000E+00 0.  1.
</event>
<event>
 8    1  0.5250708E-010  0.9118800E+02  0.7816164E-02  0.1184000E+00
        -11   -1    0    0    0    0  0.00000000000E+00  0.00000000000E+00  0.45593999997E+02  0.45594000000E+02  0.51100000000E-03 0.  1.
         11   -1    0    0    0    0 -0.00000000000E+00 -0.00000000000E+00 -0.45593999997E+02  0.45594000000E+02  0.51100000000E-03 0. -1.
         23    2    1    2    0    0  0.00000000000E+00  0.00000000000E+00  0.00000000000E+00  0.91188000000E+02  0.91188000000E+02 0.  0.
    9900012    2    3    3    0    0  0.29732722596E+02  0.25128429917E+02  0.19187239816E+02  0.47787274720E+02  0.20000016761E+02 0.  0.
         12    1    3    3    0    0 -0.29732722596E+02 -0.25128429917E+02 -0.19187239816E+02  0.43400725280E+02  0.00000000000E+00 0. -1.
         11    1    4    4    0    0  0.39182497615E+01  0.20252039675E+01 -0.20678149617E+01  0.48713438885E+01  0.51100000000E-03 0. -1.
        -11    1    4    4    0    0  0.89102377468E+01  0.13869203264E+02  0.37896076858E+01  0.16914735072E+02  0.51100000000E-03 0.  1.
         12    1    4    4    0    0  0.16904235088E+02  0.92340226856E+01  0.17465447091E+02  0.26001195760E+02  0.00000000000E+00 0. -1.
</event>
<event>
 8    1  0.5250708E-010  0.9118800E+02  0.7816164E-02  0.1184000E+00
        -11   -1    0    0    0    0  0.00000000000E+00  0.00000000000E+00  0.45593999997E+02  0.45594000000E+02  0.51100000000E-03 0. -1.
         11   -1    0    0    0    0 -0.00000000000E+00 -0.00000000000E+00 -0.45593999997E+02  0.45594000000E+02  0.51100000000E-03 0.  1.
         23    2    1    2    0    0  0.35527136788E-14  0.35527136788E-14  0.00000000000E+00  0.91188000000E+02  0.91188000000E+02 0.  0.
    9900012    2    3    3    0    0  0.16882160227E+02  0.22985752817E+02 -0.32714994530E+02  0.47787273813E+02  0.20000012622E+02 0.  0.
         12    1    3    3    0    0 -0.16882160227E+02 -0.22985752817E+02  0.32714994530E+02  0.43400726187E+02  0.00000000000E+00 0. -1.
         11    1    4    4    0    0 -0.27911888553E+00 -0.12368432173E+01 -0.38357686139E+00  0.13246961789E+01  0.51100000000E-03 0. -1.
        -11    1    4    4    0    0  0.11134741992E+02  0.19547651666E+02 -0.31614612639E+02  0.38801764103E+02  0.51100000000E-03 0.  1.
        -12    1    4    4    0    0  0.60265371204E+01  0.46749443682E+01 -0.71680502922E+00  0.76608135311E+01  0.00000000000E+00 0.  1.
</event>
<event>
 8    1  0.5250708E-010  0.9118800E+02  0.7816164E-02  0.1184000E+00
        -11   -1    0    0    0    0  0.00000000000E+00  0.00000000000E+00  0.45593999997E+02  0.45594000000E+02  0.51100000000E-03 0. -1.
         11   -1    0    0    0    0 -0.00000000000E+00 -0.00000000000E+00 -0.45593999997E+02  0.45594000000E+02  0.51100000000E-03 0.  1.
         23    2    1    2    0    0  0.00000000000E+00 -0.66613381478E-15  0.71054273576E-14  0.91188000000E+02  0.91188000000E+02 0.  0.
    9900012    2    3    3    0    0 -0.40456042395E+01 -0.19398356052E+01  0.43168198469E+02  0.47787271494E+02  0.20000002049E+02 0.  0.
        -12    1    3    3    0    0  0.40456042395E+01  0.19398356052E+01 -0.43168198469E+02  0.43400728506E+02  0.00000000000E+00 0.  1.
         11    1    4    4    0    0 -0.38156292599E-01  0.84886278245E+00  0.26955460722E+02  0.26968850308E+02  0.51100000000E-03 0. -1.
        -11    1    4    4    0    0 -0.24561147356E+01 -0.74375589436E+01  0.12133469042E+02  0.14441982339E+02  0.51100000000E-03 0.  1.
         12    1    4    4    0    0 -0.15513332113E+01  0.46488605559E+01  0.40792687047E+01  0.63764388467E+01  0.00000000000E+00 0. -1.
</event>
<event>
 8    1  0.5250708E-010  0.9118800E+02  0.7816164E-02  0.1184000E+00
        -11   -1    0    0    0    0  0.00000000000E+00  0.00000000000E+00  0.45593999997E+02  0.45594000000E+02  0.51100000000E-03 0. -1.
         11   -1    0    0    0    0 -0.00000000000E+00 -0.00000000000E+00 -0.45593999997E+02  0.45594000000E+02  0.51100000000E-03 0.  1.
         23    2    1    2    0    0  0.00000000000E+00  0.35527136788E-14  0.00000000000E+00  0.91188000000E+02  0.91188000000E+02 0.  0.
    9900012    2    3    3    0    0 -0.31488972775E+02 -0.18651492054E+02 -0.23327872077E+02  0.47787272150E+02  0.20000005039E+02 0.  0.
         12    1    3    3    0    0  0.31488972775E+02  0.18651492054E+02  0.23327872077E+02  0.43400727850E+02  0.00000000000E+00 0. -1.
         11    1    4    4    0    0 -0.47988852672E+01  0.81346020362E-01 -0.55774109378E+01  0.73582219329E+01  0.51100000000E-03 0. -1.
        -11    1    4    4    0    0 -0.20326938309E+02 -0.21159701925E+02 -0.15896883176E+02  0.33371069829E+02  0.51100000000E-03 0.  1.
        -12    1    4    4    0    0 -0.63631491993E+01  0.24268638508E+01 -0.18535779633E+01  0.70579803874E+01  0.00000000000E+00 0.  1.
</event>
<event>
 8    1  0.6012070E-010  0.9118800E+02  0.7816164E-02  0.1184000E+00
        -11   -1    0    0    0    0  0.00000000000E+00  0.00000000000E+00  0.45593999997E+02  0.45594000000E+02  0.51100000000E-03 0. -1.
         11   -1    0    0    0    0 -0.00000000000E+00 -0.00000000000E+00 -0.45593999997E+02  0.45594000000E+02  0.51100000000E-03 0.  1.
         23    2    1    2    0    0  0.00000000000E+00 -0.35527136788E-14  0.00000000000E+00  0.91188000000E+02  0.91188000000E+02 0.  0.
    9900012    2    3    3    0    0  0.21760436836E+01 -0.23280515005E+02  0.36563759221E+02  0.47787239253E+02  0.19999855051E+02 0.  0.
        -12    1    3    3    0    0 -0.21760436836E+01  0.23280515005E+02 -0.36563759221E+02  0.43400760747E+02  0.00000000000E+00 0.  1.
         11    1    4    4    0    0 -0.16680337843E+01 -0.16116367338E+02  0.15619239200E+02  0.22505116447E+02  0.51100000000E-03 0. -1.
        -11    1    4    4    0    0  0.39682910967E+01 -0.18552934859E+01  0.80457022650E+00  0.44538502060E+01  0.51100000000E-03 0.  1.
         12    1    4    4    0    0 -0.12421362885E+00 -0.53088541810E+01  0.20139949795E+02  0.20828272600E+02  0.00000000000E+00 0. -1.
</event>
<event>
 8    1  0.5250708E-010  0.9118800E+02  0.7816164E-02  0.1184000E+00
        -11   -1    0    0    0    0  0.00000000000E+00  0.00000000000E+00  0.45593999997E+02  0.45594000000E+02  0.51100000000E-03 0. -1.
         11   -1    0    0    0    0 -0.00000000000E+00 -0.00000000000E+00 -0.45593999997E+02  0.45594000000E+02  0.51100000000E-03 0.  1.
         23    2    1    2    0    0 -0.44408920985E-15  0.00000000000E+00 -0.17763568394E-14  0.91188000000E+02  0.91188000000E+02 0.  0.
    9900012    2    3    3    0    0  0.18838655192E+01 -0.42280455205E+02 -0.96144317156E+01  0.47787272600E+02  0.20000007092E+02 0.  0.
         12    1    3    3    0    0 -0.18838655192E+01  0.42280455205E+02  0.96144317156E+01  0.43400727400E+02  0.00000000000E+00 0. -1.
         11    1    4    4    0    0 -0.19941705056E+01 -0.40218524795E+01  0.22954610481E+01  0.50419396126E+01  0.51100000000E-03 0. -1.
        -11    1    4    4    0    0 -0.36063456418E+01 -0.27160721871E+02 -0.10265066282E+02  0.29258881173E+02  0.51100000000E-03 0.  1.
         12    1    4    4    0    0  0.74843816666E+01 -0.11097880855E+02 -0.16448264820E+01  0.13486451815E+02  0.00000000000E+00 0. -1.
</event>
<event>
 8    1  0.5250708E-010  0.9118800E+02  0.7816164E-02  0.1184000E+00
        -11   -1    0    0    0    0  0.00000000000E+00  0.00000000000E+00  0.45593999997E+02  0.45594000000E+02  0.51100000000E-03 0. -1.
         11   -1    0    0    0    0 -0.00000000000E+00 -0.00000000000E+00 -0.45593999997E+02  0.45594000000E+02  0.51100000000E-03 0.  1.
         23    2    1    2    0    0  0.22204460493E-15 -0.17763568394E-14  0.71054273576E-14  0.91188000000E+02  0.91188000000E+02 0.  0.
    9900012    2    3    3    0    0  0.19837876651E+01 -0.65820204937E+01  0.42852830209E+02  0.47787268851E+02  0.19999990001E+02 0.  0.
        -12    1    3    3    0    0 -0.19837876651E+01  0.65820204937E+01 -0.42852830209E+02  0.43400731149E+02  0.00000000000E+00 0.  1.
         11    1    4    4    0    0 -0.11398851086E+01 -0.75387112348E+01  0.41444437032E+02  0.42139920103E+02  0.51100000000E-03 0. -1.
        -11    1    4    4    0    0  0.48387424039E+00  0.22085522946E+01  0.15187383932E+01  0.27236747395E+01  0.51100000000E-03 0.  1.
         12    1    4    4    0    0  0.26397985333E+01 -0.12518615535E+01 -0.11034521520E+00  0.29236740092E+01  0.00000000000E+00 0. -1.
</event>
<event>
 8    1  0.5250708E-010  0.9118800E+02  0.7816164E-02  0.1184000E+00
        -11   -1    0    0    0    0  0.00000000000E+00  0.00000000000E+00  0.45593999997E+02  0.45594000000E+02  0.51100000000E-03 0. -1.
         11   -1    0    0    0    0 -0.00000000000E+00 -0.00000000000E+00 -0.45593999997E+02  0.45594000000E+02  0.51100000000E-03 0.  1.
         23    2    1    2    0    0  0.17763568394E-14  0.00000000000E+00  0.17763568394E-14  0.91188000000E+02  0.91188000000E+02 0.  0.
    9900012    2    3    3    0    0  0.14680266619E+02  0.38604617099E+02 -0.13334044465E+02  0.47787269232E+02  0.19999991736E+02 0.  0.
         12    1    3    3    0    0 -0.14680266619E+02 -0.38604617099E+02  0.13334044465E+02  0.43400730768E+02  0.00000000000E+00 0. -1.
         11    1    4    4    0    0  0.56965668813E+00 -0.16626638133E+01 -0.27960719457E+00  0.17796460724E+01  0.51100000000E-03 0. -1.
        -11    1    4    4    0    0  0.12308170186E+01  0.84550769890E+01  0.15940648069E+01  0.86916212696E+01  0.51100000000E-03 0.  1.
        -12    1    4    4    0    0  0.12879792913E+02  0.31812203924E+02 -0.14648502077E+02  0.37316001890E+02  0.00000000000E+00 0.  1.
</event>
<event>
 8    1  0.5250708E-010  0.9118800E+02  0.7816164E-02  0.1184000E+00
        -11   -1    0    0    0    0  0.00000000000E+00  0.00000000000E+00  0.45593999997E+02  0.45594000000E+02  0.51100000000E-03 0. -1.
         11   -1    0    0    0    0 -0.00000000000E+00 -0.00000000000E+00 -0.45593999997E+02  0.45594000000E+02  0.51100000000E-03 0.  1.
         23    2    1    2    0    0  0.35527136788E-14  0.44408920985E-15  0.00000000000E+00  0.91188000000E+02  0.91188000000E+02 0.  0.
    9900012    2    3    3    0    0  0.21604368196E+02  0.24103662079E+01  0.37564139112E+02  0.47787272614E+02  0.20000007158E+02 0.  0.
        -12    1    3    3    0    0 -0.21604368196E+02 -0.24103662079E+01 -0.37564139112E+02  0.43400727386E+02  0.00000000000E+00 0.  1.
         11    1    4    4    0    0  0.12610263191E+02  0.59159072789E+01  0.25503134786E+02  0.29059018925E+02  0.51100000000E-03 0. -1.
        -11    1    4    4    0    0  0.43189704124E+01  0.18549766040E+01 -0.29652458079E-01  0.47005662589E+01  0.51100000000E-03 0.  1.
        -12    1    4    4    0    0  0.46751345923E+01 -0.53605176750E+01  0.12090656783E+02  0.14027687431E+02  0.00000000000E+00 0.  1.
</event>
<event>
 8    1  0.5250708E-010  0.9118800E+02  0.7816164E-02  0.1184000E+00
        -11   -1    0    0    0    0  0.00000000000E+00  0.00000000000E+00  0.45593999997E+02  0.45594000000E+02  0.51100000000E-03 0. -1.
         11   -1    0    0    0    0 -0.00000000000E+00 -0.00000000000E+00 -0.45593999997E+02  0.45594000000E+02  0.51100000000E-03 0.  1.
         23    2    1    2    0    0  0.00000000000E+00  0.00000000000E+00  0.71054273576E-14  0.91188000000E+02  0.91188000000E+02 0.  0.
    9900012    2    3    3    0    0 -0.22805535000E+02 -0.11452317989E+02 -0.35105201634E+02  0.47787271945E+02  0.20000004106E+02 0.  0.
         12    1    3    3    0    0  0.22805535000E+02  0.11452317989E+02  0.35105201634E+02  0.43400728055E+02  0.00000000000E+00 0. -1.
         11    1    4    4    0    0 -0.79519884070E+01 -0.83831642396E+00 -0.56088743674E+01  0.97671063259E+01  0.51100000000E-03 0. -1.
        -11    1    4    4    0    0 -0.15636086667E+02 -0.30020185040E+01 -0.23052032778E+02  0.28015987165E+02  0.51100000000E-03 0.  1.
         12    1    4    4    0    0  0.78254007425E+00 -0.76119830609E+01 -0.64442944885E+01  0.10004178454E+02  0.00000000000E+00 0. -1.
</event>
<event>
 8    1  0.5250708E-010  0.9118800E+02  0.7816164E-02  0.1184000E+00
        -11   -1    0    0    0    0  0.00000000000E+00  0.00000000000E+00  0.45593999997E+02  0.45594000000E+02  0.51100000000E-03 0. -1.
         11   -1    0    0    0    0 -0.00000000000E+00 -0.00000000000E+00 -0.45593999997E+02  0.45594000000E+02  0.51100000000E-03 0.  1.
         23    2    1    2    0    0  0.00000000000E+00 -0.17763568394E-14  0.00000000000E+00  0.91188000000E+02  0.91188000000E+02 0.  0.
    9900012    2    3    3    0    0 -0.41612650279E+01  0.11884878544E+02  0.41533832950E+02  0.47787242585E+02  0.19999870242E+02 0.  0.
        -12    1    3    3    0    0  0.41612650279E+01 -0.11884878544E+02 -0.41533832950E+02  0.43400757415E+02  0.00000000000E+00 0.  1.
         11    1    4    4    0    0 -0.68218163706E+00  0.12894263853E+02  0.18040226376E+02  0.22185066600E+02  0.51100000000E-03 0. -1.
        -11    1    4    4    0    0  0.28082188699E+01 -0.13502121730E+01  0.37324904141E+01  0.48621652673E+01  0.51100000000E-03 0.  1.
        -12    1    4    4    0    0 -0.62873022607E+01  0.34082686448E+00  0.19761116160E+02  0.20740010718E+02  0.00000000000E+00 0.  1.
</event>
<event>
 8    1  0.5250708E-010  0.9118800E+02  0.7816164E-02  0.1184000E+00
        -11   -1    0    0    0    0  0.00000000000E+00  0.00000000000E+00  0.45593999997E+02  0.45594000000E+02  0.51100000000E-03 0. -1.
         11   -1    0    0    0    0 -0.00000000000E+00 -0.00000000000E+00 -0.45593999997E+02  0.45594000000E+02  0.51100000000E-03 0.  1.
         23    2    1    2    0    0  0.00000000000E+00  0.00000000000E+00 -0.44408920985E-15  0.91188000000E+02  0.91188000000E+02 0.  0.
    9900012    2    3    3    0    0 -0.35959968680E+02 -0.24146441397E+02  0.27298903723E+01  0.47787282482E+02  0.20000052149E+02 0.  0.
        -12    1    3    3    0    0  0.35959968680E+02  0.24146441397E+02 -0.27298903723E+01  0.43400717518E+02  0.00000000000E+00 0.  1.
         11    1    4    4    0    0 -0.61207167026E+01 -0.63303597233E+01 -0.50121814156E+01  0.10132057540E+02  0.51100000000E-03 0.  1.
        -11    1    4    4    0    0 -0.26114881715E+02 -0.14554659392E+02  0.18423336878E+01  0.29953619993E+02  0.51100000000E-03 0. -1.
         12    1    4    4    0    0 -0.37243702631E+01 -0.32614222811E+01  0.58997381001E+01  0.77016049498E+01  0.00000000000E+00 0. -1.
</event>
<event>
 8    1  0.5250708E-010  0.9118800E+02  0.7816164E-02  0.1184000E+00
        -11   -1    0    0    0    0  0.00000000000E+00  0.00000000000E+00  0.45593999997E+02  0.45594000000E+02  0.51100000000E-03 0.  1.
         11   -1    0    0    0    0 -0.00000000000E+00 -0.00000000000E+00 -0.45593999997E+02  0.45594000000E+02  0.51100000000E-03 0. -1.
         23    2    1    2    0    0 -0.71054273576E-14  0.17763568394E-14 -0.35527136788E-14  0.91188000000E+02  0.91188000000E+02 0.  0.
    9900012    2    3    3    0    0 -0.37243625114E+02  0.12305544173E+02 -0.18577106151E+02  0.47787275329E+02  0.20000019533E+02 0.  0.
         12    1    3    3    0    0  0.37243625114E+02 -0.12305544173E+02  0.18577106151E+02  0.43400724671E+02  0.00000000000E+00 0. -1.
         11    1    4    4    0    0 -0.17259277899E+01  0.69350229442E+01 -0.58021563969E+01  0.92053456800E+01  0.51100000000E-03 0. -1.
        -11    1    4    4    0    0 -0.17383658422E+02  0.28038480132E+01 -0.31355270735E+01  0.17885320073E+02  0.51100000000E-03 0.  1.
        -12    1    4    4    0    0 -0.18134038902E+02  0.25666732156E+01 -0.96394226811E+01  0.20696609576E+02  0.00000000000E+00 0.  1.
</event>
<event>
 8    1  0.5250708E-010  0.9118800E+02  0.7816164E-02  0.1184000E+00
        -11   -1    0    0    0    0  0.00000000000E+00  0.00000000000E+00  0.45593999997E+02  0.45594000000E+02  0.51100000000E-03 0. -1.
         11   -1    0    0    0    0 -0.00000000000E+00 -0.00000000000E+00 -0.45593999997E+02  0.45594000000E+02  0.51100000000E-03 0.  1.
         23    2    1    2    0    0  0.71054273576E-14  0.35527136788E-14  0.00000000000E+00  0.91188000000E+02  0.91188000000E+02 0.  0.
    9900012    2    3    3    0    0  0.33951957197E+02  0.26300793929E+02 -0.62574981104E+01  0.47787269115E+02  0.19999991202E+02 0.  0.
         12    1    3    3    0    0 -0.33951957197E+02 -0.26300793929E+02  0.62574981104E+01  0.43400730885E+02  0.00000000000E+00 0. -1.
         11    1    4    4    0    0  0.13989544510E+01  0.92947066083E+01 -0.21347781672E+01  0.96387718395E+01  0.51100000000E-03 0. -1.
        -11    1    4    4    0    0  0.15052578051E+02  0.10453504545E+02  0.21149309496E+01  0.18448002505E+02  0.51100000000E-03 0.  1.
        -12    1    4    4    0    0  0.17500424694E+02  0.65525827757E+01 -0.62376508928E+01  0.19700494770E+02  0.00000000000E+00 0.  1.
</event>
<event>
 8    1  0.5250708E-010  0.9118800E+02  0.7816164E-02  0.1184000E+00
        -11   -1    0    0    0    0  0.00000000000E+00  0.00000000000E+00  0.45593999997E+02  0.45594000000E+02  0.51100000000E-03 0. -1.
         11   -1    0    0    0    0 -0.00000000000E+00 -0.00000000000E+00 -0.45593999997E+02  0.45594000000E+02  0.51100000000E-03 0.  1.
         23    2    1    2    0    0  0.00000000000E+00  0.17763568394E-14  0.00000000000E+00  0.91188000000E+02  0.91188000000E+02 0.  0.
    9900012    2    3    3    0    0  0.68265808180E+01 -0.14076398225E+02  0.40483020259E+02  0.47787284315E+02  0.20000060507E+02 0.  0.
        -12    1    3    3    0    0 -0.68265808180E+01  0.14076398225E+02 -0.40483020259E+02  0.43400715685E+02  0.00000000000E+00 0.  1.
         11    1    4    4    0    0 -0.21637265147E+01  0.19308821720E+01  0.19071627512E+02  0.19290852615E+02  0.51100000000E-03 0. -1.
        -11    1    4    4    0    0  0.27439423617E+01 -0.53367012477E+01  0.42870699853E+01  0.73748606232E+01  0.51100000000E-03 0.  1.
         12    1    4    4    0    0  0.62463649711E+01 -0.10670579149E+02  0.17124322762E+02  0.21121571077E+02  0.00000000000E+00 0. -1.
</event>
<event>
 8    1  0.5250708E-010  0.9118800E+02  0.7816164E-02  0.1184000E+00
        -11   -1    0    0    0    0  0.00000000000E+00  0.00000000000E+00  0.45593999997E+02  0.45594000000E+02  0.51100000000E-03 0. -1.
         11   -1    0    0    0    0 -0.00000000000E+00 -0.00000000000E+00 -0.45593999997E+02  0.45594000000E+02  0.51100000000E-03 0.  1.
         23    2    1    2    0    0 -0.35527136788E-14  0.35527136788E-14  0.00000000000E+00  0.91188000000E+02  0.91188000000E+02 0.  0.
    9900012    2    3    3    0    0  0.29537547921E+02 -0.24310229360E+02  0.20498009479E+02  0.47787281327E+02  0.20000046883E+02 0.  0.
        -12    1    3    3    0    0 -0.29537547921E+02  0.24310229360E+02 -0.20498009479E+02  0.43400718673E+02  0.00000000000E+00 0.  1.
         11    1    4    4    0    0  0.47093259568E+01 -0.10454046301E+02  0.23857247862E+01  0.11711384122E+02  0.51100000000E-03 0. -1.
        -11    1    4    4    0    0  0.92288681722E+01  0.10655085140E+01  0.31463651756E+01  0.98085131500E+01  0.51100000000E-03 0.  1.
         12    1    4    4    0    0  0.15599353792E+02 -0.14921691573E+02  0.14965919517E+02  0.26267384056E+02  0.00000000000E+00 0. -1.
</event>
<event>
 8    1  0.5250708E-010  0.9118800E+02  0.7816164E-02  0.1184000E+00
        -11   -1    0    0    0    0  0.00000000000E+00  0.00000000000E+00  0.45593999997E+02  0.45594000000E+02  0.51100000000E-03 0.  1.
         11   -1    0    0    0    0 -0.00000000000E+00 -0.00000000000E+00 -0.45593999997E+02  0.45594000000E+02  0.51100000000E-03 0. -1.
         23    2    1    2    0    0 -0.35527136788E-14  0.00000000000E+00  0.00000000000E+00  0.91188000000E+02  0.91188000000E+02 0.  0.
    9900012    2    3    3    0    0  0.26784422551E+02  0.26932707422E+02 -0.20996345283E+02  0.47787279549E+02  0.20000038775E+02 0.  0.
         12    1    3    3    0    0 -0.26784422551E+02 -0.26932707422E+02  0.20996345283E+02  0.43400720451E+02  0.00000000000E+00 0. -1.
         11    1    4    4    0    0  0.16870472444E+01  0.57723578428E+01  0.57064527756E+00  0.60408509139E+01  0.51100000000E-03 0. -1.
        -11    1    4    4    0    0  0.23154454264E+02  0.21902446069E+02 -0.15715320172E+02  0.35536139133E+02  0.51100000000E-03 0.  1.
        -12    1    4    4    0    0  0.19429210421E+01 -0.74209648961E+00 -0.58516703878E+01  0.62102895023E+01  0.00000000000E+00 0.  1.
</event>
<event>
 8    1  0.5250708E-010  0.9118800E+02  0.7816164E-02  0.1184000E+00
        -11   -1    0    0    0    0  0.00000000000E+00  0.00000000000E+00  0.45593999997E+02  0.45594000000E+02  0.51100000000E-03 0. -1.
         11   -1    0    0    0    0 -0.00000000000E+00 -0.00000000000E+00 -0.45593999997E+02  0.45594000000E+02  0.51100000000E-03 0.  1.
         23    2    1    2    0    0  0.35527136788E-14 -0.22204460493E-14  0.71054273576E-14  0.91188000000E+02  0.91188000000E+02 0.  0.
    9900012    2    3    3    0    0 -0.21116486643E+02  0.29897762010E+01 -0.37799187161E+02  0.47787270514E+02  0.19999997582E+02 0.  0.
         12    1    3    3    0    0  0.21116486643E+02 -0.29897762010E+01  0.37799187161E+02  0.43400729486E+02  0.00000000000E+00 0. -1.
         11    1    4    4    0    0 -0.32697251100E+01  0.21052813595E+01 -0.15353092110E+01  0.41809671767E+01  0.51100000000E-03 0. -1.
        -11    1    4    4    0    0 -0.16943478509E+02  0.65752693820E+01 -0.24479976419E+02  0.30489094397E+02  0.51100000000E-03 0.  1.
         12    1    4    4    0    0 -0.90328302410E+00 -0.56907745404E+01 -0.11783901531E+02  0.13117208940E+02  0.00000000000E+00 0. -1.
</event>
<event>
 8    1  0.5250708E-010  0.9118800E+02  0.7816164E-02  0.1184000E+00
        -11   -1    0    0    0    0  0.00000000000E+00  0.00000000000E+00  0.45593999997E+02  0.45594000000E+02  0.51100000000E-03 0. -1.
         11   -1    0    0    0    0 -0.00000000000E+00 -0.00000000000E+00 -0.45593999997E+02  0.45594000000E+02  0.51100000000E-03 0.  1.
         23    2    1    2    0    0 -0.35527136788E-14  0.00000000000E+00  0.00000000000E+00  0.91188000000E+02  0.91188000000E+02 0.  0.
    9900012    2    3    3    0    0  0.30075261704E+02  0.13535961558E+02  0.28211341686E+02  0.47787269343E+02  0.19999992244E+02 0.  0.
        -12    1    3    3    0    0 -0.30075261704E+02 -0.13535961558E+02 -0.28211341686E+02  0.43400730657E+02  0.00000000000E+00 0.  1.
         11    1    4    4    0    0  0.14575730900E+02  0.45373246581E+01  0.14005305522E+02  0.20716848924E+02  0.51100000000E-03 0. -1.
        -11    1    4    4    0    0  0.98978130069E+01  0.10514386954E+02  0.34466705397E+01  0.14845826801E+02  0.51100000000E-03 0.  1.
         12    1    4    4    0    0  0.56017177966E+01 -0.15157500543E+01  0.10759365624E+02  0.12224593618E+02  0.00000000000E+00 0. -1.
</event>
<event>
 8    1  0.5250708E-010  0.9118800E+02  0.7816164E-02  0.1184000E+00
        -11   -1    0    0    0    0  0.00000000000E+00  0.00000000000E+00  0.45593999997E+02  0.45594000000E+02  0.51100000000E-03 0. -1.
         11   -1    0    0    0    0 -0.00000000000E+00 -0.00000000000E+00 -0.45593999997E+02  0.45594000000E+02  0.51100000000E-03 0.  1.
         23    2    1    2    0    0 -0.71054273576E-14 -0.71054273576E-14 -0.66613381478E-15  0.91188000000E+02  0.91188000000E+02 0.  0.
    9900012    2    3    3    0    0 -0.38556007265E+02  0.19865592755E+02  0.15543943199E+01  0.47787267133E+02  0.19999982165E+02 0.  0.
        -12    1    3    3    0    0  0.38556007265E+02 -0.19865592755E+02 -0.15543943199E+01  0.43400732867E+02  0.00000000000E+00 0.  1.
         11    1    4    4    0    0 -0.82050806527E+01  0.78418571106E+01  0.47671580113E+01  0.12310315480E+02  0.51100000000E-03 0. -1.
        -11    1    4    4    0    0 -0.29572753527E+02  0.14350796482E+02 -0.28146607366E+01  0.32991141632E+02  0.51100000000E-03 0.  1.
        -12    1    4    4    0    0 -0.77817308562E+00 -0.23270608383E+01 -0.39810295475E+00  0.24858100207E+01  0.00000000000E+00 0.  1.
</event>
<event>
 8    1  0.5250708E-010  0.9118800E+02  0.7816164E-02  0.1184000E+00
        -11   -1    0    0    0    0  0.00000000000E+00  0.00000000000E+00  0.45593999997E+02  0.45594000000E+02  0.51100000000E-03 0. -1.
         11   -1    0    0    0    0 -0.00000000000E+00 -0.00000000000E+00 -0.45593999997E+02  0.45594000000E+02  0.51100000000E-03 0.  1.
         23    2    1    2    0    0  0.00000000000E+00  0.00000000000E+00  0.00000000000E+00  0.91188000000E+02  0.91188000000E+02 0.  0.
    9900012    2    3    3    0    0  0.20083674922E+02 -0.21723775328E+02 -0.31754484862E+02  0.47787265885E+02  0.19999976478E+02 0.  0.
         12    1    3    3    0    0 -0.20083674922E+02  0.21723775328E+02  0.31754484862E+02  0.43400734115E+02  0.00000000000E+00 0. -1.
         11    1    4    4    0    0 -0.77129859069E+00 -0.54916336733E+01 -0.11012354307E+01  0.56538183251E+01  0.51100000000E-03 0. -1.
        -11    1    4    4    0    0  0.49419780890E+01 -0.37503949975E+00 -0.11825489371E+02  0.12822090360E+02  0.51100000000E-03 0.  1.
        -12    1    4    4    0    0  0.15912995424E+02 -0.15857102155E+02 -0.18827760060E+02  0.29311357201E+02  0.00000000000E+00 0.  1.
</event>
<event>
 8    1  0.5250708E-010  0.9118800E+02  0.7816164E-02  0.1184000E+00
        -11   -1    0    0    0    0  0.00000000000E+00  0.00000000000E+00  0.45593999997E+02  0.45594000000E+02  0.51100000000E-03 0. -1.
         11   -1    0    0    0    0 -0.00000000000E+00 -0.00000000000E+00 -0.45593999997E+02  0.45594000000E+02  0.51100000000E-03 0.  1.
         23    2    1    2    0    0  0.44408920985E-15  0.00000000000E+00 -0.71054273576E-14  0.91188000000E+02  0.91188000000E+02 0.  0.
    9900012    2    3    3    0    0 -0.37376974018E+01 -0.24427801355E+02 -0.35678232754E+02  0.47787260912E+02  0.19999953801E+02 0.  0.
         12    1    3    3    0    0  0.37376974018E+01  0.24427801355E+02  0.35678232754E+02  0.43400739088E+02  0.00000000000E+00 0. -1.
         11    1    4    4    0    0  0.23382997739E+01  0.72709301580E+00 -0.65492191482E+00  0.25348043439E+01  0.51100000000E-03 0.  1.
        -11    1    4    4    0    0 -0.68501103975E+01 -0.11695009222E+02 -0.10052676836E+02  0.16874642663E+02  0.51100000000E-03 0. -1.
        -12    1    4    4    0    0  0.77411322186E+00 -0.13459885150E+02 -0.24970634003E+02  0.28377813905E+02  0.00000000000E+00 0.  1.
</event>
<event>
 8    1  0.5250708E-010  0.9118800E+02  0.7816164E-02  0.1184000E+00
        -11   -1    0    0    0    0  0.00000000000E+00  0.00000000000E+00  0.45593999997E+02  0.45594000000E+02  0.51100000000E-03 0. -1.
         11   -1    0    0    0    0 -0.00000000000E+00 -0.00000000000E+00 -0.45593999997E+02  0.45594000000E+02  0.51100000000E-03 0.  1.
         23    2    1    2    0    0  0.00000000000E+00  0.00000000000E+00  0.00000000000E+00  0.91188000000E+02  0.91188000000E+02 0.  0.
    9900012    2    3    3    0    0 -0.34648465980E+02 -0.17817726195E+02  0.19121605231E+02  0.47787270189E+02  0.19999996099E+02 0.  0.
        -12    1    3    3    0    0  0.34648465980E+02  0.17817726195E+02 -0.19121605231E+02  0.43400729811E+02  0.00000000000E+00 0.  1.
         11    1    4    4    0    0 -0.23516669222E+02 -0.90778564085E+01  0.86669897121E+01  0.26656292301E+02  0.51100000000E-03 0.  1.
        -11    1    4    4    0    0 -0.12805665482E+02 -0.80787696685E+01  0.59287747367E+01  0.16260441505E+02  0.51100000000E-03 0. -1.
         12    1    4    4    0    0  0.16738687243E+01 -0.66110011798E+00  0.45258407827E+01  0.48705363834E+01  0.00000000000E+00 0. -1.
</event>
<event>
 8    1  0.5250708E-010  0.9118800E+02  0.7816164E-02  0.1184000E+00
        -11   -1    0    0    0    0  0.00000000000E+00  0.00000000000E+00  0.45593999997E+02  0.45594000000E+02  0.51100000000E-03 0. -1.
         11   -1    0    0    0    0 -0.00000000000E+00 -0.00000000000E+00 -0.45593999997E+02  0.45594000000E+02  0.51100000000E-03 0.  1.
         23    2    1    2    0    0  0.00000000000E+00  0.88817841970E-15  0.00000000000E+00  0.91188000000E+02  0.91188000000E+02 0.  0.
    9900012    2    3    3    0    0  0.25194007496E+02 -0.73902257772E+01  0.34558206239E+02  0.47787273403E+02  0.20000010752E+02 0.  0.
        -12    1    3    3    0    0 -0.25194007496E+02  0.73902257772E+01 -0.34558206239E+02  0.43400726597E+02  0.00000000000E+00 0.  1.
         11    1    4    4    0    0  0.22899475379E+02 -0.18073161995E+00  0.28469198191E+02  0.36536473317E+02  0.51100000000E-03 0. -1.
        -11    1    4    4    0    0  0.30008537856E+01 -0.10636141948E+01  0.13511066180E+01  0.34585962402E+01  0.51100000000E-03 0.  1.
        -12    1    4    4    0    0 -0.70632166855E+00 -0.61458799624E+01  0.47379014297E+01  0.77922038454E+01  0.00000000000E+00 0.  1.
</event>
<event>
 8    1  0.5250708E-010  0.9118800E+02  0.7816164E-02  0.1184000E+00
        -11   -1    0    0    0    0  0.00000000000E+00  0.00000000000E+00  0.45593999997E+02  0.45594000000E+02  0.51100000000E-03 0. -1.
         11   -1    0    0    0    0 -0.00000000000E+00 -0.00000000000E+00 -0.45593999997E+02  0.45594000000E+02  0.51100000000E-03 0.  1.
         23    2    1    2    0    0 -0.35527136788E-14  0.00000000000E+00  0.00000000000E+00  0.91188000000E+02  0.91188000000E+02 0.  0.
    9900012    2    3    3    0    0 -0.19761707234E+02 -0.92419283629E+01 -0.37519161132E+02  0.47787242349E+02  0.19999869166E+02 0.  0.
         12    1    3    3    0    0  0.19761707234E+02  0.92419283629E+01  0.37519161132E+02  0.43400757651E+02  0.00000000000E+00 0. -1.
         11    1    4    4    0    0 -0.14183706284E+02 -0.87025815625E+01 -0.15439201337E+02  0.22699810308E+02  0.51100000000E-03 0. -1.
        -11    1    4    4    0    0 -0.74634568923E+01  0.26274557545E+01 -0.12187599753E+02  0.14530805226E+02  0.51100000000E-03 0.  1.
        -12    1    4    4    0    0  0.18854559424E+01 -0.31668025548E+01 -0.98923600414E+01  0.10556626815E+02  0.00000000000E+00 0.  1.
</event>
<event>
 8    1  0.5250708E-010  0.9118800E+02  0.7816164E-02  0.1184000E+00
        -11   -1    0    0    0    0  0.00000000000E+00  0.00000000000E+00  0.45593999997E+02  0.45594000000E+02  0.51100000000E-03 0. -1.
         11   -1    0    0    0    0 -0.00000000000E+00 -0.00000000000E+00 -0.45593999997E+02  0.45594000000E+02  0.51100000000E-03 0.  1.
         23    2    1    2    0    0  0.00000000000E+00  0.00000000000E+00  0.00000000000E+00  0.91188000000E+02  0.91188000000E+02 0.  0.
    9900012    2    3    3    0    0  0.17101173992E+02  0.23485359767E+02 -0.32243002737E+02  0.47787268430E+02  0.19999988082E+02 0.  0.
         12    1    3    3    0    0 -0.17101173992E+02 -0.23485359767E+02  0.32243002737E+02  0.43400731570E+02  0.00000000000E+00 0. -1.
         11    1    4    4    0    0  0.65157956107E+00  0.39036998840E+01 -0.14681536994E+02  0.15205622561E+02  0.51100000000E-03 0.  1.
        -11    1    4    4    0    0  0.14489862267E+01  0.53610621731E+01 -0.14962955721E+00  0.55554421943E+01  0.51100000000E-03 0. -1.
        -12    1    4    4    0    0  0.15000608204E+02  0.14220597710E+02 -0.17411836185E+02  0.27026203675E+02  0.00000000000E+00 0.  1.
</event>
<event>
 8    1  0.5250708E-010  0.9118800E+02  0.7816164E-02  0.1184000E+00
        -11   -1    0    0    0    0  0.00000000000E+00  0.00000000000E+00  0.45593999997E+02  0.45594000000E+02  0.51100000000E-03 0. -1.
         11   -1    0    0    0    0 -0.00000000000E+00 -0.00000000000E+00 -0.45593999997E+02  0.45594000000E+02  0.51100000000E-03 0.  1.
         23    2    1    2    0    0  0.00000000000E+00  0.35527136788E-14  0.00000000000E+00  0.91188000000E+02  0.91188000000E+02 0.  0.
    9900012    2    3    3    0    0 -0.85581427226E+01 -0.21112276476E+02  0.36941191735E+02  0.47787289503E+02  0.20000084160E+02 0.  0.
        -12    1    3    3    0    0  0.85581427226E+01  0.21112276476E+02 -0.36941191735E+02  0.43400710497E+02  0.00000000000E+00 0.  1.
         11    1    4    4    0    0  0.42390874961E+00  0.11243139590E+01  0.85881020722E+00  0.14769345752E+01  0.51100000000E-03 0. -1.
        -11    1    4    4    0    0 -0.51924247289E+01 -0.21887442173E+02  0.36064145003E+02  0.42504634506E+02  0.51100000000E-03 0.  1.
        -12    1    4    4    0    0 -0.37896267433E+01 -0.34914826235E+00  0.18236524891E-01  0.38057204224E+01  0.00000000000E+00 0.  1.
</event>
<event>
 8    1  0.5250708E-010  0.9118800E+02  0.7816164E-02  0.1184000E+00
        -11   -1    0    0    0    0  0.00000000000E+00  0.00000000000E+00  0.45593999997E+02  0.45594000000E+02  0.51100000000E-03 0. -1.
         11   -1    0    0    0    0 -0.00000000000E+00 -0.00000000000E+00 -0.45593999997E+02  0.45594000000E+02  0.51100000000E-03 0.  1.
         23    2    1    2    0    0  0.35527136788E-14  0.00000000000E+00  0.35527136788E-14  0.91188000000E+02  0.91188000000E+02 0.  0.
    9900012    2    3    3    0    0  0.28131327202E+02  0.94507319914E+01  0.31669156710E+02  0.47787269683E+02  0.19999993793E+02 0.  0.
        -12    1    3    3    0    0 -0.28131327202E+02 -0.94507319914E+01 -0.31669156710E+02  0.43400730317E+02  0.00000000000E+00 0.  1.
         11    1    4    4    0    0  0.20536177582E+01  0.44442793436E+01  0.16350853082E+01  0.51616343348E+01  0.51100000000E-03 0. -1.
        -11    1    4    4    0    0  0.12198082143E+02  0.48281334821E+01  0.50747696850E+01  0.14066178177E+02  0.51100000000E-03 0.  1.
         12    1    4    4    0    0  0.13879627301E+02  0.17831916577E+00  0.24959301717E+02  0.28559457171E+02  0.00000000000E+00 0. -1.
</event>
<event>
 8    1  0.5250708E-010  0.9118800E+02  0.7816164E-02  0.1184000E+00
        -11   -1    0    0    0    0  0.00000000000E+00  0.00000000000E+00  0.45593999997E+02  0.45594000000E+02  0.51100000000E-03 0.  1.
         11   -1    0    0    0    0 -0.00000000000E+00 -0.00000000000E+00 -0.45593999997E+02  0.45594000000E+02  0.51100000000E-03 0. -1.
         23    2    1    2    0    0 -0.17763568394E-14  0.00000000000E+00 -0.35527136788E-14  0.91188000000E+02  0.91188000000E+02 0.  0.
    9900012    2    3    3    0    0 -0.14457549165E+02  0.35169335477E+02 -0.20921767290E+02  0.47787271524E+02  0.20000002185E+02 0.  0.
         12    1    3    3    0    0  0.14457549165E+02 -0.35169335477E+02  0.20921767290E+02  0.43400728476E+02  0.00000000000E+00 0. -1.
         11    1    4    4    0    0 -0.52800543786E+01  0.10557659095E+02 -0.13306780461E+02  0.17788016930E+02  0.51100000000E-03 0. -1.
        -11    1    4    4    0    0 -0.48587597656E+00 -0.94462341805E-01  0.20298992154E+01  0.20893754292E+01  0.51100000000E-03 0.  1.
        -12    1    4    4    0    0 -0.86916188103E+01  0.24706138724E+02 -0.96448860443E+01  0.27909879165E+02  0.00000000000E+00 0.  1.
</event>
<event>
 8    1  0.5250708E-010  0.9118800E+02  0.7816164E-02  0.1184000E+00
        -11   -1    0    0    0    0  0.00000000000E+00  0.00000000000E+00  0.45593999997E+02  0.45594000000E+02  0.51100000000E-03 0. -1.
         11   -1    0    0    0    0 -0.00000000000E+00 -0.00000000000E+00 -0.45593999997E+02  0.45594000000E+02  0.51100000000E-03 0.  1.
         23    2    1    2    0    0 -0.71054273576E-14  0.17763568394E-14  0.00000000000E+00  0.91188000000E+02  0.91188000000E+02 0.  0.
    9900012    2    3    3    0    0  0.36607689382E+02 -0.10361820244E+02 -0.20883807202E+02  0.47787266781E+02  0.19999980564E+02 0.  0.
         12    1    3    3    0    0 -0.36607689382E+02  0.10361820244E+02  0.20883807202E+02  0.43400733219E+02  0.00000000000E+00 0. -1.
         11    1    4    4    0    0  0.68079315706E+01 -0.30316001525E+01 -0.11718209337E+01  0.75439841143E+01  0.51100000000E-03 0. -1.
        -11    1    4    4    0    0  0.18039743414E+02 -0.12381124877E+02 -0.94275984703E+01  0.23824445615E+02  0.51100000000E-03 0.  1.
         12    1    4    4    0    0  0.11760014397E+02  0.50509047857E+01 -0.10284387798E+02  0.16418837052E+02  0.00000000000E+00 0. -1.
</event>
<event>
 8    1  0.5250708E-010  0.9118800E+02  0.7816164E-02  0.1184000E+00
        -11   -1    0    0    0    0  0.00000000000E+00  0.00000000000E+00  0.45593999997E+02  0.45594000000E+02  0.51100000000E-03 0.  1.
         11   -1    0    0    0    0 -0.00000000000E+00 -0.00000000000E+00 -0.45593999997E+02  0.45594000000E+02  0.51100000000E-03 0. -1.
         23    2    1    2    0    0  0.00000000000E+00  0.00000000000E+00  0.13322676296E-14  0.91188000000E+02  0.91188000000E+02 0.  0.
    9900012    2    3    3    0    0  0.24432944593E+02 -0.35691994052E+02  0.35685528513E+01  0.47787288136E+02  0.20000077925E+02 0.  0.
         12    1    3    3    0    0 -0.24432944593E+02  0.35691994052E+02 -0.35685528513E+01  0.43400711864E+02  0.00000000000E+00 0. -1.
         11    1    4    4    0    0  0.68908264070E+01 -0.10530470710E+02 -0.49792431191E+01  0.13533926417E+02  0.51100000000E-03 0.  1.
        -11    1    4    4    0    0  0.62945760332E-01 -0.69965986558E+00 -0.22120811239E+01  0.23209457676E+01  0.51100000000E-03 0. -1.
        -12    1    4    4    0    0  0.17479172426E+02 -0.24461863476E+02  0.10759877094E+02  0.31932415951E+02  0.00000000000E+00 0.  1.
</event>
<event>
 8    1  0.5250708E-010  0.9118800E+02  0.7816164E-02  0.1184000E+00
        -11   -1    0    0    0    0  0.00000000000E+00  0.00000000000E+00  0.45593999997E+02  0.45594000000E+02  0.51100000000E-03 0. -1.
         11   -1    0    0    0    0 -0.00000000000E+00 -0.00000000000E+00 -0.45593999997E+02  0.45594000000E+02  0.51100000000E-03 0.  1.
         23    2    1    2    0    0  0.00000000000E+00  0.00000000000E+00  0.00000000000E+00  0.91188000000E+02  0.91188000000E+02 0.  0.
    9900012    2    3    3    0    0  0.14422697137E+02  0.19827310802E+02  0.35811822149E+02  0.47787273601E+02  0.20000011657E+02 0.  0.
        -12    1    3    3    0    0 -0.14422697137E+02 -0.19827310802E+02 -0.35811822149E+02  0.43400726399E+02  0.00000000000E+00 0.  1.
         11    1    4    4    0    0 -0.10034873966E+01  0.65561075999E+01  0.83860814471E+01  0.10691861209E+02  0.51100000000E-03 0.  1.
        -11    1    4    4    0    0  0.86517287943E+01  0.14136349540E+02  0.12757231605E+02  0.20914964689E+02  0.51100000000E-03 0. -1.
        -12    1    4    4    0    0  0.67744557389E+01 -0.86514633867E+00  0.14668509097E+02  0.16180447703E+02  0.00000000000E+00 0.  1.
</event>
<event>
 8    1  0.5250708E-010  0.9118800E+02  0.7816164E-02  0.1184000E+00
        -11   -1    0    0    0    0  0.00000000000E+00  0.00000000000E+00  0.45593999997E+02  0.45594000000E+02  0.51100000000E-03 0. -1.
         11   -1    0    0    0    0 -0.00000000000E+00 -0.00000000000E+00 -0.45593999997E+02  0.45594000000E+02  0.51100000000E-03 0.  1.
         23    2    1    2    0    0  0.88817841970E-15  0.17763568394E-14 -0.71054273576E-14  0.91188000000E+02  0.91188000000E+02 0.  0.
    9900012    2    3    3    0    0 -0.46596683601E+01  0.11158966571E+02  0.41681988418E+02  0.47787271865E+02  0.20000003742E+02 0.  0.
        -12    1    3    3    0    0  0.46596683601E+01 -0.11158966571E+02 -0.41681988418E+02  0.43400728135E+02  0.00000000000E+00 0.  1.
         11    1    4    4    0    0  0.16424966569E+01  0.62409684332E+00 -0.13908237679E+00  0.17625652630E+01  0.51100000000E-03 0. -1.
        -11    1    4    4    0    0 -0.12950979177E+01  0.50999844631E+01  0.21714162510E+01  0.56922903068E+01  0.51100000000E-03 0.  1.
         12    1    4    4    0    0 -0.50070670992E+01  0.54348852648E+01  0.39649654544E+02  0.40332416295E+02  0.00000000000E+00 0. -1.
</event>
<event>
 8    1  0.5250708E-010  0.9118800E+02  0.7816164E-02  0.1184000E+00
        -11   -1    0    0    0    0  0.00000000000E+00  0.00000000000E+00  0.45593999997E+02  0.45594000000E+02  0.51100000000E-03 0. -1.
         11   -1    0    0    0    0 -0.00000000000E+00 -0.00000000000E+00 -0.45593999997E+02  0.45594000000E+02  0.51100000000E-03 0.  1.
         23    2    1    2    0    0  0.00000000000E+00 -0.71054273576E-14 -0.71054273576E-14  0.91188000000E+02  0.91188000000E+02 0.  0.
    9900012    2    3    3    0    0  0.10664491666E+02 -0.37454568888E+02 -0.19158459411E+02  0.47787277885E+02  0.20000031190E+02 0.  0.
         12    1    3    3    0    0 -0.10664491666E+02  0.37454568888E+02  0.19158459411E+02  0.43400722115E+02  0.00000000000E+00 0. -1.
         11    1    4    4    0    0  0.26866137995E+01 -0.11774699850E+02 -0.12707346436E+02  0.17531061120E+02  0.51100000000E-03 0. -1.
        -11    1    4    4    0    0  0.43364230039E+01 -0.16832774698E+02 -0.99981193960E+01  0.20052662173E+02  0.51100000000E-03 0.  1.
         12    1    4    4    0    0  0.36414548627E+01 -0.88470943396E+01  0.35470064211E+01  0.10203554593E+02  0.00000000000E+00 0. -1.
</event>
<event>
 8    1  0.5250708E-010  0.9118800E+02  0.7816164E-02  0.1184000E+00
        -11   -1    0    0    0    0  0.00000000000E+00  0.00000000000E+00  0.45593999997E+02  0.45594000000E+02  0.51100000000E-03 0. -1.
         11   -1    0    0    0    0 -0.00000000000E+00 -0.00000000000E+00 -0.45593999997E+02  0.45594000000E+02  0.51100000000E-03 0.  1.
         23    2    1    2    0    0  0.71054273576E-14 -0.55511151231E-15 -0.35527136788E-14  0.91188000000E+02  0.91188000000E+02 0.  0.
    9900012    2    3    3    0    0  0.34804733739E+02  0.57923990036E+00 -0.25921391302E+02  0.47787268018E+02  0.19999986203E+02 0.  0.
         12    1    3    3    0    0 -0.34804733739E+02 -0.57923990036E+00  0.25921391302E+02  0.43400731982E+02  0.00000000000E+00 0. -1.
         11    1    4    4    0    0  0.10451842418E+01  0.37985132139E+01 -0.41086633687E+01  0.56922954661E+01  0.51100000000E-03 0. -1.
        -11    1    4    4    0    0  0.96792350560E+01 -0.62899154221E+01 -0.50816483366E+01  0.12612445336E+02  0.51100000000E-03 0.  1.
         12    1    4    4    0    0  0.24080314441E+02  0.30706421085E+01 -0.16731079597E+02  0.29482527216E+02  0.00000000000E+00 0. -1.
</event>
<event>
 8    1  0.5250708E-010  0.9118800E+02  0.7816164E-02  0.1184000E+00
        -11   -1    0    0    0    0  0.00000000000E+00  0.00000000000E+00  0.45593999997E+02  0.45594000000E+02  0.51100000000E-03 0.  1.
         11   -1    0    0    0    0 -0.00000000000E+00 -0.00000000000E+00 -0.45593999997E+02  0.45594000000E+02  0.51100000000E-03 0. -1.
         23    2    1    2    0    0 -0.71054273576E-14  0.88817841970E-15 -0.17763568394E-14  0.91188000000E+02  0.91188000000E+02 0.  0.
    9900012    2    3    3    0    0 -0.39923340778E+02  0.60568356085E+01 -0.15908025105E+02  0.47787266605E+02  0.19999979760E+02 0.  0.
         12    1    3    3    0    0  0.39923340778E+02 -0.60568356085E+01  0.15908025105E+02  0.43400733395E+02  0.00000000000E+00 0. -1.
         11    1    4    4    0    0 -0.73771867037E+01 -0.22779645211E+01  0.11835427633E+01  0.78110677730E+01  0.51100000000E-03 0. -1.
        -11    1    4    4    0    0 -0.30280606575E+02  0.36230347258E+01 -0.16608377027E+02  0.34725778651E+02  0.51100000000E-03 0.  1.
         12    1    4    4    0    0 -0.22655474989E+01  0.47117654037E+01 -0.48319084182E+00  0.52504201812E+01  0.00000000000E+00 0. -1.
</event>
<event>
 8    1  0.5250708E-010  0.9118800E+02  0.7816164E-02  0.1184000E+00
        -11   -1    0    0    0    0  0.00000000000E+00  0.00000000000E+00  0.45593999997E+02  0.45594000000E+02  0.51100000000E-03 0. -1.
         11   -1    0    0    0    0 -0.00000000000E+00 -0.00000000000E+00 -0.45593999997E+02  0.45594000000E+02  0.51100000000E-03 0.  1.
         23    2    1    2    0    0  0.00000000000E+00  0.00000000000E+00  0.00000000000E+00  0.91188000000E+02  0.91188000000E+02 0.  0.
    9900012    2    3    3    0    0 -0.28003276361E+02 -0.40431844527E+01  0.32910372516E+02  0.47787269055E+02  0.19999990928E+02 0.  0.
        -12    1    3    3    0    0  0.28003276361E+02  0.40431844527E+01 -0.32910372516E+02  0.43400730945E+02  0.00000000000E+00 0.  1.
         11    1    4    4    0    0 -0.95287582402E+01 -0.15494810906E+01  0.12581253393E+02  0.15858312093E+02  0.51100000000E-03 0. -1.
        -11    1    4    4    0    0 -0.89235960324E+01 -0.65833872429E+01  0.18216995007E+02  0.21326754584E+02  0.51100000000E-03 0.  1.
        -12    1    4    4    0    0 -0.95509220880E+01  0.40896838807E+01  0.21121241162E+01  0.10602202378E+02  0.00000000000E+00 0.  1.
</event>
<event>
 8    1  0.5250708E-010  0.9118800E+02  0.7816164E-02  0.1184000E+00
        -11   -1    0    0    0    0  0.00000000000E+00  0.00000000000E+00  0.45593999997E+02  0.45594000000E+02  0.51100000000E-03 0. -1.
         11   -1    0    0    0    0 -0.00000000000E+00 -0.00000000000E+00 -0.45593999997E+02  0.45594000000E+02  0.51100000000E-03 0.  1.
         23    2    1    2    0    0 -0.88817841970E-15  0.00000000000E+00  0.00000000000E+00  0.91188000000E+02  0.91188000000E+02 0.  0.
    9900012    2    3    3    0    0 -0.20639299068E+01  0.18506776621E+02  0.39202811673E+02  0.47787296888E+02  0.20000117829E+02 0.  0.
        -12    1    3    3    0    0  0.20639299068E+01 -0.18506776621E+02 -0.39202811673E+02  0.43400703112E+02  0.00000000000E+00 0.  1.
         11    1    4    4    0    0  0.20208859019E+01 -0.78175446612E+00  0.10975821779E+02  0.11187662126E+02  0.51100000000E-03 0. -1.
        -11    1    4    4    0    0  0.27275404330E+01  0.84792796521E+01  0.53329942554E+01  0.10381641885E+02  0.51100000000E-03 0.  1.
         12    1    4    4    0    0 -0.68123562418E+01  0.10809251435E+02  0.22893995639E+02  0.26217992877E+02  0.00000000000E+00 0. -1.
</event>
<event>
 8    1  0.5250708E-010  0.9118800E+02  0.7816164E-02  0.1184000E+00
        -11   -1    0    0    0    0  0.00000000000E+00  0.00000000000E+00  0.45593999997E+02  0.45594000000E+02  0.51100000000E-03 0. -1.
         11   -1    0    0    0    0 -0.00000000000E+00 -0.00000000000E+00 -0.45593999997E+02  0.45594000000E+02  0.51100000000E-03 0.  1.
         23    2    1    2    0    0  0.00000000000E+00  0.00000000000E+00  0.00000000000E+00  0.91188000000E+02  0.91188000000E+02 0.  0.
    9900012    2    3    3    0    0  0.36620992411E+02  0.12595320026E+02  0.19592957965E+02  0.47787272201E+02  0.20000005272E+02 0.  0.
        -12    1    3    3    0    0 -0.36620992411E+02 -0.12595320026E+02 -0.19592957965E+02  0.43400727799E+02  0.00000000000E+00 0.  1.
         11    1    4    4    0    0  0.94342485949E+01  0.36896067419E+00  0.34260318931E+01  0.10043847536E+02  0.51100000000E-03 0. -1.
        -11    1    4    4    0    0  0.27298968224E+02  0.11232443963E+02  0.18751738306E+02  0.34971833713E+02  0.51100000000E-03 0.  1.
        -12    1    4    4    0    0 -0.11222440760E+00  0.99391538826E+00 -0.25848122347E+01  0.27715909521E+01  0.00000000000E+00 0.  1.
</event>
<event>
 8    1  0.5250708E-010  0.9118800E+02  0.7816164E-02  0.1184000E+00
        -11   -1    0    0    0    0  0.00000000000E+00  0.00000000000E+00  0.45593999997E+02  0.45594000000E+02  0.51100000000E-03 0. -1.
         11   -1    0    0    0    0 -0.00000000000E+00 -0.00000000000E+00 -0.45593999997E+02  0.45594000000E+02  0.51100000000E-03 0.  1.
         23    2    1    2    0    0  0.00000000000E+00  0.88817841970E-15  0.00000000000E+00  0.91188000000E+02  0.91188000000E+02 0.  0.
    9900012    2    3    3    0    0 -0.40543698827E+02 -0.68562410608E+01  0.13886075295E+02  0.47787278311E+02  0.20000033130E+02 0.  0.
        -12    1    3    3    0    0  0.40543698827E+02  0.68562410608E+01 -0.13886075295E+02  0.43400721689E+02  0.00000000000E+00 0.  1.
         11    1    4    4    0    0 -0.11701607340E+02 -0.26323935079E+01  0.15510364856E+01  0.12093916832E+02  0.51100000000E-03 0. -1.
        -11    1    4    4    0    0 -0.13776003510E+02 -0.19514761227E+01  0.14738525865E+02  0.20268465080E+02  0.51100000000E-03 0.  1.
        -12    1    4    4    0    0 -0.15066087978E+02 -0.22723714302E+01 -0.24034870559E+01  0.15424896398E+02  0.00000000000E+00 0.  1.
</event>
<event>
 8    1  0.5250708E-010  0.9118800E+02  0.7816164E-02  0.1184000E+00
        -11   -1    0    0    0    0  0.00000000000E+00  0.00000000000E+00  0.45593999997E+02  0.45594000000E+02  0.51100000000E-03 0.  1.
         11   -1    0    0    0    0 -0.00000000000E+00 -0.00000000000E+00 -0.45593999997E+02  0.45594000000E+02  0.51100000000E-03 0. -1.
         23    2    1    2    0    0  0.00000000000E+00  0.00000000000E+00  0.35527136788E-14  0.91188000000E+02  0.91188000000E+02 0.  0.
    9900012    2    3    3    0    0  0.33667367742E+02 -0.15293014533E+02  0.22721252897E+02  0.47787271004E+02  0.19999999817E+02 0.  0.
        -12    1    3    3    0    0 -0.33667367742E+02  0.15293014533E+02 -0.22721252897E+02  0.43400728996E+02  0.00000000000E+00 0.  1.
         11    1    4    4    0    0  0.10570053366E+01  0.13056244792E+01 -0.13201469668E+01  0.21365167534E+01  0.51100000000E-03 0. -1.
        -11    1    4    4    0    0  0.91736871717E+01 -0.91321089546E+01  0.14044065663E+02  0.19099417030E+02  0.51100000000E-03 0.  1.
        -12    1    4    4    0    0  0.23436675233E+02 -0.74665300577E+01  0.99973342003E+01  0.26551337221E+02  0.00000000000E+00 0.  1.
</event>
<event>
 8    1  0.8739549E-010  0.9118800E+02  0.7816164E-02  0.1184000E+00
        -11   -1    0    0    0    0  0.00000000000E+00  0.00000000000E+00  0.45593999997E+02  0.45594000000E+02  0.51100000000E-03 0. -1.
         11   -1    0    0    0    0 -0.00000000000E+00 -0.00000000000E+00 -0.45593999997E+02  0.45594000000E+02  0.51100000000E-03 0.  1.
         23    2    1    2    0    0 -0.88817841970E-15 -0.35527136788E-14  0.00000000000E+00  0.91188000000E+02  0.91188000000E+02 0.  0.
    9900012    2    3    3    0    0 -0.59258683494E+01 -0.25979984455E+02  0.34257085795E+02  0.47787269187E+02  0.19999991529E+02 0.  0.
        -12    1    3    3    0    0  0.59258683494E+01  0.25979984455E+02 -0.34257085795E+02  0.43400730813E+02  0.00000000000E+00 0.  1.
         11    1    4    4    0    0  0.45392294014E+01 -0.77398997268E+01  0.14242251827E+02  0.16833074250E+02  0.51100000000E-03 0. -1.
        -11    1    4    4    0    0 -0.40690376108E+01 -0.72369090661E-02  0.19885526895E+01  0.45289581043E+01  0.51100000000E-03 0.  1.
         12    1    4    4    0    0 -0.63960601401E+01 -0.18232847819E+02  0.18026281278E+02  0.26425236832E+02  0.00000000000E+00 0. -1.
</event>
<event>
 8    1  0.5250708E-010  0.9118800E+02  0.7816164E-02  0.1184000E+00
        -11   -1    0    0    0    0  0.00000000000E+00  0.00000000000E+00  0.45593999997E+02  0.45594000000E+02  0.51100000000E-03 0.  1.
         11   -1    0    0    0    0 -0.00000000000E+00 -0.00000000000E+00 -0.45593999997E+02  0.45594000000E+02  0.51100000000E-03 0. -1.
         23    2    1    2    0    0 -0.88817841970E-15 -0.14210854715E-13  0.00000000000E+00  0.91188000000E+02  0.91188000000E+02 0.  0.
    9900012    2    3    3    0    0 -0.57235129363E+01 -0.41759792034E+02  0.10343300718E+02  0.47787277647E+02  0.20000030103E+02 0.  0.
        -12    1    3    3    0    0  0.57235129363E+01  0.41759792034E+02 -0.10343300718E+02  0.43400722353E+02  0.00000000000E+00 0.  1.
         11    1    4    4    0    0 -0.98231294991E+01 -0.34907962855E+02  0.30130631612E+01  0.36388711075E+02  0.51100000000E-03 0.  1.
        -11    1    4    4    0    0  0.35238688968E+01 -0.34359732130E+01  0.26929617265E+01  0.56103125621E+01  0.51100000000E-03 0. -1.
        -12    1    4    4    0    0  0.57574766598E+00 -0.34158559656E+01  0.46372758299E+01  0.57882540092E+01  0.00000000000E+00 0.  1.
</event>
<event>
 8    1  0.5250708E-010  0.9118800E+02  0.7816164E-02  0.1184000E+00
        -11   -1    0    0    0    0  0.00000000000E+00  0.00000000000E+00  0.45593999997E+02  0.45594000000E+02  0.51100000000E-03 0.  1.
         11   -1    0    0    0    0 -0.00000000000E+00 -0.00000000000E+00 -0.45593999997E+02  0.45594000000E+02  0.51100000000E-03 0. -1.
         23    2    1    2    0    0  0.00000000000E+00  0.71054273576E-14 -0.88817841970E-15  0.91188000000E+02  0.91188000000E+02 0.  0.
    9900012    2    3    3    0    0 -0.14946741496E+02  0.40290356372E+02 -0.60749759383E+01  0.47787271543E+02  0.20000002275E+02 0.  0.
        -12    1    3    3    0    0  0.14946741496E+02 -0.40290356372E+02  0.60749759383E+01  0.43400728457E+02  0.00000000000E+00 0.  1.
         11    1    4    4    0    0 -0.60233346532E+00  0.11246973939E+02  0.13954476261E+01  0.11349207141E+02  0.51100000000E-03 0.  1.
        -11    1    4    4    0    0 -0.17077327196E+02  0.26760813659E+02 -0.50800819306E+01  0.32149393222E+02  0.51100000000E-03 0. -1.
        -12    1    4    4    0    0  0.27329191651E+01  0.22825687741E+01 -0.23903416337E+01  0.42886711809E+01  0.00000000000E+00 0.  1.
</event>
<event>
 8    1  0.5250708E-010  0.9118800E+02  0.7816164E-02  0.1184000E+00
        -11   -1    0    0    0    0  0.00000000000E+00  0.00000000000E+00  0.45593999997E+02  0.45594000000E+02  0.51100000000E-03 0.  1.
         11   -1    0    0    0    0 -0.00000000000E+00 -0.00000000000E+00 -0.45593999997E+02  0.45594000000E+02  0.51100000000E-03 0. -1.
         23    2    1    2    0    0 -0.71054273576E-14 -0.17763568394E-14  0.00000000000E+00  0.91188000000E+02  0.91188000000E+02 0.  0.
    9900012    2    3    3    0    0 -0.42548421378E+02 -0.82728883131E+01  0.21941775504E+01  0.47787271228E+02  0.20000000839E+02 0.  0.
         12    1    3    3    0    0  0.42548421378E+02  0.82728883131E+01 -0.21941775504E+01  0.43400728772E+02  0.00000000000E+00 0. -1.
         11    1    4    4    0    0 -0.17578344524E+02  0.39744790073E+01  0.94615001017E+00  0.18046880054E+02  0.51100000000E-03 0. -1.
        -11    1    4    4    0    0 -0.23446517143E+02 -0.73781793405E+01  0.50992696557E+00  0.24585294839E+02  0.51100000000E-03 0.  1.
         12    1    4    4    0    0 -0.15235597110E+01 -0.48691879799E+01  0.73810057463E+00  0.51550963361E+01  0.00000000000E+00 0. -1.
</event>
<event>
 8    1  0.5250708E-010  0.9118800E+02  0.7816164E-02  0.1184000E+00
        -11   -1    0    0    0    0  0.00000000000E+00  0.00000000000E+00  0.45593999997E+02  0.45594000000E+02  0.51100000000E-03 0.  1.
         11   -1    0    0    0    0 -0.00000000000E+00 -0.00000000000E+00 -0.45593999997E+02  0.45594000000E+02  0.51100000000E-03 0. -1.
         23    2    1    2    0    0  0.00000000000E+00  0.00000000000E+00  0.00000000000E+00  0.91188000000E+02  0.91188000000E+02 0.  0.
    9900012    2    3    3    0    0  0.33220876461E+02  0.22524285145E+02 -0.16512214659E+02  0.47787270892E+02  0.19999999306E+02 0.  0.
        -12    1    3    3    0    0 -0.33220876461E+02 -0.22524285145E+02  0.16512214659E+02  0.43400729108E+02  0.00000000000E+00 0.  1.
         11    1    4    4    0    0  0.14093863150E+02  0.60343047328E+01 -0.36085269312E+01  0.15750278695E+02  0.51100000000E-03 0. -1.
        -11    1    4    4    0    0  0.11395230794E+02  0.57386380112E+01  0.10472917302E+01  0.12801565190E+02  0.51100000000E-03 0.  1.
        -12    1    4    4    0    0  0.77317825173E+01  0.10751342401E+02 -0.13950979458E+02  0.19235427008E+02  0.00000000000E+00 0.  1.
</event>
<event>
 8    1  0.5250708E-010  0.9118800E+02  0.7816164E-02  0.1184000E+00
        -11   -1    0    0    0    0  0.00000000000E+00  0.00000000000E+00  0.45593999997E+02  0.45594000000E+02  0.51100000000E-03 0. -1.
         11   -1    0    0    0    0 -0.00000000000E+00 -0.00000000000E+00 -0.45593999997E+02  0.45594000000E+02  0.51100000000E-03 0.  1.
         23    2    1    2    0    0 -0.71054273576E-14 -0.17763568394E-14  0.00000000000E+00  0.91188000000E+02  0.91188000000E+02 0.  0.
    9900012    2    3    3    0    0 -0.39928083661E+02 -0.86425510034E+01  0.14651905614E+02  0.47787263937E+02  0.19999967597E+02 0.  0.
        -12    1    3    3    0    0  0.39928083661E+02  0.86425510034E+01 -0.14651905614E+02  0.43400736063E+02  0.00000000000E+00 0.  1.
         11    1    4    4    0    0 -0.10612745992E+02  0.22521665243E+01  0.92349145085E+01  0.14247325285E+02  0.51100000000E-03 0. -1.
        -11    1    4    4    0    0  0.61570533889E+00 -0.10002047134E+01  0.12936925207E+01  0.17473245641E+01  0.51100000000E-03 0.  1.
        -12    1    4    4    0    0 -0.29931043007E+02 -0.98945128142E+01  0.41232985849E+01  0.31792614088E+02  0.00000000000E+00 0.  1.
</event>
<event>
 8    1  0.5250708E-010  0.9118800E+02  0.7816164E-02  0.1184000E+00
        -11   -1    0    0    0    0  0.00000000000E+00  0.00000000000E+00  0.45593999997E+02  0.45594000000E+02  0.51100000000E-03 0.  1.
         11   -1    0    0    0    0 -0.00000000000E+00 -0.00000000000E+00 -0.45593999997E+02  0.45594000000E+02  0.51100000000E-03 0. -1.
         23    2    1    2    0    0  0.71054273576E-14  0.00000000000E+00  0.00000000000E+00  0.91188000000E+02  0.91188000000E+02 0.  0.
    9900012    2    3    3    0    0 -0.34615550924E+02 -0.17001496394E+02  0.19908189282E+02  0.47787271366E+02  0.20000001468E+02 0.  0.
        -12    1    3    3    0    0  0.34615550924E+02  0.17001496394E+02 -0.19908189282E+02  0.43400728634E+02  0.00000000000E+00 0.  1.
         11    1    4    4    0    0 -0.12320440336E+02 -0.63041560500E+01  0.52279550934E+01  0.14794159263E+02  0.51100000000E-03 0. -1.
        -11    1    4    4    0    0 -0.44951773467E+01  0.34440429049E+01  0.69856623799E+01  0.89926375473E+01  0.51100000000E-03 0.  1.
        -12    1    4    4    0    0 -0.17799933242E+02 -0.14141383249E+02  0.76945718090E+01  0.24000474556E+02  0.00000000000E+00 0.  1.
</event>
<event>
 8    1  0.5250708E-010  0.9118800E+02  0.7816164E-02  0.1184000E+00
        -11   -1    0    0    0    0  0.00000000000E+00  0.00000000000E+00  0.45593999997E+02  0.45594000000E+02  0.51100000000E-03 0. -1.
         11   -1    0    0    0    0 -0.00000000000E+00 -0.00000000000E+00 -0.45593999997E+02  0.45594000000E+02  0.51100000000E-03 0.  1.
         23    2    1    2    0    0  0.00000000000E+00  0.00000000000E+00  0.71054273576E-14  0.91188000000E+02  0.91188000000E+02 0.  0.
    9900012    2    3    3    0    0 -0.16361864060E+02 -0.77573880821E+01 -0.39442813522E+02  0.47787271851E+02  0.20000003677E+02 0.  0.
         12    1    3    3    0    0  0.16361864060E+02  0.77573880821E+01  0.39442813522E+02  0.43400728149E+02  0.00000000000E+00 0. -1.
         11    1    4    4    0    0 -0.35356048129E+01 -0.47561509590E+01 -0.84791619270E+01  0.10344934054E+02  0.51100000000E-03 0. -1.
        -11    1    4    4    0    0 -0.83228535810E+01 -0.48316547737E+01 -0.46586829416E+01  0.10691964581E+02  0.51100000000E-03 0.  1.
         12    1    4    4    0    0 -0.45034056657E+01  0.18304176506E+01 -0.26304968653E+02  0.26750373216E+02  0.00000000000E+00 0. -1.
</event>
<event>
 8    1  0.5250708E-010  0.9118800E+02  0.7816164E-02  0.1184000E+00
        -11   -1    0    0    0    0  0.00000000000E+00  0.00000000000E+00  0.45593999997E+02  0.45594000000E+02  0.51100000000E-03 0. -1.
         11   -1    0    0    0    0 -0.00000000000E+00 -0.00000000000E+00 -0.45593999997E+02  0.45594000000E+02  0.51100000000E-03 0.  1.
         23    2    1    2    0    0  0.35527136788E-14  0.00000000000E+00 -0.35527136788E-14  0.91188000000E+02  0.91188000000E+02 0.  0.
    9900012    2    3    3    0    0 -0.21268434116E+02 -0.21883976864E+02  0.30860467090E+02  0.47787272331E+02  0.20000005867E+02 0.  0.
        -12    1    3    3    0    0  0.21268434116E+02  0.21883976864E+02 -0.30860467090E+02  0.43400727669E+02  0.00000000000E+00 0.  1.
         11    1    4    4    0    0 -0.25824586483E+01 -0.65637026816E+01  0.10879411228E+02  0.12965834894E+02  0.51100000000E-03 0. -1.
        -11    1    4    4    0    0 -0.16345643203E+02 -0.66560722793E+01  0.68828707900E+01  0.18943528195E+02  0.51100000000E-03 0.  1.
        -12    1    4    4    0    0 -0.23403322651E+01 -0.86642019032E+01  0.13098185073E+02  0.15877909243E+02  0.00000000000E+00 0.  1.
</event>
<event>
 8    1  0.5250708E-010  0.9118800E+02  0.7816164E-02  0.1184000E+00
        -11   -1    0    0    0    0  0.00000000000E+00  0.00000000000E+00  0.45593999997E+02  0.45594000000E+02  0.51100000000E-03 0. -1.
         11   -1    0    0    0    0 -0.00000000000E+00 -0.00000000000E+00 -0.45593999997E+02  0.45594000000E+02  0.51100000000E-03 0.  1.
         23    2    1    2    0    0  0.00000000000E+00 -0.35527136788E-14  0.35527136788E-14  0.91188000000E+02  0.91188000000E+02 0.  0.
    9900012    2    3    3    0    0  0.24651070678E+02  0.26059946913E+02 -0.24430048076E+02  0.47787269964E+02  0.19999995073E+02 0.  0.
         12    1    3    3    0    0 -0.24651070678E+02 -0.26059946913E+02  0.24430048076E+02  0.43400730036E+02  0.00000000000E+00 0. -1.
         11    1    4    4    0    0  0.88352767555E+01  0.53133780714E+01  0.71312782742E+00  0.10334536924E+02  0.51100000000E-03 0. -1.
        -11    1    4    4    0    0 -0.10594695138E+01  0.16441823564E+01 -0.54532194404E+00  0.20305633591E+01  0.51100000000E-03 0.  1.
        -12    1    4    4    0    0  0.16875263436E+02  0.19102386485E+02 -0.24597853959E+02  0.35422169681E+02  0.00000000000E+00 0.  1.
</event>
<event>
 8    1  0.5250708E-010  0.9118800E+02  0.7816164E-02  0.1184000E+00
        -11   -1    0    0    0    0  0.00000000000E+00  0.00000000000E+00  0.45593999997E+02  0.45594000000E+02  0.51100000000E-03 0.  1.
         11   -1    0    0    0    0 -0.00000000000E+00 -0.00000000000E+00 -0.45593999997E+02  0.45594000000E+02  0.51100000000E-03 0. -1.
         23    2    1    2    0    0  0.00000000000E+00 -0.71054273576E-14  0.88817841970E-15  0.91188000000E+02  0.91188000000E+02 0.  0.
    9900012    2    3    3    0    0  0.28153781798E+02 -0.32707811114E+02 -0.46030151939E+01  0.47787261685E+02  0.19999957327E+02 0.  0.
        -12    1    3    3    0    0 -0.28153781798E+02  0.32707811114E+02  0.46030151939E+01  0.43400738315E+02  0.00000000000E+00 0.  1.
         11    1    4    4    0    0  0.83019926899E+01 -0.13727728217E+02  0.37752180202E+01  0.16481076299E+02  0.51100000000E-03 0. -1.
        -11    1    4    4    0    0  0.91731369100E+01 -0.12613093922E+01 -0.87919678281E+00  0.93010929141E+01  0.51100000000E-03 0.  1.
         12    1    4    4    0    0  0.10678652198E+02 -0.17718773505E+02 -0.74990364314E+01  0.22005092472E+02  0.00000000000E+00 0. -1.
</event>
<event>
 8    1  0.5250708E-010  0.9118800E+02  0.7816164E-02  0.1184000E+00
        -11   -1    0    0    0    0  0.00000000000E+00  0.00000000000E+00  0.45593999997E+02  0.45594000000E+02  0.51100000000E-03 0. -1.
         11   -1    0    0    0    0 -0.00000000000E+00 -0.00000000000E+00 -0.45593999997E+02  0.45594000000E+02  0.51100000000E-03 0.  1.
         23    2    1    2    0    0  0.44408920985E-15  0.35527136788E-14  0.00000000000E+00  0.91188000000E+02  0.91188000000E+02 0.  0.
    9900012    2    3    3    0    0 -0.39589543040E+01 -0.26223032962E+02  0.34355529305E+02  0.47787272233E+02  0.20000005418E+02 0.  0.
        -12    1    3    3    0    0  0.39589543040E+01  0.26223032962E+02 -0.34355529305E+02  0.43400727767E+02  0.00000000000E+00 0.  1.
         11    1    4    4    0    0  0.31426777849E+01 -0.85994047360E+01  0.17886164239E+02  0.20093308759E+02  0.51100000000E-03 0. -1.
        -11    1    4    4    0    0 -0.33560979658E+00 -0.12610182196E+02  0.14155798733E+02  0.18960906280E+02  0.51100000000E-03 0.  1.
        -12    1    4    4    0    0 -0.67660222922E+01 -0.50134460301E+01  0.23135663336E+01  0.87330571929E+01  0.00000000000E+00 0.  1.
</event>
<event>
 8    1  0.5250708E-010  0.9118800E+02  0.7816164E-02  0.1184000E+00
        -11   -1    0    0    0    0  0.00000000000E+00  0.00000000000E+00  0.45593999997E+02  0.45594000000E+02  0.51100000000E-03 0.  1.
         11   -1    0    0    0    0 -0.00000000000E+00 -0.00000000000E+00 -0.45593999997E+02  0.45594000000E+02  0.51100000000E-03 0. -1.
         23    2    1    2    0    0  0.00000000000E+00  0.00000000000E+00  0.00000000000E+00  0.91188000000E+02  0.91188000000E+02 0.  0.
    9900012    2    3    3    0    0  0.10371503349E+02  0.41944869324E+02 -0.40845085720E+01  0.47787270114E+02  0.19999995759E+02 0.  0.
        -12    1    3    3    0    0 -0.10371503349E+02 -0.41944869324E+02  0.40845085720E+01  0.43400729886E+02  0.00000000000E+00 0.  1.
         11    1    4    4    0    0  0.32971022233E+01  0.16106655890E+02 -0.24359821008E+01  0.16620146091E+02  0.51100000000E-03 0. -1.
        -11    1    4    4    0    0  0.67853091732E+01  0.28036307281E+02 -0.10242647451E+01  0.28863888599E+02  0.51100000000E-03 0.  1.
        -12    1    4    4    0    0  0.28909195224E+00 -0.21980938467E+01 -0.62426172609E+00  0.23032354240E+01  0.00000000000E+00 0.  1.
</event>
<event>
 8    1  0.5250708E-010  0.9118800E+02  0.7816164E-02  0.1184000E+00
        -11   -1    0    0    0    0  0.00000000000E+00  0.00000000000E+00  0.45593999997E+02  0.45594000000E+02  0.51100000000E-03 0. -1.
         11   -1    0    0    0    0 -0.00000000000E+00 -0.00000000000E+00 -0.45593999997E+02  0.45594000000E+02  0.51100000000E-03 0.  1.
         23    2    1    2    0    0 -0.71054273576E-14  0.00000000000E+00  0.44408920985E-15  0.91188000000E+02  0.91188000000E+02 0.  0.
    9900012    2    3    3    0    0 -0.38586675761E+02 -0.19596558710E+02 -0.32660222386E+01  0.47787267739E+02  0.19999984929E+02 0.  0.
        -12    1    3    3    0    0  0.38586675761E+02  0.19596558710E+02  0.32660222386E+01  0.43400732261E+02  0.00000000000E+00 0.  1.
         11    1    4    4    0    0 -0.62570274529E+01 -0.39895424884E+01  0.54313365046E+01  0.91959914256E+01  0.51100000000E-03 0. -1.
        -11    1    4    4    0    0 -0.22933221315E+02 -0.57008046838E+01 -0.30956676451E+01  0.23833064687E+02  0.51100000000E-03 0.  1.
        -12    1    4    4    0    0 -0.93964269923E+01 -0.99062115376E+01 -0.56016910980E+01  0.14758211626E+02  0.00000000000E+00 0.  1.
</event>
<event>
 8    1  0.5250708E-010  0.9118800E+02  0.7816164E-02  0.1184000E+00
        -11   -1    0    0    0    0  0.00000000000E+00  0.00000000000E+00  0.45593999997E+02  0.45594000000E+02  0.51100000000E-03 0. -1.
         11   -1    0    0    0    0 -0.00000000000E+00 -0.00000000000E+00 -0.45593999997E+02  0.45594000000E+02  0.51100000000E-03 0.  1.
         23    2    1    2    0    0 -0.71054273576E-14  0.00000000000E+00  0.00000000000E+00  0.91188000000E+02  0.91188000000E+02 0.  0.
    9900012    2    3    3    0    0 -0.43235333742E+02 -0.21337170702E+01 -0.31268158992E+01  0.47787264868E+02  0.19999971839E+02 0.  0.
        -12    1    3    3    0    0  0.43235333742E+02  0.21337170702E+01  0.31268158992E+01  0.43400735132E+02  0.00000000000E+00 0.  1.
         11    1    4    4    0    0 -0.16419356638E+02  0.70108575628E+01 -0.26669859130E+01  0.18051598552E+02  0.51100000000E-03 0. -1.
        -11    1    4    4    0    0 -0.21111742341E+02 -0.44409770398E+01 -0.32819284046E+01  0.21821984238E+02  0.51100000000E-03 0.  1.
        -12    1    4    4    0    0 -0.57042347628E+01 -0.47035975932E+01  0.28220984185E+01  0.79136820780E+01  0.00000000000E+00 0.  1.
</event>
<event>
 8    1  0.5250708E-010  0.9118800E+02  0.7816164E-02  0.1184000E+00
        -11   -1    0    0    0    0  0.00000000000E+00  0.00000000000E+00  0.45593999997E+02  0.45594000000E+02  0.51100000000E-03 0. -1.
         11   -1    0    0    0    0 -0.00000000000E+00 -0.00000000000E+00 -0.45593999997E+02  0.45594000000E+02  0.51100000000E-03 0.  1.
         23    2    1    2    0    0  0.17763568394E-14  0.00000000000E+00  0.00000000000E+00  0.91188000000E+02  0.91188000000E+02 0.  0.
    9900012    2    3    3    0    0  0.98429337119E+01 -0.14957414680E+02  0.39534992982E+02  0.47787271111E+02  0.20000000306E+02 0.  0.
        -12    1    3    3    0    0 -0.98429337119E+01  0.14957414680E+02 -0.39534992982E+02  0.43400728889E+02  0.00000000000E+00 0.  1.
         11    1    4    4    0    0  0.25031466395E+01 -0.13447137932E+02  0.25401767044E+02  0.28850321157E+02  0.51100000000E-03 0.  1.
        -11    1    4    4    0    0  0.82375307471E+01 -0.36727794813E+01  0.13919061274E+02  0.16585731486E+02  0.51100000000E-03 0. -1.
         12    1    4    4    0    0 -0.89774367478E+00  0.21625027337E+01  0.21416466406E+00  0.23512184676E+01  0.00000000000E+00 0. -1.
</event>
<event>
 8    1  0.5250708E-010  0.9118800E+02  0.7816164E-02  0.1184000E+00
        -11   -1    0    0    0    0  0.00000000000E+00  0.00000000000E+00  0.45593999997E+02  0.45594000000E+02  0.51100000000E-03 0. -1.
         11   -1    0    0    0    0 -0.00000000000E+00 -0.00000000000E+00 -0.45593999997E+02  0.45594000000E+02  0.51100000000E-03 0.  1.
         23    2    1    2    0    0  0.00000000000E+00  0.00000000000E+00  0.17763568394E-14  0.91188000000E+02  0.91188000000E+02 0.  0.
    9900012    2    3    3    0    0  0.23919283362E+02  0.33239779235E+02 -0.14373875049E+02  0.47787270466E+02  0.19999997363E+02 0.  0.
         12    1    3    3    0    0 -0.23919283362E+02 -0.33239779235E+02  0.14373875049E+02  0.43400729534E+02  0.00000000000E+00 0. -1.
         11    1    4    4    0    0  0.12939654463E+02  0.66838069493E+01  0.18577598501E+01  0.14681934643E+02  0.51100000000E-03 0. -1.
        -11    1    4    4    0    0  0.27175363585E+01  0.60921274429E+01 -0.50420407966E+01  0.83618895171E+01  0.51100000000E-03 0.  1.
         12    1    4    4    0    0  0.82620925408E+01  0.20463844843E+02 -0.11189594102E+02  0.24743446306E+02  0.00000000000E+00 0. -1.
</event>
<event>
 8    1  0.5250708E-010  0.9118800E+02  0.7816164E-02  0.1184000E+00
        -11   -1    0    0    0    0  0.00000000000E+00  0.00000000000E+00  0.45593999997E+02  0.45594000000E+02  0.51100000000E-03 0.  1.
         11   -1    0    0    0    0 -0.00000000000E+00 -0.00000000000E+00 -0.45593999997E+02  0.45594000000E+02  0.51100000000E-03 0. -1.
         23    2    1    2    0    0 -0.71054273576E-14 -0.17763568394E-14  0.00000000000E+00  0.91188000000E+02  0.91188000000E+02 0.  0.
    9900012    2    3    3    0    0  0.38404919552E+02  0.92334338377E+01  0.17984161347E+02  0.47787260310E+02  0.19999951059E+02 0.  0.
        -12    1    3    3    0    0 -0.38404919552E+02 -0.92334338377E+01 -0.17984161347E+02  0.43400739690E+02  0.00000000000E+00 0.  1.
         11    1    4    4    0    0  0.81561577137E+01 -0.96253082750E+00  0.68879841073E+01  0.10718847866E+02  0.51100000000E-03 0. -1.
        -11    1    4    4    0    0  0.93915462164E+01  0.36031925639E+01  0.11384939998E+02  0.15192135992E+02  0.51100000000E-03 0.  1.
         12    1    4    4    0    0  0.20857215622E+02  0.65927721013E+01 -0.28876275851E+00  0.21876276453E+02  0.00000000000E+00 0. -1.
</event>
<event>
 8    1  0.5250708E-010  0.9118800E+02  0.7816164E-02  0.1184000E+00
        -11   -1    0    0    0    0  0.00000000000E+00  0.00000000000E+00  0.45593999997E+02  0.45594000000E+02  0.51100000000E-03 0. -1.
         11   -1    0    0    0    0 -0.00000000000E+00 -0.00000000000E+00 -0.45593999997E+02  0.45594000000E+02  0.51100000000E-03 0.  1.
         23    2    1    2    0    0  0.00000000000E+00  0.17763568394E-14 -0.71054273576E-14  0.91188000000E+02  0.91188000000E+02 0.  0.
    9900012    2    3    3    0    0 -0.84954821912E+01 -0.12770239893E+02  0.40600133504E+02  0.47787273219E+02  0.20000009914E+02 0.  0.
        -12    1    3    3    0    0  0.84954821912E+01  0.12770239893E+02 -0.40600133504E+02  0.43400726781E+02  0.00000000000E+00 0.  1.
         11    1    4    4    0    0 -0.22268463938E+01 -0.11541867595E+02  0.14082494808E+02  0.18343669555E+02  0.51100000000E-03 0. -1.
        -11    1    4    4    0    0 -0.39594587636E+01  0.13080998442E+01  0.18900580165E+01  0.45782920909E+01  0.51100000000E-03 0.  1.
        -12    1    4    4    0    0 -0.23091770337E+01 -0.25364721421E+01  0.24627580679E+02  0.24865311573E+02  0.00000000000E+00 0.  1.
</event>
<event>
 8    1  0.5250708E-010  0.9118800E+02  0.7816164E-02  0.1184000E+00
        -11   -1    0    0    0    0  0.00000000000E+00  0.00000000000E+00  0.45593999997E+02  0.45594000000E+02  0.51100000000E-03 0. -1.
         11   -1    0    0    0    0 -0.00000000000E+00 -0.00000000000E+00 -0.45593999997E+02  0.45594000000E+02  0.51100000000E-03 0.  1.
         23    2    1    2    0    0  0.35527136788E-14 -0.88817841970E-15 -0.71054273576E-14  0.91188000000E+02  0.91188000000E+02 0.  0.
    9900012    2    3    3    0    0  0.20144227716E+02 -0.74198828323E+01  0.37719726757E+02  0.47787281595E+02  0.20000048102E+02 0.  0.
        -12    1    3    3    0    0 -0.20144227716E+02  0.74198828323E+01 -0.37719726757E+02  0.43400718405E+02  0.00000000000E+00 0.  1.
         11    1    4    4    0    0  0.20440256107E+01  0.81676365959E+00  0.20639720981E+02  0.20756763380E+02  0.51100000000E-03 0. -1.
        -11    1    4    4    0    0  0.10190287290E+02 -0.33508898522E+01  0.13061993728E+02  0.16902251278E+02  0.51100000000E-03 0.  1.
         12    1    4    4    0    0  0.79099148155E+01 -0.48857566397E+01  0.40180120477E+01  0.10128266937E+02  0.00000000000E+00 0. -1.
</event>
<event>
 8    1  0.5250708E-010  0.9118800E+02  0.7816164E-02  0.1184000E+00
        -11   -1    0    0    0    0  0.00000000000E+00  0.00000000000E+00  0.45593999997E+02  0.45594000000E+02  0.51100000000E-03 0.  1.
         11   -1    0    0    0    0 -0.00000000000E+00 -0.00000000000E+00 -0.45593999997E+02  0.45594000000E+02  0.51100000000E-03 0. -1.
         23    2    1    2    0    0  0.35527136788E-14  0.35527136788E-14 -0.44408920985E-15  0.91188000000E+02  0.91188000000E+02 0.  0.
    9900012    2    3    3    0    0  0.31691168200E+02  0.29582508390E+02  0.20417049205E+01  0.47787268399E+02  0.19999987938E+02 0.  0.
         12    1    3    3    0    0 -0.31691168200E+02 -0.29582508390E+02 -0.20417049205E+01  0.43400731601E+02  0.00000000000E+00 0. -1.
         11    1    4    4    0    0  0.72353825341E+01  0.27281984577E+01 -0.17520923260E+01  0.79286603546E+01  0.51100000000E-03 0. -1.
        -11    1    4    4    0    0  0.27626070208E+01  0.97427733817E+01  0.65985323160E+01  0.12086945839E+02  0.51100000000E-03 0.  1.
        -12    1    4    4    0    0  0.21693178645E+02  0.17111536551E+02 -0.28047350695E+01  0.27771662206E+02  0.00000000000E+00 0.  1.
</event>
<event>
 8    1  0.5250708E-010  0.9118800E+02  0.7816164E-02  0.1184000E+00
        -11   -1    0    0    0    0  0.00000000000E+00  0.00000000000E+00  0.45593999997E+02  0.45594000000E+02  0.51100000000E-03 0. -1.
         11   -1    0    0    0    0 -0.00000000000E+00 -0.00000000000E+00 -0.45593999997E+02  0.45594000000E+02  0.51100000000E-03 0.  1.
         23    2    1    2    0    0  0.00000000000E+00  0.35527136788E-14  0.00000000000E+00  0.91188000000E+02  0.91188000000E+02 0.  0.
    9900012    2    3    3    0    0 -0.16441380059E+02 -0.31892293527E+02  0.24416937705E+02  0.47787260242E+02  0.19999950745E+02 0.  0.
        -12    1    3    3    0    0  0.16441380059E+02  0.31892293527E+02 -0.24416937705E+02  0.43400739758E+02  0.00000000000E+00 0.  1.
         11    1    4    4    0    0 -0.69918541173E+01 -0.21257506617E+02  0.13510634373E+02  0.26140100478E+02  0.51100000000E-03 0. -1.
        -11    1    4    4    0    0 -0.60990420404E+00 -0.21047063446E+01 -0.25932223881E+01  0.33950809342E+01  0.51100000000E-03 0.  1.
         12    1    4    4    0    0 -0.88396217380E+01 -0.85300805658E+01  0.13499525720E+02  0.18252078830E+02  0.00000000000E+00 0. -1.
</event>
<event>
 8    1  0.5250708E-010  0.9118800E+02  0.7816164E-02  0.1184000E+00
        -11   -1    0    0    0    0  0.00000000000E+00  0.00000000000E+00  0.45593999997E+02  0.45594000000E+02  0.51100000000E-03 0.  1.
         11   -1    0    0    0    0 -0.00000000000E+00 -0.00000000000E+00 -0.45593999997E+02  0.45594000000E+02  0.51100000000E-03 0. -1.
         23    2    1    2    0    0  0.00000000000E+00  0.71054273576E-14  0.71054273576E-14  0.91188000000E+02  0.91188000000E+02 0.  0.
    9900012    2    3    3    0    0 -0.11036707490E+02  0.36550032550E+02  0.20637574696E+02  0.47787270963E+02  0.19999999627E+02 0.  0.
        -12    1    3    3    0    0  0.11036707490E+02 -0.36550032550E+02 -0.20637574696E+02  0.43400729037E+02  0.00000000000E+00 0.  1.
         11    1    4    4    0    0 -0.60813238951E+01  0.11554119910E+02  0.11944863635E+02  0.17696326023E+02  0.51100000000E-03 0. -1.
        -11    1    4    4    0    0 -0.34849611388E+01  0.26278916650E+02  0.67885773727E+01  0.27364414802E+02  0.51100000000E-03 0.  1.
        -12    1    4    4    0    0 -0.14704224560E+01 -0.12830040095E+01  0.19041336887E+01  0.27265301377E+01  0.00000000000E+00 0.  1.
</event>
<event>
 8    1  0.5250708E-010  0.9118800E+02  0.7816164E-02  0.1184000E+00
        -11   -1    0    0    0    0  0.00000000000E+00  0.00000000000E+00  0.45593999997E+02  0.45594000000E+02  0.51100000000E-03 0. -1.
         11   -1    0    0    0    0 -0.00000000000E+00 -0.00000000000E+00 -0.45593999997E+02  0.45594000000E+02  0.51100000000E-03 0.  1.
         23    2    1    2    0    0  0.00000000000E+00  0.00000000000E+00  0.00000000000E+00  0.91188000000E+02  0.91188000000E+02 0.  0.
    9900012    2    3    3    0    0 -0.18943319328E+02 -0.25689315182E+02  0.29408051397E+02  0.47787265575E+02  0.19999975063E+02 0.  0.
        -12    1    3    3    0    0  0.18943319328E+02  0.25689315182E+02 -0.29408051397E+02  0.43400734425E+02  0.00000000000E+00 0.  1.
         11    1    4    4    0    0 -0.44586473610E+01 -0.83969362475E+01  0.10331419121E+02  0.14040167234E+02  0.51100000000E-03 0. -1.
        -11    1    4    4    0    0 -0.29326804859E+01 -0.41651735246E+01 -0.27426607275E+01  0.57854536080E+01  0.51100000000E-03 0.  1.
        -12    1    4    4    0    0 -0.11551991481E+02 -0.13127205409E+02  0.21819293003E+02  0.27961644733E+02  0.00000000000E+00 0.  1.
</event>
<event>
 8    1  0.5250708E-010  0.9118800E+02  0.7816164E-02  0.1184000E+00
        -11   -1    0    0    0    0  0.00000000000E+00  0.00000000000E+00  0.45593999997E+02  0.45594000000E+02  0.51100000000E-03 0. -1.
         11   -1    0    0    0    0 -0.00000000000E+00 -0.00000000000E+00 -0.45593999997E+02  0.45594000000E+02  0.51100000000E-03 0.  1.
         23    2    1    2    0    0  0.00000000000E+00 -0.88817841970E-15  0.71054273576E-14  0.91188000000E+02  0.91188000000E+02 0.  0.
    9900012    2    3    3    0    0  0.17343223539E+02 -0.59847439281E+01 -0.39332158368E+02  0.47787271383E+02  0.20000001543E+02 0.  0.
         12    1    3    3    0    0 -0.17343223539E+02  0.59847439281E+01  0.39332158368E+02  0.43400728617E+02  0.00000000000E+00 0. -1.
         11    1    4    4    0    0  0.30097619584E+01  0.13933865605E+01 -0.22363453509E+02  0.22608057109E+02  0.51100000000E-03 0. -1.
        -11    1    4    4    0    0  0.10215398640E+02 -0.32243660970E+00 -0.11295241902E+02  0.15232886287E+02  0.51100000000E-03 0.  1.
        -12    1    4    4    0    0  0.41180629405E+01 -0.70556938789E+01 -0.56734629579E+01  0.99463279872E+01  0.00000000000E+00 0.  1.
</event>
<event>
 8    1  0.5250708E-010  0.9118800E+02  0.7816164E-02  0.1184000E+00
        -11   -1    0    0    0    0  0.00000000000E+00  0.00000000000E+00  0.45593999997E+02  0.45594000000E+02  0.51100000000E-03 0. -1.
         11   -1    0    0    0    0 -0.00000000000E+00 -0.00000000000E+00 -0.45593999997E+02  0.45594000000E+02  0.51100000000E-03 0.  1.
         23    2    1    2    0    0 -0.35527136788E-14  0.00000000000E+00 -0.35527136788E-14  0.91188000000E+02  0.91188000000E+02 0.  0.
    9900012    2    3    3    0    0  0.29643400401E+02 -0.96288265832E+01  0.30202281956E+02  0.47787270467E+02  0.19999997365E+02 0.  0.
        -12    1    3    3    0    0 -0.29643400401E+02  0.96288265832E+01 -0.30202281956E+02  0.43400729533E+02  0.00000000000E+00 0.  1.
         11    1    4    4    0    0  0.32218884884E+01  0.25159960883E+00  0.35379750059E+00  0.32510061100E+01  0.51100000000E-03 0. -1.
        -11    1    4    4    0    0  0.25733311015E+01  0.37110809132E+01  0.82915881931E+00  0.45914767897E+01  0.51100000000E-03 0.  1.
         12    1    4    4    0    0  0.23848180811E+02 -0.13591507105E+02  0.29019325636E+02  0.39944787567E+02  0.00000000000E+00 0. -1.
</event>
<event>
 8    1  0.5250708E-010  0.9118800E+02  0.7816164E-02  0.1184000E+00
        -11   -1    0    0    0    0  0.00000000000E+00  0.00000000000E+00  0.45593999997E+02  0.45594000000E+02  0.51100000000E-03 0. -1.
         11   -1    0    0    0    0 -0.00000000000E+00 -0.00000000000E+00 -0.45593999997E+02  0.45594000000E+02  0.51100000000E-03 0.  1.
         23    2    1    2    0    0  0.00000000000E+00 -0.35527136788E-14  0.00000000000E+00  0.91188000000E+02  0.91188000000E+02 0.  0.
    9900012    2    3    3    0    0 -0.27744272435E+02  0.22145830323E+02 -0.24968797343E+02  0.47787270808E+02  0.19999998923E+02 0.  0.
         12    1    3    3    0    0  0.27744272435E+02 -0.22145830323E+02  0.24968797343E+02  0.43400729192E+02  0.00000000000E+00 0. -1.
         11    1    4    4    0    0 -0.12286630365E+02  0.99989979074E+01 -0.11034287987E+02  0.19305355644E+02  0.51100000000E-03 0. -1.
        -11    1    4    4    0    0 -0.17792651990E+02  0.12967724959E+02 -0.10903809173E+02  0.24568952158E+02  0.51100000000E-03 0.  1.
         12    1    4    4    0    0  0.23350099199E+01 -0.82089254259E+00 -0.30307001825E+01  0.39129630063E+01  0.00000000000E+00 0. -1.
</event>
<event>
 8    1  0.5250708E-010  0.9118800E+02  0.7816164E-02  0.1184000E+00
        -11   -1    0    0    0    0  0.00000000000E+00  0.00000000000E+00  0.45593999997E+02  0.45594000000E+02  0.51100000000E-03 0. -1.
         11   -1    0    0    0    0 -0.00000000000E+00 -0.00000000000E+00 -0.45593999997E+02  0.45594000000E+02  0.51100000000E-03 0.  1.
         23    2    1    2    0    0 -0.35527136788E-14  0.00000000000E+00  0.00000000000E+00  0.91188000000E+02  0.91188000000E+02 0.  0.
    9900012    2    3    3    0    0 -0.28714467793E+02 -0.39027692631E+01 -0.32308982804E+02  0.47787278366E+02  0.20000033380E+02 0.  0.
         12    1    3    3    0    0  0.28714467793E+02  0.39027692631E+01  0.32308982804E+02  0.43400721634E+02  0.00000000000E+00 0. -1.
         11    1    4    4    0    0  0.53404639857E+00 -0.39035800688E+01 -0.52925063781E+01  0.65980123471E+01  0.51100000000E-03 0. -1.
        -11    1    4    4    0    0 -0.93986546505E+01  0.25591499297E+01 -0.35991337307E+01  0.10384494281E+02  0.51100000000E-03 0.  1.
         12    1    4    4    0    0 -0.19849859541E+02 -0.25583391240E+01 -0.23417342696E+02  0.30804771737E+02  0.00000000000E+00 0. -1.
</event>
<event>
 8    1  0.5250708E-010  0.9118800E+02  0.7816164E-02  0.1184000E+00
        -11   -1    0    0    0    0  0.00000000000E+00  0.00000000000E+00  0.45593999997E+02  0.45594000000E+02  0.51100000000E-03 0.  1.
         11   -1    0    0    0    0 -0.00000000000E+00 -0.00000000000E+00 -0.45593999997E+02  0.45594000000E+02  0.51100000000E-03 0. -1.
         23    2    1    2    0    0  0.00000000000E+00  0.71054273576E-14  0.00000000000E+00  0.91188000000E+02  0.91188000000E+02 0.  0.
    9900012    2    3    3    0    0 -0.10720967722E+02 -0.34842504282E+02  0.23551720921E+02  0.47787276367E+02  0.20000024267E+02 0.  0.
        -12    1    3    3    0    0  0.10720967722E+02  0.34842504282E+02 -0.23551720921E+02  0.43400723633E+02  0.00000000000E+00 0.  1.
         11    1    4    4    0    0 -0.24665737269E+01 -0.12355970700E+02  0.59905048025E+01  0.13951349251E+02  0.51100000000E-03 0. -1.
        -11    1    4    4    0    0  0.47027692618E+01 -0.85193252357E+01  0.43966163124E+01  0.10678257183E+02  0.51100000000E-03 0.  1.
         12    1    4    4    0    0 -0.12957163257E+02 -0.13967208347E+02  0.13164599806E+02  0.23157669933E+02  0.00000000000E+00 0. -1.
</event>
<event>
 8    1  0.5250708E-010  0.9118800E+02  0.7816164E-02  0.1184000E+00
        -11   -1    0    0    0    0  0.00000000000E+00  0.00000000000E+00  0.45593999997E+02  0.45594000000E+02  0.51100000000E-03 0. -1.
         11   -1    0    0    0    0 -0.00000000000E+00 -0.00000000000E+00 -0.45593999997E+02  0.45594000000E+02  0.51100000000E-03 0.  1.
         23    2    1    2    0    0 -0.88817841970E-15  0.00000000000E+00  0.00000000000E+00  0.91188000000E+02  0.91188000000E+02 0.  0.
    9900012    2    3    3    0    0 -0.77515151801E+01  0.15729809460E+02  0.39700256106E+02  0.47787271571E+02  0.20000002402E+02 0.  0.
        -12    1    3    3    0    0  0.77515151801E+01 -0.15729809460E+02 -0.39700256106E+02  0.43400728429E+02  0.00000000000E+00 0.  1.
         11    1    4    4    0    0  0.18707339282E+01  0.45634754306E+01  0.11114877581E+00  0.49332856949E+01  0.51100000000E-03 0. -1.
        -11    1    4    4    0    0 -0.29453782694E+00  0.53674007016E+01  0.11517256337E+02  0.12709954233E+02  0.51100000000E-03 0.  1.
         12    1    4    4    0    0 -0.93277112814E+01  0.57989333282E+01  0.28071850994E+02  0.30144031643E+02  0.00000000000E+00 0. -1.
</event>
<event>
 8    1  0.5250708E-010  0.9118800E+02  0.7816164E-02  0.1184000E+00
        -11   -1    0    0    0    0  0.00000000000E+00  0.00000000000E+00  0.45593999997E+02  0.45594000000E+02  0.51100000000E-03 0. -1.
         11   -1    0    0    0    0 -0.00000000000E+00 -0.00000000000E+00 -0.45593999997E+02  0.45594000000E+02  0.51100000000E-03 0.  1.
         23    2    1    2    0    0  0.00000000000E+00  0.00000000000E+00 -0.11102230246E-15  0.91188000000E+02  0.91188000000E+02 0.  0.
    9900012    2    3    3    0    0  0.16180285778E+02  0.40265241902E+02  0.72948064720E+00  0.47787268493E+02  0.19999988369E+02 0.  0.
        -12    1    3    3    0    0 -0.16180285778E+02 -0.40265241902E+02 -0.72948064720E+00  0.43400731507E+02  0.00000000000E+00 0.  1.
         11    1    4    4    0    0  0.92611235994E+00  0.25344966911E+02 -0.39033285819E+01  0.25660495048E+02  0.51100000000E-03 0. -1.
        -11    1    4    4    0    0  0.31740958360E+01  0.18902977687E+01  0.18847291363E+01  0.41473261518E+01  0.51100000000E-03 0.  1.
        -12    1    4    4    0    0  0.12080077582E+02  0.13029977223E+02  0.27480800928E+01  0.17979447294E+02  0.00000000000E+00 0.  1.
</event>
<event>
 8    1  0.5250708E-010  0.9118800E+02  0.7816164E-02  0.1184000E+00
        -11   -1    0    0    0    0  0.00000000000E+00  0.00000000000E+00  0.45593999997E+02  0.45594000000E+02  0.51100000000E-03 0. -1.
         11   -1    0    0    0    0 -0.00000000000E+00 -0.00000000000E+00 -0.45593999997E+02  0.45594000000E+02  0.51100000000E-03 0.  1.
         23    2    1    2    0    0  0.00000000000E+00  0.00000000000E+00 -0.71054273576E-14  0.91188000000E+02  0.91188000000E+02 0.  0.
    9900012    2    3    3    0    0  0.95167435053E+01 -0.11843771851E+02 -0.40654394735E+02  0.47787272473E+02  0.20000006512E+02 0.  0.
         12    1    3    3    0    0 -0.95167435053E+01  0.11843771851E+02  0.40654394735E+02  0.43400727527E+02  0.00000000000E+00 0. -1.
         11    1    4    4    0    0 -0.45404789239E+00  0.10371433881E+01 -0.71930757712E+01  0.72816320428E+01  0.51100000000E-03 0. -1.
        -11    1    4    4    0    0  0.14100223410E+02 -0.12167826010E+02 -0.26809001552E+02  0.32643450408E+02  0.51100000000E-03 0.  1.
         12    1    4    4    0    0 -0.41294320126E+01 -0.71308922897E+00 -0.66523174117E+01  0.78621900220E+01  0.00000000000E+00 0. -1.
</event>
<event>
 8    1  0.5250708E-010  0.9118800E+02  0.7816164E-02  0.1184000E+00
        -11   -1    0    0    0    0  0.00000000000E+00  0.00000000000E+00  0.45593999997E+02  0.45594000000E+02  0.51100000000E-03 0. -1.
         11   -1    0    0    0    0 -0.00000000000E+00 -0.00000000000E+00 -0.45593999997E+02  0.45594000000E+02  0.51100000000E-03 0.  1.
         23    2    1    2    0    0 -0.44408920985E-15  0.00000000000E+00  0.00000000000E+00  0.91188000000E+02  0.91188000000E+02 0.  0.
    9900012    2    3    3    0    0 -0.32865337284E+01  0.42274217463E+02 -0.92580475903E+01  0.47787283286E+02  0.20000055815E+02 0.  0.
         12    1    3    3    0    0  0.32865337284E+01 -0.42274217463E+02  0.92580475903E+01  0.43400716714E+02  0.00000000000E+00 0. -1.
         11    1    4    4    0    0  0.58834662918E+00  0.22041491579E+01 -0.51979948843E+01  0.56765813959E+01  0.51100000000E-03 0. -1.
        -11    1    4    4    0    0  0.28447414437E+01  0.24320674432E+02 -0.48802890090E+01  0.24968079217E+02  0.51100000000E-03 0.  1.
        -12    1    4    4    0    0 -0.67196218013E+01  0.15749393874E+02  0.82023630305E+00  0.17142622674E+02  0.00000000000E+00 0.  1.
</event>
<event>
 8    1  0.5250708E-010  0.9118800E+02  0.7816164E-02  0.1184000E+00
        -11   -1    0    0    0    0  0.00000000000E+00  0.00000000000E+00  0.45593999997E+02  0.45594000000E+02  0.51100000000E-03 0. -1.
         11   -1    0    0    0    0 -0.00000000000E+00 -0.00000000000E+00 -0.45593999997E+02  0.45594000000E+02  0.51100000000E-03 0.  1.
         23    2    1    2    0    0  0.35527136788E-14  0.00000000000E+00  0.00000000000E+00  0.91188000000E+02  0.91188000000E+02 0.  0.
    9900012    2    3    3    0    0 -0.27832710643E+02 -0.11427410946E+02  0.31279030828E+02  0.47787271064E+02  0.20000000087E+02 0.  0.
        -12    1    3    3    0    0  0.27832710643E+02  0.11427410946E+02 -0.31279030828E+02  0.43400728936E+02  0.00000000000E+00 0.  1.
         11    1    4    4    0    0 -0.56112749521E+01 -0.63501711637E+01  0.12149190241E+02  0.14812626511E+02  0.51100000000E-03 0. -1.
        -11    1    4    4    0    0 -0.22569409014E+02 -0.43446074675E+01  0.12244925639E+02  0.26042120525E+02  0.51100000000E-03 0.  1.
         12    1    4    4    0    0  0.34797332283E+00 -0.73263231437E+00  0.68849149480E+01  0.69325240268E+01  0.00000000000E+00 0. -1.
</event>
<event>
 8    1  0.5250708E-010  0.9118800E+02  0.7816164E-02  0.1184000E+00
        -11   -1    0    0    0    0  0.00000000000E+00  0.00000000000E+00  0.45593999997E+02  0.45594000000E+02  0.51100000000E-03 0. -1.
         11   -1    0    0    0    0 -0.00000000000E+00 -0.00000000000E+00 -0.45593999997E+02  0.45594000000E+02  0.51100000000E-03 0.  1.
         23    2    1    2    0    0  0.00000000000E+00  0.00000000000E+00  0.00000000000E+00  0.91188000000E+02  0.91188000000E+02 0.  0.
    9900012    2    3    3    0    0 -0.95795628022E+01  0.17130149901E+02 -0.38709343291E+02  0.47787270546E+02  0.19999997727E+02 0.  0.
         12    1    3    3    0    0  0.95795628022E+01 -0.17130149901E+02  0.38709343291E+02  0.43400729454E+02  0.00000000000E+00 0. -1.
         11    1    4    4    0    0 -0.76690894911E+01  0.12560502642E+02 -0.19234174217E+02  0.24218476796E+02  0.51100000000E-03 0. -1.
        -11    1    4    4    0    0 -0.57530519898E+01 -0.71984844742E+00 -0.13578526234E+02  0.14764557695E+02  0.51100000000E-03 0.  1.
         12    1    4    4    0    0  0.38425786787E+01  0.52894957061E+01 -0.58966428407E+01  0.88042360554E+01  0.00000000000E+00 0. -1.
</event>
<event>
 8    1  0.5250708E-010  0.9118800E+02  0.7816164E-02  0.1184000E+00
        -11   -1    0    0    0    0  0.00000000000E+00  0.00000000000E+00  0.45593999997E+02  0.45594000000E+02  0.51100000000E-03 0. -1.
         11   -1    0    0    0    0 -0.00000000000E+00 -0.00000000000E+00 -0.45593999997E+02  0.45594000000E+02  0.51100000000E-03 0.  1.
         23    2    1    2    0    0  0.00000000000E+00 -0.55511151231E-16  0.00000000000E+00  0.91188000000E+02  0.91188000000E+02 0.  0.
    9900012    2    3    3    0    0  0.23825775200E+02 -0.32799110930E+00 -0.36274620384E+02  0.47787271596E+02  0.20000002514E+02 0.  0.
         12    1    3    3    0    0 -0.23825775200E+02  0.32799110930E+00  0.36274620384E+02  0.43400728404E+02  0.00000000000E+00 0. -1.
         11    1    4    4    0    0  0.73498073196E+01 -0.35771481252E+00 -0.63878027951E+01  0.97443138461E+01  0.51100000000E-03 0. -1.
        -11    1    4    4    0    0  0.16115672738E+02 -0.25714541244E+01 -0.31121789692E+02  0.35141045488E+02  0.51100000000E-03 0.  1.
         12    1    4    4    0    0  0.36029514256E+00  0.26011778276E+01  0.12349721030E+01  0.29019122619E+01  0.00000000000E+00 0. -1.
</event>
<event>
 8    1  0.5250708E-010  0.9118800E+02  0.7816164E-02  0.1184000E+00
        -11   -1    0    0    0    0  0.00000000000E+00  0.00000000000E+00  0.45593999997E+02  0.45594000000E+02  0.51100000000E-03 0. -1.
         11   -1    0    0    0    0 -0.00000000000E+00 -0.00000000000E+00 -0.45593999997E+02  0.45594000000E+02  0.51100000000E-03 0.  1.
         23    2    1    2    0    0  0.00000000000E+00 -0.17763568394E-14  0.17763568394E-14  0.91188000000E+02  0.91188000000E+02 0.  0.
    9900012    2    3    3    0    0 -0.40417219511E+02 -0.12969808227E+02 -0.90474161873E+01  0.47787270766E+02  0.19999998729E+02 0.  0.
        -12    1    3    3    0    0  0.40417219511E+02  0.12969808227E+02  0.90474161873E+01  0.43400729234E+02  0.00000000000E+00 0.  1.
         11    1    4    4    0    0 -0.73518024446E+01 -0.10512216802E+02  0.98966923564E-01  0.12828308383E+02  0.51100000000E-03 0.  1.
        -11    1    4    4    0    0 -0.18685598658E+02 -0.14571485957E+01 -0.19373444660E+01  0.18842191568E+02  0.51100000000E-03 0. -1.
        -12    1    4    4    0    0 -0.14379818408E+02 -0.10004428295E+01 -0.72090386449E+01  0.16116770814E+02  0.00000000000E+00 0.  1.
</event>
<event>
 8    1  0.5250708E-010  0.9118800E+02  0.7816164E-02  0.1184000E+00
        -11   -1    0    0    0    0  0.00000000000E+00  0.00000000000E+00  0.45593999997E+02  0.45594000000E+02  0.51100000000E-03 0. -1.
         11   -1    0    0    0    0 -0.00000000000E+00 -0.00000000000E+00 -0.45593999997E+02  0.45594000000E+02  0.51100000000E-03 0.  1.
         23    2    1    2    0    0  0.00000000000E+00 -0.71054273576E-14  0.35527136788E-14  0.91188000000E+02  0.91188000000E+02 0.  0.
    9900012    2    3    3    0    0  0.11363987764E+02  0.32783740231E+02 -0.26071216168E+02  0.47787283947E+02  0.20000058828E+02 0.  0.
         12    1    3    3    0    0 -0.11363987764E+02 -0.32783740231E+02  0.26071216168E+02  0.43400716053E+02  0.00000000000E+00 0. -1.
         11    1    4    4    0    0  0.16488774825E+01  0.56805421760E-01 -0.19961808437E+01  0.25897416918E+01  0.51100000000E-03 0. -1.
        -11    1    4    4    0    0  0.11635604043E+01  0.33597178822E+00 -0.79071671381E+01  0.79993776176E+01  0.51100000000E-03 0.  1.
        -12    1    4    4    0    0  0.85515498774E+01  0.32390963021E+02 -0.16167868187E+02  0.37198164638E+02  0.00000000000E+00 0.  1.
</event>
<event>
 8    1  0.5250708E-010  0.9118800E+02  0.7816164E-02  0.1184000E+00
        -11   -1    0    0    0    0  0.00000000000E+00  0.00000000000E+00  0.45593999997E+02  0.45594000000E+02  0.51100000000E-03 0.  1.
         11   -1    0    0    0    0 -0.00000000000E+00 -0.00000000000E+00 -0.45593999997E+02  0.45594000000E+02  0.51100000000E-03 0. -1.
         23    2    1    2    0    0  0.00000000000E+00  0.00000000000E+00  0.35527136788E-14  0.91188000000E+02  0.91188000000E+02 0.  0.
    9900012    2    3    3    0    0  0.14585716760E+02  0.33040935351E+02  0.24066093487E+02  0.47787269614E+02  0.19999993479E+02 0.  0.
        -12    1    3    3    0    0 -0.14585716760E+02 -0.33040935351E+02 -0.24066093487E+02  0.43400730386E+02  0.00000000000E+00 0.  1.
         11    1    4    4    0    0 -0.33469316502E+01  0.76456073290E+01  0.11747506109E+01  0.84283629585E+01  0.51100000000E-03 0. -1.
        -11    1    4    4    0    0  0.14649932843E+01 -0.18528203767E+00  0.18567390693E+01  0.23723437754E+01  0.51100000000E-03 0.  1.
         12    1    4    4    0    0  0.16467655126E+02  0.25580610060E+02  0.21034603807E+02  0.36986562880E+02  0.00000000000E+00 0. -1.
</event>
<event>
 8    1  0.5250708E-010  0.9118800E+02  0.7816164E-02  0.1184000E+00
        -11   -1    0    0    0    0  0.00000000000E+00  0.00000000000E+00  0.45593999997E+02  0.45594000000E+02  0.51100000000E-03 0. -1.
         11   -1    0    0    0    0 -0.00000000000E+00 -0.00000000000E+00 -0.45593999997E+02  0.45594000000E+02  0.51100000000E-03 0.  1.
         23    2    1    2    0    0 -0.35527136788E-14  0.00000000000E+00  0.35527136788E-14  0.91188000000E+02  0.91188000000E+02 0.  0.
    9900012    2    3    3    0    0 -0.31359956402E+02  0.20811619505E+02 -0.21611400205E+02  0.47787274306E+02  0.20000014870E+02 0.  0.
         12    1    3    3    0    0  0.31359956402E+02 -0.20811619505E+02  0.21611400205E+02  0.43400725694E+02  0.00000000000E+00 0. -1.
         11    1    4    4    0    0 -0.58600646604E+01 -0.63465006142E+00 -0.35638082400E+01  0.68879509259E+01  0.51100000000E-03 0. -1.
        -11    1    4    4    0    0 -0.16595636428E+02  0.19234249391E+02 -0.18930870954E+02  0.31682003937E+02  0.51100000000E-03 0.  1.
        -12    1    4    4    0    0 -0.89042553136E+01  0.22120201755E+01  0.88327898947E+00  0.92173194433E+01  0.00000000000E+00 0.  1.
</event>
<event>
 8    1  0.5250708E-010  0.9118800E+02  0.7816164E-02  0.1184000E+00
        -11   -1    0    0    0    0  0.00000000000E+00  0.00000000000E+00  0.45593999997E+02  0.45594000000E+02  0.51100000000E-03 0. -1.
         11   -1    0    0    0    0 -0.00000000000E+00 -0.00000000000E+00 -0.45593999997E+02  0.45594000000E+02  0.51100000000E-03 0.  1.
         23    2    1    2    0    0 -0.35527136788E-14  0.00000000000E+00  0.00000000000E+00  0.91188000000E+02  0.91188000000E+02 0.  0.
    9900012    2    3    3    0    0  0.28981270945E+02  0.67722691155E+01 -0.31588703384E+02  0.47787264107E+02  0.19999968371E+02 0.  0.
         12    1    3    3    0    0 -0.28981270945E+02 -0.67722691155E+01  0.31588703384E+02  0.43400735893E+02  0.00000000000E+00 0. -1.
         11    1    4    4    0    0  0.32157865405E+01 -0.16971695436E+01  0.11188882294E+01  0.38044156798E+01  0.51100000000E-03 0. -1.
        -11    1    4    4    0    0  0.12632855945E+02 -0.10218702331E+01 -0.18546187458E+02  0.22463177371E+02  0.51100000000E-03 0.  1.
         12    1    4    4    0    0  0.13132628459E+02  0.94913088922E+01 -0.14161404155E+02  0.21519671057E+02  0.00000000000E+00 0. -1.
</event>
<event>
 8    1  0.5250708E-010  0.9118800E+02  0.7816164E-02  0.1184000E+00
        -11   -1    0    0    0    0  0.00000000000E+00  0.00000000000E+00  0.45593999997E+02  0.45594000000E+02  0.51100000000E-03 0. -1.
         11   -1    0    0    0    0 -0.00000000000E+00 -0.00000000000E+00 -0.45593999997E+02  0.45594000000E+02  0.51100000000E-03 0.  1.
         23    2    1    2    0    0  0.00000000000E+00  0.00000000000E+00  0.00000000000E+00  0.91188000000E+02  0.91188000000E+02 0.  0.
    9900012    2    3    3    0    0 -0.38550348009E+02 -0.58380082792E+01 -0.19063359996E+02  0.47787269976E+02  0.19999995127E+02 0.  0.
         12    1    3    3    0    0  0.38550348009E+02  0.58380082792E+01  0.19063359996E+02  0.43400730024E+02  0.00000000000E+00 0. -1.
         11    1    4    4    0    0 -0.13006413219E+02 -0.22317100291E+01  0.27111620911E+01  0.13472108766E+02  0.51100000000E-03 0. -1.
        -11    1    4    4    0    0 -0.45498364091E+01  0.47927971357E+00 -0.68403055407E+01  0.82292466572E+01  0.51100000000E-03 0.  1.
        -12    1    4    4    0    0 -0.20994098382E+02 -0.40855779638E+01 -0.14934216547E+02  0.26085914552E+02  0.00000000000E+00 0.  1.
</event>
<event>
 8    1  0.5250708E-010  0.9118800E+02  0.7816164E-02  0.1184000E+00
        -11   -1    0    0    0    0  0.00000000000E+00  0.00000000000E+00  0.45593999997E+02  0.45594000000E+02  0.51100000000E-03 0.  1.
         11   -1    0    0    0    0 -0.00000000000E+00 -0.00000000000E+00 -0.45593999997E+02  0.45594000000E+02  0.51100000000E-03 0. -1.
         23    2    1    2    0    0  0.00000000000E+00  0.00000000000E+00  0.00000000000E+00  0.91188000000E+02  0.91188000000E+02 0.  0.
    9900012    2    3    3    0    0 -0.25951338963E+02 -0.28078635284E+02 -0.20536344288E+02  0.47787272009E+02  0.20000004400E+02 0.  0.
        -12    1    3    3    0    0  0.25951338963E+02  0.28078635284E+02  0.20536344288E+02  0.43400727991E+02  0.00000000000E+00 0.  1.
         11    1    4    4    0    0 -0.77180257681E+01 -0.13497238605E+02 -0.46666141983E+01  0.16233319441E+02  0.51100000000E-03 0.  1.
        -11    1    4    4    0    0 -0.12132015351E+02 -0.11043060392E+02 -0.17834541784E+02  0.24232330887E+02  0.51100000000E-03 0. -1.
         12    1    4    4    0    0 -0.61012978437E+01 -0.35383362860E+01  0.19648116943E+01  0.73216216813E+01  0.00000000000E+00 0. -1.
</event>
<event>
 8    1  0.5250708E-010  0.9118800E+02  0.7816164E-02  0.1184000E+00
        -11   -1    0    0    0    0  0.00000000000E+00  0.00000000000E+00  0.45593999997E+02  0.45594000000E+02  0.51100000000E-03 0. -1.
         11   -1    0    0    0    0 -0.00000000000E+00 -0.00000000000E+00 -0.45593999997E+02  0.45594000000E+02  0.51100000000E-03 0.  1.
         23    2    1    2    0    0  0.00000000000E+00 -0.22204460493E-15  0.00000000000E+00  0.91188000000E+02  0.91188000000E+02 0.  0.
    9900012    2    3    3    0    0  0.11921570380E+02 -0.95625258343E+00 -0.41720313934E+02  0.47787275881E+02  0.20000022051E+02 0.  0.
         12    1    3    3    0    0 -0.11921570380E+02  0.95625258343E+00  0.41720313934E+02  0.43400724119E+02  0.00000000000E+00 0. -1.
         11    1    4    4    0    0  0.75856216238E+01 -0.86484624275E+01 -0.23267151474E+02  0.25955691009E+02  0.51100000000E-03 0. -1.
        -11    1    4    4    0    0  0.61502103612E+01  0.41501791130E+01 -0.96660978631E+01  0.12185340468E+02  0.51100000000E-03 0.  1.
        -12    1    4    4    0    0 -0.18142616052E+01  0.35420307311E+01 -0.87870645969E+01  0.96462444040E+01  0.00000000000E+00 0.  1.
</event>
<event>
 8    1  0.5250708E-010  0.9118800E+02  0.7816164E-02  0.1184000E+00
        -11   -1    0    0    0    0  0.00000000000E+00  0.00000000000E+00  0.45593999997E+02  0.45594000000E+02  0.51100000000E-03 0. -1.
         11   -1    0    0    0    0 -0.00000000000E+00 -0.00000000000E+00 -0.45593999997E+02  0.45594000000E+02  0.51100000000E-03 0.  1.
         23    2    1    2    0    0  0.00000000000E+00  0.00000000000E+00  0.00000000000E+00  0.91188000000E+02  0.91188000000E+02 0.  0.
    9900012    2    3    3    0    0  0.27334620087E+02  0.26129727257E+02  0.21299741868E+02  0.47787272985E+02  0.20000008846E+02 0.  0.
        -12    1    3    3    0    0 -0.27334620087E+02 -0.26129727257E+02 -0.21299741868E+02  0.43400727015E+02  0.00000000000E+00 0.  1.
         11    1    4    4    0    0  0.12632263947E+02  0.17307668607E+02  0.16834665829E+01  0.21493337224E+02  0.51100000000E-03 0. -1.
        -11    1    4    4    0    0  0.23590028220E+01  0.19910528555E+01  0.56742791925E+01  0.64596153448E+01  0.51100000000E-03 0.  1.
         12    1    4    4    0    0  0.12343353318E+02  0.68310057946E+01  0.13941996092E+02  0.19834320415E+02  0.00000000000E+00 0. -1.
</event>
<event>
 8    1  0.5250708E-010  0.9118800E+02  0.7816164E-02  0.1184000E+00
        -11   -1    0    0    0    0  0.00000000000E+00  0.00000000000E+00  0.45593999997E+02  0.45594000000E+02  0.51100000000E-03 0. -1.
         11   -1    0    0    0    0 -0.00000000000E+00 -0.00000000000E+00 -0.45593999997E+02  0.45594000000E+02  0.51100000000E-03 0.  1.
         23    2    1    2    0    0  0.00000000000E+00  0.00000000000E+00  0.00000000000E+00  0.91188000000E+02  0.91188000000E+02 0.  0.
    9900012    2    3    3    0    0  0.19973680429E+02  0.19741295678E+02  0.33090129233E+02  0.47787270541E+02  0.19999997705E+02 0.  0.
        -12    1    3    3    0    0 -0.19973680429E+02 -0.19741295678E+02 -0.33090129233E+02  0.43400729459E+02  0.00000000000E+00 0.  1.
         11    1    4    4    0    0  0.17838450820E+00  0.21011750177E+01 -0.20432596694E+01  0.29362676693E+01  0.51100000000E-03 0.  1.
        -11    1    4    4    0    0  0.13153334901E+02  0.73325501353E+01  0.14851876363E+02  0.21150762215E+02  0.51100000000E-03 0. -1.
        -12    1    4    4    0    0  0.66419610191E+01  0.10307570525E+02  0.20281512539E+02  0.23700240657E+02  0.00000000000E+00 0.  1.
</event>
<event>
 8    1  0.5250708E-010  0.9118800E+02  0.7816164E-02  0.1184000E+00
        -11   -1    0    0    0    0  0.00000000000E+00  0.00000000000E+00  0.45593999997E+02  0.45594000000E+02  0.51100000000E-03 0. -1.
         11   -1    0    0    0    0 -0.00000000000E+00 -0.00000000000E+00 -0.45593999997E+02  0.45594000000E+02  0.51100000000E-03 0.  1.
         23    2    1    2    0    0 -0.11102230246E-15  0.35527136788E-14  0.71054273576E-14  0.91188000000E+02  0.91188000000E+02 0.  0.
    9900012    2    3    3    0    0 -0.19295714722E+00 -0.27871390153E+02 -0.33268196698E+02  0.47787256539E+02  0.19999933862E+02 0.  0.
         12    1    3    3    0    0  0.19295714722E+00  0.27871390153E+02  0.33268196698E+02  0.43400743461E+02  0.00000000000E+00 0. -1.
         11    1    4    4    0    0 -0.16724589638E+00 -0.76266772846E+01 -0.73947891791E+00  0.76642681923E+01  0.51100000000E-03 0. -1.
        -11    1    4    4    0    0 -0.41330255602E+01 -0.28260601647E+01 -0.11284395348E+02  0.12345286346E+02  0.51100000000E-03 0.  1.
         12    1    4    4    0    0  0.41073143094E+01 -0.17418652703E+02 -0.21244322432E+02  0.27777702001E+02  0.00000000000E+00 0. -1.
</event>
<event>
 8    1  0.5250708E-010  0.9118800E+02  0.7816164E-02  0.1184000E+00
        -11   -1    0    0    0    0  0.00000000000E+00  0.00000000000E+00  0.45593999997E+02  0.45594000000E+02  0.51100000000E-03 0. -1.
         11   -1    0    0    0    0 -0.00000000000E+00 -0.00000000000E+00 -0.45593999997E+02  0.45594000000E+02  0.51100000000E-03 0.  1.
         23    2    1    2    0    0  0.22204460493E-15  0.00000000000E+00  0.00000000000E+00  0.91188000000E+02  0.91188000000E+02 0.  0.
    9900012    2    3    3    0    0  0.31005088653E+00 -0.12567992912E+02  0.41540014822E+02  0.47787269490E+02  0.19999992911E+02 0.  0.
        -12    1    3    3    0    0 -0.31005088653E+00  0.12567992912E+02 -0.41540014822E+02  0.43400730510E+02  0.00000000000E+00 0.  1.
         11    1    4    4    0    0 -0.48270821478E+01  0.10612715593E+01  0.50693104229E+01  0.70798960309E+01  0.51100000000E-03 0. -1.
        -11    1    4    4    0    0 -0.73430756425E+00 -0.30434709667E+01  0.10931751687E+01  0.33161657580E+01  0.51100000000E-03 0.  1.
         12    1    4    4    0    0  0.58714405986E+01 -0.10585793505E+02  0.35377529231E+02  0.37391207701E+02  0.00000000000E+00 0. -1.
</event>
<event>
 8    1  0.5250708E-010  0.9118800E+02  0.7816164E-02  0.1184000E+00
        -11   -1    0    0    0    0  0.00000000000E+00  0.00000000000E+00  0.45593999997E+02  0.45594000000E+02  0.51100000000E-03 0. -1.
         11   -1    0    0    0    0 -0.00000000000E+00 -0.00000000000E+00 -0.45593999997E+02  0.45594000000E+02  0.51100000000E-03 0.  1.
         23    2    1    2    0    0  0.00000000000E+00  0.00000000000E+00  0.35527136788E-14  0.91188000000E+02  0.91188000000E+02 0.  0.
    9900012    2    3    3    0    0 -0.13267355182E+02 -0.34192148796E+02 -0.23205549240E+02  0.47787271108E+02  0.20000000290E+02 0.  0.
         12    1    3    3    0    0  0.13267355182E+02  0.34192148796E+02  0.23205549240E+02  0.43400728892E+02  0.00000000000E+00 0. -1.
         11    1    4    4    0    0  0.99497952226E+00 -0.15597794430E+02 -0.97984926917E+01  0.18446995274E+02  0.51100000000E-03 0. -1.
        -11    1    4    4    0    0  0.11737008943E+01 -0.61371441706E+01 -0.28063627811E+01  0.68496558074E+01  0.51100000000E-03 0.  1.
         12    1    4    4    0    0 -0.15436035599E+02 -0.12457210195E+02 -0.10600693767E+02  0.22490620027E+02  0.00000000000E+00 0. -1.
</event>
<event>
 8    1  0.5250708E-010  0.9118800E+02  0.7816164E-02  0.1184000E+00
        -11   -1    0    0    0    0  0.00000000000E+00  0.00000000000E+00  0.45593999997E+02  0.45594000000E+02  0.51100000000E-03 0. -1.
         11   -1    0    0    0    0 -0.00000000000E+00 -0.00000000000E+00 -0.45593999997E+02  0.45594000000E+02  0.51100000000E-03 0.  1.
         23    2    1    2    0    0  0.00000000000E+00  0.00000000000E+00  0.00000000000E+00  0.91188000000E+02  0.91188000000E+02 0.  0.
    9900012    2    3    3    0    0  0.69284814735E+01  0.23140182646E+02 -0.36057610559E+02  0.47787272038E+02  0.20000004530E+02 0.  0.
         12    1    3    3    0    0 -0.69284814735E+01 -0.23140182646E+02  0.36057610559E+02  0.43400727962E+02  0.00000000000E+00 0. -1.
         11    1    4    4    0    0  0.45265397334E+01  0.11983815964E+02 -0.13272015932E+02  0.18445807496E+02  0.51100000000E-03 0. -1.
        -11    1    4    4    0    0 -0.28125905114E+01 -0.40158071710E+00  0.44492395272E+00  0.28757416508E+01  0.51100000000E-03 0.  1.
        -12    1    4    4    0    0  0.52145322516E+01  0.11557947399E+02 -0.23230518579E+02  0.26465722891E+02  0.00000000000E+00 0.  1.
</event>
<event>
 8    1  0.5250708E-010  0.9118800E+02  0.7816164E-02  0.1184000E+00
        -11   -1    0    0    0    0  0.00000000000E+00  0.00000000000E+00  0.45593999997E+02  0.45594000000E+02  0.51100000000E-03 0. -1.
         11   -1    0    0    0    0 -0.00000000000E+00 -0.00000000000E+00 -0.45593999997E+02  0.45594000000E+02  0.51100000000E-03 0.  1.
         23    2    1    2    0    0 -0.71054273576E-14  0.11102230246E-15  0.00000000000E+00  0.91188000000E+02  0.91188000000E+02 0.  0.
    9900012    2    3    3    0    0  0.43075406784E+02  0.68314520869E+00 -0.52598361668E+01  0.47787271510E+02  0.20000002122E+02 0.  0.
         12    1    3    3    0    0 -0.43075406784E+02 -0.68314520869E+00  0.52598361668E+01  0.43400728490E+02  0.00000000000E+00 0. -1.
         11    1    4    4    0    0  0.23726766009E+02  0.68637296568E+01 -0.82005296112E+00  0.24713208961E+02  0.51100000000E-03 0. -1.
        -11    1    4    4    0    0  0.14354651954E+02 -0.18971593256E+01 -0.69131855245E+01  0.16045166892E+02  0.51100000000E-03 0.  1.
         12    1    4    4    0    0  0.49939888205E+01 -0.42834251224E+01  0.24734023188E+01  0.70288956565E+01  0.00000000000E+00 0. -1.
</event>
<event>
 8    1  0.5250708E-010  0.9118800E+02  0.7816164E-02  0.1184000E+00
        -11   -1    0    0    0    0  0.00000000000E+00  0.00000000000E+00  0.45593999997E+02  0.45594000000E+02  0.51100000000E-03 0. -1.
         11   -1    0    0    0    0 -0.00000000000E+00 -0.00000000000E+00 -0.45593999997E+02  0.45594000000E+02  0.51100000000E-03 0.  1.
         23    2    1    2    0    0 -0.35527136788E-14  0.00000000000E+00  0.00000000000E+00  0.91188000000E+02  0.91188000000E+02 0.  0.
    9900012    2    3    3    0    0  0.20449978478E+02  0.18717284985E+02 -0.33392884655E+02  0.47787272788E+02  0.20000007948E+02 0.  0.
         12    1    3    3    0    0 -0.20449978478E+02 -0.18717284985E+02  0.33392884655E+02  0.43400727212E+02  0.00000000000E+00 0. -1.
         11    1    4    4    0    0  0.12579426538E+02  0.17296395254E+02 -0.14991059712E+02  0.26117793405E+02  0.51100000000E-03 0. -1.
        -11    1    4    4    0    0  0.99179716615E+00  0.28624762062E+01 -0.11216458173E+02  0.11618363303E+02  0.51100000000E-03 0.  1.
        -12    1    4    4    0    0  0.68787547742E+01 -0.14415864751E+01 -0.71853667708E+01  0.10051116079E+02  0.00000000000E+00 0.  1.
</event>
<event>
 8    1  0.5250708E-010  0.9118800E+02  0.7816164E-02  0.1184000E+00
        -11   -1    0    0    0    0  0.00000000000E+00  0.00000000000E+00  0.45593999997E+02  0.45594000000E+02  0.51100000000E-03 0. -1.
         11   -1    0    0    0    0 -0.00000000000E+00 -0.00000000000E+00 -0.45593999997E+02  0.45594000000E+02  0.51100000000E-03 0.  1.
         23    2    1    2    0    0  0.00000000000E+00  0.00000000000E+00  0.00000000000E+00  0.91188000000E+02  0.91188000000E+02 0.  0.
    9900012    2    3    3    0    0  0.11281046615E+02 -0.31215896832E+02  0.27963000057E+02  0.47787267288E+02  0.19999982873E+02 0.  0.
        -12    1    3    3    0    0 -0.11281046615E+02  0.31215896832E+02 -0.27963000057E+02  0.43400732712E+02  0.00000000000E+00 0.  1.
         11    1    4    4    0    0  0.15322077516E+01 -0.10024010232E+02  0.12655577182E+02  0.16217030424E+02  0.51100000000E-03 0. -1.
        -11    1    4    4    0    0  0.15997454564E+01 -0.14962450060E+02  0.26514696530E+01  0.15279541515E+02  0.51100000000E-03 0.  1.
         12    1    4    4    0    0  0.81490934074E+01 -0.62294365393E+01  0.12655953223E+02  0.16290695348E+02  0.00000000000E+00 0. -1.
</event>
<event>
 8    1  0.5250708E-010  0.9118800E+02  0.7816164E-02  0.1184000E+00
        -11   -1    0    0    0    0  0.00000000000E+00  0.00000000000E+00  0.45593999997E+02  0.45594000000E+02  0.51100000000E-03 0. -1.
         11   -1    0    0    0    0 -0.00000000000E+00 -0.00000000000E+00 -0.45593999997E+02  0.45594000000E+02  0.51100000000E-03 0.  1.
         23    2    1    2    0    0  0.00000000000E+00  0.00000000000E+00  0.00000000000E+00  0.91188000000E+02  0.91188000000E+02 0.  0.
    9900012    2    3    3    0    0 -0.14401038603E+02  0.84077598066E+01 -0.40069223871E+02  0.47787273746E+02  0.20000012316E+02 0.  0.
         12    1    3    3    0    0  0.14401038603E+02 -0.84077598066E+01  0.40069223871E+02  0.43400726254E+02  0.00000000000E+00 0. -1.
         11    1    4    4    0    0 -0.79016913338E+01  0.19414059019E+00 -0.21727057530E+02  0.23120109119E+02  0.51100000000E-03 0.  1.
        -11    1    4    4    0    0 -0.87559069433E+01  0.93823667140E+01 -0.11016545833E+02  0.16913278627E+02  0.51100000000E-03 0. -1.
         12    1    4    4    0    0  0.22565596741E+01 -0.11687474976E+01 -0.73256205073E+01  0.77538859995E+01  0.00000000000E+00 0. -1.
</event>
<event>
 8    1  0.5250708E-010  0.9118800E+02  0.7816164E-02  0.1184000E+00
        -11   -1    0    0    0    0  0.00000000000E+00  0.00000000000E+00  0.45593999997E+02  0.45594000000E+02  0.51100000000E-03 0. -1.
         11   -1    0    0    0    0 -0.00000000000E+00 -0.00000000000E+00 -0.45593999997E+02  0.45594000000E+02  0.51100000000E-03 0.  1.
         23    2    1    2    0    0 -0.17763568394E-14  0.00000000000E+00  0.00000000000E+00  0.91188000000E+02  0.91188000000E+02 0.  0.
    9900012    2    3    3    0    0  0.14555896039E+02  0.29901420284E+02  0.27886453231E+02  0.47787270532E+02  0.19999997664E+02 0.  0.
        -12    1    3    3    0    0 -0.14555896039E+02 -0.29901420284E+02 -0.27886453231E+02  0.43400729468E+02  0.00000000000E+00 0.  1.
         11    1    4    4    0    0  0.50896406127E+01  0.13079715720E+02  0.69770427249E+01  0.15673625309E+02  0.51100000000E-03 0. -1.
        -11    1    4    4    0    0 -0.31718852408E+01 -0.69015576325E-01  0.17880263602E+01  0.36417931924E+01  0.51100000000E-03 0.  1.
        -12    1    4    4    0    0  0.12638140667E+02  0.16890720140E+02  0.19121384146E+02  0.28471852030E+02  0.00000000000E+00 0.  1.
</event>
<event>
 8    1  0.5250708E-010  0.9118800E+02  0.7816164E-02  0.1184000E+00
        -11   -1    0    0    0    0  0.00000000000E+00  0.00000000000E+00  0.45593999997E+02  0.45594000000E+02  0.51100000000E-03 0. -1.
         11   -1    0    0    0    0 -0.00000000000E+00 -0.00000000000E+00 -0.45593999997E+02  0.45594000000E+02  0.51100000000E-03 0.  1.
         23    2    1    2    0    0 -0.88817841970E-15  0.00000000000E+00  0.35527136788E-14  0.91188000000E+02  0.91188000000E+02 0.  0.
    9900012    2    3    3    0    0 -0.61184760357E+01  0.37359834273E+02  0.21223330389E+02  0.47787277440E+02  0.20000029160E+02 0.  0.
        -12    1    3    3    0    0  0.61184760357E+01 -0.37359834273E+02 -0.21223330389E+02  0.43400722560E+02  0.00000000000E+00 0.  1.
         11    1    4    4    0    0 -0.13589919504E+01  0.11890958589E+02  0.19331702738E+01  0.12123485590E+02  0.51100000000E-03 0. -1.
        -11    1    4    4    0    0 -0.37989261492E+01  0.13045865087E+02  0.11227077419E+01  0.13634034938E+02  0.51100000000E-03 0.  1.
        -12    1    4    4    0    0 -0.96055793606E+00  0.12423010597E+02  0.18167452374E+02  0.22029756912E+02  0.00000000000E+00 0.  1.
</event>
<event>
 8    1  0.5250708E-010  0.9118800E+02  0.7816164E-02  0.1184000E+00
        -11   -1    0    0    0    0  0.00000000000E+00  0.00000000000E+00  0.45593999997E+02  0.45594000000E+02  0.51100000000E-03 0. -1.
         11   -1    0    0    0    0 -0.00000000000E+00 -0.00000000000E+00 -0.45593999997E+02  0.45594000000E+02  0.51100000000E-03 0.  1.
         23    2    1    2    0    0  0.00000000000E+00 -0.35527136788E-14  0.00000000000E+00  0.91188000000E+02  0.91188000000E+02 0.  0.
    9900012    2    3    3    0    0 -0.10083925875E+02  0.25510884937E+02 -0.33632301212E+02  0.47787280004E+02  0.20000040850E+02 0.  0.
         12    1    3    3    0    0  0.10083925875E+02 -0.25510884937E+02  0.33632301212E+02  0.43400719996E+02  0.00000000000E+00 0. -1.
         11    1    4    4    0    0  0.13956624387E+00  0.37601178616E+01  0.55370226050E+00  0.38032290917E+01  0.51100000000E-03 0. -1.
        -11    1    4    4    0    0 -0.24971325459E+01  0.19413221910E+02 -0.23261261935E+02  0.30400578332E+02  0.51100000000E-03 0.  1.
        -12    1    4    4    0    0 -0.77263595732E+01  0.23375451658E+01 -0.10924741538E+02  0.13583472580E+02  0.00000000000E+00 0.  1.
</event>
<event>
 8    1  0.5250708E-010  0.9118800E+02  0.7816164E-02  0.1184000E+00
        -11   -1    0    0    0    0  0.00000000000E+00  0.00000000000E+00  0.45593999997E+02  0.45594000000E+02  0.51100000000E-03 0.  1.
         11   -1    0    0    0    0 -0.00000000000E+00 -0.00000000000E+00 -0.45593999997E+02  0.45594000000E+02  0.51100000000E-03 0. -1.
         23    2    1    2    0    0  0.00000000000E+00 -0.71054273576E-14  0.00000000000E+00  0.91188000000E+02  0.91188000000E+02 0.  0.
    9900012    2    3    3    0    0  0.14410314982E+02  0.40036664168E+02 -0.85457358724E+01  0.47787294278E+02  0.20000105932E+02 0.  0.
        -12    1    3    3    0    0 -0.14410314982E+02 -0.40036664168E+02  0.85457358724E+01  0.43400705722E+02  0.00000000000E+00 0.  1.
         11    1    4    4    0    0  0.22914225506E+01  0.20052160076E+02 -0.76944930002E+01  0.21599651937E+02  0.51100000000E-03 0. -1.
        -11    1    4    4    0    0  0.62210269650E+01  0.24382301760E+01 -0.34083618787E+01  0.75008715392E+01  0.51100000000E-03 0.  1.
         12    1    4    4    0    0  0.58978654663E+01  0.17546273916E+02  0.25571190065E+01  0.18686770802E+02  0.00000000000E+00 0. -1.
</event>
<event>
 8    1  0.5250708E-010  0.9118800E+02  0.7816164E-02  0.1184000E+00
        -11   -1    0    0    0    0  0.00000000000E+00  0.00000000000E+00  0.45593999997E+02  0.45594000000E+02  0.51100000000E-03 0.  1.
         11   -1    0    0    0    0 -0.00000000000E+00 -0.00000000000E+00 -0.45593999997E+02  0.45594000000E+02  0.51100000000E-03 0. -1.
         23    2    1    2    0    0  0.00000000000E+00  0.00000000000E+00  0.17763568394E-14  0.91188000000E+02  0.91188000000E+02 0.  0.
    9900012    2    3    3    0    0 -0.39180898975E+02  0.15246216069E+02 -0.10771825349E+02  0.47787283759E+02  0.20000057970E+02 0.  0.
        -12    1    3    3    0    0  0.39180898975E+02 -0.15246216069E+02  0.10771825349E+02  0.43400716241E+02  0.00000000000E+00 0.  1.
         11    1    4    4    0    0 -0.19983160360E+02  0.53928460386E+01 -0.23988964429E+01  0.20836606988E+02  0.51100000000E-03 0. -1.
        -11    1    4    4    0    0 -0.20666369146E+01  0.25431881053E+01  0.35535121227E+01  0.48338641420E+01  0.51100000000E-03 0.  1.
        -12    1    4    4    0    0 -0.17131101701E+02  0.73101819246E+01 -0.11926441029E+02  0.22116812629E+02  0.00000000000E+00 0.  1.
</event>
<event>
 8    1  0.5250708E-010  0.9118800E+02  0.7816164E-02  0.1184000E+00
        -11   -1    0    0    0    0  0.00000000000E+00  0.00000000000E+00  0.45593999997E+02  0.45594000000E+02  0.51100000000E-03 0. -1.
         11   -1    0    0    0    0 -0.00000000000E+00 -0.00000000000E+00 -0.45593999997E+02  0.45594000000E+02  0.51100000000E-03 0.  1.
         23    2    1    2    0    0  0.71054273576E-14  0.00000000000E+00  0.00000000000E+00  0.91188000000E+02  0.91188000000E+02 0.  0.
    9900012    2    3    3    0    0 -0.35508281329E+02 -0.17146352768E+02 -0.18132521277E+02  0.47787265167E+02  0.19999973203E+02 0.  0.
         12    1    3    3    0    0  0.35508281329E+02  0.17146352768E+02  0.18132521277E+02  0.43400734833E+02  0.00000000000E+00 0. -1.
         11    1    4    4    0    0 -0.15169441286E+02 -0.15188093914E+02 -0.24401193888E+01  0.21604266443E+02  0.51100000000E-03 0. -1.
        -11    1    4    4    0    0 -0.10142624340E+02 -0.68154113083E+00 -0.49131346648E+01  0.11290536715E+02  0.51100000000E-03 0.  1.
         12    1    4    4    0    0 -0.10196215703E+02 -0.12767177231E+01 -0.10779267224E+02  0.14892462009E+02  0.00000000000E+00 0. -1.
</event>
<event>
 8    1  0.5250708E-010  0.9118800E+02  0.7816164E-02  0.1184000E+00
        -11   -1    0    0    0    0  0.00000000000E+00  0.00000000000E+00  0.45593999997E+02  0.45594000000E+02  0.51100000000E-03 0. -1.
         11   -1    0    0    0    0 -0.00000000000E+00 -0.00000000000E+00 -0.45593999997E+02  0.45594000000E+02  0.51100000000E-03 0.  1.
         23    2    1    2    0    0  0.35527136788E-14  0.44408920985E-15 -0.71054273576E-14  0.91188000000E+02  0.91188000000E+02 0.  0.
    9900012    2    3    3    0    0  0.25796356655E+02 -0.13013075043E+01 -0.34878045796E+02  0.47787268480E+02  0.19999988307E+02 0.  0.
         12    1    3    3    0    0 -0.25796356655E+02  0.13013075043E+01  0.34878045796E+02  0.43400731520E+02  0.00000000000E+00 0. -1.
         11    1    4    4    0    0  0.16668367410E+02  0.71688068096E+01 -0.18399675607E+02  0.25841329802E+02  0.51100000000E-03 0. -1.
        -11    1    4    4    0    0  0.96192233542E+01 -0.52502192131E+01 -0.10719488072E+02  0.15329764659E+02  0.51100000000E-03 0.  1.
         12    1    4    4    0    0 -0.49123410932E+00 -0.32198951007E+01 -0.57588821175E+01  0.66161740192E+01  0.00000000000E+00 0. -1.
</event>
<event>
 8    1  0.5250708E-010  0.9118800E+02  0.7816164E-02  0.1184000E+00
        -11   -1    0    0    0    0  0.00000000000E+00  0.00000000000E+00  0.45593999997E+02  0.45594000000E+02  0.51100000000E-03 0. -1.
         11   -1    0    0    0    0 -0.00000000000E+00 -0.00000000000E+00 -0.45593999997E+02  0.45594000000E+02  0.51100000000E-03 0.  1.
         23    2    1    2    0    0  0.00000000000E+00  0.17763568394E-14  0.35527136788E-14  0.91188000000E+02  0.91188000000E+02 0.  0.
    9900012    2    3    3    0    0 -0.30851858752E+02 -0.11566701211E+02 -0.28248865528E+02  0.47787260733E+02  0.19999952985E+02 0.  0.
         12    1    3    3    0    0  0.30851858752E+02  0.11566701211E+02  0.28248865528E+02  0.43400739267E+02  0.00000000000E+00 0. -1.
         11    1    4    4    0    0 -0.42659224190E+01  0.37585404800E+00 -0.77082956933E+01  0.88180033515E+01  0.51100000000E-03 0.  1.
        -11    1    4    4    0    0 -0.14147697844E+02 -0.14671822240E+02 -0.12719767006E+02  0.24025240791E+02  0.51100000000E-03 0. -1.
         12    1    4    4    0    0 -0.12438238488E+02  0.27292669816E+01 -0.78208028289E+01  0.14944016590E+02  0.00000000000E+00 0. -1.
</event>
<event>
 8    1  0.5250708E-010  0.9118800E+02  0.7816164E-02  0.1184000E+00
        -11   -1    0    0    0    0  0.00000000000E+00  0.00000000000E+00  0.45593999997E+02  0.45594000000E+02  0.51100000000E-03 0. -1.
         11   -1    0    0    0    0 -0.00000000000E+00 -0.00000000000E+00 -0.45593999997E+02  0.45594000000E+02  0.51100000000E-03 0.  1.
         23    2    1    2    0    0 -0.17763568394E-14  0.00000000000E+00  0.00000000000E+00  0.91188000000E+02  0.91188000000E+02 0.  0.
    9900012    2    3    3    0    0  0.78208519603E+01  0.19159101743E+02 -0.38149524222E+02  0.47787273009E+02  0.20000008957E+02 0.  0.
         12    1    3    3    0    0 -0.78208519603E+01 -0.19159101743E+02  0.38149524222E+02  0.43400726991E+02  0.00000000000E+00 0. -1.
         11    1    4    4    0    0  0.36890608163E+01 -0.16597622723E+01 -0.31490666660E+01  0.51264609269E+01  0.51100000000E-03 0. -1.
        -11    1    4    4    0    0  0.71917063033E+01  0.12570370930E+02 -0.27581710524E+02  0.31152618197E+02  0.51100000000E-03 0.  1.
        -12    1    4    4    0    0 -0.30599151593E+01  0.82484930847E+01 -0.74187470327E+01  0.11508193885E+02  0.00000000000E+00 0.  1.
</event>
<event>
 8    1  0.5250708E-010  0.9118800E+02  0.7816164E-02  0.1184000E+00
        -11   -1    0    0    0    0  0.00000000000E+00  0.00000000000E+00  0.45593999997E+02  0.45594000000E+02  0.51100000000E-03 0. -1.
         11   -1    0    0    0    0 -0.00000000000E+00 -0.00000000000E+00 -0.45593999997E+02  0.45594000000E+02  0.51100000000E-03 0.  1.
         23    2    1    2    0    0  0.35527136788E-14 -0.55511151231E-16  0.71054273576E-14  0.91188000000E+02  0.91188000000E+02 0.  0.
    9900012    2    3    3    0    0 -0.20902411349E+02  0.44407493818E+00 -0.38033074700E+02  0.47787276805E+02  0.20000026262E+02 0.  0.
         12    1    3    3    0    0  0.20902411349E+02 -0.44407493818E+00  0.38033074700E+02  0.43400723195E+02  0.00000000000E+00 0. -1.
         11    1    4    4    0    0 -0.21611747238E+02  0.34632271136E+00 -0.23099838281E+02  0.31635266507E+02  0.51100000000E-03 0.  1.
        -11    1    4    4    0    0 -0.14432257814E+01 -0.15205519416E+01 -0.11952233377E+02  0.12134696611E+02  0.51100000000E-03 0. -1.
        -12    1    4    4    0    0  0.21525616702E+01  0.16183041684E+01 -0.29810030416E+01  0.40173136870E+01  0.00000000000E+00 0.  1.
</event>
<event>
 8    1  0.5250708E-010  0.9118800E+02  0.7816164E-02  0.1184000E+00
        -11   -1    0    0    0    0  0.00000000000E+00  0.00000000000E+00  0.45593999997E+02  0.45594000000E+02  0.51100000000E-03 0. -1.
         11   -1    0    0    0    0 -0.00000000000E+00 -0.00000000000E+00 -0.45593999997E+02  0.45594000000E+02  0.51100000000E-03 0.  1.
         23    2    1    2    0    0  0.00000000000E+00  0.00000000000E+00  0.00000000000E+00  0.91188000000E+02  0.91188000000E+02 0.  0.
    9900012    2    3    3    0    0 -0.16779598347E+02 -0.13007059104E+02 -0.37853457491E+02  0.47787277065E+02  0.20000027452E+02 0.  0.
         12    1    3    3    0    0  0.16779598347E+02  0.13007059104E+02  0.37853457491E+02  0.43400722935E+02  0.00000000000E+00 0. -1.
         11    1    4    4    0    0 -0.14195067371E+02 -0.63153987081E+01 -0.94492136217E+01  0.18184384423E+02  0.51100000000E-03 0. -1.
        -11    1    4    4    0    0 -0.19185511890E+00 -0.41990135112E+01 -0.95420525400E+01  0.10426854262E+02  0.51100000000E-03 0.  1.
         12    1    4    4    0    0 -0.23926758567E+01 -0.24926468846E+01 -0.18862191329E+02  0.19176038381E+02  0.00000000000E+00 0. -1.
</event>
<event>
 8    1  0.5250708E-010  0.9118800E+02  0.7816164E-02  0.1184000E+00
        -11   -1    0    0    0    0  0.00000000000E+00  0.00000000000E+00  0.45593999997E+02  0.45594000000E+02  0.51100000000E-03 0.  1.
         11   -1    0    0    0    0 -0.00000000000E+00 -0.00000000000E+00 -0.45593999997E+02  0.45594000000E+02  0.51100000000E-03 0. -1.
         23    2    1    2    0    0  0.71054273576E-14  0.00000000000E+00  0.44408920985E-15  0.91188000000E+02  0.91188000000E+02 0.  0.
    9900012    2    3    3    0    0 -0.39039123069E+02  0.18711809818E+02 -0.30722208432E+01  0.47787268467E+02  0.19999988249E+02 0.  0.
        -12    1    3    3    0    0  0.39039123069E+02 -0.18711809818E+02  0.30722208432E+01  0.43400731533E+02  0.00000000000E+00 0.  1.
         11    1    4    4    0    0 -0.79170665202E+01  0.99198400090E+01  0.39991628801E+01  0.13307008382E+02  0.51100000000E-03 0. -1.
        -11    1    4    4    0    0 -0.19785803329E+02  0.97491314537E+01 -0.68682001940E+01  0.23101856021E+02  0.51100000000E-03 0.  1.
        -12    1    4    4    0    0 -0.11336253220E+02 -0.95716164423E+00 -0.20318352927E+00  0.11378404064E+02  0.00000000000E+00 0.  1.
</event>
<event>
 8    1  0.5250708E-010  0.9118800E+02  0.7816164E-02  0.1184000E+00
        -11   -1    0    0    0    0  0.00000000000E+00  0.00000000000E+00  0.45593999997E+02  0.45594000000E+02  0.51100000000E-03 0. -1.
         11   -1    0    0    0    0 -0.00000000000E+00 -0.00000000000E+00 -0.45593999997E+02  0.45594000000E+02  0.51100000000E-03 0.  1.
         23    2    1    2    0    0  0.00000000000E+00  0.00000000000E+00  0.35527136788E-14  0.91188000000E+02  0.91188000000E+02 0.  0.
    9900012    2    3    3    0    0 -0.19087403662E+02 -0.32745935186E+02  0.21142330322E+02  0.47787269808E+02  0.19999994362E+02 0.  0.
        -12    1    3    3    0    0  0.19087403662E+02  0.32745935186E+02 -0.21142330322E+02  0.43400730192E+02  0.00000000000E+00 0.  1.
         11    1    4    4    0    0 -0.83758937354E+01 -0.89607937708E+01  0.32940883450E+01  0.12700489721E+02  0.51100000000E-03 0. -1.
        -11    1    4    4    0    0 -0.30463119346E+01 -0.22152863734E+02  0.13601001599E+02  0.26172822408E+02  0.51100000000E-03 0.  1.
        -12    1    4    4    0    0 -0.76651979917E+01 -0.16322776813E+01  0.42472403781E+01  0.89139576794E+01  0.00000000000E+00 0.  1.
</event>
<event>
 8    1  0.5250708E-010  0.9118800E+02  0.7816164E-02  0.1184000E+00
        -11   -1    0    0    0    0  0.00000000000E+00  0.00000000000E+00  0.45593999997E+02  0.45594000000E+02  0.51100000000E-03 0. -1.
         11   -1    0    0    0    0 -0.00000000000E+00 -0.00000000000E+00 -0.45593999997E+02  0.45594000000E+02  0.51100000000E-03 0.  1.
         23    2    1    2    0    0  0.88817841970E-15 -0.35527136788E-14  0.00000000000E+00  0.91188000000E+02  0.91188000000E+02 0.  0.
    9900012    2    3    3    0    0 -0.68908297574E+01  0.20548876166E+02  0.37601665879E+02  0.47787249738E+02  0.19999902855E+02 0.  0.
        -12    1    3    3    0    0  0.68908297574E+01 -0.20548876166E+02 -0.37601665879E+02  0.43400750262E+02  0.00000000000E+00 0.  1.
         11    1    4    4    0    0  0.19364779512E+01  0.21652656239E+00  0.44684087471E+01  0.48747828259E+01  0.51100000000E-03 0.  1.
        -11    1    4    4    0    0  0.29242340783E+01  0.13068745622E+02  0.17769721137E+02  0.22250983049E+02  0.51100000000E-03 0. -1.
         12    1    4    4    0    0 -0.11751541787E+02  0.72636039810E+01  0.15363535995E+02  0.20661483863E+02  0.00000000000E+00 0. -1.
</event>
<event>
 8    1  0.5250708E-010  0.9118800E+02  0.7816164E-02  0.1184000E+00
        -11   -1    0    0    0    0  0.00000000000E+00  0.00000000000E+00  0.45593999997E+02  0.45594000000E+02  0.51100000000E-03 0. -1.
         11   -1    0    0    0    0 -0.00000000000E+00 -0.00000000000E+00 -0.45593999997E+02  0.45594000000E+02  0.51100000000E-03 0.  1.
         23    2    1    2    0    0 -0.88817841970E-15  0.00000000000E+00  0.00000000000E+00  0.91188000000E+02  0.91188000000E+02 0.  0.
    9900012    2    3    3    0    0 -0.77691546535E+01 -0.66906872401E+01 -0.42172234346E+02  0.47787281002E+02  0.20000045400E+02 0.  0.
         12    1    3    3    0    0  0.77691546535E+01  0.66906872401E+01  0.42172234346E+02  0.43400718998E+02  0.00000000000E+00 0. -1.
         11    1    4    4    0    0 -0.61549406462E+01 -0.26999845814E+01 -0.54368413813E+01  0.86447935525E+01  0.51100000000E-03 0. -1.
        -11    1    4    4    0    0  0.56046944888E+01 -0.17305876002E+01 -0.13907002680E+02  0.15093450817E+02  0.51100000000E-03 0.  1.
        -12    1    4    4    0    0 -0.72189084961E+01 -0.22601150585E+01 -0.22828390285E+02  0.24049036633E+02  0.00000000000E+00 0.  1.
</event>
<event>
 8    1  0.5250708E-010  0.9118800E+02  0.7816164E-02  0.1184000E+00
        -11   -1    0    0    0    0  0.00000000000E+00  0.00000000000E+00  0.45593999997E+02  0.45594000000E+02  0.51100000000E-03 0. -1.
         11   -1    0    0    0    0 -0.00000000000E+00 -0.00000000000E+00 -0.45593999997E+02  0.45594000000E+02  0.51100000000E-03 0.  1.
         23    2    1    2    0    0 -0.17763568394E-14 -0.88817841970E-15  0.71054273576E-14  0.91188000000E+02  0.91188000000E+02 0.  0.
    9900012    2    3    3    0    0 -0.15108938993E+02  0.30812519076E+01  0.40569065220E+02  0.47787271853E+02  0.20000003687E+02 0.  0.
        -12    1    3    3    0    0  0.15108938993E+02 -0.30812519076E+01 -0.40569065220E+02  0.43400728147E+02  0.00000000000E+00 0.  1.
         11    1    4    4    0    0 -0.87364602692E+01  0.44607661750E+01  0.26979630273E+02  0.28707570828E+02  0.51100000000E-03 0. -1.
        -11    1    4    4    0    0  0.15780861506E+00  0.41706677872E+01  0.19016106501E+01  0.45864470645E+01  0.51100000000E-03 0.  1.
         12    1    4    4    0    0 -0.65302873389E+01 -0.55501820546E+01  0.11687824297E+02  0.14493253961E+02  0.00000000000E+00 0. -1.
</event>
<event>
 8    1  0.5250708E-010  0.9118800E+02  0.7816164E-02  0.1184000E+00
        -11   -1    0    0    0    0  0.00000000000E+00  0.00000000000E+00  0.45593999997E+02  0.45594000000E+02  0.51100000000E-03 0. -1.
         11   -1    0    0    0    0 -0.00000000000E+00 -0.00000000000E+00 -0.45593999997E+02  0.45594000000E+02  0.51100000000E-03 0.  1.
         23    2    1    2    0    0  0.35527136788E-14  0.00000000000E+00  0.00000000000E+00  0.91188000000E+02  0.91188000000E+02 0.  0.
    9900012    2    3    3    0    0 -0.18091385860E+02 -0.23343981390E+02 -0.31802258341E+02  0.47787270224E+02  0.19999996261E+02 0.  0.
         12    1    3    3    0    0  0.18091385860E+02  0.23343981390E+02  0.31802258341E+02  0.43400729776E+02  0.00000000000E+00 0. -1.
         11    1    4    4    0    0 -0.12759289463E+02 -0.13283371788E+02 -0.17295633258E+02  0.25266308866E+02  0.51100000000E-03 0. -1.
        -11    1    4    4    0    0 -0.72548828185E+00 -0.44589225507E+01 -0.14584334506E+02  0.15267977496E+02  0.51100000000E-03 0.  1.
         12    1    4    4    0    0 -0.46066081152E+01 -0.56016870522E+01  0.77709423944E-01  0.72529838626E+01  0.00000000000E+00 0. -1.
</event>
<event>
 8    1  0.5250708E-010  0.9118800E+02  0.7816164E-02  0.1184000E+00
        -11   -1    0    0    0    0  0.00000000000E+00  0.00000000000E+00  0.45593999997E+02  0.45594000000E+02  0.51100000000E-03 0. -1.
         11   -1    0    0    0    0 -0.00000000000E+00 -0.00000000000E+00 -0.45593999997E+02  0.45594000000E+02  0.51100000000E-03 0.  1.
         23    2    1    2    0    0  0.17763568394E-14  0.00000000000E+00  0.00000000000E+00  0.91188000000E+02  0.91188000000E+02 0.  0.
    9900012    2    3    3    0    0  0.15581475876E+02 -0.81296692602E+01 -0.39683113344E+02  0.47787269621E+02  0.19999993509E+02 0.  0.
         12    1    3    3    0    0 -0.15581475876E+02  0.81296692602E+01  0.39683113344E+02  0.43400730379E+02  0.00000000000E+00 0. -1.
         11    1    4    4    0    0 -0.35336834009E+00  0.32302170968E+01 -0.91756322626E+01  0.97340330468E+01  0.51100000000E-03 0. -1.
        -11    1    4    4    0    0  0.54483155766E+01  0.68120247812E+00 -0.30248470390E+01  0.62688020633E+01  0.51100000000E-03 0.  1.
        -12    1    4    4    0    0  0.10486528640E+02 -0.12041088835E+02 -0.27482634043E+02  0.31784434511E+02  0.00000000000E+00 0.  1.
</event>
<event>
 8    1  0.5250708E-010  0.9118800E+02  0.7816164E-02  0.1184000E+00
        -11   -1    0    0    0    0  0.00000000000E+00  0.00000000000E+00  0.45593999997E+02  0.45594000000E+02  0.51100000000E-03 0. -1.
         11   -1    0    0    0    0 -0.00000000000E+00 -0.00000000000E+00 -0.45593999997E+02  0.45594000000E+02  0.51100000000E-03 0.  1.
         23    2    1    2    0    0  0.00000000000E+00  0.88817841970E-15  0.00000000000E+00  0.91188000000E+02  0.91188000000E+02 0.  0.
    9900012    2    3    3    0    0 -0.25211700896E+02  0.45267604441E+01  0.35035723155E+02  0.47787270522E+02  0.19999997620E+02 0.  0.
        -12    1    3    3    0    0  0.25211700896E+02 -0.45267604441E+01 -0.35035723155E+02  0.43400729478E+02  0.00000000000E+00 0.  1.
         11    1    4    4    0    0 -0.14040375154E+02 -0.50037193274E+01  0.19145799315E+02  0.24263779039E+02  0.51100000000E-03 0. -1.
        -11    1    4    4    0    0 -0.34071072954E+01  0.12103379458E+01 -0.41546072860E+00  0.36394925393E+01  0.51100000000E-03 0.  1.
        -12    1    4    4    0    0 -0.77642184467E+01  0.83201418258E+01  0.16305384568E+02  0.19883998944E+02  0.00000000000E+00 0.  1.
</event>
<event>
 8    1  0.5250708E-010  0.9118800E+02  0.7816164E-02  0.1184000E+00
        -11   -1    0    0    0    0  0.00000000000E+00  0.00000000000E+00  0.45593999997E+02  0.45594000000E+02  0.51100000000E-03 0. -1.
         11   -1    0    0    0    0 -0.00000000000E+00 -0.00000000000E+00 -0.45593999997E+02  0.45594000000E+02  0.51100000000E-03 0.  1.
         23    2    1    2    0    0  0.00000000000E+00  0.00000000000E+00 -0.88817841970E-15  0.91188000000E+02  0.91188000000E+02 0.  0.
    9900012    2    3    3    0    0 -0.41330726836E+02  0.10768528623E+02 -0.77092855781E+01  0.47787271048E+02  0.20000000015E+02 0.  0.
         12    1    3    3    0    0  0.41330726836E+02 -0.10768528623E+02  0.77092855781E+01  0.43400728952E+02  0.00000000000E+00 0. -1.
         11    1    4    4    0    0 -0.76208142741E+01  0.32739296434E+01  0.50454811855E+01  0.97083626923E+01  0.51100000000E-03 0.  1.
        -11    1    4    4    0    0 -0.10868240997E+02 -0.11997279228E+01 -0.69582636173E+01  0.12960534028E+02  0.51100000000E-03 0. -1.
        -12    1    4    4    0    0 -0.22841671565E+02  0.86943269019E+01 -0.57965031462E+01  0.25118374328E+02  0.00000000000E+00 0.  1.
</event>
<event>
 8    1  0.5250708E-010  0.9118800E+02  0.7816164E-02  0.1184000E+00
        -11   -1    0    0    0    0  0.00000000000E+00  0.00000000000E+00  0.45593999997E+02  0.45594000000E+02  0.51100000000E-03 0. -1.
         11   -1    0    0    0    0 -0.00000000000E+00 -0.00000000000E+00 -0.45593999997E+02  0.45594000000E+02  0.51100000000E-03 0.  1.
         23    2    1    2    0    0  0.00000000000E+00  0.71054273576E-14 -0.17763568394E-14  0.91188000000E+02  0.91188000000E+02 0.  0.
    9900012    2    3    3    0    0  0.87677370150E+01  0.40238602920E+02  0.13696886806E+02  0.47787273215E+02  0.20000009896E+02 0.  0.
        -12    1    3    3    0    0 -0.87677370150E+01 -0.40238602920E+02 -0.13696886806E+02  0.43400726785E+02  0.00000000000E+00 0.  1.
         11    1    4    4    0    0  0.24331253792E+01  0.86935374362E+01 -0.48259227408E+00  0.90404971008E+01  0.51100000000E-03 0. -1.
        -11    1    4    4    0    0  0.41121099530E+01  0.18332178380E+02  0.16672008494E+02  0.25118401222E+02  0.51100000000E-03 0.  1.
        -12    1    4    4    0    0  0.22225016828E+01  0.13212887103E+02 -0.24925294143E+01  0.13628374893E+02  0.00000000000E+00 0.  1.
</event>
<event>
 8    1  0.5250708E-010  0.9118800E+02  0.7816164E-02  0.1184000E+00
        -11   -1    0    0    0    0  0.00000000000E+00  0.00000000000E+00  0.45593999997E+02  0.45594000000E+02  0.51100000000E-03 0. -1.
         11   -1    0    0    0    0 -0.00000000000E+00 -0.00000000000E+00 -0.45593999997E+02  0.45594000000E+02  0.51100000000E-03 0.  1.
         23    2    1    2    0    0 -0.44408920985E-15  0.00000000000E+00  0.00000000000E+00  0.91188000000E+02  0.91188000000E+02 0.  0.
    9900012    2    3    3    0    0  0.24170191217E+01  0.16494717729E+02  0.40071260207E+02  0.47787267414E+02  0.19999983447E+02 0.  0.
        -12    1    3    3    0    0 -0.24170191217E+01 -0.16494717729E+02 -0.40071260207E+02  0.43400732586E+02  0.00000000000E+00 0.  1.
         11    1    4    4    0    0 -0.11418548364E+01 -0.52270727087E+00  0.69560976460E+01  0.70685465324E+01  0.51100000000E-03 0. -1.
        -11    1    4    4    0    0  0.69812579952E+01  0.18356368719E+02  0.24851765822E+02  0.31674982249E+02  0.51100000000E-03 0.  1.
        -12    1    4    4    0    0 -0.34223840371E+01 -0.13389437191E+01  0.82633967394E+01  0.90437386325E+01  0.00000000000E+00 0.  1.
</event>
<event>
 8    1  0.5250708E-010  0.9118800E+02  0.7816164E-02  0.1184000E+00
        -11   -1    0    0    0    0  0.00000000000E+00  0.00000000000E+00  0.45593999997E+02  0.45594000000E+02  0.51100000000E-03 0. -1.
         11   -1    0    0    0    0 -0.00000000000E+00 -0.00000000000E+00 -0.45593999997E+02  0.45594000000E+02  0.51100000000E-03 0.  1.
         23    2    1    2    0    0 -0.88817841970E-15 -0.66613381478E-15  0.00000000000E+00  0.91188000000E+02  0.91188000000E+02 0.  0.
    9900012    2    3    3    0    0  0.60388578671E+01 -0.15425294002E+01 -0.42950855881E+02  0.47787271640E+02  0.20000002715E+02 0.  0.
         12    1    3    3    0    0 -0.60388578671E+01  0.15425294002E+01  0.42950855881E+02  0.43400728360E+02  0.00000000000E+00 0. -1.
         11    1    4    4    0    0  0.77162204139E+01 -0.10800239648E+01 -0.14693779504E+02  0.16631706636E+02  0.51100000000E-03 0.  1.
        -11    1    4    4    0    0 -0.45596049850E+01  0.49479657940E+01 -0.11653929348E+02  0.13456835907E+02  0.51100000000E-03 0. -1.
         12    1    4    4    0    0  0.28822424382E+01 -0.54104712293E+01 -0.16603147029E+02  0.17698729097E+02  0.00000000000E+00 0. -1.
</event>
<event>
 8    1  0.7614098E-010  0.9118800E+02  0.7816164E-02  0.1184000E+00
        -11   -1    0    0    0    0  0.00000000000E+00  0.00000000000E+00  0.45593999997E+02  0.45594000000E+02  0.51100000000E-03 0. -1.
         11   -1    0    0    0    0 -0.00000000000E+00 -0.00000000000E+00 -0.45593999997E+02  0.45594000000E+02  0.51100000000E-03 0.  1.
         23    2    1    2    0    0  0.00000000000E+00  0.00000000000E+00  0.00000000000E+00  0.91188000000E+02  0.91188000000E+02 0.  0.
    9900012    2    3    3    0    0  0.33647588362E+02  0.77157771269E+01 -0.26304529983E+02  0.47787288982E+02  0.20000081784E+02 0.  0.
         12    1    3    3    0    0 -0.33647588362E+02 -0.77157771269E+01  0.26304529983E+02  0.43400711018E+02  0.00000000000E+00 0. -1.
         11    1    4    4    0    0  0.53405749081E+01  0.60534001341E+01 -0.97355896492E+01  0.12647019396E+02  0.51100000000E-03 0.  1.
        -11    1    4    4    0    0  0.25179749377E+02  0.32590854222E+01 -0.18229312532E+02  0.31256187422E+02  0.51100000000E-03 0. -1.
         12    1    4    4    0    0  0.31272640774E+01 -0.15967084293E+01  0.16603721990E+01  0.38840821640E+01  0.00000000000E+00 0. -1.
</event>
<event>
 8    1  0.5250708E-010  0.9118800E+02  0.7816164E-02  0.1184000E+00
        -11   -1    0    0    0    0  0.00000000000E+00  0.00000000000E+00  0.45593999997E+02  0.45594000000E+02  0.51100000000E-03 0. -1.
         11   -1    0    0    0    0 -0.00000000000E+00 -0.00000000000E+00 -0.45593999997E+02  0.45594000000E+02  0.51100000000E-03 0.  1.
         23    2    1    2    0    0  0.00000000000E+00 -0.88817841970E-15  0.00000000000E+00  0.91188000000E+02  0.91188000000E+02 0.  0.
    9900012    2    3    3    0    0 -0.25876166680E+02 -0.52712786663E+01  0.34442136226E+02  0.47787272718E+02  0.20000007628E+02 0.  0.
        -12    1    3    3    0    0  0.25876166680E+02  0.52712786663E+01 -0.34442136226E+02  0.43400727282E+02  0.00000000000E+00 0.  1.
         11    1    4    4    0    0 -0.23165816488E+02 -0.32244235185E+01  0.17109404459E+02  0.28979021409E+02  0.51100000000E-03 0. -1.
        -11    1    4    4    0    0 -0.39459523583E+01 -0.35680429000E+01  0.13301234799E+02  0.14325652431E+02  0.51100000000E-03 0.  1.
        -12    1    4    4    0    0  0.12356021667E+01  0.15211877522E+01  0.40314969682E+01  0.44825988775E+01  0.00000000000E+00 0.  1.
</event>
<event>
 8    1  0.5250708E-010  0.9118800E+02  0.7816164E-02  0.1184000E+00
        -11   -1    0    0    0    0  0.00000000000E+00  0.00000000000E+00  0.45593999997E+02  0.45594000000E+02  0.51100000000E-03 0. -1.
         11   -1    0    0    0    0 -0.00000000000E+00 -0.00000000000E+00 -0.45593999997E+02  0.45594000000E+02  0.51100000000E-03 0.  1.
         23    2    1    2    0    0  0.00000000000E+00  0.17763568394E-14  0.35527136788E-14  0.91188000000E+02  0.91188000000E+02 0.  0.
    9900012    2    3    3    0    0  0.35070236484E+02 -0.13916709488E+02  0.21448233777E+02  0.47787273944E+02  0.20000013222E+02 0.  0.
        -12    1    3    3    0    0 -0.35070236484E+02  0.13916709488E+02 -0.21448233777E+02  0.43400726056E+02  0.00000000000E+00 0.  1.
         11    1    4    4    0    0  0.25475566298E+02 -0.15561500916E+02  0.15399575949E+02  0.33590351719E+02  0.51100000000E-03 0.  1.
        -11    1    4    4    0    0 -0.70853693257E+00 -0.50263717957E-01  0.33329998338E+01  0.34078496416E+01  0.51100000000E-03 0. -1.
         12    1    4    4    0    0  0.10303207118E+02  0.16950551456E+01  0.27156579945E+01  0.10789072583E+02  0.00000000000E+00 0. -1.
</event>
<event>
 8    1  0.5250708E-010  0.9118800E+02  0.7816164E-02  0.1184000E+00
        -11   -1    0    0    0    0  0.00000000000E+00  0.00000000000E+00  0.45593999997E+02  0.45594000000E+02  0.51100000000E-03 0. -1.
         11   -1    0    0    0    0 -0.00000000000E+00 -0.00000000000E+00 -0.45593999997E+02  0.45594000000E+02  0.51100000000E-03 0.  1.
         23    2    1    2    0    0  0.88817841970E-15  0.00000000000E+00  0.00000000000E+00  0.91188000000E+02  0.91188000000E+02 0.  0.
    9900012    2    3    3    0    0 -0.79057449240E+01  0.32952318751E+02  0.27115814072E+02  0.47787268593E+02  0.19999988822E+02 0.  0.
        -12    1    3    3    0    0  0.79057449240E+01 -0.32952318751E+02 -0.27115814072E+02  0.43400731407E+02  0.00000000000E+00 0.  1.
         11    1    4    4    0    0 -0.73260229645E+01  0.64810240317E+01  0.48986351489E+01  0.10939420074E+02  0.51100000000E-03 0. -1.
        -11    1    4    4    0    0 -0.17173769506E+01  0.14355410601E+02  0.19675232037E+02  0.24416018371E+02  0.51100000000E-03 0.  1.
        -12    1    4    4    0    0  0.11376549911E+01  0.12115884118E+02  0.25419468862E+01  0.12431830147E+02  0.00000000000E+00 0.  1.
</event>
<event>
 8    1  0.5250708E-010  0.9118800E+02  0.7816164E-02  0.1184000E+00
        -11   -1    0    0    0    0  0.00000000000E+00  0.00000000000E+00  0.45593999997E+02  0.45594000000E+02  0.51100000000E-03 0. -1.
         11   -1    0    0    0    0 -0.00000000000E+00 -0.00000000000E+00 -0.45593999997E+02  0.45594000000E+02  0.51100000000E-03 0.  1.
         23    2    1    2    0    0  0.00000000000E+00  0.00000000000E+00  0.00000000000E+00  0.91188000000E+02  0.91188000000E+02 0.  0.
    9900012    2    3    3    0    0 -0.30406870541E+02 -0.20492813772E+02  0.23218307715E+02  0.47787274136E+02  0.20000014094E+02 0.  0.
        -12    1    3    3    0    0  0.30406870541E+02  0.20492813772E+02 -0.23218307715E+02  0.43400725864E+02  0.00000000000E+00 0.  1.
         11    1    4    4    0    0 -0.11375748989E+02 -0.38339922761E+01  0.68610710857E+01  0.13826838342E+02  0.51100000000E-03 0. -1.
        -11    1    4    4    0    0  0.15395323606E+01 -0.27034695855E+01  0.65252652494E+01  0.72289691191E+01  0.51100000000E-03 0.  1.
        -12    1    4    4    0    0 -0.20570653913E+02 -0.13955351910E+02  0.98319713798E+01  0.26731466674E+02  0.00000000000E+00 0.  1.
</event>
<event>
 8    1  0.5250708E-010  0.9118800E+02  0.7816164E-02  0.1184000E+00
        -11   -1    0    0    0    0  0.00000000000E+00  0.00000000000E+00  0.45593999997E+02  0.45594000000E+02  0.51100000000E-03 0. -1.
         11   -1    0    0    0    0 -0.00000000000E+00 -0.00000000000E+00 -0.45593999997E+02  0.45594000000E+02  0.51100000000E-03 0.  1.
         23    2    1    2    0    0  0.00000000000E+00  0.35527136788E-14  0.00000000000E+00  0.91188000000E+02  0.91188000000E+02 0.  0.
    9900012    2    3    3    0    0  0.21806810325E+02  0.18765824941E+02  0.32495076907E+02  0.47787272063E+02  0.20000004644E+02 0.  0.
        -12    1    3    3    0    0 -0.21806810325E+02 -0.18765824941E+02 -0.32495076907E+02  0.43400727937E+02  0.00000000000E+00 0.  1.
         11    1    4    4    0    0  0.24934621714E+01  0.12056121415E+02  0.60424989748E+01  0.13714197435E+02  0.51100000000E-03 0. -1.
        -11    1    4    4    0    0  0.78038855815E+01  0.18731703267E+01  0.56607749861E+01  0.98210880735E+01  0.51100000000E-03 0.  1.
         12    1    4    4    0    0  0.11509462572E+02  0.48365331994E+01  0.20791802946E+02  0.24251986554E+02  0.00000000000E+00 0. -1.
</event>
<event>
 8    1  0.5250708E-010  0.9118800E+02  0.7816164E-02  0.1184000E+00
        -11   -1    0    0    0    0  0.00000000000E+00  0.00000000000E+00  0.45593999997E+02  0.45594000000E+02  0.51100000000E-03 0. -1.
         11   -1    0    0    0    0 -0.00000000000E+00 -0.00000000000E+00 -0.45593999997E+02  0.45594000000E+02  0.51100000000E-03 0.  1.
         23    2    1    2    0    0  0.00000000000E+00  0.11102230246E-15  0.35527136788E-14  0.91188000000E+02  0.91188000000E+02 0.  0.
    9900012    2    3    3    0    0 -0.33848614926E+02 -0.67795980390E+00 -0.27155752856E+02  0.47787271031E+02  0.19999999937E+02 0.  0.
         12    1    3    3    0    0  0.33848614926E+02  0.67795980390E+00  0.27155752856E+02  0.43400728969E+02  0.00000000000E+00 0. -1.
         11    1    4    4    0    0 -0.95379569067E+01 -0.14090750168E+01 -0.50547710406E+00  0.96547201783E+01  0.51100000000E-03 0. -1.
        -11    1    4    4    0    0 -0.38708306316E+00 -0.13756477521E-01 -0.74175748167E+01  0.74276805910E+01  0.51100000000E-03 0.  1.
        -12    1    4    4    0    0 -0.23923574956E+02  0.74487169042E+00 -0.19232700935E+02  0.30704870261E+02  0.00000000000E+00 0.  1.
</event>
<event>
 8    1  0.5250708E-010  0.9118800E+02  0.7816164E-02  0.1184000E+00
        -11   -1    0    0    0    0  0.00000000000E+00  0.00000000000E+00  0.45593999997E+02  0.45594000000E+02  0.51100000000E-03 0. -1.
         11   -1    0    0    0    0 -0.00000000000E+00 -0.00000000000E+00 -0.45593999997E+02  0.45594000000E+02  0.51100000000E-03 0.  1.
         23    2    1    2    0    0 -0.35527136788E-14  0.35527136788E-14 -0.71054273576E-14  0.91188000000E+02  0.91188000000E+02 0.  0.
    9900012    2    3    3    0    0  0.26447146492E+02 -0.15630727159E+02  0.30656957467E+02  0.47787306109E+02  0.20000159874E+02 0.  0.
        -12    1    3    3    0    0 -0.26447146492E+02  0.15630727159E+02 -0.30656957467E+02  0.43400693891E+02  0.00000000000E+00 0.  1.
         11    1    4    4    0    0  0.21094080387E+02 -0.69339183691E+01  0.11439249577E+02  0.24977907888E+02  0.51100000000E-03 0.  1.
        -11    1    4    4    0    0  0.67916633107E+01 -0.83774679994E+01  0.16373807142E+02  0.19606382154E+02  0.51100000000E-03 0. -1.
        -12    1    4    4    0    0 -0.14385972055E+01 -0.31934079031E+00  0.28439007477E+01  0.32030160666E+01  0.00000000000E+00 0.  1.
</event>
<event>
 8    1  0.5250708E-010  0.9118800E+02  0.7816164E-02  0.1184000E+00
        -11   -1    0    0    0    0  0.00000000000E+00  0.00000000000E+00  0.45593999997E+02  0.45594000000E+02  0.51100000000E-03 0. -1.
         11   -1    0    0    0    0 -0.00000000000E+00 -0.00000000000E+00 -0.45593999997E+02  0.45594000000E+02  0.51100000000E-03 0.  1.
         23    2    1    2    0    0 -0.17763568394E-14  0.00000000000E+00  0.00000000000E+00  0.91188000000E+02  0.91188000000E+02 0.  0.
    9900012    2    3    3    0    0  0.12997985065E+02  0.65140594349E+01 -0.40893068136E+02  0.47787267199E+02  0.19999982467E+02 0.  0.
         12    1    3    3    0    0 -0.12997985065E+02 -0.65140594349E+01  0.40893068136E+02  0.43400732801E+02  0.00000000000E+00 0. -1.
         11    1    4    4    0    0  0.72026170302E+01  0.11423395076E+02 -0.15848637345E+02  0.20821886397E+02  0.51100000000E-03 0. -1.
        -11    1    4    4    0    0 -0.46447813349E+00 -0.20724738225E+01 -0.19977991311E+01  0.29158342393E+01  0.51100000000E-03 0.  1.
         12    1    4    4    0    0  0.62598461686E+01 -0.28368618189E+01 -0.23046631660E+02  0.24049546563E+02  0.00000000000E+00 0. -1.
</event>
<event>
 8    1  0.5250708E-010  0.9118800E+02  0.7816164E-02  0.1184000E+00
        -11   -1    0    0    0    0  0.00000000000E+00  0.00000000000E+00  0.45593999997E+02  0.45594000000E+02  0.51100000000E-03 0. -1.
         11   -1    0    0    0    0 -0.00000000000E+00 -0.00000000000E+00 -0.45593999997E+02  0.45594000000E+02  0.51100000000E-03 0.  1.
         23    2    1    2    0    0  0.13322676296E-14 -0.71054273576E-14  0.00000000000E+00  0.91188000000E+02  0.91188000000E+02 0.  0.
    9900012    2    3    3    0    0  0.37616341803E+01 -0.35964057021E+02  0.24001249935E+02  0.47787270886E+02  0.19999999278E+02 0.  0.
        -12    1    3    3    0    0 -0.37616341803E+01  0.35964057021E+02 -0.24001249935E+02  0.43400729114E+02  0.00000000000E+00 0.  1.
         11    1    4    4    0    0 -0.46172502614E+01 -0.13909908725E+02  0.41016940923E+01  0.15219344775E+02  0.51100000000E-03 0. -1.
        -11    1    4    4    0    0  0.65322643813E+01 -0.18524601258E+02  0.10310024368E+02  0.22183956646E+02  0.51100000000E-03 0.  1.
         12    1    4    4    0    0  0.18466200604E+01 -0.35295470388E+01  0.95895314748E+01  0.10383969465E+02  0.00000000000E+00 0. -1.
</event>
<event>
 8    1  0.5250708E-010  0.9118800E+02  0.7816164E-02  0.1184000E+00
        -11   -1    0    0    0    0  0.00000000000E+00  0.00000000000E+00  0.45593999997E+02  0.45594000000E+02  0.51100000000E-03 0. -1.
         11   -1    0    0    0    0 -0.00000000000E+00 -0.00000000000E+00 -0.45593999997E+02  0.45594000000E+02  0.51100000000E-03 0.  1.
         23    2    1    2    0    0 -0.88817841970E-15 -0.17763568394E-14  0.00000000000E+00  0.91188000000E+02  0.91188000000E+02 0.  0.
    9900012    2    3    3    0    0  0.13301675575E+01 -0.86095168242E+01 -0.42517404605E+02  0.47787276273E+02  0.20000023841E+02 0.  0.
         12    1    3    3    0    0 -0.13301675575E+01  0.86095168242E+01  0.42517404605E+02  0.43400723727E+02  0.00000000000E+00 0. -1.
         11    1    4    4    0    0 -0.38729832811E+01  0.15503985279E+01 -0.10400643844E+02  0.11206120102E+02  0.51100000000E-03 0. -1.
        -11    1    4    4    0    0 -0.21901417744E+01 -0.92273284687E+01 -0.13234611953E+02  0.16281746389E+02  0.51100000000E-03 0.  1.
        -12    1    4    4    0    0  0.73932926130E+01 -0.93258688332E+00 -0.18882148807E+02  0.20299409783E+02  0.00000000000E+00 0.  1.
</event>
<event>
 8    1  0.5250708E-010  0.9118800E+02  0.7816164E-02  0.1184000E+00
        -11   -1    0    0    0    0  0.00000000000E+00  0.00000000000E+00  0.45593999997E+02  0.45594000000E+02  0.51100000000E-03 0. -1.
         11   -1    0    0    0    0 -0.00000000000E+00 -0.00000000000E+00 -0.45593999997E+02  0.45594000000E+02  0.51100000000E-03 0.  1.
         23    2    1    2    0    0  0.88817841970E-15  0.00000000000E+00 -0.35527136788E-14  0.91188000000E+02  0.91188000000E+02 0.  0.
    9900012    2    3    3    0    0  0.41155925915E+01  0.34243475994E+02  0.26345188541E+02  0.47787277543E+02  0.20000029630E+02 0.  0.
        -12    1    3    3    0    0 -0.41155925915E+01 -0.34243475994E+02 -0.26345188541E+02  0.43400722457E+02  0.00000000000E+00 0.  1.
         11    1    4    4    0    0 -0.63532599247E+00  0.13396547046E+00 -0.11443122385E+01  0.13156886502E+01  0.51100000000E-03 0.  1.
        -11    1    4    4    0    0 -0.28947274291E+01  0.25400841755E+01  0.72231943568E+01  0.81857199735E+01  0.51100000000E-03 0. -1.
         12    1    4    4    0    0  0.76456460131E+01  0.31569426348E+02  0.20266306423E+02  0.38285868919E+02  0.00000000000E+00 0. -1.
</event>
<event>
 8    1  0.5250708E-010  0.9118800E+02  0.7816164E-02  0.1184000E+00
        -11   -1    0    0    0    0  0.00000000000E+00  0.00000000000E+00  0.45593999997E+02  0.45594000000E+02  0.51100000000E-03 0. -1.
         11   -1    0    0    0    0 -0.00000000000E+00 -0.00000000000E+00 -0.45593999997E+02  0.45594000000E+02  0.51100000000E-03 0.  1.
         23    2    1    2    0    0 -0.88817841970E-15  0.17763568394E-14  0.71054273576E-14  0.91188000000E+02  0.91188000000E+02 0.  0.
    9900012    2    3    3    0    0 -0.77523360290E+01 -0.11671599787E+02  0.41076738005E+02  0.47787270045E+02  0.19999995442E+02 0.  0.
        -12    1    3    3    0    0  0.77523360290E+01  0.11671599787E+02 -0.41076738005E+02  0.43400729955E+02  0.00000000000E+00 0.  1.
         11    1    4    4    0    0 -0.66613985127E+01  0.17991961386E+01  0.53386401335E+01  0.87242429830E+01  0.51100000000E-03 0. -1.
        -11    1    4    4    0    0  0.26434105571E+01 -0.34456765754E+01  0.16375406664E+02  0.16941494919E+02  0.51100000000E-03 0.  1.
        -12    1    4    4    0    0 -0.37343480735E+01 -0.10025119350E+02  0.19362691208E+02  0.22121532143E+02  0.00000000000E+00 0.  1.
</event>
<event>
 8    1  0.5250708E-010  0.9118800E+02  0.7816164E-02  0.1184000E+00
        -11   -1    0    0    0    0  0.00000000000E+00  0.00000000000E+00  0.45593999997E+02  0.45594000000E+02  0.51100000000E-03 0. -1.
         11   -1    0    0    0    0 -0.00000000000E+00 -0.00000000000E+00 -0.45593999997E+02  0.45594000000E+02  0.51100000000E-03 0.  1.
         23    2    1    2    0    0 -0.35527136788E-14  0.00000000000E+00  0.00000000000E+00  0.91188000000E+02  0.91188000000E+02 0.  0.
    9900012    2    3    3    0    0  0.21379527278E+02 -0.21834132783E+02 -0.30818981460E+02  0.47787272365E+02  0.20000006020E+02 0.  0.
         12    1    3    3    0    0 -0.21379527278E+02  0.21834132783E+02  0.30818981460E+02  0.43400727635E+02  0.00000000000E+00 0. -1.
         11    1    4    4    0    0 -0.15673501047E+01 -0.10093770346E+01 -0.28606657996E+01  0.34145039796E+01  0.51100000000E-03 0. -1.
        -11    1    4    4    0    0  0.21139760701E+02 -0.15588761662E+02 -0.14922477166E+02  0.30208927450E+02  0.51100000000E-03 0.  1.
        -12    1    4    4    0    0  0.18071166816E+01 -0.52359940866E+01 -0.13035838494E+02  0.14163840935E+02  0.00000000000E+00 0.  1.
</event>
<event>
 8    1  0.5250708E-010  0.9118800E+02  0.7816164E-02  0.1184000E+00
        -11   -1    0    0    0    0  0.00000000000E+00  0.00000000000E+00  0.45593999997E+02  0.45594000000E+02  0.51100000000E-03 0. -1.
         11   -1    0    0    0    0 -0.00000000000E+00 -0.00000000000E+00 -0.45593999997E+02  0.45594000000E+02  0.51100000000E-03 0.  1.
         23    2    1    2    0    0 -0.17763568394E-14 -0.71054273576E-14  0.00000000000E+00  0.91188000000E+02  0.91188000000E+02 0.  0.
    9900012    2    3    3    0    0  0.10800332422E+02 -0.41824481001E+02 -0.42058196122E+01  0.47787270627E+02  0.19999998099E+02 0.  0.
         12    1    3    3    0    0 -0.10800332422E+02  0.41824481001E+02  0.42058196122E+01  0.43400729373E+02  0.00000000000E+00 0. -1.
         11    1    4    4    0    0 -0.27027340176E+01 -0.59180531995E+01  0.33135379516E+01  0.73012094108E+01  0.51100000000E-03 0. -1.
        -11    1    4    4    0    0  0.67384955989E+01 -0.28557627867E+02 -0.29107282217E+01  0.29485891056E+02  0.51100000000E-03 0.  1.
        -12    1    4    4    0    0  0.67645708410E+01 -0.73487999343E+01 -0.46086293422E+01  0.11000170160E+02  0.00000000000E+00 0.  1.
</event>
<event>
 8    1  0.5250708E-010  0.9118800E+02  0.7816164E-02  0.1184000E+00
        -11   -1    0    0    0    0  0.00000000000E+00  0.00000000000E+00  0.45593999997E+02  0.45594000000E+02  0.51100000000E-03 0. -1.
         11   -1    0    0    0    0 -0.00000000000E+00 -0.00000000000E+00 -0.45593999997E+02  0.45594000000E+02  0.51100000000E-03 0.  1.
         23    2    1    2    0    0  0.00000000000E+00  0.00000000000E+00  0.00000000000E+00  0.91188000000E+02  0.91188000000E+02 0.  0.
    9900012    2    3    3    0    0 -0.21737686391E+02  0.12725920647E+02  0.35343275497E+02  0.47787272024E+02  0.20000004468E+02 0.  0.
        -12    1    3    3    0    0  0.21737686391E+02 -0.12725920647E+02 -0.35343275497E+02  0.43400727976E+02  0.00000000000E+00 0.  1.
         11    1    4    4    0    0 -0.10694768767E+02  0.10063157825E+01  0.13993091674E+02  0.17640786980E+02  0.51100000000E-03 0. -1.
        -11    1    4    4    0    0  0.29697557707E+01  0.47929397216E+01  0.61443806390E+01  0.83393725310E+01  0.51100000000E-03 0.  1.
         12    1    4    4    0    0 -0.14012673395E+02  0.69266651434E+01  0.15205803184E+02  0.21807112513E+02  0.00000000000E+00 0. -1.
</event>
<event>
 8    1  0.5250708E-010  0.9118800E+02  0.7816164E-02  0.1184000E+00
        -11   -1    0    0    0    0  0.00000000000E+00  0.00000000000E+00  0.45593999997E+02  0.45594000000E+02  0.51100000000E-03 0. -1.
         11   -1    0    0    0    0 -0.00000000000E+00 -0.00000000000E+00 -0.45593999997E+02  0.45594000000E+02  0.51100000000E-03 0.  1.
         23    2    1    2    0    0  0.00000000000E+00  0.00000000000E+00  0.00000000000E+00  0.91188000000E+02  0.91188000000E+02 0.  0.
    9900012    2    3    3    0    0  0.10815898679E+02 -0.14996431657E+02  0.39265081166E+02  0.47787271600E+02  0.20000002531E+02 0.  0.
        -12    1    3    3    0    0 -0.10815898679E+02  0.14996431657E+02 -0.39265081166E+02  0.43400728400E+02  0.00000000000E+00 0.  1.
         11    1    4    4    0    0 -0.34561208323E+01 -0.26592827244E+01  0.18109328098E+02  0.18626978291E+02  0.51100000000E-03 0. -1.
        -11    1    4    4    0    0  0.42287506903E+01 -0.80407918008E+01  0.10735299140E+02  0.14063545537E+02  0.51100000000E-03 0.  1.
         12    1    4    4    0    0  0.10043268821E+02 -0.42963571320E+01  0.10420453928E+02  0.15096747772E+02  0.00000000000E+00 0. -1.
</event>
<event>
 8    1  0.5250708E-010  0.9118800E+02  0.7816164E-02  0.1184000E+00
        -11   -1    0    0    0    0  0.00000000000E+00  0.00000000000E+00  0.45593999997E+02  0.45594000000E+02  0.51100000000E-03 0. -1.
         11   -1    0    0    0    0 -0.00000000000E+00 -0.00000000000E+00 -0.45593999997E+02  0.45594000000E+02  0.51100000000E-03 0.  1.
         23    2    1    2    0    0  0.00000000000E+00  0.00000000000E+00 -0.35527136788E-14  0.91188000000E+02  0.91188000000E+02 0.  0.
    9900012    2    3    3    0    0  0.20856673155E+02  0.21627848500E+02  0.31318660923E+02  0.47787272266E+02  0.20000005568E+02 0.  0.
        -12    1    3    3    0    0 -0.20856673155E+02 -0.21627848500E+02 -0.31318660923E+02  0.43400727734E+02  0.00000000000E+00 0.  1.
         11    1    4    4    0    0  0.41684151367E+01  0.37814381935E+01 -0.63450869797E+00  0.56637055990E+01  0.51100000000E-03 0. -1.
        -11    1    4    4    0    0  0.20250100380E+01  0.16963823410E+01  0.12877695476E+02  0.13145851807E+02  0.51100000000E-03 0.  1.
         12    1    4    4    0    0  0.14663247980E+02  0.16150027966E+02  0.19075474146E+02  0.28977714860E+02  0.00000000000E+00 0. -1.
</event>
<event>
 8    1  0.5250708E-010  0.9118800E+02  0.7816164E-02  0.1184000E+00
        -11   -1    0    0    0    0  0.00000000000E+00  0.00000000000E+00  0.45593999997E+02  0.45594000000E+02  0.51100000000E-03 0. -1.
         11   -1    0    0    0    0 -0.00000000000E+00 -0.00000000000E+00 -0.45593999997E+02  0.45594000000E+02  0.51100000000E-03 0.  1.
         23    2    1    2    0    0  0.00000000000E+00  0.00000000000E+00  0.71054273576E-14  0.91188000000E+02  0.91188000000E+02 0.  0.
    9900012    2    3    3    0    0 -0.10197563441E+02  0.67656101906E+01  0.41639640387E+02  0.47787269212E+02  0.19999991644E+02 0.  0.
        -12    1    3    3    0    0  0.10197563441E+02 -0.67656101906E+01 -0.41639640387E+02  0.43400730788E+02  0.00000000000E+00 0.  1.
         11    1    4    4    0    0 -0.48136501726E+01 -0.31021723955E+01  0.75486245247E+01  0.94750426929E+01  0.51100000000E-03 0.  1.
        -11    1    4    4    0    0  0.10006050955E+01  0.20889138877E+01  0.23821773127E+02  0.23934110532E+02  0.51100000000E-03 0. -1.
         12    1    4    4    0    0 -0.63845183641E+01  0.77788686983E+01  0.10269242735E+02  0.14378115987E+02  0.00000000000E+00 0. -1.
</event>
<event>
 8    1  0.5250708E-010  0.9118800E+02  0.7816164E-02  0.1184000E+00
        -11   -1    0    0    0    0  0.00000000000E+00  0.00000000000E+00  0.45593999997E+02  0.45594000000E+02  0.51100000000E-03 0. -1.
         11   -1    0    0    0    0 -0.00000000000E+00 -0.00000000000E+00 -0.45593999997E+02  0.45594000000E+02  0.51100000000E-03 0.  1.
         23    2    1    2    0    0 -0.44408920985E-15 -0.35527136788E-14  0.00000000000E+00  0.91188000000E+02  0.91188000000E+02 0.  0.
    9900012    2    3    3    0    0 -0.34749416752E+01 -0.17922076038E+02  0.39374455968E+02  0.47787264845E+02  0.19999971736E+02 0.  0.
        -12    1    3    3    0    0  0.34749416752E+01  0.17922076038E+02 -0.39374455968E+02  0.43400735155E+02  0.00000000000E+00 0.  1.
         11    1    4    4    0    0 -0.39349516741E+01 -0.30165164722E+01  0.95995113988E+01  0.10804343370E+02  0.51100000000E-03 0. -1.
        -11    1    4    4    0    0  0.58168873580E+01 -0.14861737537E+02  0.18060226254E+02  0.24101435512E+02  0.51100000000E-03 0.  1.
        -12    1    4    4    0    0 -0.53568773591E+01 -0.43822029482E-01  0.11714718315E+02  0.12881485963E+02  0.00000000000E+00 0.  1.
</event>
<event>
 8    1  0.5250708E-010  0.9118800E+02  0.7816164E-02  0.1184000E+00
        -11   -1    0    0    0    0  0.00000000000E+00  0.00000000000E+00  0.45593999997E+02  0.45594000000E+02  0.51100000000E-03 0. -1.
         11   -1    0    0    0    0 -0.00000000000E+00 -0.00000000000E+00 -0.45593999997E+02  0.45594000000E+02  0.51100000000E-03 0.  1.
         23    2    1    2    0    0  0.35527136788E-14  0.44408920985E-15  0.00000000000E+00  0.91188000000E+02  0.91188000000E+02 0.  0.
    9900012    2    3    3    0    0  0.24504772720E+02 -0.10501153065E+01 -0.35805547926E+02  0.47787263940E+02  0.19999967610E+02 0.  0.
         12    1    3    3    0    0 -0.24504772720E+02  0.10501153065E+01  0.35805547926E+02  0.43400736060E+02  0.00000000000E+00 0. -1.
         11    1    4    4    0    0  0.74951314253E+01  0.63496489940E+01 -0.11788396201E+02  0.15344749027E+02  0.51100000000E-03 0. -1.
        -11    1    4    4    0    0  0.11029093929E+02 -0.56352719378E+01 -0.67962508420E+01  0.14127499017E+02  0.51100000000E-03 0.  1.
        -12    1    4    4    0    0  0.59805473659E+01 -0.17644923628E+01 -0.17220900883E+02  0.18315015897E+02  0.00000000000E+00 0.  1.
</event>
<event>
 8    1  0.5250708E-010  0.9118800E+02  0.7816164E-02  0.1184000E+00
        -11   -1    0    0    0    0  0.00000000000E+00  0.00000000000E+00  0.45593999997E+02  0.45594000000E+02  0.51100000000E-03 0. -1.
         11   -1    0    0    0    0 -0.00000000000E+00 -0.00000000000E+00 -0.45593999997E+02  0.45594000000E+02  0.51100000000E-03 0.  1.
         23    2    1    2    0    0  0.22204460493E-15  0.00000000000E+00  0.35527136788E-14  0.91188000000E+02  0.91188000000E+02 0.  0.
    9900012    2    3    3    0    0 -0.11569719519E+01  0.30904658624E+02  0.30449745856E+02  0.47787268077E+02  0.19999986470E+02 0.  0.
        -12    1    3    3    0    0  0.11569719519E+01 -0.30904658624E+02 -0.30449745856E+02  0.43400731923E+02  0.00000000000E+00 0.  1.
         11    1    4    4    0    0 -0.50736728436E+01  0.87501839478E+01  0.28757266568E+01  0.10515592200E+02  0.51100000000E-03 0. -1.
        -11    1    4    4    0    0  0.17040803900E+00  0.32145145583E+01  0.12123700639E+02  0.12543773762E+02  0.51100000000E-03 0.  1.
         12    1    4    4    0    0  0.37462928528E+01  0.18939960118E+02  0.15450318560E+02  0.24727902115E+02  0.00000000000E+00 0. -1.
</event>
<event>
 8    1  0.5250708E-010  0.9118800E+02  0.7816164E-02  0.1184000E+00
        -11   -1    0    0    0    0  0.00000000000E+00  0.00000000000E+00  0.45593999997E+02  0.45594000000E+02  0.51100000000E-03 0. -1.
         11   -1    0    0    0    0 -0.00000000000E+00 -0.00000000000E+00 -0.45593999997E+02  0.45594000000E+02  0.51100000000E-03 0.  1.
         23    2    1    2    0    0  0.00000000000E+00  0.00000000000E+00 -0.71054273576E-14  0.91188000000E+02  0.91188000000E+02 0.  0.
    9900012    2    3    3    0    0  0.43047540462E+01  0.83780178759E+01  0.42366268208E+02  0.47787276817E+02  0.20000026319E+02 0.  0.
        -12    1    3    3    0    0 -0.43047540462E+01 -0.83780178759E+01 -0.42366268208E+02  0.43400723183E+02  0.00000000000E+00 0.  1.
         11    1    4    4    0    0  0.11726355247E+01  0.19560761292E+01  0.20211322791E+02  0.20339588912E+02  0.51100000000E-03 0. -1.
        -11    1    4    4    0    0  0.81993309338E+01  0.46692077502E+01  0.82096990890E+01  0.12507185462E+02  0.51100000000E-03 0.  1.
        -12    1    4    4    0    0 -0.50672124123E+01  0.17527339966E+01  0.13945246328E+02  0.14940502443E+02  0.00000000000E+00 0.  1.
</event>
<event>
 8    1  0.5250708E-010  0.9118800E+02  0.7816164E-02  0.1184000E+00
        -11   -1    0    0    0    0  0.00000000000E+00  0.00000000000E+00  0.45593999997E+02  0.45594000000E+02  0.51100000000E-03 0.  1.
         11   -1    0    0    0    0 -0.00000000000E+00 -0.00000000000E+00 -0.45593999997E+02  0.45594000000E+02  0.51100000000E-03 0. -1.
         23    2    1    2    0    0 -0.35527136788E-14  0.35527136788E-14 -0.35527136788E-14  0.91188000000E+02  0.91188000000E+02 0.  0.
    9900012    2    3    3    0    0 -0.15467558982E+02  0.30247580453E+02 -0.27008564116E+02  0.47787262221E+02  0.19999959771E+02 0.  0.
         12    1    3    3    0    0  0.15467558982E+02 -0.30247580453E+02  0.27008564116E+02  0.43400737779E+02  0.00000000000E+00 0. -1.
         11    1    4    4    0    0  0.27114371658E+01  0.44559522749E+01 -0.41536255872E+01  0.66678338282E+01  0.51100000000E-03 0. -1.
        -11    1    4    4    0    0  0.14244036632E+01  0.63924701165E+01 -0.53199732640E+01  0.84376961178E+01  0.51100000000E-03 0.  1.
        -12    1    4    4    0    0 -0.19603399811E+02  0.19399158062E+02 -0.17534965265E+02  0.32681732275E+02  0.00000000000E+00 0.  1.
</event>
<event>
 8    1  0.5250708E-010  0.9118800E+02  0.7816164E-02  0.1184000E+00
        -11   -1    0    0    0    0  0.00000000000E+00  0.00000000000E+00  0.45593999997E+02  0.45594000000E+02  0.51100000000E-03 0. -1.
         11   -1    0    0    0    0 -0.00000000000E+00 -0.00000000000E+00 -0.45593999997E+02  0.45594000000E+02  0.51100000000E-03 0.  1.
         23    2    1    2    0    0  0.00000000000E+00 -0.17763568394E-14  0.00000000000E+00  0.91188000000E+02  0.91188000000E+02 0.  0.
    9900012    2    3    3    0    0  0.10448538389E+02 -0.10457108190E+02  0.40805644083E+02  0.47787266652E+02  0.19999979972E+02 0.  0.
        -12    1    3    3    0    0 -0.10448538389E+02  0.10457108190E+02 -0.40805644083E+02  0.43400733348E+02  0.00000000000E+00 0.  1.
         11    1    4    4    0    0  0.12776078687E+02 -0.36036631445E+01  0.28439227164E+02  0.31384776829E+02  0.51100000000E-03 0. -1.
        -11    1    4    4    0    0  0.25494633443E+00 -0.62197053129E+00 -0.11296990606E+01  0.13145589389E+01  0.51100000000E-03 0.  1.
        -12    1    4    4    0    0 -0.25824866325E+01 -0.62314745139E+01  0.13496115979E+02  0.15087930884E+02  0.00000000000E+00 0.  1.
</event>
<event>
 8    1  0.5250708E-010  0.9118800E+02  0.7816164E-02  0.1184000E+00
        -11   -1    0    0    0    0  0.00000000000E+00  0.00000000000E+00  0.45593999997E+02  0.45594000000E+02  0.51100000000E-03 0.  1.
         11   -1    0    0    0    0 -0.00000000000E+00 -0.00000000000E+00 -0.45593999997E+02  0.45594000000E+02  0.51100000000E-03 0. -1.
         23    2    1    2    0    0  0.00000000000E+00 -0.71054273576E-14  0.35527136788E-14  0.91188000000E+02  0.91188000000E+02 0.  0.
    9900012    2    3    3    0    0  0.16722284233E+02  0.36163679160E+02 -0.17209789375E+02  0.47787270390E+02  0.19999997017E+02 0.  0.
         12    1    3    3    0    0 -0.16722284233E+02 -0.36163679160E+02  0.17209789375E+02  0.43400729610E+02  0.00000000000E+00 0. -1.
         11    1    4    4    0    0 -0.64689828739E+00  0.10224173044E+02 -0.14927730554E+01  0.10352804619E+02  0.51100000000E-03 0. -1.
        -11    1    4    4    0    0  0.83202462435E+01  0.32409993494E+01 -0.11938992613E+01  0.90086608351E+01  0.51100000000E-03 0.  1.
         12    1    4    4    0    0  0.90489362764E+01  0.22698506767E+02 -0.14523117058E+02  0.28425804936E+02  0.00000000000E+00 0. -1.
</event>
<event>
 8    1  0.5250708E-010  0.9118800E+02  0.7816164E-02  0.1184000E+00
        -11   -1    0    0    0    0  0.00000000000E+00  0.00000000000E+00  0.45593999997E+02  0.45594000000E+02  0.51100000000E-03 0. -1.
         11   -1    0    0    0    0 -0.00000000000E+00 -0.00000000000E+00 -0.45593999997E+02  0.45594000000E+02  0.51100000000E-03 0.  1.
         23    2    1    2    0    0 -0.88817841970E-15 -0.17763568394E-14  0.00000000000E+00  0.91188000000E+02  0.91188000000E+02 0.  0.
    9900012    2    3    3    0    0 -0.61617243820E+01  0.10849251343E+02 -0.41568635214E+02  0.47787256509E+02  0.19999933726E+02 0.  0.
         12    1    3    3    0    0  0.61617243820E+01 -0.10849251343E+02  0.41568635214E+02  0.43400743491E+02  0.00000000000E+00 0. -1.
         11    1    4    4    0    0 -0.45403013397E+01  0.48088828633E+01 -0.25485074958E+02  0.26329237294E+02  0.51100000000E-03 0. -1.
        -11    1    4    4    0    0  0.54125156521E+01  0.43568303947E+01 -0.84995286873E+01  0.10978127570E+02  0.51100000000E-03 0.  1.
         12    1    4    4    0    0 -0.70339386945E+01  0.16835380853E+01 -0.75840315689E+01  0.10479891645E+02  0.00000000000E+00 0. -1.
</event>
<event>
 8    1  0.5250708E-010  0.9118800E+02  0.7816164E-02  0.1184000E+00
        -11   -1    0    0    0    0  0.00000000000E+00  0.00000000000E+00  0.45593999997E+02  0.45594000000E+02  0.51100000000E-03 0. -1.
         11   -1    0    0    0    0 -0.00000000000E+00 -0.00000000000E+00 -0.45593999997E+02  0.45594000000E+02  0.51100000000E-03 0.  1.
         23    2    1    2    0    0 -0.17763568394E-14  0.00000000000E+00  0.00000000000E+00  0.91188000000E+02  0.91188000000E+02 0.  0.
    9900012    2    3    3    0    0 -0.75965896362E+01  0.37162084990E+02 -0.21092522860E+02  0.47787271256E+02  0.20000000965E+02 0.  0.
         12    1    3    3    0    0  0.75965896362E+01 -0.37162084990E+02  0.21092522860E+02  0.43400728744E+02  0.00000000000E+00 0. -1.
         11    1    4    4    0    0 -0.62470085224E+01  0.41893695062E+01 -0.29456417254E+01  0.80779166729E+01  0.51100000000E-03 0. -1.
        -11    1    4    4    0    0 -0.47925456800E+01  0.76863537683E+01 -0.85165882232E+01  0.12433052866E+02  0.51100000000E-03 0.  1.
         12    1    4    4    0    0  0.34429645662E+01  0.25286361715E+02 -0.96302929116E+01  0.27276301717E+02  0.00000000000E+00 0. -1.
</event>
<event>
 8    1  0.5250708E-010  0.9118800E+02  0.7816164E-02  0.1184000E+00
        -11   -1    0    0    0    0  0.00000000000E+00  0.00000000000E+00  0.45593999997E+02  0.45594000000E+02  0.51100000000E-03 0. -1.
         11   -1    0    0    0    0 -0.00000000000E+00 -0.00000000000E+00 -0.45593999997E+02  0.45594000000E+02  0.51100000000E-03 0.  1.
         23    2    1    2    0    0  0.00000000000E+00 -0.17763568394E-14  0.00000000000E+00  0.91188000000E+02  0.91188000000E+02 0.  0.
    9900012    2    3    3    0    0  0.20734048820E+02  0.13220411146E+02  0.35762314780E+02  0.47787271783E+02  0.20000003367E+02 0.  0.
        -12    1    3    3    0    0 -0.20734048820E+02 -0.13220411146E+02 -0.35762314780E+02  0.43400728217E+02  0.00000000000E+00 0.  1.
         11    1    4    4    0    0  0.36209676951E+01  0.69015691004E+01  0.10384964964E+02  0.12984242783E+02  0.51100000000E-03 0. -1.
        -11    1    4    4    0    0  0.12202137912E+02 -0.31666177543E+01  0.17327195576E+02  0.21427817071E+02  0.51100000000E-03 0.  1.
        -12    1    4    4    0    0  0.49109432137E+01  0.94854597995E+01  0.80501542402E+01  0.13375211929E+02  0.00000000000E+00 0.  1.
</event>
<event>
 8    1  0.5250708E-010  0.9118800E+02  0.7816164E-02  0.1184000E+00
        -11   -1    0    0    0    0  0.00000000000E+00  0.00000000000E+00  0.45593999997E+02  0.45594000000E+02  0.51100000000E-03 0. -1.
         11   -1    0    0    0    0 -0.00000000000E+00 -0.00000000000E+00 -0.45593999997E+02  0.45594000000E+02  0.51100000000E-03 0.  1.
         23    2    1    2    0    0  0.00000000000E+00  0.00000000000E+00 -0.71054273576E-14  0.91188000000E+02  0.91188000000E+02 0.  0.
    9900012    2    3    3    0    0 -0.23340285367E+02  0.16019521362E+02  0.32897249773E+02  0.47787273874E+02  0.20000012899E+02 0.  0.
        -12    1    3    3    0    0  0.23340285367E+02 -0.16019521362E+02 -0.32897249773E+02  0.43400726126E+02  0.00000000000E+00 0.  1.
         11    1    4    4    0    0 -0.14178363745E+02  0.23677658503E+01  0.13492631128E+02  0.19715055379E+02  0.51100000000E-03 0. -1.
        -11    1    4    4    0    0 -0.90820883036E+01  0.11378241194E+02  0.20810938438E+02  0.25397713668E+02  0.51100000000E-03 0.  1.
        -12    1    4    4    0    0 -0.79833318893E-01  0.22735143168E+01 -0.14063197926E+01  0.26745048264E+01  0.00000000000E+00 0.  1.
</event>
<event>
 8    1  0.5250708E-010  0.9118800E+02  0.7816164E-02  0.1184000E+00
        -11   -1    0    0    0    0  0.00000000000E+00  0.00000000000E+00  0.45593999997E+02  0.45594000000E+02  0.51100000000E-03 0. -1.
         11   -1    0    0    0    0 -0.00000000000E+00 -0.00000000000E+00 -0.45593999997E+02  0.45594000000E+02  0.51100000000E-03 0.  1.
         23    2    1    2    0    0  0.17763568394E-14  0.00000000000E+00  0.00000000000E+00  0.91188000000E+02  0.91188000000E+02 0.  0.
    9900012    2    3    3    0    0 -0.93782978056E+01 -0.14987544129E+02 -0.39636404181E+02  0.47787268610E+02  0.19999988901E+02 0.  0.
         12    1    3    3    0    0  0.93782978056E+01  0.14987544129E+02  0.39636404181E+02  0.43400731390E+02  0.00000000000E+00 0. -1.
         11    1    4    4    0    0 -0.11246057766E+02 -0.21734904210E+01 -0.20157326098E+02  0.23184384218E+02  0.51100000000E-03 0. -1.
        -11    1    4    4    0    0  0.11968165903E+01 -0.28147748873E+01 -0.44387841128E+00  0.30906885838E+01  0.51100000000E-03 0.  1.
        -12    1    4    4    0    0  0.67094337014E+00 -0.99992788207E+01 -0.19035199672E+02  0.21512195808E+02  0.00000000000E+00 0.  1.
</event>
<event>
 8    1  0.5250708E-010  0.9118800E+02  0.7816164E-02  0.1184000E+00
        -11   -1    0    0    0    0  0.00000000000E+00  0.00000000000E+00  0.45593999997E+02  0.45594000000E+02  0.51100000000E-03 0. -1.
         11   -1    0    0    0    0 -0.00000000000E+00 -0.00000000000E+00 -0.45593999997E+02  0.45594000000E+02  0.51100000000E-03 0.  1.
         23    2    1    2    0    0  0.17763568394E-14  0.00000000000E+00  0.00000000000E+00  0.91188000000E+02  0.91188000000E+02 0.  0.
    9900012    2    3    3    0    0 -0.13779157714E+02 -0.27722077032E+02 -0.30417827280E+02  0.47787274675E+02  0.20000016555E+02 0.  0.
         12    1    3    3    0    0  0.13779157714E+02  0.27722077032E+02  0.30417827280E+02  0.43400725325E+02  0.00000000000E+00 0. -1.
         11    1    4    4    0    0 -0.90752661092E+01 -0.12732945557E+02 -0.99030961957E+01  0.18508367622E+02  0.51100000000E-03 0. -1.
        -11    1    4    4    0    0 -0.61698822178E-01 -0.10834897927E+02 -0.38680987723E+01  0.11504825431E+02  0.51100000000E-03 0.  1.
         12    1    4    4    0    0 -0.46421927824E+01 -0.41542335488E+01 -0.16646632312E+02  0.17774081623E+02  0.00000000000E+00 0. -1.
</event>
<event>
 8    1  0.5250708E-010  0.9118800E+02  0.7816164E-02  0.1184000E+00
        -11   -1    0    0    0    0  0.00000000000E+00  0.00000000000E+00  0.45593999997E+02  0.45594000000E+02  0.51100000000E-03 0. -1.
         11   -1    0    0    0    0 -0.00000000000E+00 -0.00000000000E+00 -0.45593999997E+02  0.45594000000E+02  0.51100000000E-03 0.  1.
         23    2    1    2    0    0 -0.22204460493E-15  0.00000000000E+00  0.00000000000E+00  0.91188000000E+02  0.91188000000E+02 0.  0.
    9900012    2    3    3    0    0  0.38994670500E+00 -0.34070332656E+02  0.26882737117E+02  0.47787295160E+02  0.20000109950E+02 0.  0.
        -12    1    3    3    0    0 -0.38994670500E+00  0.34070332656E+02 -0.26882737117E+02  0.43400704840E+02  0.00000000000E+00 0.  1.
         11    1    4    4    0    0  0.27062132866E+01 -0.53964446362E+01  0.17996558590E+01  0.62995211354E+01  0.51100000000E-03 0. -1.
        -11    1    4    4    0    0  0.59696916694E+00 -0.68082559535E+00 -0.21449883004E+01  0.23282763469E+01  0.51100000000E-03 0.  1.
         12    1    4    4    0    0 -0.29132357485E+01 -0.27993062424E+02  0.27228069559E+02  0.39159497677E+02  0.00000000000E+00 0. -1.
</event>
<event>
 8    1  0.5250708E-010  0.9118800E+02  0.7816164E-02  0.1184000E+00
        -11   -1    0    0    0    0  0.00000000000E+00  0.00000000000E+00  0.45593999997E+02  0.45594000000E+02  0.51100000000E-03 0. -1.
         11   -1    0    0    0    0 -0.00000000000E+00 -0.00000000000E+00 -0.45593999997E+02  0.45594000000E+02  0.51100000000E-03 0.  1.
         23    2    1    2    0    0  0.00000000000E+00  0.00000000000E+00  0.00000000000E+00  0.91188000000E+02  0.91188000000E+02 0.  0.
    9900012    2    3    3    0    0 -0.20452444058E+02 -0.38275254802E+02 -0.57049700141E+00  0.47787273451E+02  0.20000010973E+02 0.  0.
        -12    1    3    3    0    0  0.20452444058E+02  0.38275254802E+02  0.57049700141E+00  0.43400726549E+02  0.00000000000E+00 0.  1.
         11    1    4    4    0    0 -0.16758255190E+01  0.30713606163E+00  0.36116467915E+01  0.39933340128E+01  0.51100000000E-03 0. -1.
        -11    1    4    4    0    0 -0.78073227332E+01 -0.12420182674E+02 -0.47483317503E+01  0.15419529195E+02  0.51100000000E-03 0.  1.
        -12    1    4    4    0    0 -0.10969295806E+02 -0.26162208190E+02  0.56618795740E+00  0.28374410243E+02  0.00000000000E+00 0.  1.
</event>
<event>
 8    1  0.5250708E-010  0.9118800E+02  0.7816164E-02  0.1184000E+00
        -11   -1    0    0    0    0  0.00000000000E+00  0.00000000000E+00  0.45593999997E+02  0.45594000000E+02  0.51100000000E-03 0.  1.
         11   -1    0    0    0    0 -0.00000000000E+00 -0.00000000000E+00 -0.45593999997E+02  0.45594000000E+02  0.51100000000E-03 0. -1.
         23    2    1    2    0    0  0.00000000000E+00  0.00000000000E+00  0.00000000000E+00  0.91188000000E+02  0.91188000000E+02 0.  0.
    9900012    2    3    3    0    0 -0.43209440596E+02 -0.23027951809E+01 -0.33562375642E+01  0.47787274742E+02  0.20000016860E+02 0.  0.
         12    1    3    3    0    0  0.43209440596E+02  0.23027951809E+01  0.33562375642E+01  0.43400725258E+02  0.00000000000E+00 0. -1.
         11    1    4    4    0    0 -0.12722760527E+02  0.16986185571E+01  0.60340108513E+01  0.14183202306E+02  0.51100000000E-03 0. -1.
        -11    1    4    4    0    0 -0.33417407611E+01 -0.21693995389E+01 -0.44137616791E+01  0.59459917671E+01  0.51100000000E-03 0.  1.
        -12    1    4    4    0    0 -0.27144939308E+02 -0.18320141990E+01 -0.49764867363E+01  0.27658080670E+02  0.00000000000E+00 0.  1.
</event>
<event>
 8    1  0.5250708E-010  0.9118800E+02  0.7816164E-02  0.1184000E+00
        -11   -1    0    0    0    0  0.00000000000E+00  0.00000000000E+00  0.45593999997E+02  0.45594000000E+02  0.51100000000E-03 0. -1.
         11   -1    0    0    0    0 -0.00000000000E+00 -0.00000000000E+00 -0.45593999997E+02  0.45594000000E+02  0.51100000000E-03 0.  1.
         23    2    1    2    0    0 -0.35527136788E-14  0.17763568394E-14  0.71054273576E-14  0.91188000000E+02  0.91188000000E+02 0.  0.
    9900012    2    3    3    0    0  0.21331861275E+02 -0.96722706717E+01 -0.36537956243E+02  0.47787269916E+02  0.19999994857E+02 0.  0.
         12    1    3    3    0    0 -0.21331861275E+02  0.96722706717E+01  0.36537956243E+02  0.43400730084E+02  0.00000000000E+00 0. -1.
         11    1    4    4    0    0  0.42419614993E+01 -0.61454274324E+00  0.18103241792E+01  0.46528672923E+01  0.51100000000E-03 0. -1.
        -11    1    4    4    0    0  0.75031964386E+01 -0.20626402898E+01 -0.13115866308E+02  0.15250521009E+02  0.51100000000E-03 0.  1.
        -12    1    4    4    0    0  0.95867033369E+01 -0.69950876387E+01 -0.25232414113E+02  0.27883881615E+02  0.00000000000E+00 0.  1.
</event>
<event>
 8    1  0.5250708E-010  0.9118800E+02  0.7816164E-02  0.1184000E+00
        -11   -1    0    0    0    0  0.00000000000E+00  0.00000000000E+00  0.45593999997E+02  0.45594000000E+02  0.51100000000E-03 0. -1.
         11   -1    0    0    0    0 -0.00000000000E+00 -0.00000000000E+00 -0.45593999997E+02  0.45594000000E+02  0.51100000000E-03 0.  1.
         23    2    1    2    0    0 -0.35527136788E-14  0.17763568394E-14  0.00000000000E+00  0.91188000000E+02  0.91188000000E+02 0.  0.
    9900012    2    3    3    0    0  0.30335266181E+02  0.12513011098E+02 -0.28404575076E+02  0.47787266063E+02  0.19999977287E+02 0.  0.
         12    1    3    3    0    0 -0.30335266181E+02 -0.12513011098E+02  0.28404575076E+02  0.43400733937E+02  0.00000000000E+00 0. -1.
         11    1    4    4    0    0  0.29337506363E+01  0.23043996855E+01 -0.10485580081E+02  0.11129444757E+02  0.51100000000E-03 0. -1.
        -11    1    4    4    0    0  0.50571828714E+01  0.12576871893E+01  0.18292246334E+01  0.55229465579E+01  0.51100000000E-03 0.  1.
        -12    1    4    4    0    0  0.22344332673E+02  0.89509242231E+01 -0.19748219629E+02  0.31134874748E+02  0.00000000000E+00 0.  1.
</event>
<event>
 8    1  0.5250708E-010  0.9118800E+02  0.7816164E-02  0.1184000E+00
        -11   -1    0    0    0    0  0.00000000000E+00  0.00000000000E+00  0.45593999997E+02  0.45594000000E+02  0.51100000000E-03 0. -1.
         11   -1    0    0    0    0 -0.00000000000E+00 -0.00000000000E+00 -0.45593999997E+02  0.45594000000E+02  0.51100000000E-03 0.  1.
         23    2    1    2    0    0  0.88817841970E-15 -0.11102230246E-15  0.00000000000E+00  0.91188000000E+02  0.91188000000E+02 0.  0.
    9900012    2    3    3    0    0  0.76883525863E+01 -0.70525565489E+00 -0.42708488183E+02  0.47787272888E+02  0.20000008404E+02 0.  0.
         12    1    3    3    0    0 -0.76883525863E+01  0.70525565489E+00  0.42708488183E+02  0.43400727112E+02  0.00000000000E+00 0. -1.
         11    1    4    4    0    0  0.48770693871E+01 -0.57681976998E+00 -0.17095450531E+01  0.52001030185E+01  0.51100000000E-03 0. -1.
        -11    1    4    4    0    0 -0.28766593708E+01 -0.35057230802E+01 -0.11639474165E+02  0.12491702148E+02  0.51100000000E-03 0.  1.
        -12    1    4    4    0    0  0.56879425700E+01  0.33772871953E+01 -0.29359468965E+02  0.30095467721E+02  0.00000000000E+00 0.  1.
</event>
<event>
 8    1  0.5250708E-010  0.9118800E+02  0.7816164E-02  0.1184000E+00
        -11   -1    0    0    0    0  0.00000000000E+00  0.00000000000E+00  0.45593999997E+02  0.45594000000E+02  0.51100000000E-03 0. -1.
         11   -1    0    0    0    0 -0.00000000000E+00 -0.00000000000E+00 -0.45593999997E+02  0.45594000000E+02  0.51100000000E-03 0.  1.
         23    2    1    2    0    0  0.00000000000E+00 -0.71054273576E-14  0.00000000000E+00  0.91188000000E+02  0.91188000000E+02 0.  0.
    9900012    2    3    3    0    0 -0.14902070484E+02 -0.33254210522E+02  0.23573476530E+02  0.47787273994E+02  0.20000013447E+02 0.  0.
        -12    1    3    3    0    0  0.14902070484E+02  0.33254210522E+02 -0.23573476530E+02  0.43400726006E+02  0.00000000000E+00 0.  1.
         11    1    4    4    0    0  0.13112634266E+01 -0.16696816345E+01  0.83469600948E+01  0.86127226601E+01  0.51100000000E-03 0.  1.
        -11    1    4    4    0    0 -0.86983225474E+01 -0.10545076480E+02  0.70797378004E+01  0.15394224264E+02  0.51100000000E-03 0. -1.
        -12    1    4    4    0    0 -0.75150113630E+01 -0.21039452408E+02  0.81467786350E+01  0.23780327070E+02  0.00000000000E+00 0.  1.
</event>
<event>
 8    1  0.5250708E-010  0.9118800E+02  0.7816164E-02  0.1184000E+00
        -11   -1    0    0    0    0  0.00000000000E+00  0.00000000000E+00  0.45593999997E+02  0.45594000000E+02  0.51100000000E-03 0.  1.
         11   -1    0    0    0    0 -0.00000000000E+00 -0.00000000000E+00 -0.45593999997E+02  0.45594000000E+02  0.51100000000E-03 0. -1.
         23    2    1    2    0    0  0.00000000000E+00 -0.71054273576E-14  0.00000000000E+00  0.91188000000E+02  0.91188000000E+02 0.  0.
    9900012    2    3    3    0    0  0.17859359928E+02  0.39516060663E+02  0.17741067680E+01  0.47787271409E+02  0.20000001664E+02 0.  0.
        -12    1    3    3    0    0 -0.17859359928E+02 -0.39516060663E+02 -0.17741067680E+01  0.43400728591E+02  0.00000000000E+00 0.  1.
         11    1    4    4    0    0  0.50591606043E+01  0.24868322573E+02 -0.86806773424E+00  0.25392560238E+02  0.51100000000E-03 0. -1.
        -11    1    4    4    0    0 -0.40762104819E+00  0.15817298756E+01  0.34302887981E+01  0.37993296538E+01  0.51100000000E-03 0.  1.
         12    1    4    4    0    0  0.13207820372E+02  0.13066008215E+02 -0.78811429580E+00  0.18595381518E+02  0.00000000000E+00 0. -1.
</event>
<event>
 8    1  0.5250708E-010  0.9118800E+02  0.7816164E-02  0.1184000E+00
        -11   -1    0    0    0    0  0.00000000000E+00  0.00000000000E+00  0.45593999997E+02  0.45594000000E+02  0.51100000000E-03 0. -1.
         11   -1    0    0    0    0 -0.00000000000E+00 -0.00000000000E+00 -0.45593999997E+02  0.45594000000E+02  0.51100000000E-03 0.  1.
         23    2    1    2    0    0  0.00000000000E+00  0.00000000000E+00  0.88817841970E-15  0.91188000000E+02  0.91188000000E+02 0.  0.
    9900012    2    3    3    0    0  0.15948980624E+02 -0.39923359830E+02 -0.59480973576E+01  0.47787256859E+02  0.19999935323E+02 0.  0.
         12    1    3    3    0    0 -0.15948980624E+02  0.39923359830E+02  0.59480973576E+01  0.43400743141E+02  0.00000000000E+00 0. -1.
         11    1    4    4    0    0  0.39087925916E+01 -0.22557984025E+02 -0.80323188510E-01  0.22894273408E+02  0.51100000000E-03 0. -1.
        -11    1    4    4    0    0  0.10343026555E+02 -0.17257680441E+02 -0.84327116285E+01  0.21815507287E+02  0.51100000000E-03 0.  1.
         12    1    4    4    0    0  0.16971614771E+01 -0.10769536374E+00  0.25649374595E+01  0.30774761643E+01  0.00000000000E+00 0. -1.
</event>
<event>
 8    1  0.5250708E-010  0.9118800E+02  0.7816164E-02  0.1184000E+00
        -11   -1    0    0    0    0  0.00000000000E+00  0.00000000000E+00  0.45593999997E+02  0.45594000000E+02  0.51100000000E-03 0. -1.
         11   -1    0    0    0    0 -0.00000000000E+00 -0.00000000000E+00 -0.45593999997E+02  0.45594000000E+02  0.51100000000E-03 0.  1.
         23    2    1    2    0    0 -0.35527136788E-14 -0.17763568394E-14  0.00000000000E+00  0.91188000000E+02  0.91188000000E+02 0.  0.
    9900012    2    3    3    0    0 -0.25776017751E+02 -0.10204586068E+02  0.33392908927E+02  0.47787273801E+02  0.20000012570E+02 0.  0.
        -12    1    3    3    0    0  0.25776017751E+02  0.10204586068E+02 -0.33392908927E+02  0.43400726199E+02  0.00000000000E+00 0.  1.
         11    1    4    4    0    0 -0.10220417292E+02  0.25339452373E+00  0.28918009214E+01  0.10624671818E+02  0.51100000000E-03 0.  1.
        -11    1    4    4    0    0 -0.11390624642E+02 -0.33269741116E+01  0.11874787213E+02  0.16787663866E+02  0.51100000000E-03 0. -1.
        -12    1    4    4    0    0 -0.41649758172E+01 -0.71310064806E+01  0.18626320793E+02  0.20374938117E+02  0.00000000000E+00 0.  1.
</event>
<event>
 8    1  0.5250708E-010  0.9118800E+02  0.7816164E-02  0.1184000E+00
        -11   -1    0    0    0    0  0.00000000000E+00  0.00000000000E+00  0.45593999997E+02  0.45594000000E+02  0.51100000000E-03 0. -1.
         11   -1    0    0    0    0 -0.00000000000E+00 -0.00000000000E+00 -0.45593999997E+02  0.45594000000E+02  0.51100000000E-03 0.  1.
         23    2    1    2    0    0  0.71054273576E-14  0.00000000000E+00 -0.35527136788E-14  0.91188000000E+02  0.91188000000E+02 0.  0.
    9900012    2    3    3    0    0 -0.36243744527E+02 -0.14675799131E+02  0.18831721998E+02  0.47787287437E+02  0.20000074742E+02 0.  0.
        -12    1    3    3    0    0  0.36243744527E+02  0.14675799131E+02 -0.18831721998E+02  0.43400712563E+02  0.00000000000E+00 0.  1.
         11    1    4    4    0    0 -0.65375699538E+01  0.23907421926E+01  0.62628586110E+01  0.93636994492E+01  0.51100000000E-03 0.  1.
        -11    1    4    4    0    0 -0.24071867400E+02 -0.87847609780E+01  0.56232977436E+01  0.26234486909E+02  0.51100000000E-03 0. -1.
         12    1    4    4    0    0 -0.56343071732E+01 -0.82817803458E+01  0.69455656437E+01  0.12189101080E+02  0.00000000000E+00 0. -1.
</event>
<event>
 8    1  0.5250708E-010  0.9118800E+02  0.7816164E-02  0.1184000E+00
        -11   -1    0    0    0    0  0.00000000000E+00  0.00000000000E+00  0.45593999997E+02  0.45594000000E+02  0.51100000000E-03 0. -1.
         11   -1    0    0    0    0 -0.00000000000E+00 -0.00000000000E+00 -0.45593999997E+02  0.45594000000E+02  0.51100000000E-03 0.  1.
         23    2    1    2    0    0  0.00000000000E+00 -0.22204460493E-15  0.00000000000E+00  0.91188000000E+02  0.91188000000E+02 0.  0.
    9900012    2    3    3    0    0  0.18917138155E+02 -0.17300839189E+01 -0.39022707408E+02  0.47787274202E+02  0.20000014396E+02 0.  0.
         12    1    3    3    0    0 -0.18917138155E+02  0.17300839189E+01  0.39022707408E+02  0.43400725798E+02  0.00000000000E+00 0. -1.
         11    1    4    4    0    0 -0.16787997121E+01 -0.38125567854E+01 -0.16407428947E+01  0.44772754241E+01  0.51100000000E-03 0.  1.
        -11    1    4    4    0    0  0.69616086789E+01  0.35259300958E+01 -0.99736452921E+01  0.12663719008E+02  0.51100000000E-03 0. -1.
        -12    1    4    4    0    0  0.13634329188E+02 -0.14434572292E+01 -0.27408319221E+02  0.30646279770E+02  0.00000000000E+00 0.  1.
</event>
<event>
 8    1  0.5250708E-010  0.9118800E+02  0.7816164E-02  0.1184000E+00
        -11   -1    0    0    0    0  0.00000000000E+00  0.00000000000E+00  0.45593999997E+02  0.45594000000E+02  0.51100000000E-03 0.  1.
         11   -1    0    0    0    0 -0.00000000000E+00 -0.00000000000E+00 -0.45593999997E+02  0.45594000000E+02  0.51100000000E-03 0. -1.
         23    2    1    2    0    0  0.71054273576E-14  0.00000000000E+00  0.00000000000E+00  0.91188000000E+02  0.91188000000E+02 0.  0.
    9900012    2    3    3    0    0  0.40002112849E+02  0.14469489364E+02 -0.86074388784E+01  0.47787272369E+02  0.20000006039E+02 0.  0.
         12    1    3    3    0    0 -0.40002112849E+02 -0.14469489364E+02  0.86074388784E+01  0.43400727631E+02  0.00000000000E+00 0. -1.
         11    1    4    4    0    0  0.25293524728E+02  0.14298354967E+02 -0.80442502985E+01  0.30148222353E+02  0.51100000000E-03 0. -1.
        -11    1    4    4    0    0  0.11750082470E+02 -0.17655230456E+01 -0.41657765586E+01  0.12591076374E+02  0.51100000000E-03 0.  1.
         12    1    4    4    0    0  0.29585056519E+01  0.19366574426E+01  0.36025879787E+01  0.50479736416E+01  0.00000000000E+00 0. -1.
</event>
<event>
 8    1  0.5250708E-010  0.9118800E+02  0.7816164E-02  0.1184000E+00
        -11   -1    0    0    0    0  0.00000000000E+00  0.00000000000E+00  0.45593999997E+02  0.45594000000E+02  0.51100000000E-03 0.  1.
         11   -1    0    0    0    0 -0.00000000000E+00 -0.00000000000E+00 -0.45593999997E+02  0.45594000000E+02  0.51100000000E-03 0. -1.
         23    2    1    2    0    0  0.00000000000E+00  0.35527136788E-14  0.35527136788E-14  0.91188000000E+02  0.91188000000E+02 0.  0.
    9900012    2    3    3    0    0 -0.28133638294E+02 -0.26794485050E+02 -0.19343660284E+02  0.47787271597E+02  0.20000002520E+02 0.  0.
         12    1    3    3    0    0  0.28133638294E+02  0.26794485050E+02  0.19343660284E+02  0.43400728403E+02  0.00000000000E+00 0. -1.
         11    1    4    4    0    0 -0.34530910368E+01  0.51498553006E+00  0.13563486778E+01  0.37454946004E+01  0.51100000000E-03 0. -1.
        -11    1    4    4    0    0 -0.12481994086E+02 -0.85612968196E+01 -0.27976699071E+01  0.15392301218E+02  0.51100000000E-03 0.  1.
         12    1    4    4    0    0 -0.12198553171E+02 -0.18748173760E+02 -0.17902339055E+02  0.28649475779E+02  0.00000000000E+00 0. -1.
</event>
<event>
 8    1  0.5250708E-010  0.9118800E+02  0.7816164E-02  0.1184000E+00
        -11   -1    0    0    0    0  0.00000000000E+00  0.00000000000E+00  0.45593999997E+02  0.45594000000E+02  0.51100000000E-03 0. -1.
         11   -1    0    0    0    0 -0.00000000000E+00 -0.00000000000E+00 -0.45593999997E+02  0.45594000000E+02  0.51100000000E-03 0.  1.
         23    2    1    2    0    0  0.17763568394E-14  0.17763568394E-14 -0.71054273576E-14  0.91188000000E+02  0.91188000000E+02 0.  0.
    9900012    2    3    3    0    0  0.12389029593E+02 -0.13771173756E+02  0.39249069702E+02  0.47787277042E+02  0.20000027344E+02 0.  0.
        -12    1    3    3    0    0 -0.12389029593E+02  0.13771173756E+02 -0.39249069702E+02  0.43400722958E+02  0.00000000000E+00 0.  1.
         11    1    4    4    0    0  0.93185638137E+01 -0.72761972659E+01  0.24952035947E+02  0.27611279876E+02  0.51100000000E-03 0. -1.
        -11    1    4    4    0    0 -0.40453254698E-01 -0.84921601818E+01  0.14117391534E+02  0.16474803945E+02  0.51100000000E-03 0.  1.
        -12    1    4    4    0    0  0.31109190338E+01  0.19971836919E+01  0.17964222007E+00  0.37011932213E+01  0.00000000000E+00 0.  1.
</event>
<event>
 8    1  0.5250708E-010  0.9118800E+02  0.7816164E-02  0.1184000E+00
        -11   -1    0    0    0    0  0.00000000000E+00  0.00000000000E+00  0.45593999997E+02  0.45594000000E+02  0.51100000000E-03 0. -1.
         11   -1    0    0    0    0 -0.00000000000E+00 -0.00000000000E+00 -0.45593999997E+02  0.45594000000E+02  0.51100000000E-03 0.  1.
         23    2    1    2    0    0  0.00000000000E+00  0.00000000000E+00  0.00000000000E+00  0.91188000000E+02  0.91188000000E+02 0.  0.
    9900012    2    3    3    0    0 -0.21488839783E+02 -0.53904620006E+01  0.37320178321E+02  0.47787273903E+02  0.20000013035E+02 0.  0.
        -12    1    3    3    0    0  0.21488839783E+02  0.53904620006E+01 -0.37320178321E+02  0.43400726097E+02  0.00000000000E+00 0.  1.
         11    1    4    4    0    0 -0.17434023893E+02 -0.12541696748E+01  0.25809694716E+02  0.31171436801E+02  0.51100000000E-03 0. -1.
        -11    1    4    4    0    0 -0.50468286263E+01 -0.71830974775E+01  0.84075024699E+01  0.12155388377E+02  0.51100000000E-03 0.  1.
        -12    1    4    4    0    0  0.99201273631E+00  0.30468051517E+01  0.31029811355E+01  0.44604487250E+01  0.00000000000E+00 0.  1.
</event>
<event>
 8    1  0.5250708E-010  0.9118800E+02  0.7816164E-02  0.1184000E+00
        -11   -1    0    0    0    0  0.00000000000E+00  0.00000000000E+00  0.45593999997E+02  0.45594000000E+02  0.51100000000E-03 0. -1.
         11   -1    0    0    0    0 -0.00000000000E+00 -0.00000000000E+00 -0.45593999997E+02  0.45594000000E+02  0.51100000000E-03 0.  1.
         23    2    1    2    0    0  0.71054273576E-14  0.00000000000E+00 -0.35527136788E-14  0.91188000000E+02  0.91188000000E+02 0.  0.
    9900012    2    3    3    0    0 -0.27237166329E+02 -0.16805647007E+02  0.29314333314E+02  0.47787272603E+02  0.20000007107E+02 0.  0.
        -12    1    3    3    0    0  0.27237166329E+02  0.16805647007E+02 -0.29314333314E+02  0.43400727397E+02  0.00000000000E+00 0.  1.
         11    1    4    4    0    0 -0.19990537060E+02 -0.12874320011E+02  0.21466073900E+02  0.32033763698E+02  0.51100000000E-03 0. -1.
        -11    1    4    4    0    0 -0.74463750830E+01  0.19479955525E+01  0.52842974116E+01  0.93363262553E+01  0.51100000000E-03 0.  1.
         12    1    4    4    0    0  0.19974581391E+00 -0.58793225486E+01  0.25639620018E+01  0.64171826503E+01  0.00000000000E+00 0. -1.
</event>
<event>
 8    1  0.5250708E-010  0.9118800E+02  0.7816164E-02  0.1184000E+00
        -11   -1    0    0    0    0  0.00000000000E+00  0.00000000000E+00  0.45593999997E+02  0.45594000000E+02  0.51100000000E-03 0. -1.
         11   -1    0    0    0    0 -0.00000000000E+00 -0.00000000000E+00 -0.45593999997E+02  0.45594000000E+02  0.51100000000E-03 0.  1.
         23    2    1    2    0    0  0.17763568394E-14 -0.17763568394E-14 -0.14210854715E-13  0.91188000000E+02  0.91188000000E+02 0.  0.
    9900012    2    3    3    0    0  0.13881729651E+02 -0.12387227301E+02 -0.39210680035E+02  0.47787271352E+02  0.20000001404E+02 0.  0.
         12    1    3    3    0    0 -0.13881729651E+02  0.12387227301E+02  0.39210680035E+02  0.43400728648E+02  0.00000000000E+00 0. -1.
         11    1    4    4    0    0 -0.20609911931E+01 -0.19467224377E+01 -0.54890645811E+00  0.28876827230E+01  0.51100000000E-03 0. -1.
        -11    1    4    4    0    0  0.17296496962E+02 -0.71096675380E+01 -0.28199789171E+02  0.33837025419E+02  0.51100000000E-03 0.  1.
        -12    1    4    4    0    0 -0.13537761183E+01 -0.33308373255E+01 -0.10461984406E+02  0.11062563210E+02  0.00000000000E+00 0.  1.
</event>
<event>
 8    1  0.5250708E-010  0.9118800E+02  0.7816164E-02  0.1184000E+00
        -11   -1    0    0    0    0  0.00000000000E+00  0.00000000000E+00  0.45593999997E+02  0.45594000000E+02  0.51100000000E-03 0. -1.
         11   -1    0    0    0    0 -0.00000000000E+00 -0.00000000000E+00 -0.45593999997E+02  0.45594000000E+02  0.51100000000E-03 0.  1.
         23    2    1    2    0    0  0.17763568394E-14 -0.11102230246E-15  0.71054273576E-14  0.91188000000E+02  0.91188000000E+02 0.  0.
    9900012    2    3    3    0    0 -0.87004012417E+01  0.84272693247E+00 -0.42511363511E+02  0.47787271918E+02  0.20000003983E+02 0.  0.
         12    1    3    3    0    0  0.87004012417E+01 -0.84272693247E+00  0.42511363511E+02  0.43400728082E+02  0.00000000000E+00 0. -1.
         11    1    4    4    0    0 -0.37549745656E+01  0.29686816851E+01 -0.13371338536E+02  0.14202309652E+02  0.51100000000E-03 0. -1.
        -11    1    4    4    0    0 -0.93946658125E+01 -0.50714067010E+01 -0.23550867456E+02  0.25857731336E+02  0.51100000000E-03 0.  1.
         12    1    4    4    0    0  0.44492391364E+01  0.29454519484E+01 -0.55891575197E+01  0.77272309305E+01  0.00000000000E+00 0. -1.
</event>
<event>
 8    1  0.5250708E-010  0.9118800E+02  0.7816164E-02  0.1184000E+00
        -11   -1    0    0    0    0  0.00000000000E+00  0.00000000000E+00  0.45593999997E+02  0.45594000000E+02  0.51100000000E-03 0. -1.
         11   -1    0    0    0    0 -0.00000000000E+00 -0.00000000000E+00 -0.45593999997E+02  0.45594000000E+02  0.51100000000E-03 0.  1.
         23    2    1    2    0    0  0.00000000000E+00  0.00000000000E+00  0.00000000000E+00  0.91188000000E+02  0.91188000000E+02 0.  0.
    9900012    2    3    3    0    0 -0.12905157324E+02 -0.30443485333E+02 -0.28111837212E+02  0.47787259497E+02  0.19999947349E+02 0.  0.
         12    1    3    3    0    0  0.12905157324E+02  0.30443485333E+02  0.28111837212E+02  0.43400740503E+02  0.00000000000E+00 0. -1.
         11    1    4    4    0    0 -0.54143961169E+01 -0.16274895474E+02 -0.16574303035E+02  0.23851528868E+02  0.51100000000E-03 0. -1.
        -11    1    4    4    0    0 -0.99196986555E+01 -0.14842237103E+02 -0.11803239965E+02  0.21401142436E+02  0.51100000000E-03 0.  1.
         12    1    4    4    0    0  0.24289374488E+01  0.67364724336E+00  0.26570578782E+00  0.25345881922E+01  0.00000000000E+00 0. -1.
</event>
<event>
 8    1  0.5250708E-010  0.9118800E+02  0.7816164E-02  0.1184000E+00
        -11   -1    0    0    0    0  0.00000000000E+00  0.00000000000E+00  0.45593999997E+02  0.45594000000E+02  0.51100000000E-03 0. -1.
         11   -1    0    0    0    0 -0.00000000000E+00 -0.00000000000E+00 -0.45593999997E+02  0.45594000000E+02  0.51100000000E-03 0.  1.
         23    2    1    2    0    0  0.00000000000E+00  0.17763568394E-14  0.35527136788E-14  0.91188000000E+02  0.91188000000E+02 0.  0.
    9900012    2    3    3    0    0  0.29612614721E+02 -0.62012715370E+01 -0.31116888020E+02  0.47787269138E+02  0.19999991307E+02 0.  0.
         12    1    3    3    0    0 -0.29612614721E+02  0.62012715370E+01  0.31116888020E+02  0.43400730862E+02  0.00000000000E+00 0. -1.
         11    1    4    4    0    0  0.22672101536E+01  0.44298520200E+01 -0.23027039146E+01  0.54832724152E+01  0.51100000000E-03 0. -1.
        -11    1    4    4    0    0  0.18068045300E+01 -0.95893407346E+00  0.63470951887E+00  0.21417174420E+01  0.51100000000E-03 0.  1.
        -12    1    4    4    0    0  0.25538600038E+02 -0.96721894836E+01 -0.29448893625E+02  0.40162279281E+02  0.00000000000E+00 0.  1.
</event>
<event>
 8    1  0.5250708E-010  0.9118800E+02  0.7816164E-02  0.1184000E+00
        -11   -1    0    0    0    0  0.00000000000E+00  0.00000000000E+00  0.45593999997E+02  0.45594000000E+02  0.51100000000E-03 0. -1.
         11   -1    0    0    0    0 -0.00000000000E+00 -0.00000000000E+00 -0.45593999997E+02  0.45594000000E+02  0.51100000000E-03 0.  1.
         23    2    1    2    0    0  0.17763568394E-14  0.00000000000E+00  0.00000000000E+00  0.91188000000E+02  0.91188000000E+02 0.  0.
    9900012    2    3    3    0    0  0.12663543440E+02 -0.16445956320E+02  0.38115463226E+02  0.47787270183E+02  0.19999996072E+02 0.  0.
        -12    1    3    3    0    0 -0.12663543440E+02  0.16445956320E+02 -0.38115463226E+02  0.43400729817E+02  0.00000000000E+00 0.  1.
         11    1    4    4    0    0  0.14763821716E+01 -0.53192166975E+01  0.29264283771E+01  0.62480199983E+01  0.51100000000E-03 0. -1.
        -11    1    4    4    0    0 -0.25486195709E+01 -0.38005000680E+01  0.22336718616E+01  0.50920087127E+01  0.51100000000E-03 0.  1.
         12    1    4    4    0    0  0.13735780840E+02 -0.73262395540E+01  0.32955362987E+02  0.36447241472E+02  0.00000000000E+00 0. -1.
</event>
<event>
 8    1  0.5250708E-010  0.9118800E+02  0.7816164E-02  0.1184000E+00
        -11   -1    0    0    0    0  0.00000000000E+00  0.00000000000E+00  0.45593999997E+02  0.45594000000E+02  0.51100000000E-03 0. -1.
         11   -1    0    0    0    0 -0.00000000000E+00 -0.00000000000E+00 -0.45593999997E+02  0.45594000000E+02  0.51100000000E-03 0.  1.
         23    2    1    2    0    0  0.35527136788E-14 -0.35527136788E-14 -0.35527136788E-14  0.91188000000E+02  0.91188000000E+02 0.  0.
    9900012    2    3    3    0    0 -0.25407844656E+02  0.24695989638E+02  0.25063412453E+02  0.47787249799E+02  0.19999903131E+02 0.  0.
        -12    1    3    3    0    0  0.25407844656E+02 -0.24695989638E+02 -0.25063412453E+02  0.43400750201E+02  0.00000000000E+00 0.  1.
         11    1    4    4    0    0 -0.17382816615E+02  0.83171250528E+01  0.20640816800E+02  0.28237921330E+02  0.51100000000E-03 0. -1.
        -11    1    4    4    0    0 -0.47978140026E+01  0.63100058591E+01 -0.38078196445E+00  0.79360058159E+01  0.51100000000E-03 0.  1.
         12    1    4    4    0    0 -0.32272140378E+01  0.10068858726E+02  0.48033776183E+01  0.11613322653E+02  0.00000000000E+00 0. -1.
</event>
<event>
 8    1  0.5250708E-010  0.9118800E+02  0.7816164E-02  0.1184000E+00
        -11   -1    0    0    0    0  0.00000000000E+00  0.00000000000E+00  0.45593999997E+02  0.45594000000E+02  0.51100000000E-03 0. -1.
         11   -1    0    0    0    0 -0.00000000000E+00 -0.00000000000E+00 -0.45593999997E+02  0.45594000000E+02  0.51100000000E-03 0.  1.
         23    2    1    2    0    0 -0.44408920985E-15  0.00000000000E+00 -0.35527136788E-14  0.91188000000E+02  0.91188000000E+02 0.  0.
    9900012    2    3    3    0    0 -0.17872308899E+01  0.31150378004E+02 -0.30167582259E+02  0.47787271165E+02  0.20000000551E+02 0.  0.
         12    1    3    3    0    0  0.17872308899E+01 -0.31150378004E+02  0.30167582259E+02  0.43400728835E+02  0.00000000000E+00 0. -1.
         11    1    4    4    0    0 -0.67688826045E+01  0.55088999536E+01 -0.11962451838E+02  0.14807633324E+02  0.51100000000E-03 0. -1.
        -11    1    4    4    0    0  0.47856043208E+01  0.58537959995E+01 -0.66176058049E+01  0.10047967116E+02  0.51100000000E-03 0.  1.
        -12    1    4    4    0    0  0.19604739381E+00  0.19787682051E+02 -0.11587524615E+02  0.22931670725E+02  0.00000000000E+00 0.  1.
</event>
<event>
 8    1  0.5250708E-010  0.9118800E+02  0.7816164E-02  0.1184000E+00
        -11   -1    0    0    0    0  0.00000000000E+00  0.00000000000E+00  0.45593999997E+02  0.45594000000E+02  0.51100000000E-03 0. -1.
         11   -1    0    0    0    0 -0.00000000000E+00 -0.00000000000E+00 -0.45593999997E+02  0.45594000000E+02  0.51100000000E-03 0.  1.
         23    2    1    2    0    0  0.00000000000E+00  0.00000000000E+00  0.00000000000E+00  0.91188000000E+02  0.91188000000E+02 0.  0.
    9900012    2    3    3    0    0  0.22794410717E+02 -0.20538833719E+01  0.36875732877E+02  0.47787271065E+02  0.20000000096E+02 0.  0.
        -12    1    3    3    0    0 -0.22794410717E+02  0.20538833719E+01 -0.36875732877E+02  0.43400728935E+02  0.00000000000E+00 0.  1.
         11    1    4    4    0    0  0.10653033838E+02 -0.23110432020E+00  0.74310627455E+01  0.12990813406E+02  0.51100000000E-03 0. -1.
        -11    1    4    4    0    0  0.94184000328E+01 -0.69246239096E+01  0.24660666895E+02  0.27291118838E+02  0.51100000000E-03 0.  1.
        -12    1    4    4    0    0  0.27229768458E+01  0.51018448579E+01  0.47840032368E+01  0.75053388216E+01  0.00000000000E+00 0.  1.
</event>
<event>
 8    1  0.5250708E-010  0.9118800E+02  0.7816164E-02  0.1184000E+00
        -11   -1    0    0    0    0  0.00000000000E+00  0.00000000000E+00  0.45593999997E+02  0.45594000000E+02  0.51100000000E-03 0. -1.
         11   -1    0    0    0    0 -0.00000000000E+00 -0.00000000000E+00 -0.45593999997E+02  0.45594000000E+02  0.51100000000E-03 0.  1.
         23    2    1    2    0    0  0.71054273576E-14  0.00000000000E+00  0.88817841970E-15  0.91188000000E+02  0.91188000000E+02 0.  0.
    9900012    2    3    3    0    0  0.42189876469E+02 -0.65267150992E+01  0.78127431590E+01  0.47787278322E+02  0.20000033182E+02 0.  0.
        -12    1    3    3    0    0 -0.42189876469E+02  0.65267150992E+01 -0.78127431590E+01  0.43400721678E+02  0.00000000000E+00 0.  1.
         11    1    4    4    0    0  0.23105300929E+02 -0.96512498891E+00  0.13630745441E+02  0.26843688621E+02  0.51100000000E-03 0. -1.
        -11    1    4    4    0    0  0.38849624672E+01 -0.24635906668E+01 -0.15622924293E+01  0.48582888182E+01  0.51100000000E-03 0.  1.
         12    1    4    4    0    0  0.15199613073E+02 -0.30979994435E+01 -0.42557098532E+01  0.16085300883E+02  0.00000000000E+00 0. -1.
</event>
<event>
 8    1  0.5250708E-010  0.9118800E+02  0.7816164E-02  0.1184000E+00
        -11   -1    0    0    0    0  0.00000000000E+00  0.00000000000E+00  0.45593999997E+02  0.45594000000E+02  0.51100000000E-03 0. -1.
         11   -1    0    0    0    0 -0.00000000000E+00 -0.00000000000E+00 -0.45593999997E+02  0.45594000000E+02  0.51100000000E-03 0.  1.
         23    2    1    2    0    0  0.35527136788E-14 -0.44408920985E-15  0.00000000000E+00  0.91188000000E+02  0.91188000000E+02 0.  0.
    9900012    2    3    3    0    0  0.26942248864E+02  0.37446721715E+01  0.33818868932E+02  0.47787271442E+02  0.20000001814E+02 0.  0.
        -12    1    3    3    0    0 -0.26942248864E+02 -0.37446721715E+01 -0.33818868932E+02  0.43400728558E+02  0.00000000000E+00 0.  1.
         11    1    4    4    0    0  0.24392103982E+02  0.10658859321E+01  0.28619615439E+02  0.37619054183E+02  0.51100000000E-03 0. -1.
        -11    1    4    4    0    0  0.33044100800E+01  0.49036951281E+01  0.51132947462E+01  0.78173611474E+01  0.51100000000E-03 0.  1.
        -12    1    4    4    0    0 -0.75426519788E+00 -0.22249088887E+01  0.85958746313E-01  0.23508561117E+01  0.00000000000E+00 0.  1.
</event>
<event>
 8    1  0.5250708E-010  0.9118800E+02  0.7816164E-02  0.1184000E+00
        -11   -1    0    0    0    0  0.00000000000E+00  0.00000000000E+00  0.45593999997E+02  0.45594000000E+02  0.51100000000E-03 0. -1.
         11   -1    0    0    0    0 -0.00000000000E+00 -0.00000000000E+00 -0.45593999997E+02  0.45594000000E+02  0.51100000000E-03 0.  1.
         23    2    1    2    0    0  0.00000000000E+00  0.00000000000E+00  0.00000000000E+00  0.91188000000E+02  0.91188000000E+02 0.  0.
    9900012    2    3    3    0    0  0.87385327312E+01 -0.15877801695E+02  0.39435476700E+02  0.47787270012E+02  0.19999995292E+02 0.  0.
        -12    1    3    3    0    0 -0.87385327312E+01  0.15877801695E+02 -0.39435476700E+02  0.43400729988E+02  0.00000000000E+00 0.  1.
         11    1    4    4    0    0  0.37627384953E+01 -0.43159660291E+01  0.34037198803E+01  0.66611615378E+01  0.51100000000E-03 0. -1.
        -11    1    4    4    0    0  0.33569353266E+00  0.34638511857E+01  0.32233683623E+01  0.47435281220E+01  0.51100000000E-03 0.  1.
         12    1    4    4    0    0  0.46401007033E+01 -0.15025686851E+02  0.32808388458E+02  0.36382580352E+02  0.00000000000E+00 0. -1.
</event>
<event>
 8    1  0.5250708E-010  0.9118800E+02  0.7816164E-02  0.1184000E+00
        -11   -1    0    0    0    0  0.00000000000E+00  0.00000000000E+00  0.45593999997E+02  0.45594000000E+02  0.51100000000E-03 0. -1.
         11   -1    0    0    0    0 -0.00000000000E+00 -0.00000000000E+00 -0.45593999997E+02  0.45594000000E+02  0.51100000000E-03 0.  1.
         23    2    1    2    0    0  0.00000000000E+00  0.35527136788E-14  0.71054273576E-14  0.91188000000E+02  0.91188000000E+02 0.  0.
    9900012    2    3    3    0    0 -0.11435755822E+02 -0.21260986934E+02 -0.36066837249E+02  0.47787276207E+02  0.20000023540E+02 0.  0.
         12    1    3    3    0    0  0.11435755822E+02  0.21260986934E+02  0.36066837249E+02  0.43400723793E+02  0.00000000000E+00 0. -1.
         11    1    4    4    0    0 -0.59135836255E+01 -0.56517770864E+00 -0.17536946958E+02  0.18515788020E+02  0.51100000000E-03 0. -1.
        -11    1    4    4    0    0  0.12061591927E+01 -0.95767316778E+01 -0.74470219676E+01  0.12191256952E+02  0.51100000000E-03 0.  1.
        -12    1    4    4    0    0 -0.67283313889E+01 -0.11119077547E+02 -0.11082868323E+02  0.17080231235E+02  0.00000000000E+00 0.  1.
</event>
<event>
 8    1  0.5250708E-010  0.9118800E+02  0.7816164E-02  0.1184000E+00
        -11   -1    0    0    0    0  0.00000000000E+00  0.00000000000E+00  0.45593999997E+02  0.45594000000E+02  0.51100000000E-03 0. -1.
         11   -1    0    0    0    0 -0.00000000000E+00 -0.00000000000E+00 -0.45593999997E+02  0.45594000000E+02  0.51100000000E-03 0.  1.
         23    2    1    2    0    0  0.00000000000E+00  0.00000000000E+00  0.00000000000E+00  0.91188000000E+02  0.91188000000E+02 0.  0.
    9900012    2    3    3    0    0 -0.24880609042E+02  0.28854425341E+01 -0.35443656349E+02  0.47787271201E+02  0.20000000712E+02 0.  0.
         12    1    3    3    0    0  0.24880609042E+02 -0.28854425341E+01  0.35443656349E+02  0.43400728799E+02  0.00000000000E+00 0. -1.
         11    1    4    4    0    0 -0.45438358950E+00  0.26771901393E+01 -0.13909371567E+02  0.14171959256E+02  0.51100000000E-03 0.  1.
        -11    1    4    4    0    0 -0.47816345513E+01 -0.23820316826E+01 -0.17672667929E+01  0.56268406852E+01  0.51100000000E-03 0. -1.
        -12    1    4    4    0    0 -0.19644590901E+02  0.25902840774E+01 -0.19767017989E+02  0.27988471260E+02  0.00000000000E+00 0.  1.
</event>
<event>
 8    1  0.5250708E-010  0.9118800E+02  0.7816164E-02  0.1184000E+00
        -11   -1    0    0    0    0  0.00000000000E+00  0.00000000000E+00  0.45593999997E+02  0.45594000000E+02  0.51100000000E-03 0. -1.
         11   -1    0    0    0    0 -0.00000000000E+00 -0.00000000000E+00 -0.45593999997E+02  0.45594000000E+02  0.51100000000E-03 0.  1.
         23    2    1    2    0    0  0.88817841970E-15  0.11102230246E-15 -0.71054273576E-14  0.91188000000E+02  0.91188000000E+02 0.  0.
    9900012    2    3    3    0    0  0.78424016894E+01 -0.65378777486E+00 -0.42681285922E+02  0.47787275690E+02  0.20000021179E+02 0.  0.
         12    1    3    3    0    0 -0.78424016894E+01  0.65378777486E+00  0.42681285922E+02  0.43400724310E+02  0.00000000000E+00 0. -1.
         11    1    4    4    0    0  0.54935097448E+01 -0.85801461020E+01 -0.14116278120E+02  0.17408815717E+02  0.51100000000E-03 0. -1.
        -11    1    4    4    0    0  0.41215123301E+01  0.44754892099E+01 -0.13256283242E+02  0.14585812052E+02  0.51100000000E-03 0.  1.
        -12    1    4    4    0    0 -0.17726203856E+01  0.34508691173E+01 -0.15308724560E+02  0.15792647921E+02  0.00000000000E+00 0.  1.
</event>
<event>
 8    1  0.5250708E-010  0.9118800E+02  0.7816164E-02  0.1184000E+00
        -11   -1    0    0    0    0  0.00000000000E+00  0.00000000000E+00  0.45593999997E+02  0.45594000000E+02  0.51100000000E-03 0. -1.
         11   -1    0    0    0    0 -0.00000000000E+00 -0.00000000000E+00 -0.45593999997E+02  0.45594000000E+02  0.51100000000E-03 0.  1.
         23    2    1    2    0    0  0.00000000000E+00  0.00000000000E+00  0.00000000000E+00  0.91188000000E+02  0.91188000000E+02 0.  0.
    9900012    2    3    3    0    0  0.43003464604E+02 -0.40851572688E+01  0.41996464671E+01  0.47787268344E+02  0.19999987687E+02 0.  0.
        -12    1    3    3    0    0 -0.43003464604E+02  0.40851572688E+01 -0.41996464671E+01  0.43400731656E+02  0.00000000000E+00 0.  1.
         11    1    4    4    0    0  0.15219586604E+02  0.49497405885E+01 -0.32261252614E+01  0.16326164055E+02  0.51100000000E-03 0. -1.
        -11    1    4    4    0    0  0.71805726679E+01 -0.72467697954E+00  0.56658552687E+01  0.91753853734E+01  0.51100000000E-03 0.  1.
        -12    1    4    4    0    0  0.20603305331E+02 -0.83102208777E+01  0.17599164599E+01  0.22285718915E+02  0.00000000000E+00 0.  1.
</event>
<event>
 8    1  0.5250708E-010  0.9118800E+02  0.7816164E-02  0.1184000E+00
        -11   -1    0    0    0    0  0.00000000000E+00  0.00000000000E+00  0.45593999997E+02  0.45594000000E+02  0.51100000000E-03 0.  1.
         11   -1    0    0    0    0 -0.00000000000E+00 -0.00000000000E+00 -0.45593999997E+02  0.45594000000E+02  0.51100000000E-03 0. -1.
         23    2    1    2    0    0 -0.71054273576E-14  0.00000000000E+00  0.44408920985E-15  0.91188000000E+02  0.91188000000E+02 0.  0.
    9900012    2    3    3    0    0 -0.39705906812E+02  0.17498741041E+02 -0.92630671035E+00  0.47787273993E+02  0.20000013444E+02 0.  0.
         12    1    3    3    0    0  0.39705906812E+02 -0.17498741041E+02  0.92630671035E+00  0.43400726007E+02  0.00000000000E+00 0. -1.
         11    1    4    4    0    0 -0.12970861601E+02  0.45371736740E+01  0.33730983725E+01  0.14149451880E+02  0.51100000000E-03 0. -1.
        -11    1    4    4    0    0 -0.20539673385E+02  0.53647775513E+01  0.29677109508E+01  0.21435165721E+02  0.51100000000E-03 0.  1.
         12    1    4    4    0    0 -0.61953718265E+01  0.75967898159E+01 -0.72671160337E+01  0.12202656392E+02  0.00000000000E+00 0. -1.
</event>
<event>
 8    1  0.5250708E-010  0.9118800E+02  0.7816164E-02  0.1184000E+00
        -11   -1    0    0    0    0  0.00000000000E+00  0.00000000000E+00  0.45593999997E+02  0.45594000000E+02  0.51100000000E-03 0. -1.
         11   -1    0    0    0    0 -0.00000000000E+00 -0.00000000000E+00 -0.45593999997E+02  0.45594000000E+02  0.51100000000E-03 0.  1.
         23    2    1    2    0    0  0.00000000000E+00 -0.35527136788E-14 -0.71054273576E-14  0.91188000000E+02  0.91188000000E+02 0.  0.
    9900012    2    3    3    0    0  0.21464274375E+01  0.20040312091E+02  0.38437018976E+02  0.47787243242E+02  0.19999873235E+02 0.  0.
        -12    1    3    3    0    0 -0.21464274375E+01 -0.20040312091E+02 -0.38437018976E+02  0.43400756758E+02  0.00000000000E+00 0.  1.
         11    1    4    4    0    0 -0.49916980405E+01  0.83203832523E+01  0.12687307084E+02  0.15972275608E+02  0.51100000000E-03 0. -1.
        -11    1    4    4    0    0 -0.31490131170E+01  0.40557653528E+01  0.11770577145E+02  0.12841806835E+02  0.51100000000E-03 0.  1.
        -12    1    4    4    0    0  0.10287138595E+02  0.76641634857E+01  0.13979134747E+02  0.18973160799E+02  0.00000000000E+00 0.  1.
</event>
<event>
 8    1  0.5250708E-010  0.9118800E+02  0.7816164E-02  0.1184000E+00
        -11   -1    0    0    0    0  0.00000000000E+00  0.00000000000E+00  0.45593999997E+02  0.45594000000E+02  0.51100000000E-03 0. -1.
         11   -1    0    0    0    0 -0.00000000000E+00 -0.00000000000E+00 -0.45593999997E+02  0.45594000000E+02  0.51100000000E-03 0.  1.
         23    2    1    2    0    0  0.00000000000E+00  0.00000000000E+00  0.00000000000E+00  0.91188000000E+02  0.91188000000E+02 0.  0.
    9900012    2    3    3    0    0  0.31519998475E+02 -0.13196742657E+02  0.26757401325E+02  0.47787275970E+02  0.20000022460E+02 0.  0.
        -12    1    3    3    0    0 -0.31519998475E+02  0.13196742657E+02 -0.26757401325E+02  0.43400724030E+02  0.00000000000E+00 0.  1.
         11    1    4    4    0    0  0.10323924098E+02 -0.55644564703E+01  0.34416951905E+01  0.12222595904E+02  0.51100000000E-03 0. -1.
        -11    1    4    4    0    0  0.21808939576E+02 -0.95877783178E+01  0.17973657373E+02  0.29843051086E+02  0.51100000000E-03 0.  1.
        -12    1    4    4    0    0 -0.61286519798E+00  0.19554921313E+01  0.53420487610E+01  0.57216289806E+01  0.00000000000E+00 0.  1.
</event>
<event>
 8    1  0.5250708E-010  0.9118800E+02  0.7816164E-02  0.1184000E+00
        -11   -1    0    0    0    0  0.00000000000E+00  0.00000000000E+00  0.45593999997E+02  0.45594000000E+02  0.51100000000E-03 0. -1.
         11   -1    0    0    0    0 -0.00000000000E+00 -0.00000000000E+00 -0.45593999997E+02  0.45594000000E+02  0.51100000000E-03 0.  1.
         23    2    1    2    0    0  0.35527136788E-14  0.00000000000E+00  0.00000000000E+00  0.91188000000E+02  0.91188000000E+02 0.  0.
    9900012    2    3    3    0    0  0.23848205696E+02 -0.11387774360E+02  0.34426807026E+02  0.47787270031E+02  0.19999995380E+02 0.  0.
        -12    1    3    3    0    0 -0.23848205696E+02  0.11387774360E+02 -0.34426807026E+02  0.43400729969E+02  0.00000000000E+00 0.  1.
         11    1    4    4    0    0  0.72044399125E+01  0.23703686858E+01  0.14471139267E+02  0.16338190662E+02  0.51100000000E-03 0. -1.
        -11    1    4    4    0    0  0.22763526498E+00 -0.32810037821E+01 -0.35794787891E+00  0.33083123458E+01  0.51100000000E-03 0.  1.
         12    1    4    4    0    0  0.16416130519E+02 -0.10477139264E+02  0.20313615638E+02  0.28140767023E+02  0.00000000000E+00 0. -1.
</event>
<event>
 8    1  0.5250708E-010  0.9118800E+02  0.7816164E-02  0.1184000E+00
        -11   -1    0    0    0    0  0.00000000000E+00  0.00000000000E+00  0.45593999997E+02  0.45594000000E+02  0.51100000000E-03 0. -1.
         11   -1    0    0    0    0 -0.00000000000E+00 -0.00000000000E+00 -0.45593999997E+02  0.45594000000E+02  0.51100000000E-03 0.  1.
         23    2    1    2    0    0  0.00000000000E+00  0.00000000000E+00 -0.44408920985E-15  0.91188000000E+02  0.91188000000E+02 0.  0.
    9900012    2    3    3    0    0 -0.42363728627E+02  0.93942213119E+01  0.82866669139E+00  0.47787267452E+02  0.19999983619E+02 0.  0.
        -12    1    3    3    0    0  0.42363728627E+02 -0.93942213119E+01 -0.82866669139E+00  0.43400732548E+02  0.00000000000E+00 0.  1.
         11    1    4    4    0    0 -0.12490279979E+02 -0.25597463987E+01 -0.16864395315E+01  0.12860928199E+02  0.51100000000E-03 0. -1.
        -11    1    4    4    0    0 -0.83178596704E+01  0.25073645576E+01  0.67651884788E+01  0.11010969164E+02  0.51100000000E-03 0.  1.
         12    1    4    4    0    0 -0.21555588978E+02  0.94466031529E+01 -0.42500822559E+01  0.23915370089E+02  0.00000000000E+00 0. -1.
</event>
<event>
 8    1  0.5250708E-010  0.9118800E+02  0.7816164E-02  0.1184000E+00
        -11   -1    0    0    0    0  0.00000000000E+00  0.00000000000E+00  0.45593999997E+02  0.45594000000E+02  0.51100000000E-03 0. -1.
         11   -1    0    0    0    0 -0.00000000000E+00 -0.00000000000E+00 -0.45593999997E+02  0.45594000000E+02  0.51100000000E-03 0.  1.
         23    2    1    2    0    0 -0.35527136788E-14  0.35527136788E-14  0.00000000000E+00  0.91188000000E+02  0.91188000000E+02 0.  0.
    9900012    2    3    3    0    0 -0.19604168671E+02  0.18180576279E+02  0.34187225931E+02  0.47787271895E+02  0.20000003879E+02 0.  0.
        -12    1    3    3    0    0  0.19604168671E+02 -0.18180576279E+02 -0.34187225931E+02  0.43400728105E+02  0.00000000000E+00 0.  1.
         11    1    4    4    0    0 -0.96630633688E+01  0.83718421793E+01  0.16198992869E+02  0.20636615647E+02  0.51100000000E-03 0. -1.
        -11    1    4    4    0    0 -0.26641481546E+01  0.83497429461E+01  0.12660196035E+01  0.88554332787E+01  0.51100000000E-03 0.  1.
         12    1    4    4    0    0 -0.72769571480E+01  0.14589911537E+01  0.16722213459E+02  0.18295222969E+02  0.00000000000E+00 0. -1.
</event>
<event>
 8    1  0.5250708E-010  0.9118800E+02  0.7816164E-02  0.1184000E+00
        -11   -1    0    0    0    0  0.00000000000E+00  0.00000000000E+00  0.45593999997E+02  0.45594000000E+02  0.51100000000E-03 0. -1.
         11   -1    0    0    0    0 -0.00000000000E+00 -0.00000000000E+00 -0.45593999997E+02  0.45594000000E+02  0.51100000000E-03 0.  1.
         23    2    1    2    0    0 -0.88817841970E-15  0.17763568394E-14  0.71054273576E-14  0.91188000000E+02  0.91188000000E+02 0.  0.
    9900012    2    3    3    0    0 -0.71480587148E+01  0.13700985245E+02  0.40556276083E+02  0.47787271092E+02  0.20000000215E+02 0.  0.
        -12    1    3    3    0    0  0.71480587148E+01 -0.13700985245E+02 -0.40556276083E+02  0.43400728908E+02  0.00000000000E+00 0.  1.
         11    1    4    4    0    0 -0.60655131446E+01  0.98488320288E+01  0.32324731220E+02  0.34331883006E+02  0.51100000000E-03 0. -1.
        -11    1    4    4    0    0  0.25674015512E+01 -0.20458127328E+01  0.45271634877E+01  0.55921471698E+01  0.51100000000E-03 0.  1.
        -12    1    4    4    0    0 -0.36499471214E+01  0.58979659494E+01  0.37043813750E+01  0.78632409158E+01  0.00000000000E+00 0.  1.
</event>
<event>
 8    1  0.5250708E-010  0.9118800E+02  0.7816164E-02  0.1184000E+00
        -11   -1    0    0    0    0  0.00000000000E+00  0.00000000000E+00  0.45593999997E+02  0.45594000000E+02  0.51100000000E-03 0. -1.
         11   -1    0    0    0    0 -0.00000000000E+00 -0.00000000000E+00 -0.45593999997E+02  0.45594000000E+02  0.51100000000E-03 0.  1.
         23    2    1    2    0    0  0.00000000000E+00 -0.35527136788E-14  0.00000000000E+00  0.91188000000E+02  0.91188000000E+02 0.  0.
    9900012    2    3    3    0    0  0.85872564741E+01  0.24209794729E+02  0.34982401717E+02  0.47787267697E+02  0.19999984738E+02 0.  0.
        -12    1    3    3    0    0 -0.85872564741E+01 -0.24209794729E+02 -0.34982401717E+02  0.43400732303E+02  0.00000000000E+00 0.  1.
         11    1    4    4    0    0  0.19885627957E+01  0.20898687529E+02  0.27188641419E+02  0.34350134569E+02  0.51100000000E-03 0.  1.
        -11    1    4    4    0    0  0.23078225982E+00 -0.70299745307E+00  0.55261908556E+01  0.55755045964E+01  0.51100000000E-03 0. -1.
        -12    1    4    4    0    0  0.63679114186E+01  0.40141046529E+01  0.22675694424E+01  0.78616285320E+01  0.00000000000E+00 0.  1.
</event>
<event>
 8    1  0.5250708E-010  0.9118800E+02  0.7816164E-02  0.1184000E+00
        -11   -1    0    0    0    0  0.00000000000E+00  0.00000000000E+00  0.45593999997E+02  0.45594000000E+02  0.51100000000E-03 0. -1.
         11   -1    0    0    0    0 -0.00000000000E+00 -0.00000000000E+00 -0.45593999997E+02  0.45594000000E+02  0.51100000000E-03 0.  1.
         23    2    1    2    0    0  0.00000000000E+00  0.00000000000E+00  0.35527136788E-14  0.91188000000E+02  0.91188000000E+02 0.  0.
    9900012    2    3    3    0    0  0.36728860202E+02 -0.14177295642E+02 -0.18265227655E+02  0.47787269306E+02  0.19999992075E+02 0.  0.
         12    1    3    3    0    0 -0.36728860202E+02  0.14177295642E+02  0.18265227655E+02  0.43400730694E+02  0.00000000000E+00 0. -1.
         11    1    4    4    0    0  0.74411990640E+01 -0.10476495971E+02 -0.93398555451E+01  0.15885884086E+02  0.51100000000E-03 0. -1.
        -11    1    4    4    0    0  0.63487692247E+00  0.13110455257E+01 -0.95336069131E+00  0.17409210051E+01  0.51100000000E-03 0.  1.
        -12    1    4    4    0    0  0.28652784216E+02 -0.50118451969E+01 -0.79720114184E+01  0.30160464215E+02  0.00000000000E+00 0.  1.
</event>
<event>
 8    1  0.5250708E-010  0.9118800E+02  0.7816164E-02  0.1184000E+00
        -11   -1    0    0    0    0  0.00000000000E+00  0.00000000000E+00  0.45593999997E+02  0.45594000000E+02  0.51100000000E-03 0. -1.
         11   -1    0    0    0    0 -0.00000000000E+00 -0.00000000000E+00 -0.45593999997E+02  0.45594000000E+02  0.51100000000E-03 0.  1.
         23    2    1    2    0    0  0.00000000000E+00  0.00000000000E+00  0.00000000000E+00  0.91188000000E+02  0.91188000000E+02 0.  0.
    9900012    2    3    3    0    0  0.96578342278E+01 -0.16921360495E+02 -0.38781657594E+02  0.47787272256E+02  0.20000005524E+02 0.  0.
         12    1    3    3    0    0 -0.96578342278E+01  0.16921360495E+02  0.38781657594E+02  0.43400727744E+02  0.00000000000E+00 0. -1.
         11    1    4    4    0    0 -0.61575031579E+00  0.84301140510E+00 -0.90108744570E+01  0.90711452101E+01  0.51100000000E-03 0. -1.
        -11    1    4    4    0    0  0.41328397621E+01 -0.95582137365E+01 -0.43106251044E+01  0.11270372815E+02  0.51100000000E-03 0.  1.
        -12    1    4    4    0    0  0.61407447815E+01 -0.82061581638E+01 -0.25460158032E+02  0.27445754231E+02  0.00000000000E+00 0.  1.
</event>
<event>
 8    1  0.5250708E-010  0.9118800E+02  0.7816164E-02  0.1184000E+00
        -11   -1    0    0    0    0  0.00000000000E+00  0.00000000000E+00  0.45593999997E+02  0.45594000000E+02  0.51100000000E-03 0. -1.
         11   -1    0    0    0    0 -0.00000000000E+00 -0.00000000000E+00 -0.45593999997E+02  0.45594000000E+02  0.51100000000E-03 0.  1.
         23    2    1    2    0    0  0.00000000000E+00  0.00000000000E+00  0.71054273576E-14  0.91188000000E+02  0.91188000000E+02 0.  0.
    9900012    2    3    3    0    0 -0.25367356078E+01 -0.25620318094E+02  0.34939769578E+02  0.47787271608E+02  0.20000002569E+02 0.  0.
        -12    1    3    3    0    0  0.25367356078E+01  0.25620318094E+02 -0.34939769578E+02  0.43400728392E+02  0.00000000000E+00 0.  1.
         11    1    4    4    0    0  0.32323273110E+01 -0.22084769545E+01  0.74379097181E+01  0.84052252522E+01  0.51100000000E-03 0. -1.
        -11    1    4    4    0    0 -0.82293169177E+00  0.28059921754E+00  0.86753772649E+01  0.87188372756E+01  0.51100000000E-03 0.  1.
         12    1    4    4    0    0 -0.49461312270E+01 -0.23692440357E+02  0.18826482595E+02  0.30663209080E+02  0.00000000000E+00 0. -1.
</event>
<event>
 8    1  0.5250708E-010  0.9118800E+02  0.7816164E-02  0.1184000E+00
        -11   -1    0    0    0    0  0.00000000000E+00  0.00000000000E+00  0.45593999997E+02  0.45594000000E+02  0.51100000000E-03 0. -1.
         11   -1    0    0    0    0 -0.00000000000E+00 -0.00000000000E+00 -0.45593999997E+02  0.45594000000E+02  0.51100000000E-03 0.  1.
         23    2    1    2    0    0  0.00000000000E+00 -0.44408920985E-15  0.35527136788E-14  0.91188000000E+02  0.91188000000E+02 0.  0.
    9900012    2    3    3    0    0  0.29977978249E+02 -0.37048833535E+01 -0.31164368423E+02  0.47787271898E+02  0.20000003893E+02 0.  0.
         12    1    3    3    0    0 -0.29977978249E+02  0.37048833535E+01  0.31164368423E+02  0.43400728102E+02  0.00000000000E+00 0. -1.
         11    1    4    4    0    0  0.86850749586E+01  0.16135119204E+01 -0.10595196423E+01  0.88969955540E+01  0.51100000000E-03 0. -1.
        -11    1    4    4    0    0  0.15523693320E+02 -0.69554341701E+01 -0.15154710740E+02  0.22782194289E+02  0.51100000000E-03 0.  1.
        -12    1    4    4    0    0  0.57692099704E+01  0.16370388962E+01 -0.14950138041E+02  0.16108082055E+02  0.00000000000E+00 0.  1.
</event>
<event>
 8    1  0.5250708E-010  0.9118800E+02  0.7816164E-02  0.1184000E+00
        -11   -1    0    0    0    0  0.00000000000E+00  0.00000000000E+00  0.45593999997E+02  0.45594000000E+02  0.51100000000E-03 0.  1.
         11   -1    0    0    0    0 -0.00000000000E+00 -0.00000000000E+00 -0.45593999997E+02  0.45594000000E+02  0.51100000000E-03 0. -1.
         23    2    1    2    0    0  0.00000000000E+00  0.71054273576E-14  0.00000000000E+00  0.91188000000E+02  0.91188000000E+02 0.  0.
    9900012    2    3    3    0    0 -0.36347836257E+02 -0.22927949743E+02  0.60635782889E+01  0.47787273490E+02  0.20000011148E+02 0.  0.
        -12    1    3    3    0    0  0.36347836257E+02  0.22927949743E+02 -0.60635782889E+01  0.43400726510E+02  0.00000000000E+00 0.  1.
         11    1    4    4    0    0 -0.99452514853E+01 -0.17156208382E+02  0.23182059989E+01  0.19965409900E+02  0.51100000000E-03 0. -1.
        -11    1    4    4    0    0 -0.16929040010E+02 -0.62542251127E+01  0.17834996405E+01  0.18135286009E+02  0.51100000000E-03 0.  1.
        -12    1    4    4    0    0 -0.94735447621E+01  0.48248375199E+00  0.19618726495E+01  0.96865775805E+01  0.00000000000E+00 0.  1.
</event>
<event>
 8    1  0.5250708E-010  0.9118800E+02  0.7816164E-02  0.1184000E+00
        -11   -1    0    0    0    0  0.00000000000E+00  0.00000000000E+00  0.45593999997E+02  0.45594000000E+02  0.51100000000E-03 0. -1.
         11   -1    0    0    0    0 -0.00000000000E+00 -0.00000000000E+00 -0.45593999997E+02  0.45594000000E+02  0.51100000000E-03 0.  1.
         23    2    1    2    0    0  0.00000000000E+00 -0.35527136788E-14  0.00000000000E+00  0.91188000000E+02  0.91188000000E+02 0.  0.
    9900012    2    3    3    0    0  0.17661351622E+02  0.18181714424E+02 -0.35229609949E+02  0.47787268466E+02  0.19999988243E+02 0.  0.
         12    1    3    3    0    0 -0.17661351622E+02 -0.18181714424E+02  0.35229609949E+02  0.43400731534E+02  0.00000000000E+00 0. -1.
         11    1    4    4    0    0  0.55926650000E+01  0.27108270356E+01 -0.11451703790E+02  0.13029505170E+02  0.51100000000E-03 0. -1.
        -11    1    4    4    0    0 -0.51725732008E+00  0.12270960373E+02 -0.10150232624E+02  0.15933337573E+02  0.51100000000E-03 0.  1.
        -12    1    4    4    0    0  0.12585943942E+02  0.31999270151E+01 -0.13627673535E+02  0.18824425723E+02  0.00000000000E+00 0.  1.
</event>
<event>
 8    1  0.5250708E-010  0.9118800E+02  0.7816164E-02  0.1184000E+00
        -11   -1    0    0    0    0  0.00000000000E+00  0.00000000000E+00  0.45593999997E+02  0.45594000000E+02  0.51100000000E-03 0. -1.
         11   -1    0    0    0    0 -0.00000000000E+00 -0.00000000000E+00 -0.45593999997E+02  0.45594000000E+02  0.51100000000E-03 0.  1.
         23    2    1    2    0    0 -0.35527136788E-14 -0.17763568394E-14  0.71054273576E-14  0.91188000000E+02  0.91188000000E+02 0.  0.
    9900012    2    3    3    0    0 -0.21209409688E+02 -0.12505749427E+02  0.35740590971E+02  0.47787277991E+02  0.20000031670E+02 0.  0.
        -12    1    3    3    0    0  0.21209409688E+02  0.12505749427E+02 -0.35740590971E+02  0.43400722009E+02  0.00000000000E+00 0.  1.
         11    1    4    4    0    0 -0.11337680372E+01 -0.79276714169E+01  0.65202420682E+01  0.10327001547E+02  0.51100000000E-03 0.  1.
        -11    1    4    4    0    0 -0.68898202352E+01  0.31931298921E+01  0.13692390553E+02  0.15657179207E+02  0.51100000000E-03 0. -1.
         12    1    4    4    0    0 -0.13185821415E+02 -0.77712079019E+01  0.15527958349E+02  0.21803097237E+02  0.00000000000E+00 0. -1.
</event>
<event>
 8    1  0.5250708E-010  0.9118800E+02  0.7816164E-02  0.1184000E+00
        -11   -1    0    0    0    0  0.00000000000E+00  0.00000000000E+00  0.45593999997E+02  0.45594000000E+02  0.51100000000E-03 0.  1.
         11   -1    0    0    0    0 -0.00000000000E+00 -0.00000000000E+00 -0.45593999997E+02  0.45594000000E+02  0.51100000000E-03 0. -1.
         23    2    1    2    0    0  0.00000000000E+00  0.00000000000E+00 -0.35527136788E-14  0.91188000000E+02  0.91188000000E+02 0.  0.
    9900012    2    3    3    0    0  0.89451381332E+01 -0.35799460768E+02  0.22847472107E+02  0.47787264186E+02  0.19999968731E+02 0.  0.
        -12    1    3    3    0    0 -0.89451381332E+01  0.35799460768E+02 -0.22847472107E+02  0.43400735814E+02  0.00000000000E+00 0.  1.
         11    1    4    4    0    0  0.96568886481E+01 -0.17217294053E+02  0.42999161175E+01  0.20203464845E+02  0.51100000000E-03 0.  1.
        -11    1    4    4    0    0  0.28229089408E+01 -0.15341839029E+02  0.13627061938E+02  0.20713224205E+02  0.51100000000E-03 0. -1.
        -12    1    4    4    0    0 -0.35346594557E+01 -0.32403276863E+01  0.49204940516E+01  0.68705751356E+01  0.00000000000E+00 0.  1.
</event>
<event>
 8    1  0.5250708E-010  0.9118800E+02  0.7816164E-02  0.1184000E+00
        -11   -1    0    0    0    0  0.00000000000E+00  0.00000000000E+00  0.45593999997E+02  0.45594000000E+02  0.51100000000E-03 0.  1.
         11   -1    0    0    0    0 -0.00000000000E+00 -0.00000000000E+00 -0.45593999997E+02  0.45594000000E+02  0.51100000000E-03 0. -1.
         23    2    1    2    0    0  0.35527136788E-14  0.71054273576E-14 -0.17763568394E-14  0.91188000000E+02  0.91188000000E+02 0.  0.
    9900012    2    3    3    0    0 -0.21729589160E+02 -0.36373000796E+02 -0.94048509810E+01  0.47787292011E+02  0.20000095597E+02 0.  0.
        -12    1    3    3    0    0  0.21729589160E+02  0.36373000796E+02  0.94048509810E+01  0.43400707989E+02  0.00000000000E+00 0.  1.
         11    1    4    4    0    0 -0.93598134845E+01 -0.98198864764E+01 -0.10115821102E+02  0.16922355501E+02  0.51100000000E-03 0. -1.
        -11    1    4    4    0    0  0.12376219112E+01 -0.63350329962E+01  0.71447184240E+00  0.64942144507E+01  0.51100000000E-03 0.  1.
         12    1    4    4    0    0 -0.13607397586E+02 -0.20218081323E+02 -0.35017218372E-02  0.24370722060E+02  0.00000000000E+00 0. -1.
</event>
<event>
 8    1  0.5250708E-010  0.9118800E+02  0.7816164E-02  0.1184000E+00
        -11   -1    0    0    0    0  0.00000000000E+00  0.00000000000E+00  0.45593999997E+02  0.45594000000E+02  0.51100000000E-03 0. -1.
         11   -1    0    0    0    0 -0.00000000000E+00 -0.00000000000E+00 -0.45593999997E+02  0.45594000000E+02  0.51100000000E-03 0.  1.
         23    2    1    2    0    0 -0.35527136788E-14  0.00000000000E+00  0.00000000000E+00  0.91188000000E+02  0.91188000000E+02 0.  0.
    9900012    2    3    3    0    0 -0.20836021295E+02  0.29992162347E+02 -0.23451083974E+02  0.47787275061E+02  0.20000018314E+02 0.  0.
         12    1    3    3    0    0  0.20836021295E+02 -0.29992162347E+02  0.23451083974E+02  0.43400724939E+02  0.00000000000E+00 0. -1.
         11    1    4    4    0    0 -0.50184124164E+00  0.98701611066E+00  0.99311343272E+00  0.14873869657E+01  0.51100000000E-03 0. -1.
        -11    1    4    4    0    0 -0.20640789549E+02  0.28908093159E+02 -0.17951445916E+02  0.39799176550E+02  0.51100000000E-03 0.  1.
        -12    1    4    4    0    0  0.30660949583E+00  0.97053077262E-01 -0.64927514901E+01  0.65007115452E+01  0.00000000000E+00 0.  1.
</event>
<event>
 8    1  0.5250708E-010  0.9118800E+02  0.7816164E-02  0.1184000E+00
        -11   -1    0    0    0    0  0.00000000000E+00  0.00000000000E+00  0.45593999997E+02  0.45594000000E+02  0.51100000000E-03 0. -1.
         11   -1    0    0    0    0 -0.00000000000E+00 -0.00000000000E+00 -0.45593999997E+02  0.45594000000E+02  0.51100000000E-03 0.  1.
         23    2    1    2    0    0  0.17763568394E-14 -0.35527136788E-14 -0.71054273576E-14  0.91188000000E+02  0.91188000000E+02 0.  0.
    9900012    2    3    3    0    0  0.15473108378E+02  0.21479980390E+02 -0.34392123588E+02  0.47787253402E+02  0.19999919559E+02 0.  0.
         12    1    3    3    0    0 -0.15473108378E+02 -0.21479980390E+02  0.34392123588E+02  0.43400746598E+02  0.00000000000E+00 0. -1.
         11    1    4    4    0    0  0.85237245193E+01  0.37211100473E+01 -0.66496712612E+01  0.11433226483E+02  0.51100000000E-03 0. -1.
        -11    1    4    4    0    0  0.91207023394E+01  0.15263791936E+02 -0.27852756164E+02  0.33044615017E+02  0.51100000000E-03 0.  1.
         12    1    4    4    0    0 -0.21713184810E+01  0.24950784065E+01  0.11030383715E+00  0.33094119020E+01  0.00000000000E+00 0. -1.
</event>
<event>
 8    1  0.5250708E-010  0.9118800E+02  0.7816164E-02  0.1184000E+00
        -11   -1    0    0    0    0  0.00000000000E+00  0.00000000000E+00  0.45593999997E+02  0.45594000000E+02  0.51100000000E-03 0. -1.
         11   -1    0    0    0    0 -0.00000000000E+00 -0.00000000000E+00 -0.45593999997E+02  0.45594000000E+02  0.51100000000E-03 0.  1.
         23    2    1    2    0    0 -0.35527136788E-14  0.17763568394E-14  0.00000000000E+00  0.91188000000E+02  0.91188000000E+02 0.  0.
    9900012    2    3    3    0    0 -0.14703476687E+02  0.13231085165E+02  0.38631196768E+02  0.47787271837E+02  0.20000003616E+02 0.  0.
        -12    1    3    3    0    0  0.14703476687E+02 -0.13231085165E+02 -0.38631196768E+02  0.43400728163E+02  0.00000000000E+00 0.  1.
         11    1    4    4    0    0 -0.85772765173E+01  0.15241403794E+02  0.22831525010E+02  0.28760191178E+02  0.51100000000E-03 0. -1.
        -11    1    4    4    0    0 -0.43296467690E+01  0.23724832862E+01  0.11928013209E+02  0.12909377114E+02  0.51100000000E-03 0.  1.
        -12    1    4    4    0    0 -0.17965534010E+01 -0.43828019153E+01  0.38716585484E+01  0.61177035451E+01  0.00000000000E+00 0.  1.
</event>
<event>
 8    1  0.5250708E-010  0.9118800E+02  0.7816164E-02  0.1184000E+00
        -11   -1    0    0    0    0  0.00000000000E+00  0.00000000000E+00  0.45593999997E+02  0.45594000000E+02  0.51100000000E-03 0. -1.
         11   -1    0    0    0    0 -0.00000000000E+00 -0.00000000000E+00 -0.45593999997E+02  0.45594000000E+02  0.51100000000E-03 0.  1.
         23    2    1    2    0    0 -0.22204460493E-15  0.35527136788E-14 -0.71054273576E-14  0.91188000000E+02  0.91188000000E+02 0.  0.
    9900012    2    3    3    0    0  0.12844760653E+01  0.23392196025E+02  0.36534626663E+02  0.47787266607E+02  0.19999979767E+02 0.  0.
        -12    1    3    3    0    0 -0.12844760653E+01 -0.23392196025E+02 -0.36534626663E+02  0.43400733393E+02  0.00000000000E+00 0.  1.
         11    1    4    4    0    0  0.41964021954E+01  0.12135527713E+02  0.16571422312E+02  0.20964085049E+02  0.51100000000E-03 0. -1.
        -11    1    4    4    0    0 -0.33007968413E+01  0.67794215982E+01  0.13312548389E+01  0.76568960226E+01  0.51100000000E-03 0.  1.
         12    1    4    4    0    0  0.38887071126E+00  0.44772467139E+01  0.18631949513E+02  0.19166285535E+02  0.00000000000E+00 0. -1.
</event>
<event>
 8    1  0.5250708E-010  0.9118800E+02  0.7816164E-02  0.1184000E+00
        -11   -1    0    0    0    0  0.00000000000E+00  0.00000000000E+00  0.45593999997E+02  0.45594000000E+02  0.51100000000E-03 0. -1.
         11   -1    0    0    0    0 -0.00000000000E+00 -0.00000000000E+00 -0.45593999997E+02  0.45594000000E+02  0.51100000000E-03 0.  1.
         23    2    1    2    0    0  0.00000000000E+00  0.00000000000E+00 -0.35527136788E-14  0.91188000000E+02  0.91188000000E+02 0.  0.
    9900012    2    3    3    0    0  0.21766603080E+02 -0.20322236484E+02  0.31572856164E+02  0.47787267844E+02  0.19999985408E+02 0.  0.
        -12    1    3    3    0    0 -0.21766603080E+02  0.20322236484E+02 -0.31572856164E+02  0.43400732156E+02  0.00000000000E+00 0.  1.
         11    1    4    4    0    0  0.38260889370E+01 -0.27674064603E+00  0.13069889300E+02  0.13621216851E+02  0.51100000000E-03 0. -1.
        -11    1    4    4    0    0  0.14965940863E+02 -0.13161963727E+02  0.17644176018E+02  0.26618294887E+02  0.51100000000E-03 0.  1.
        -12    1    4    4    0    0  0.29745732798E+01 -0.68835321105E+01  0.85879084606E+00  0.75477561057E+01  0.00000000000E+00 0.  1.
</event>
<event>
 8    1  0.5250708E-010  0.9118800E+02  0.7816164E-02  0.1184000E+00
        -11   -1    0    0    0    0  0.00000000000E+00  0.00000000000E+00  0.45593999997E+02  0.45594000000E+02  0.51100000000E-03 0. -1.
         11   -1    0    0    0    0 -0.00000000000E+00 -0.00000000000E+00 -0.45593999997E+02  0.45594000000E+02  0.51100000000E-03 0.  1.
         23    2    1    2    0    0  0.00000000000E+00  0.00000000000E+00  0.00000000000E+00  0.91188000000E+02  0.91188000000E+02 0.  0.
    9900012    2    3    3    0    0 -0.41536453587E+01  0.27615985431E+02 -0.33222401153E+02  0.47787270059E+02  0.19999995506E+02 0.  0.
         12    1    3    3    0    0  0.41536453587E+01 -0.27615985431E+02  0.33222401153E+02  0.43400729941E+02  0.00000000000E+00 0. -1.
         11    1    4    4    0    0 -0.27383663873E+01  0.91628558332E-01 -0.59025982761E+00  0.28027581396E+01  0.51100000000E-03 0. -1.
        -11    1    4    4    0    0 -0.23632952612E+01  0.10998694520E+02 -0.40525414223E+01  0.11957405148E+02  0.51100000000E-03 0.  1.
        -12    1    4    4    0    0  0.94801628976E+00  0.16525662352E+02 -0.28579599903E+02  0.33027106771E+02  0.00000000000E+00 0.  1.
</event>
<event>
 8    1  0.5250708E-010  0.9118800E+02  0.7816164E-02  0.1184000E+00
        -11   -1    0    0    0    0  0.00000000000E+00  0.00000000000E+00  0.45593999997E+02  0.45594000000E+02  0.51100000000E-03 0. -1.
         11   -1    0    0    0    0 -0.00000000000E+00 -0.00000000000E+00 -0.45593999997E+02  0.45594000000E+02  0.51100000000E-03 0.  1.
         23    2    1    2    0    0  0.00000000000E+00  0.00000000000E+00  0.00000000000E+00  0.91188000000E+02  0.91188000000E+02 0.  0.
    9900012    2    3    3    0    0  0.98239427063E+01 -0.13355075190E+02 -0.40109294943E+02  0.47787269310E+02  0.19999992090E+02 0.  0.
         12    1    3    3    0    0 -0.98239427063E+01  0.13355075190E+02  0.40109294943E+02  0.43400730690E+02  0.00000000000E+00 0. -1.
         11    1    4    4    0    0  0.19739763863E+01 -0.58113794530E+00 -0.15491034696E+02  0.15627106588E+02  0.51100000000E-03 0.  1.
        -11    1    4    4    0    0  0.35341596158E+01 -0.99182628281E+01 -0.24841012549E+02  0.26980328509E+02  0.51100000000E-03 0. -1.
         12    1    4    4    0    0  0.43158067042E+01 -0.28556744171E+01  0.22275230239E+00  0.51798342129E+01  0.00000000000E+00 0. -1.
</event>
<event>
 8    1  0.5250708E-010  0.9118800E+02  0.7816164E-02  0.1184000E+00
        -11   -1    0    0    0    0  0.00000000000E+00  0.00000000000E+00  0.45593999997E+02  0.45594000000E+02  0.51100000000E-03 0. -1.
         11   -1    0    0    0    0 -0.00000000000E+00 -0.00000000000E+00 -0.45593999997E+02  0.45594000000E+02  0.51100000000E-03 0.  1.
         23    2    1    2    0    0 -0.35527136788E-14  0.71054273576E-14  0.35527136788E-14  0.91188000000E+02  0.91188000000E+02 0.  0.
    9900012    2    3    3    0    0  0.30117497979E+02 -0.29726066722E+02 -0.96395410711E+01  0.47787268677E+02  0.19999989207E+02 0.  0.
         12    1    3    3    0    0 -0.30117497979E+02  0.29726066722E+02  0.96395410711E+01  0.43400731323E+02  0.00000000000E+00 0. -1.
         11    1    4    4    0    0  0.33371552584E+01 -0.51303829522E+01  0.25492491343E+00  0.61255547853E+01  0.51100000000E-03 0. -1.
        -11    1    4    4    0    0  0.19471256144E+02 -0.14815960630E+02 -0.14696891620E+02  0.28541918799E+02  0.51100000000E-03 0.  1.
        -12    1    4    4    0    0  0.73090865773E+01 -0.97797231403E+01  0.48024256353E+01  0.13119795093E+02  0.00000000000E+00 0.  1.
</event>
<event>
 8    1  0.5250708E-010  0.9118800E+02  0.7816164E-02  0.1184000E+00
        -11   -1    0    0    0    0  0.00000000000E+00  0.00000000000E+00  0.45593999997E+02  0.45594000000E+02  0.51100000000E-03 0. -1.
         11   -1    0    0    0    0 -0.00000000000E+00 -0.00000000000E+00 -0.45593999997E+02  0.45594000000E+02  0.51100000000E-03 0.  1.
         23    2    1    2    0    0  0.00000000000E+00  0.00000000000E+00  0.00000000000E+00  0.91188000000E+02  0.91188000000E+02 0.  0.
    9900012    2    3    3    0    0  0.23817312658E+02  0.89185490352E+01  0.35168431214E+02  0.47787268978E+02  0.19999990579E+02 0.  0.
        -12    1    3    3    0    0 -0.23817312658E+02 -0.89185490352E+01 -0.35168431214E+02  0.43400731022E+02  0.00000000000E+00 0.  1.
         11    1    4    4    0    0  0.13186856864E+02  0.49479780115E+01  0.16643543661E+02  0.21803284757E+02  0.51100000000E-03 0. -1.
        -11    1    4    4    0    0  0.13216864455E+02  0.42901976394E+01  0.10136236029E+02  0.17199842525E+02  0.51100000000E-03 0.  1.
         12    1    4    4    0    0 -0.25864086605E+01 -0.31962661575E+00  0.83886515241E+01  0.87841416954E+01  0.00000000000E+00 0. -1.
</event>
<event>
 8    1  0.5250708E-010  0.9118800E+02  0.7816164E-02  0.1184000E+00
        -11   -1    0    0    0    0  0.00000000000E+00  0.00000000000E+00  0.45593999997E+02  0.45594000000E+02  0.51100000000E-03 0. -1.
         11   -1    0    0    0    0 -0.00000000000E+00 -0.00000000000E+00 -0.45593999997E+02  0.45594000000E+02  0.51100000000E-03 0.  1.
         23    2    1    2    0    0  0.35527136788E-14  0.35527136788E-14  0.17763568394E-14  0.91188000000E+02  0.91188000000E+02 0.  0.
    9900012    2    3    3    0    0 -0.29191071527E+02 -0.29895024574E+02 -0.11738497750E+02  0.47787268663E+02  0.19999989140E+02 0.  0.
         12    1    3    3    0    0  0.29191071527E+02  0.29895024574E+02  0.11738497750E+02  0.43400731337E+02  0.00000000000E+00 0. -1.
         11    1    4    4    0    0  0.49811272009E+00 -0.25742599898E+01  0.32007135168E+01  0.41375715165E+01  0.51100000000E-03 0. -1.
        -11    1    4    4    0    0 -0.13868231361E+02 -0.12494570377E+02 -0.30262878615E+01  0.18910329147E+02  0.51100000000E-03 0.  1.
         12    1    4    4    0    0 -0.15820952886E+02 -0.14826194208E+02 -0.11912923405E+02  0.24739367999E+02  0.00000000000E+00 0. -1.
</event>
<event>
 8    1  0.5250708E-010  0.9118800E+02  0.7816164E-02  0.1184000E+00
        -11   -1    0    0    0    0  0.00000000000E+00  0.00000000000E+00  0.45593999997E+02  0.45594000000E+02  0.51100000000E-03 0. -1.
         11   -1    0    0    0    0 -0.00000000000E+00 -0.00000000000E+00 -0.45593999997E+02  0.45594000000E+02  0.51100000000E-03 0.  1.
         23    2    1    2    0    0  0.00000000000E+00  0.00000000000E+00  0.00000000000E+00  0.91188000000E+02  0.91188000000E+02 0.  0.
    9900012    2    3    3    0    0  0.11317242185E+02 -0.52503384227E+01 -0.41568937102E+02  0.47787279315E+02  0.20000037708E+02 0.  0.
         12    1    3    3    0    0 -0.11317242185E+02  0.52503384227E+01  0.41568937102E+02  0.43400720685E+02  0.00000000000E+00 0. -1.
         11    1    4    4    0    0  0.29092699703E+01 -0.38619279892E+01 -0.47968564189E+01  0.68108862359E+01  0.51100000000E-03 0. -1.
        -11    1    4    4    0    0  0.62839196154E+01 -0.39412854128E+01 -0.48065058611E+01  0.88387711415E+01  0.51100000000E-03 0.  1.
        -12    1    4    4    0    0  0.21240525991E+01  0.25528749793E+01 -0.31965574822E+02  0.32137621937E+02  0.00000000000E+00 0.  1.
</event>
<event>
 8    1  0.5250708E-010  0.9118800E+02  0.7816164E-02  0.1184000E+00
        -11   -1    0    0    0    0  0.00000000000E+00  0.00000000000E+00  0.45593999997E+02  0.45594000000E+02  0.51100000000E-03 0. -1.
         11   -1    0    0    0    0 -0.00000000000E+00 -0.00000000000E+00 -0.45593999997E+02  0.45594000000E+02  0.51100000000E-03 0.  1.
         23    2    1    2    0    0  0.00000000000E+00  0.00000000000E+00 -0.71054273576E-14  0.91188000000E+02  0.91188000000E+02 0.  0.
    9900012    2    3    3    0    0 -0.28664041767E+01  0.75400635517E+00 -0.43299407097E+02  0.47787268976E+02  0.19999990567E+02 0.  0.
         12    1    3    3    0    0  0.28664041767E+01 -0.75400635517E+00  0.43299407097E+02  0.43400731024E+02  0.00000000000E+00 0. -1.
         11    1    4    4    0    0  0.31765505822E+00 -0.71602407904E+00 -0.11577298811E+01  0.13978318771E+01  0.51100000000E-03 0. -1.
        -11    1    4    4    0    0 -0.50246013985E+01  0.39844436281E+00 -0.43547048725E+02  0.43837778571E+02  0.51100000000E-03 0.  1.
         12    1    4    4    0    0  0.18405421635E+01  0.10715860714E+01  0.14053715087E+01  0.25516585276E+01  0.00000000000E+00 0. -1.
</event>
<event>
 8    1  0.5250708E-010  0.9118800E+02  0.7816164E-02  0.1184000E+00
        -11   -1    0    0    0    0  0.00000000000E+00  0.00000000000E+00  0.45593999997E+02  0.45594000000E+02  0.51100000000E-03 0. -1.
         11   -1    0    0    0    0 -0.00000000000E+00 -0.00000000000E+00 -0.45593999997E+02  0.45594000000E+02  0.51100000000E-03 0.  1.
         23    2    1    2    0    0  0.17763568394E-14 -0.35527136788E-14  0.00000000000E+00  0.91188000000E+02  0.91188000000E+02 0.  0.
    9900012    2    3    3    0    0 -0.11472986842E+02  0.30948318383E+02  0.28181474221E+02  0.47787270431E+02  0.19999997205E+02 0.  0.
        -12    1    3    3    0    0  0.11472986842E+02 -0.30948318383E+02 -0.28181474221E+02  0.43400729569E+02  0.00000000000E+00 0.  1.
         11    1    4    4    0    0 -0.60747379460E+01  0.19071016394E+02  0.12210018660E+02  0.23445482792E+02  0.51100000000E-03 0.  1.
        -11    1    4    4    0    0 -0.87912239937E+01  0.47773108631E+01  0.11676591804E+02  0.15376967022E+02  0.51100000000E-03 0. -1.
         12    1    4    4    0    0  0.33929750975E+01  0.70999911259E+01  0.42948637572E+01  0.89648206169E+01  0.00000000000E+00 0. -1.
</event>
<event>
 8    1  0.5250708E-010  0.9118800E+02  0.7816164E-02  0.1184000E+00
        -11   -1    0    0    0    0  0.00000000000E+00  0.00000000000E+00  0.45593999997E+02  0.45594000000E+02  0.51100000000E-03 0.  1.
         11   -1    0    0    0    0 -0.00000000000E+00 -0.00000000000E+00 -0.45593999997E+02  0.45594000000E+02  0.51100000000E-03 0. -1.
         23    2    1    2    0    0  0.44408920985E-15  0.00000000000E+00  0.00000000000E+00  0.91188000000E+02  0.91188000000E+02 0.  0.
    9900012    2    3    3    0    0 -0.23183046276E+01  0.41745161588E+02  0.11644335085E+02  0.47787267380E+02  0.19999983292E+02 0.  0.
        -12    1    3    3    0    0  0.23183046276E+01 -0.41745161588E+02 -0.11644335085E+02  0.43400732620E+02  0.00000000000E+00 0.  1.
         11    1    4    4    0    0  0.24268181085E+01  0.29660931400E+02  0.74482478764E+00  0.29769364485E+02  0.51100000000E-03 0. -1.
        -11    1    4    4    0    0  0.14433750505E+00 -0.33012491690E+00  0.18766294642E+01  0.19109040225E+01  0.51100000000E-03 0.  1.
         12    1    4    4    0    0 -0.48894602411E+01  0.12414355106E+02  0.90228808330E+01  0.16106998872E+02  0.00000000000E+00 0. -1.
</event>
<event>
 8    1  0.5250708E-010  0.9118800E+02  0.7816164E-02  0.1184000E+00
        -11   -1    0    0    0    0  0.00000000000E+00  0.00000000000E+00  0.45593999997E+02  0.45594000000E+02  0.51100000000E-03 0. -1.
         11   -1    0    0    0    0 -0.00000000000E+00 -0.00000000000E+00 -0.45593999997E+02  0.45594000000E+02  0.51100000000E-03 0.  1.
         23    2    1    2    0    0  0.00000000000E+00  0.00000000000E+00  0.00000000000E+00  0.91188000000E+02  0.91188000000E+02 0.  0.
    9900012    2    3    3    0    0  0.19856209526E+02 -0.19246871205E+02  0.33450144372E+02  0.47787271130E+02  0.20000000392E+02 0.  0.
        -12    1    3    3    0    0 -0.19856209526E+02  0.19246871205E+02 -0.33450144372E+02  0.43400728870E+02  0.00000000000E+00 0.  1.
         11    1    4    4    0    0  0.18807272379E+02 -0.11391744029E+02  0.17313736689E+02  0.27986618315E+02  0.51100000000E-03 0. -1.
        -11    1    4    4    0    0  0.23914778375E+01 -0.92035253874E+01  0.14164491953E+02  0.17060389162E+02  0.51100000000E-03 0.  1.
        -12    1    4    4    0    0 -0.13425406899E+01  0.13483982119E+01  0.19719157304E+01  0.27402636533E+01  0.00000000000E+00 0.  1.
</event>
<event>
 8    1  0.5250708E-010  0.9118800E+02  0.7816164E-02  0.1184000E+00
        -11   -1    0    0    0    0  0.00000000000E+00  0.00000000000E+00  0.45593999997E+02  0.45594000000E+02  0.51100000000E-03 0. -1.
         11   -1    0    0    0    0 -0.00000000000E+00 -0.00000000000E+00 -0.45593999997E+02  0.45594000000E+02  0.51100000000E-03 0.  1.
         23    2    1    2    0    0  0.00000000000E+00  0.00000000000E+00  0.17763568394E-14  0.91188000000E+02  0.91188000000E+02 0.  0.
    9900012    2    3    3    0    0  0.37949803071E+02 -0.18446362907E+02  0.10157138868E+02  0.47787270425E+02  0.19999997177E+02 0.  0.
        -12    1    3    3    0    0 -0.37949803071E+02  0.18446362907E+02 -0.10157138868E+02  0.43400729575E+02  0.00000000000E+00 0.  1.
         11    1    4    4    0    0  0.13012080301E+01 -0.32306831716E+01  0.15276162929E+01  0.38031655094E+01  0.51100000000E-03 0. -1.
        -11    1    4    4    0    0 -0.64348276109E+00 -0.12367812825E+01 -0.22965052738E+01  0.26865656028E+01  0.51100000000E-03 0.  1.
         12    1    4    4    0    0  0.37292077802E+02 -0.13978898453E+02  0.10926027849E+02  0.41297539313E+02  0.00000000000E+00 0. -1.
</event>
<event>
 8    1  0.5250708E-010  0.9118800E+02  0.7816164E-02  0.1184000E+00
        -11   -1    0    0    0    0  0.00000000000E+00  0.00000000000E+00  0.45593999997E+02  0.45594000000E+02  0.51100000000E-03 0. -1.
         11   -1    0    0    0    0 -0.00000000000E+00 -0.00000000000E+00 -0.45593999997E+02  0.45594000000E+02  0.51100000000E-03 0.  1.
         23    2    1    2    0    0  0.00000000000E+00  0.00000000000E+00  0.00000000000E+00  0.91188000000E+02  0.91188000000E+02 0.  0.
    9900012    2    3    3    0    0 -0.91567144215E+01  0.35065774974E+02  0.23878216791E+02  0.47787271542E+02  0.20000002270E+02 0.  0.
        -12    1    3    3    0    0  0.91567144215E+01 -0.35065774974E+02 -0.23878216791E+02  0.43400728458E+02  0.00000000000E+00 0.  1.
         11    1    4    4    0    0 -0.37363809778E+01  0.22298365105E+02  0.54085306090E+01  0.23247146767E+02  0.51100000000E-03 0. -1.
        -11    1    4    4    0    0 -0.15294233017E+01  0.43404529839E+01  0.92877655199E+00  0.46948156391E+01  0.51100000000E-03 0.  1.
        -12    1    4    4    0    0 -0.38909101420E+01  0.84269568851E+01  0.17540909630E+02  0.19845309136E+02  0.00000000000E+00 0.  1.
</event>
<event>
 8    1  0.5250708E-010  0.9118800E+02  0.7816164E-02  0.1184000E+00
        -11   -1    0    0    0    0  0.00000000000E+00  0.00000000000E+00  0.45593999997E+02  0.45594000000E+02  0.51100000000E-03 0. -1.
         11   -1    0    0    0    0 -0.00000000000E+00 -0.00000000000E+00 -0.45593999997E+02  0.45594000000E+02  0.51100000000E-03 0.  1.
         23    2    1    2    0    0  0.17763568394E-14  0.17763568394E-14  0.00000000000E+00  0.91188000000E+02  0.91188000000E+02 0.  0.
    9900012    2    3    3    0    0 -0.15968307027E+02 -0.12413780398E+02 -0.38399665852E+02  0.47787272925E+02  0.20000008574E+02 0.  0.
         12    1    3    3    0    0  0.15968307027E+02  0.12413780398E+02  0.38399665852E+02  0.43400727075E+02  0.00000000000E+00 0. -1.
         11    1    4    4    0    0 -0.58526853881E+01 -0.50651758024E+01 -0.17103669875E+02  0.18773530718E+02  0.51100000000E-03 0. -1.
        -11    1    4    4    0    0  0.27664839071E+01 -0.55866107110E+01 -0.41240048613E+01  0.74746952314E+01  0.51100000000E-03 0.  1.
         12    1    4    4    0    0 -0.12882105546E+02 -0.17619938848E+01 -0.17171991116E+02  0.21539046976E+02  0.00000000000E+00 0. -1.
</event>
<event>
 8    1  0.5250708E-010  0.9118800E+02  0.7816164E-02  0.1184000E+00
        -11   -1    0    0    0    0  0.00000000000E+00  0.00000000000E+00  0.45593999997E+02  0.45594000000E+02  0.51100000000E-03 0. -1.
         11   -1    0    0    0    0 -0.00000000000E+00 -0.00000000000E+00 -0.45593999997E+02  0.45594000000E+02  0.51100000000E-03 0.  1.
         23    2    1    2    0    0  0.00000000000E+00  0.71054273576E-14  0.00000000000E+00  0.91188000000E+02  0.91188000000E+02 0.  0.
    9900012    2    3    3    0    0  0.11483981918E+02 -0.32324903643E+02 -0.26586503002E+02  0.47787269844E+02  0.19999994525E+02 0.  0.
         12    1    3    3    0    0 -0.11483981918E+02  0.32324903643E+02  0.26586503002E+02  0.43400730156E+02  0.00000000000E+00 0. -1.
         11    1    4    4    0    0  0.75706864185E+01 -0.22681925291E+02 -0.10929788847E+02  0.26291544501E+02  0.51100000000E-03 0.  1.
        -11    1    4    4    0    0  0.53365507349E+01 -0.13156520617E+01 -0.29528583739E+01  0.62393178258E+01  0.51100000000E-03 0. -1.
        -12    1    4    4    0    0 -0.14232552349E+01 -0.83273262906E+01 -0.12703855781E+02  0.15256407517E+02  0.00000000000E+00 0.  1.
</event>
<event>
 8    1  0.5250708E-010  0.9118800E+02  0.7816164E-02  0.1184000E+00
        -11   -1    0    0    0    0  0.00000000000E+00  0.00000000000E+00  0.45593999997E+02  0.45594000000E+02  0.51100000000E-03 0. -1.
         11   -1    0    0    0    0 -0.00000000000E+00 -0.00000000000E+00 -0.45593999997E+02  0.45594000000E+02  0.51100000000E-03 0.  1.
         23    2    1    2    0    0  0.00000000000E+00  0.35527136788E-14 -0.35527136788E-14  0.91188000000E+02  0.91188000000E+02 0.  0.
    9900012    2    3    3    0    0  0.15114021428E+02  0.25569887092E+02 -0.31644429410E+02  0.47787277860E+02  0.20000031074E+02 0.  0.
         12    1    3    3    0    0 -0.15114021428E+02 -0.25569887092E+02  0.31644429410E+02  0.43400722140E+02  0.00000000000E+00 0. -1.
         11    1    4    4    0    0 -0.19691279190E+00  0.17446510100E+02 -0.15191351636E+02  0.23134317671E+02  0.51100000000E-03 0. -1.
        -11    1    4    4    0    0  0.27475061036E+00  0.19814829570E+01 -0.27611026540E+01  0.34096115224E+01  0.51100000000E-03 0.  1.
        -12    1    4    4    0    0  0.15036183610E+02  0.61418940346E+01 -0.13691975120E+02  0.21243348667E+02  0.00000000000E+00 0.  1.
</event>
<event>
 8    1  0.5250708E-010  0.9118800E+02  0.7816164E-02  0.1184000E+00
        -11   -1    0    0    0    0  0.00000000000E+00  0.00000000000E+00  0.45593999997E+02  0.45594000000E+02  0.51100000000E-03 0. -1.
         11   -1    0    0    0    0 -0.00000000000E+00 -0.00000000000E+00 -0.45593999997E+02  0.45594000000E+02  0.51100000000E-03 0.  1.
         23    2    1    2    0    0  0.00000000000E+00  0.17763568394E-14  0.00000000000E+00  0.91188000000E+02  0.91188000000E+02 0.  0.
    9900012    2    3    3    0    0 -0.11746798312E+02 -0.14407862223E+02  0.39217976364E+02  0.47787269193E+02  0.19999991561E+02 0.  0.
        -12    1    3    3    0    0  0.11746798312E+02  0.14407862223E+02 -0.39217976364E+02  0.43400730807E+02  0.00000000000E+00 0.  1.
         11    1    4    4    0    0 -0.52353039787E+01 -0.83133998513E+01  0.32304407457E+02  0.33765304178E+02  0.51100000000E-03 0. -1.
        -11    1    4    4    0    0 -0.25731834139E+01 -0.67079061546E+00  0.68183693885E+01  0.73185650445E+01  0.51100000000E-03 0.  1.
        -12    1    4    4    0    0 -0.39383109193E+01 -0.54236717563E+01  0.95199518672E-01  0.67033999706E+01  0.00000000000E+00 0.  1.
</event>
<event>
 8    1  0.5250708E-010  0.9118800E+02  0.7816164E-02  0.1184000E+00
        -11   -1    0    0    0    0  0.00000000000E+00  0.00000000000E+00  0.45593999997E+02  0.45594000000E+02  0.51100000000E-03 0.  1.
         11   -1    0    0    0    0 -0.00000000000E+00 -0.00000000000E+00 -0.45593999997E+02  0.45594000000E+02  0.51100000000E-03 0. -1.
         23    2    1    2    0    0  0.00000000000E+00  0.00000000000E+00  0.88817841970E-15  0.91188000000E+02  0.91188000000E+02 0.  0.
    9900012    2    3    3    0    0 -0.15699529742E+02 -0.40138696724E+02  0.51022689476E+01  0.47787270085E+02  0.19999995623E+02 0.  0.
        -12    1    3    3    0    0  0.15699529742E+02  0.40138696724E+02 -0.51022689476E+01  0.43400729915E+02  0.00000000000E+00 0.  1.
         11    1    4    4    0    0 -0.27181953674E+01  0.12315525389E+00  0.20667658954E+01  0.34169101246E+01  0.51100000000E-03 0. -1.
        -11    1    4    4    0    0  0.13551938480E+01 -0.41508435148E-01  0.88106043799E+00  0.16169542580E+01  0.51100000000E-03 0.  1.
         12    1    4    4    0    0 -0.14336528223E+02 -0.40220343542E+02  0.21544426142E+01  0.42753405702E+02  0.00000000000E+00 0. -1.
</event>
<event>
 8    1  0.5250708E-010  0.9118800E+02  0.7816164E-02  0.1184000E+00
        -11   -1    0    0    0    0  0.00000000000E+00  0.00000000000E+00  0.45593999997E+02  0.45594000000E+02  0.51100000000E-03 0. -1.
         11   -1    0    0    0    0 -0.00000000000E+00 -0.00000000000E+00 -0.45593999997E+02  0.45594000000E+02  0.51100000000E-03 0.  1.
         23    2    1    2    0    0  0.00000000000E+00  0.00000000000E+00  0.00000000000E+00  0.91188000000E+02  0.91188000000E+02 0.  0.
    9900012    2    3    3    0    0  0.18817512158E+02 -0.62860633529E+01 -0.38600644860E+02  0.47787272588E+02  0.20000007037E+02 0.  0.
         12    1    3    3    0    0 -0.18817512158E+02  0.62860633529E+01  0.38600644860E+02  0.43400727412E+02  0.00000000000E+00 0. -1.
         11    1    4    4    0    0  0.10396798326E+02 -0.13547085461E+01 -0.13290415277E+02  0.16928195095E+02  0.51100000000E-03 0. -1.
        -11    1    4    4    0    0  0.78412852084E+01 -0.97634199577E+01 -0.15659448452E+02  0.20050647098E+02  0.51100000000E-03 0.  1.
         12    1    4    4    0    0  0.57942862397E+00  0.48320651510E+01 -0.96507811315E+01  0.10808430395E+02  0.00000000000E+00 0. -1.
</event>
<event>
 8    1  0.5250708E-010  0.9118800E+02  0.7816164E-02  0.1184000E+00
        -11   -1    0    0    0    0  0.00000000000E+00  0.00000000000E+00  0.45593999997E+02  0.45594000000E+02  0.51100000000E-03 0. -1.
         11   -1    0    0    0    0 -0.00000000000E+00 -0.00000000000E+00 -0.45593999997E+02  0.45594000000E+02  0.51100000000E-03 0.  1.
         23    2    1    2    0    0 -0.83266726847E-16  0.00000000000E+00 -0.71054273576E-14  0.91188000000E+02  0.91188000000E+02 0.  0.
    9900012    2    3    3    0    0 -0.20737925375E+00  0.28428691196E+02  0.32793134720E+02  0.47787272194E+02  0.20000005243E+02 0.  0.
        -12    1    3    3    0    0  0.20737925375E+00 -0.28428691196E+02 -0.32793134720E+02  0.43400727806E+02  0.00000000000E+00 0.  1.
         11    1    4    4    0    0 -0.37416311641E+01  0.63728679024E+01  0.13835100612E+01  0.75184672255E+01  0.51100000000E-03 0. -1.
        -11    1    4    4    0    0  0.29844349137E+01  0.22177287583E+01  0.11788906815E+02  0.12361371152E+02  0.51100000000E-03 0.  1.
        -12    1    4    4    0    0  0.54981699670E+00  0.19838094536E+02  0.19620717844E+02  0.27907433817E+02  0.00000000000E+00 0.  1.
</event>
<event>
 8    1  0.5250708E-010  0.9118800E+02  0.7816164E-02  0.1184000E+00
        -11   -1    0    0    0    0  0.00000000000E+00  0.00000000000E+00  0.45593999997E+02  0.45594000000E+02  0.51100000000E-03 0. -1.
         11   -1    0    0    0    0 -0.00000000000E+00 -0.00000000000E+00 -0.45593999997E+02  0.45594000000E+02  0.51100000000E-03 0.  1.
         23    2    1    2    0    0  0.00000000000E+00  0.00000000000E+00  0.35527136788E-14  0.91188000000E+02  0.91188000000E+02 0.  0.
    9900012    2    3    3    0    0 -0.34196838789E+02 -0.21285464476E+01  0.26639612792E+02  0.47787268867E+02  0.19999990073E+02 0.  0.
        -12    1    3    3    0    0  0.34196838789E+02  0.21285464476E+01 -0.26639612792E+02  0.43400731133E+02  0.00000000000E+00 0.  1.
         11    1    4    4    0    0 -0.16655544732E+02  0.53612703377E+01  0.19766502148E+02  0.26398200647E+02  0.51100000000E-03 0. -1.
        -11    1    4    4    0    0 -0.18738568393E+01 -0.35923204337E+01  0.20398051376E+01  0.45361779962E+01  0.51100000000E-03 0.  1.
         12    1    4    4    0    0 -0.15667437218E+02 -0.38974963516E+01  0.48333055062E+01  0.16852890224E+02  0.00000000000E+00 0. -1.
</event>
<event>
 8    1  0.5250708E-010  0.9118800E+02  0.7816164E-02  0.1184000E+00
        -11   -1    0    0    0    0  0.00000000000E+00  0.00000000000E+00  0.45593999997E+02  0.45594000000E+02  0.51100000000E-03 0. -1.
         11   -1    0    0    0    0 -0.00000000000E+00 -0.00000000000E+00 -0.45593999997E+02  0.45594000000E+02  0.51100000000E-03 0.  1.
         23    2    1    2    0    0 -0.88817841970E-15  0.00000000000E+00  0.00000000000E+00  0.91188000000E+02  0.91188000000E+02 0.  0.
    9900012    2    3    3    0    0  0.64478231849E+01 -0.18368047169E+02  0.38789995980E+02  0.47787269951E+02  0.19999995015E+02 0.  0.
        -12    1    3    3    0    0 -0.64478231849E+01  0.18368047169E+02 -0.38789995980E+02  0.43400730049E+02  0.00000000000E+00 0.  1.
         11    1    4    4    0    0 -0.43147439096E+01 -0.33139657438E+01  0.16017952694E+02  0.16916683857E+02  0.51100000000E-03 0.  1.
        -11    1    4    4    0    0  0.14119779107E+01 -0.55834915544E+01  0.13422516409E+02  0.14605923680E+02  0.51100000000E-03 0. -1.
        -12    1    4    4    0    0  0.93505891838E+01 -0.94705898711E+01  0.93495268781E+01  0.16264662414E+02  0.00000000000E+00 0.  1.
</event>
<event>
 8    1  0.5250708E-010  0.9118800E+02  0.7816164E-02  0.1184000E+00
        -11   -1    0    0    0    0  0.00000000000E+00  0.00000000000E+00  0.45593999997E+02  0.45594000000E+02  0.51100000000E-03 0. -1.
         11   -1    0    0    0    0 -0.00000000000E+00 -0.00000000000E+00 -0.45593999997E+02  0.45594000000E+02  0.51100000000E-03 0.  1.
         23    2    1    2    0    0  0.00000000000E+00 -0.71054273576E-14  0.00000000000E+00  0.91188000000E+02  0.91188000000E+02 0.  0.
    9900012    2    3    3    0    0  0.12668705819E+02 -0.40789205703E+02 -0.77050534755E+01  0.47787271227E+02  0.20000000831E+02 0.  0.
         12    1    3    3    0    0 -0.12668705819E+02  0.40789205703E+02  0.77050534755E+01  0.43400728773E+02  0.00000000000E+00 0. -1.
         11    1    4    4    0    0  0.80910896005E+01 -0.78612663584E+01 -0.57545888655E+00  0.11295857332E+02  0.51100000000E-03 0. -1.
        -11    1    4    4    0    0  0.35330357772E+01 -0.14750993772E+02  0.32799723193E+01  0.15518775008E+02  0.51100000000E-03 0.  1.
        -12    1    4    4    0    0  0.10445804411E+01 -0.18176945572E+02 -0.10409566908E+02  0.20972638886E+02  0.00000000000E+00 0.  1.
</event>
<event>
 8    1  0.5250708E-010  0.9118800E+02  0.7816164E-02  0.1184000E+00
        -11   -1    0    0    0    0  0.00000000000E+00  0.00000000000E+00  0.45593999997E+02  0.45594000000E+02  0.51100000000E-03 0. -1.
         11   -1    0    0    0    0 -0.00000000000E+00 -0.00000000000E+00 -0.45593999997E+02  0.45594000000E+02  0.51100000000E-03 0.  1.
         23    2    1    2    0    0  0.00000000000E+00  0.00000000000E+00  0.00000000000E+00  0.91188000000E+02  0.91188000000E+02 0.  0.
    9900012    2    3    3    0    0  0.23319322102E+02  0.17831908569E+02 -0.31966470520E+02  0.47787274384E+02  0.20000015226E+02 0.  0.
         12    1    3    3    0    0 -0.23319322102E+02 -0.17831908569E+02  0.31966470520E+02  0.43400725616E+02  0.00000000000E+00 0. -1.
         11    1    4    4    0    0  0.16215270317E+02  0.31716393116E+01 -0.75160019964E+01  0.18151709938E+02  0.51100000000E-03 0. -1.
        -11    1    4    4    0    0  0.34480283120E+01  0.59359085885E+01 -0.71121833327E+01  0.98846882617E+01  0.51100000000E-03 0.  1.
         12    1    4    4    0    0  0.36560234724E+01  0.87243606694E+01 -0.17338285191E+02  0.19750876185E+02  0.00000000000E+00 0. -1.
</event>
<event>
 8    1  0.5250708E-010  0.9118800E+02  0.7816164E-02  0.1184000E+00
        -11   -1    0    0    0    0  0.00000000000E+00  0.00000000000E+00  0.45593999997E+02  0.45594000000E+02  0.51100000000E-03 0.  1.
         11   -1    0    0    0    0 -0.00000000000E+00 -0.00000000000E+00 -0.45593999997E+02  0.45594000000E+02  0.51100000000E-03 0. -1.
         23    2    1    2    0    0  0.00000000000E+00  0.00000000000E+00  0.00000000000E+00  0.91188000000E+02  0.91188000000E+02 0.  0.
    9900012    2    3    3    0    0 -0.41390021204E+02  0.10893712542E+02 -0.71983648073E+01  0.47787270926E+02  0.19999999461E+02 0.  0.
         12    1    3    3    0    0  0.41390021204E+02 -0.10893712542E+02  0.71983648073E+01  0.43400729074E+02  0.00000000000E+00 0. -1.
         11    1    4    4    0    0  0.69485511209E+00 -0.26801182189E+01 -0.96809134949E+00  0.29330970690E+01  0.51100000000E-03 0. -1.
        -11    1    4    4    0    0 -0.22354231052E+02  0.90607362353E+01 -0.45326249876E+01  0.24542886477E+02  0.51100000000E-03 0.  1.
        -12    1    4    4    0    0 -0.19730645264E+02  0.45130945251E+01 -0.16976484702E+01  0.20311287381E+02  0.00000000000E+00 0.  1.
</event>
<event>
 8    1  0.5250708E-010  0.9118800E+02  0.7816164E-02  0.1184000E+00
        -11   -1    0    0    0    0  0.00000000000E+00  0.00000000000E+00  0.45593999997E+02  0.45594000000E+02  0.51100000000E-03 0. -1.
         11   -1    0    0    0    0 -0.00000000000E+00 -0.00000000000E+00 -0.45593999997E+02  0.45594000000E+02  0.51100000000E-03 0.  1.
         23    2    1    2    0    0 -0.71054273576E-14  0.00000000000E+00  0.35527136788E-14  0.91188000000E+02  0.91188000000E+02 0.  0.
    9900012    2    3    3    0    0 -0.30954736742E+02  0.23541333296E+02  0.19267419906E+02  0.47787267634E+02  0.19999984449E+02 0.  0.
        -12    1    3    3    0    0  0.30954736742E+02 -0.23541333296E+02 -0.19267419906E+02  0.43400732366E+02  0.00000000000E+00 0.  1.
         11    1    4    4    0    0 -0.31250984583E+01  0.61355145445E+01 -0.23976613064E+01  0.72910602179E+01  0.51100000000E-03 0. -1.
        -11    1    4    4    0    0 -0.10369233947E+02  0.11070453514E+02  0.13100742666E+02  0.20042589961E+02  0.51100000000E-03 0.  1.
        -12    1    4    4    0    0 -0.17460404336E+02  0.63353652370E+01  0.85643385464E+01  0.20453617455E+02  0.00000000000E+00 0.  1.
</event>
<event>
 8    1  0.5250708E-010  0.9118800E+02  0.7816164E-02  0.1184000E+00
        -11   -1    0    0    0    0  0.00000000000E+00  0.00000000000E+00  0.45593999997E+02  0.45594000000E+02  0.51100000000E-03 0. -1.
         11   -1    0    0    0    0 -0.00000000000E+00 -0.00000000000E+00 -0.45593999997E+02  0.45594000000E+02  0.51100000000E-03 0.  1.
         23    2    1    2    0    0 -0.17763568394E-14  0.00000000000E+00  0.35527136788E-14  0.91188000000E+02  0.91188000000E+02 0.  0.
    9900012    2    3    3    0    0 -0.15589723014E+02  0.32286749512E+02 -0.24457087670E+02  0.47787276562E+02  0.20000025155E+02 0.  0.
         12    1    3    3    0    0  0.15589723014E+02 -0.32286749512E+02  0.24457087670E+02  0.43400723438E+02  0.00000000000E+00 0. -1.
         11    1    4    4    0    0  0.19203929050E+01  0.65618797060E+00 -0.92143621913E-01  0.20314975438E+01  0.51100000000E-03 0. -1.
        -11    1    4    4    0    0  0.41503306070E+00 -0.47604925738E+00 -0.33372600721E+01  0.33964953094E+01  0.51100000000E-03 0.  1.
        -12    1    4    4    0    0 -0.17925148980E+02  0.32106610798E+02 -0.21027683976E+02  0.42359283708E+02  0.00000000000E+00 0.  1.
</event>
<event>
 8    1  0.5250708E-010  0.9118800E+02  0.7816164E-02  0.1184000E+00
        -11   -1    0    0    0    0  0.00000000000E+00  0.00000000000E+00  0.45593999997E+02  0.45594000000E+02  0.51100000000E-03 0. -1.
         11   -1    0    0    0    0 -0.00000000000E+00 -0.00000000000E+00 -0.45593999997E+02  0.45594000000E+02  0.51100000000E-03 0.  1.
         23    2    1    2    0    0  0.00000000000E+00  0.00000000000E+00  0.00000000000E+00  0.91188000000E+02  0.91188000000E+02 0.  0.
    9900012    2    3    3    0    0  0.34628410277E+02  0.12421977312E+02  0.23025873682E+02  0.47787272156E+02  0.20000005066E+02 0.  0.
        -12    1    3    3    0    0 -0.34628410277E+02 -0.12421977312E+02 -0.23025873682E+02  0.43400727844E+02  0.00000000000E+00 0.  1.
         11    1    4    4    0    0  0.14635059061E+02  0.69131980515E+01  0.91312152446E+01  0.18583765849E+02  0.51100000000E-03 0.  1.
        -11    1    4    4    0    0  0.21983137747E+02  0.62980628815E+01  0.10436690652E+02  0.25136595897E+02  0.51100000000E-03 0. -1.
        -12    1    4    4    0    0 -0.19897865317E+01 -0.78928362118E+00  0.34579677847E+01  0.40669104092E+01  0.00000000000E+00 0.  1.
</event>
<event>
 8    1  0.5250708E-010  0.9118800E+02  0.7816164E-02  0.1184000E+00
        -11   -1    0    0    0    0  0.00000000000E+00  0.00000000000E+00  0.45593999997E+02  0.45594000000E+02  0.51100000000E-03 0. -1.
         11   -1    0    0    0    0 -0.00000000000E+00 -0.00000000000E+00 -0.45593999997E+02  0.45594000000E+02  0.51100000000E-03 0.  1.
         23    2    1    2    0    0  0.00000000000E+00  0.17763568394E-14  0.00000000000E+00  0.91188000000E+02  0.91188000000E+02 0.  0.
    9900012    2    3    3    0    0 -0.41600807585E+01 -0.10426608599E+02  0.41923777095E+02  0.47787268155E+02  0.19999986826E+02 0.  0.
        -12    1    3    3    0    0  0.41600807585E+01  0.10426608599E+02 -0.41923777095E+02  0.43400731845E+02  0.00000000000E+00 0.  1.
         11    1    4    4    0    0 -0.19231113555E+00 -0.52138658784E+01  0.20395367193E+01  0.56018828318E+01  0.51100000000E-03 0. -1.
        -11    1    4    4    0    0  0.18075021463E+01 -0.68484772314E+01  0.15011357863E+02  0.16598480941E+02  0.51100000000E-03 0.  1.
        -12    1    4    4    0    0 -0.57752717692E+01  0.16357345108E+01  0.24872882512E+02  0.25586904382E+02  0.00000000000E+00 0.  1.
</event>
<event>
 8    1  0.5250708E-010  0.9118800E+02  0.7816164E-02  0.1184000E+00
        -11   -1    0    0    0    0  0.00000000000E+00  0.00000000000E+00  0.45593999997E+02  0.45594000000E+02  0.51100000000E-03 0. -1.
         11   -1    0    0    0    0 -0.00000000000E+00 -0.00000000000E+00 -0.45593999997E+02  0.45594000000E+02  0.51100000000E-03 0.  1.
         23    2    1    2    0    0 -0.71054273576E-14 -0.17763568394E-14  0.00000000000E+00  0.91188000000E+02  0.91188000000E+02 0.  0.
    9900012    2    3    3    0    0 -0.35272914889E+02 -0.60849575456E+01  0.24544208461E+02  0.47787269568E+02  0.19999993266E+02 0.  0.
        -12    1    3    3    0    0  0.35272914889E+02  0.60849575456E+01 -0.24544208461E+02  0.43400730432E+02  0.00000000000E+00 0.  1.
         11    1    4    4    0    0 -0.26475350187E+02 -0.10587449644E+02  0.20255102684E+02  0.34975812249E+02  0.51100000000E-03 0.  1.
        -11    1    4    4    0    0 -0.81758380664E+01  0.36018869135E+01  0.60132915066E+01  0.10769289319E+02  0.51100000000E-03 0. -1.
        -12    1    4    4    0    0 -0.62172663549E+00  0.90060518514E+00 -0.17241857296E+01  0.20421679997E+01  0.00000000000E+00 0.  1.
</event>
<event>
 8    1  0.5250708E-010  0.9118800E+02  0.7816164E-02  0.1184000E+00
        -11   -1    0    0    0    0  0.00000000000E+00  0.00000000000E+00  0.45593999997E+02  0.45594000000E+02  0.51100000000E-03 0. -1.
         11   -1    0    0    0    0 -0.00000000000E+00 -0.00000000000E+00 -0.45593999997E+02  0.45594000000E+02  0.51100000000E-03 0.  1.
         23    2    1    2    0    0 -0.44408920985E-15  0.35527136788E-14  0.71054273576E-14  0.91188000000E+02  0.91188000000E+02 0.  0.
    9900012    2    3    3    0    0 -0.38401621389E+01  0.25960660317E+02  0.34567615573E+02  0.47787276783E+02  0.20000026166E+02 0.  0.
        -12    1    3    3    0    0  0.38401621389E+01 -0.25960660317E+02 -0.34567615573E+02  0.43400723217E+02  0.00000000000E+00 0.  1.
         11    1    4    4    0    0 -0.18850214520E+01  0.22142028014E+02  0.25621686905E+02  0.33915977806E+02  0.51100000000E-03 0. -1.
        -11    1    4    4    0    0  0.17617868602E+01  0.46922913986E+01  0.87058166727E+01  0.10045533122E+02  0.51100000000E-03 0.  1.
        -12    1    4    4    0    0 -0.37169275471E+01 -0.87365909579E+00  0.24011199541E+00  0.38257658549E+01  0.00000000000E+00 0.  1.
</event>
<event>
 8    1  0.5250708E-010  0.9118800E+02  0.7816164E-02  0.1184000E+00
        -11   -1    0    0    0    0  0.00000000000E+00  0.00000000000E+00  0.45593999997E+02  0.45594000000E+02  0.51100000000E-03 0. -1.
         11   -1    0    0    0    0 -0.00000000000E+00 -0.00000000000E+00 -0.45593999997E+02  0.45594000000E+02  0.51100000000E-03 0.  1.
         23    2    1    2    0    0 -0.88817841970E-15  0.88817841970E-15 -0.71054273576E-14  0.91188000000E+02  0.91188000000E+02 0.  0.
    9900012    2    3    3    0    0  0.70494256104E+01 -0.67475485962E+01  0.42289456080E+02  0.47787286769E+02  0.20000071692E+02 0.  0.
        -12    1    3    3    0    0 -0.70494256104E+01  0.67475485962E+01 -0.42289456080E+02  0.43400713231E+02  0.00000000000E+00 0.  1.
         11    1    4    4    0    0 -0.99676780197E-01 -0.10140863249E+02  0.24287613563E+02  0.26319863521E+02  0.51100000000E-03 0. -1.
        -11    1    4    4    0    0  0.26837012950E+01 -0.24196478344E+01  0.27341425611E+01  0.45312784166E+01  0.51100000000E-03 0.  1.
        -12    1    4    4    0    0  0.44654010956E+01  0.58129624870E+01  0.15267699955E+02  0.16936144831E+02  0.00000000000E+00 0.  1.
</event>
<event>
 8    1  0.5250708E-010  0.9118800E+02  0.7816164E-02  0.1184000E+00
        -11   -1    0    0    0    0  0.00000000000E+00  0.00000000000E+00  0.45593999997E+02  0.45594000000E+02  0.51100000000E-03 0. -1.
         11   -1    0    0    0    0 -0.00000000000E+00 -0.00000000000E+00 -0.45593999997E+02  0.45594000000E+02  0.51100000000E-03 0.  1.
         23    2    1    2    0    0  0.00000000000E+00  0.35527136788E-14  0.17763568394E-14  0.91188000000E+02  0.91188000000E+02 0.  0.
    9900012    2    3    3    0    0 -0.27805454249E+02  0.29788051143E+02  0.14938277760E+02  0.47787269368E+02  0.19999992358E+02 0.  0.
        -12    1    3    3    0    0  0.27805454249E+02 -0.29788051143E+02 -0.14938277760E+02  0.43400730632E+02  0.00000000000E+00 0.  1.
         11    1    4    4    0    0 -0.96653520373E+01  0.10651111679E+02  0.11325640582E+02  0.18306702184E+02  0.51100000000E-03 0. -1.
        -11    1    4    4    0    0  0.37942812580E+00  0.50605003388E+00  0.31439636538E+01  0.32069549509E+01  0.51100000000E-03 0.  1.
        -12    1    4    4    0    0 -0.18519530338E+02  0.18630889431E+02  0.46867352407E+00  0.26273612233E+02  0.00000000000E+00 0.  1.
</event>
<event>
 8    1  0.5250708E-010  0.9118800E+02  0.7816164E-02  0.1184000E+00
        -11   -1    0    0    0    0  0.00000000000E+00  0.00000000000E+00  0.45593999997E+02  0.45594000000E+02  0.51100000000E-03 0. -1.
         11   -1    0    0    0    0 -0.00000000000E+00 -0.00000000000E+00 -0.45593999997E+02  0.45594000000E+02  0.51100000000E-03 0.  1.
         23    2    1    2    0    0  0.88817841970E-15  0.00000000000E+00  0.71054273576E-14  0.91188000000E+02  0.91188000000E+02 0.  0.
    9900012    2    3    3    0    0  0.59563037228E+01  0.81035874232E+01  0.42219399103E+02  0.47787270239E+02  0.19999996329E+02 0.  0.
        -12    1    3    3    0    0 -0.59563037228E+01 -0.81035874232E+01 -0.42219399103E+02  0.43400729761E+02  0.00000000000E+00 0.  1.
         11    1    4    4    0    0  0.32188218727E+01  0.64550380878E+01  0.24783530042E+01  0.76269630154E+01  0.51100000000E-03 0.  1.
        -11    1    4    4    0    0  0.20422676500E+01 -0.15070369941E+01  0.19091295063E+02  0.19259272186E+02  0.51100000000E-03 0. -1.
        -12    1    4    4    0    0  0.69521420012E+00  0.31555863295E+01  0.20649751035E+02  0.20901035038E+02  0.00000000000E+00 0.  1.
</event>
<event>
 8    1  0.5250708E-010  0.9118800E+02  0.7816164E-02  0.1184000E+00
        -11   -1    0    0    0    0  0.00000000000E+00  0.00000000000E+00  0.45593999997E+02  0.45594000000E+02  0.51100000000E-03 0. -1.
         11   -1    0    0    0    0 -0.00000000000E+00 -0.00000000000E+00 -0.45593999997E+02  0.45594000000E+02  0.51100000000E-03 0.  1.
         23    2    1    2    0    0  0.35527136788E-14  0.00000000000E+00  0.00000000000E+00  0.91188000000E+02  0.91188000000E+02 0.  0.
    9900012    2    3    3    0    0  0.21545845302E+02  0.23820143582E+02  0.29189043321E+02  0.47787274890E+02  0.20000017535E+02 0.  0.
        -12    1    3    3    0    0 -0.21545845302E+02 -0.23820143582E+02 -0.29189043321E+02  0.43400725110E+02  0.00000000000E+00 0.  1.
         11    1    4    4    0    0  0.12757577426E+02  0.32759183709E+01  0.78238222758E+01  0.15319909210E+02  0.51100000000E-03 0. -1.
        -11    1    4    4    0    0  0.57481028959E+01  0.13452424242E+02  0.71268423152E+01  0.16272685289E+02  0.51100000000E-03 0.  1.
         12    1    4    4    0    0  0.30401649801E+01  0.70918009692E+01  0.14238378730E+02  0.16194680391E+02  0.00000000000E+00 0. -1.
</event>
<event>
 8    1  0.5250708E-010  0.9118800E+02  0.7816164E-02  0.1184000E+00
        -11   -1    0    0    0    0  0.00000000000E+00  0.00000000000E+00  0.45593999997E+02  0.45594000000E+02  0.51100000000E-03 0. -1.
         11   -1    0    0    0    0 -0.00000000000E+00 -0.00000000000E+00 -0.45593999997E+02  0.45594000000E+02  0.51100000000E-03 0.  1.
         23    2    1    2    0    0  0.00000000000E+00  0.00000000000E+00  0.00000000000E+00  0.91188000000E+02  0.91188000000E+02 0.  0.
    9900012    2    3    3    0    0 -0.13808850341E+02 -0.21548156313E+02 -0.35051619311E+02  0.47787269539E+02  0.19999993136E+02 0.  0.
         12    1    3    3    0    0  0.13808850341E+02  0.21548156313E+02  0.35051619311E+02  0.43400730461E+02  0.00000000000E+00 0. -1.
         11    1    4    4    0    0  0.54299530242E+00  0.22750710501E+01 -0.67419490567E+01  0.71361522914E+01  0.51100000000E-03 0.  1.
        -11    1    4    4    0    0 -0.89650938310E+01 -0.67841589399E+01 -0.96742725588E+01  0.14832035252E+02  0.51100000000E-03 0. -1.
        -12    1    4    4    0    0 -0.53867518120E+01 -0.17039068423E+02 -0.18635397696E+02  0.25819081995E+02  0.00000000000E+00 0.  1.
</event>
<event>
 8    1  0.5250708E-010  0.9118800E+02  0.7816164E-02  0.1184000E+00
        -11   -1    0    0    0    0  0.00000000000E+00  0.00000000000E+00  0.45593999997E+02  0.45594000000E+02  0.51100000000E-03 0.  1.
         11   -1    0    0    0    0 -0.00000000000E+00 -0.00000000000E+00 -0.45593999997E+02  0.45594000000E+02  0.51100000000E-03 0. -1.
         23    2    1    2    0    0 -0.88817841970E-15  0.00000000000E+00  0.00000000000E+00  0.91188000000E+02  0.91188000000E+02 0.  0.
    9900012    2    3    3    0    0  0.57341580536E+01  0.42465130442E+02 -0.68888133247E+01  0.47787267045E+02  0.19999981765E+02 0.  0.
         12    1    3    3    0    0 -0.57341580536E+01 -0.42465130442E+02  0.68888133247E+01  0.43400732955E+02  0.00000000000E+00 0. -1.
         11    1    4    4    0    0  0.31805015751E+01  0.64239649740E+01  0.19183683495E+01  0.74204483450E+01  0.51100000000E-03 0.  1.
        -11    1    4    4    0    0 -0.39241352049E+01  0.26404089866E+02 -0.10395519301E+02  0.28646843117E+02  0.51100000000E-03 0. -1.
         12    1    4    4    0    0  0.64777916834E+01  0.96370756015E+01  0.15883376272E+01  0.11719975583E+02  0.00000000000E+00 0. -1.
</event>
<event>
 8    1  0.5250708E-010  0.9118800E+02  0.7816164E-02  0.1184000E+00
        -11   -1    0    0    0    0  0.00000000000E+00  0.00000000000E+00  0.45593999997E+02  0.45594000000E+02  0.51100000000E-03 0. -1.
         11   -1    0    0    0    0 -0.00000000000E+00 -0.00000000000E+00 -0.45593999997E+02  0.45594000000E+02  0.51100000000E-03 0.  1.
         23    2    1    2    0    0  0.00000000000E+00  0.00000000000E+00  0.00000000000E+00  0.91188000000E+02  0.91188000000E+02 0.  0.
    9900012    2    3    3    0    0  0.10132482737E+02  0.25366282396E+02 -0.33726895924E+02  0.47787320309E+02  0.20000224614E+02 0.  0.
         12    1    3    3    0    0 -0.10132482737E+02 -0.25366282396E+02  0.33726895924E+02  0.43400679691E+02  0.00000000000E+00 0. -1.
         11    1    4    4    0    0  0.30341215071E+01  0.16335844218E+01  0.17043478410E+01  0.38443846330E+01  0.51100000000E-03 0. -1.
        -11    1    4    4    0    0 -0.10569157372E+01  0.46206102514E+01 -0.10266739811E+02  0.11308096948E+02  0.51100000000E-03 0.  1.
        -12    1    4    4    0    0  0.81552769676E+01  0.19112087722E+02 -0.25164503954E+02  0.32634838728E+02  0.00000000000E+00 0.  1.
</event>
<event>
 8    1  0.5250708E-010  0.9118800E+02  0.7816164E-02  0.1184000E+00
        -11   -1    0    0    0    0  0.00000000000E+00  0.00000000000E+00  0.45593999997E+02  0.45594000000E+02  0.51100000000E-03 0. -1.
         11   -1    0    0    0    0 -0.00000000000E+00 -0.00000000000E+00 -0.45593999997E+02  0.45594000000E+02  0.51100000000E-03 0.  1.
         23    2    1    2    0    0  0.17763568394E-14 -0.88817841970E-15 -0.71054273576E-14  0.91188000000E+02  0.91188000000E+02 0.  0.
    9900012    2    3    3    0    0  0.89705054980E+01 -0.73097259025E+01 -0.41829671055E+02  0.47787269105E+02  0.19999991157E+02 0.  0.
         12    1    3    3    0    0 -0.89705054980E+01  0.73097259025E+01  0.41829671055E+02  0.43400730895E+02  0.00000000000E+00 0. -1.
         11    1    4    4    0    0 -0.38691531225E+01 -0.52962762238E-01 -0.73768181351E+01  0.83301018601E+01  0.51100000000E-03 0. -1.
        -11    1    4    4    0    0  0.12232372895E+02 -0.86040684346E+00 -0.26747566024E+02  0.29424539674E+02  0.51100000000E-03 0.  1.
         12    1    4    4    0    0  0.60728572588E+00 -0.63963562968E+01 -0.77052868962E+01  0.10032627571E+02  0.00000000000E+00 0. -1.
</event>
<event>
 8    1  0.5250708E-010  0.9118800E+02  0.7816164E-02  0.1184000E+00
        -11   -1    0    0    0    0  0.00000000000E+00  0.00000000000E+00  0.45593999997E+02  0.45594000000E+02  0.51100000000E-03 0. -1.
         11   -1    0    0    0    0 -0.00000000000E+00 -0.00000000000E+00 -0.45593999997E+02  0.45594000000E+02  0.51100000000E-03 0.  1.
         23    2    1    2    0    0  0.00000000000E+00 -0.88817841970E-15  0.00000000000E+00  0.91188000000E+02  0.91188000000E+02 0.  0.
    9900012    2    3    3    0    0 -0.26861881682E+02 -0.66140604981E+01  0.33441243240E+02  0.47787271513E+02  0.20000002136E+02 0.  0.
        -12    1    3    3    0    0  0.26861881682E+02  0.66140604981E+01 -0.33441243240E+02  0.43400728487E+02  0.00000000000E+00 0.  1.
         11    1    4    4    0    0 -0.11529343456E+02  0.13072027188E+00  0.12175914789E+02  0.16768892317E+02  0.51100000000E-03 0. -1.
        -11    1    4    4    0    0  0.15286651727E+01  0.24548978633E+01  0.53176056191E+01  0.60531207250E+01  0.51100000000E-03 0.  1.
         12    1    4    4    0    0 -0.16861203399E+02 -0.91996786333E+01  0.15947722831E+02  0.24965258471E+02  0.00000000000E+00 0. -1.
</event>
<event>
 8    1  0.5250708E-010  0.9118800E+02  0.7816164E-02  0.1184000E+00
        -11   -1    0    0    0    0  0.00000000000E+00  0.00000000000E+00  0.45593999997E+02  0.45594000000E+02  0.51100000000E-03 0. -1.
         11   -1    0    0    0    0 -0.00000000000E+00 -0.00000000000E+00 -0.45593999997E+02  0.45594000000E+02  0.51100000000E-03 0.  1.
         23    2    1    2    0    0 -0.88817841970E-15  0.00000000000E+00  0.00000000000E+00  0.91188000000E+02  0.91188000000E+02 0.  0.
    9900012    2    3    3    0    0  0.74917937346E+01  0.10742258203E+02  0.41377532329E+02  0.47787271132E+02  0.20000000398E+02 0.  0.
        -12    1    3    3    0    0 -0.74917937346E+01 -0.10742258203E+02 -0.41377532329E+02  0.43400728868E+02  0.00000000000E+00 0.  1.
         11    1    4    4    0    0 -0.26151347220E+01  0.92392189959E+01  0.23882763213E+02  0.25740794009E+02  0.51100000000E-03 0. -1.
        -11    1    4    4    0    0  0.60074279868E+01  0.63335246122E+00  0.16729168818E+02  0.17786382880E+02  0.51100000000E-03 0.  1.
        -12    1    4    4    0    0  0.40995004698E+01  0.86968674563E+00  0.76560029762E+00  0.42600942423E+01  0.00000000000E+00 0.  1.
</event>
<event>
 8    1  0.5250708E-010  0.9118800E+02  0.7816164E-02  0.1184000E+00
        -11   -1    0    0    0    0  0.00000000000E+00  0.00000000000E+00  0.45593999997E+02  0.45594000000E+02  0.51100000000E-03 0. -1.
         11   -1    0    0    0    0 -0.00000000000E+00 -0.00000000000E+00 -0.45593999997E+02  0.45594000000E+02  0.51100000000E-03 0.  1.
         23    2    1    2    0    0  0.88817841970E-15  0.88817841970E-15  0.00000000000E+00  0.91188000000E+02  0.91188000000E+02 0.  0.
    9900012    2    3    3    0    0 -0.55465279017E+01 -0.58301353519E+01  0.42648200653E+02  0.47787268797E+02  0.19999989753E+02 0.  0.
        -12    1    3    3    0    0  0.55465279017E+01  0.58301353519E+01 -0.42648200653E+02  0.43400731203E+02  0.00000000000E+00 0.  1.
         11    1    4    4    0    0  0.47532329079E+00 -0.40345415429E+01  0.82817491710E+01  0.92244689433E+01  0.51100000000E-03 0. -1.
        -11    1    4    4    0    0 -0.44088999229E+01  0.71366639430E+01  0.17607367043E+02  0.19503582881E+02  0.51100000000E-03 0.  1.
        -12    1    4    4    0    0 -0.16129512696E+01 -0.89322577520E+01  0.16759084439E+02  0.19059216972E+02  0.00000000000E+00 0.  1.
</event>
<event>
 8    1  0.5250708E-010  0.9118800E+02  0.7816164E-02  0.1184000E+00
        -11   -1    0    0    0    0  0.00000000000E+00  0.00000000000E+00  0.45593999997E+02  0.45594000000E+02  0.51100000000E-03 0. -1.
         11   -1    0    0    0    0 -0.00000000000E+00 -0.00000000000E+00 -0.45593999997E+02  0.45594000000E+02  0.51100000000E-03 0.  1.
         23    2    1    2    0    0  0.00000000000E+00 -0.22204460493E-15  0.35527136788E-14  0.91188000000E+02  0.91188000000E+02 0.  0.
    9900012    2    3    3    0    0  0.38974458609E+02  0.14242883126E+01  0.19041698987E+02  0.47787270497E+02  0.19999997506E+02 0.  0.
        -12    1    3    3    0    0 -0.38974458609E+02 -0.14242883126E+01 -0.19041698987E+02  0.43400729503E+02  0.00000000000E+00 0.  1.
         11    1    4    4    0    0  0.76689583688E+01  0.35274982038E+01  0.62827303662E+01  0.10522778490E+02  0.51100000000E-03 0. -1.
        -11    1    4    4    0    0  0.97862142813E+01  0.33084525202E+01  0.10868686802E+02  0.14994805804E+02  0.51100000000E-03 0.  1.
         12    1    4    4    0    0  0.21519285959E+02 -0.54116624114E+01  0.18902818188E+01  0.22269686203E+02  0.00000000000E+00 0. -1.
</event>
<event>
 8    1  0.5250708E-010  0.9118800E+02  0.7816164E-02  0.1184000E+00
        -11   -1    0    0    0    0  0.00000000000E+00  0.00000000000E+00  0.45593999997E+02  0.45594000000E+02  0.51100000000E-03 0. -1.
         11   -1    0    0    0    0 -0.00000000000E+00 -0.00000000000E+00 -0.45593999997E+02  0.45594000000E+02  0.51100000000E-03 0.  1.
         23    2    1    2    0    0  0.00000000000E+00  0.22204460493E-15  0.00000000000E+00  0.91188000000E+02  0.91188000000E+02 0.  0.
    9900012    2    3    3    0    0  0.18974860949E+02 -0.13355495958E+01 -0.39010181562E+02  0.47787270672E+02  0.19999998300E+02 0.  0.
         12    1    3    3    0    0 -0.18974860949E+02  0.13355495958E+01  0.39010181562E+02  0.43400729328E+02  0.00000000000E+00 0. -1.
         11    1    4    4    0    0 -0.15967068134E+01  0.37727872484E+01 -0.13229068753E+02  0.13848886475E+02  0.51100000000E-03 0. -1.
        -11    1    4    4    0    0  0.10832068473E+02  0.85566644829E-02 -0.15275200343E+02  0.18726065428E+02  0.51100000000E-03 0.  1.
         12    1    4    4    0    0  0.97394992893E+01 -0.51168935086E+01 -0.10505912466E+02  0.15212318769E+02  0.00000000000E+00 0. -1.
</event>
<event>
 8    1  0.5250708E-010  0.9118800E+02  0.7816164E-02  0.1184000E+00
        -11   -1    0    0    0    0  0.00000000000E+00  0.00000000000E+00  0.45593999997E+02  0.45594000000E+02  0.51100000000E-03 0. -1.
         11   -1    0    0    0    0 -0.00000000000E+00 -0.00000000000E+00 -0.45593999997E+02  0.45594000000E+02  0.51100000000E-03 0.  1.
         23    2    1    2    0    0 -0.71054273576E-14 -0.17763568394E-14  0.17763568394E-14  0.91188000000E+02  0.91188000000E+02 0.  0.
    9900012    2    3    3    0    0  0.39918058832E+02 -0.11752007909E+02 -0.12331339486E+02  0.47787273689E+02  0.20000012056E+02 0.  0.
         12    1    3    3    0    0 -0.39918058832E+02  0.11752007909E+02  0.12331339486E+02  0.43400726311E+02  0.00000000000E+00 0. -1.
         11    1    4    4    0    0  0.95631909780E+01 -0.89110330494E+01 -0.24358838730E+01  0.13296415389E+02  0.51100000000E-03 0. -1.
        -11    1    4    4    0    0  0.29536219486E+02 -0.53981460210E+01 -0.10366887917E+02  0.31764769908E+02  0.51100000000E-03 0.  1.
         12    1    4    4    0    0  0.81864836843E+00  0.25571711616E+01  0.47143230396E+00  0.27260883914E+01  0.00000000000E+00 0. -1.
</event>
<event>
 8    1  0.5250708E-010  0.9118800E+02  0.7816164E-02  0.1184000E+00
        -11   -1    0    0    0    0  0.00000000000E+00  0.00000000000E+00  0.45593999997E+02  0.45594000000E+02  0.51100000000E-03 0. -1.
         11   -1    0    0    0    0 -0.00000000000E+00 -0.00000000000E+00 -0.45593999997E+02  0.45594000000E+02  0.51100000000E-03 0.  1.
         23    2    1    2    0    0 -0.35527136788E-14  0.00000000000E+00  0.00000000000E+00  0.91188000000E+02  0.91188000000E+02 0.  0.
    9900012    2    3    3    0    0  0.21088079943E+02  0.65013881757E+01 -0.37371747092E+02  0.47787278294E+02  0.20000033053E+02 0.  0.
         12    1    3    3    0    0 -0.21088079943E+02 -0.65013881757E+01  0.37371747092E+02  0.43400721706E+02  0.00000000000E+00 0. -1.
         11    1    4    4    0    0 -0.71603161980E+00  0.10982972313E+01  0.37799944677E+00  0.13644932875E+01  0.51100000000E-03 0. -1.
        -11    1    4    4    0    0  0.23419474324E+01  0.67123630086E+01 -0.13896155999E+02  0.15609089875E+02  0.51100000000E-03 0.  1.
        -12    1    4    4    0    0  0.19462164130E+02 -0.13092720642E+01 -0.23853590540E+02  0.30813695131E+02  0.00000000000E+00 0.  1.
</event>
<event>
 8    1  0.5250708E-010  0.9118800E+02  0.7816164E-02  0.1184000E+00
        -11   -1    0    0    0    0  0.00000000000E+00  0.00000000000E+00  0.45593999997E+02  0.45594000000E+02  0.51100000000E-03 0. -1.
         11   -1    0    0    0    0 -0.00000000000E+00 -0.00000000000E+00 -0.45593999997E+02  0.45594000000E+02  0.51100000000E-03 0.  1.
         23    2    1    2    0    0  0.00000000000E+00  0.44408920985E-15  0.71054273576E-14  0.91188000000E+02  0.91188000000E+02 0.  0.
    9900012    2    3    3    0    0 -0.28990799714E+02 -0.11289059071E+01  0.32278204860E+02  0.47787269527E+02  0.19999993081E+02 0.  0.
        -12    1    3    3    0    0  0.28990799714E+02  0.11289059071E+01 -0.32278204860E+02  0.43400730473E+02  0.00000000000E+00 0.  1.
         11    1    4    4    0    0 -0.19272801779E+01  0.23130966425E+01  0.11561437744E+02  0.11947035948E+02  0.51100000000E-03 0.  1.
        -11    1    4    4    0    0 -0.18913343893E+02  0.14304337185E+01  0.17520657679E+02  0.25821196014E+02  0.51100000000E-03 0. -1.
         12    1    4    4    0    0 -0.81501756430E+01 -0.48724362681E+01  0.31961094372E+01  0.10019037565E+02  0.00000000000E+00 0. -1.
</event>
<event>
 8    1  0.5250708E-010  0.9118800E+02  0.7816164E-02  0.1184000E+00
        -11   -1    0    0    0    0  0.00000000000E+00  0.00000000000E+00  0.45593999997E+02  0.45594000000E+02  0.51100000000E-03 0. -1.
         11   -1    0    0    0    0 -0.00000000000E+00 -0.00000000000E+00 -0.45593999997E+02  0.45594000000E+02  0.51100000000E-03 0.  1.
         23    2    1    2    0    0  0.88817841970E-15  0.00000000000E+00  0.00000000000E+00  0.91188000000E+02  0.91188000000E+02 0.  0.
    9900012    2    3    3    0    0 -0.62924929193E+01  0.12300877546E+02 -0.41142627104E+02  0.47787276267E+02  0.20000023812E+02 0.  0.
         12    1    3    3    0    0  0.62924929193E+01 -0.12300877546E+02  0.41142627104E+02  0.43400723733E+02  0.00000000000E+00 0. -1.
         11    1    4    4    0    0  0.56939922538E-01 -0.25285903080E+01 -0.24710597271E+01  0.35359790068E+01  0.51100000000E-03 0. -1.
        -11    1    4    4    0    0 -0.65361850712E+01 -0.10592761871E+00 -0.10611114452E+02  0.12463092959E+02  0.51100000000E-03 0.  1.
        -12    1    4    4    0    0  0.18675222933E+00  0.14935395473E+02 -0.28060452925E+02  0.31788204301E+02  0.00000000000E+00 0.  1.
</event>
<event>
 8    1  0.5250708E-010  0.9118800E+02  0.7816164E-02  0.1184000E+00
        -11   -1    0    0    0    0  0.00000000000E+00  0.00000000000E+00  0.45593999997E+02  0.45594000000E+02  0.51100000000E-03 0. -1.
         11   -1    0    0    0    0 -0.00000000000E+00 -0.00000000000E+00 -0.45593999997E+02  0.45594000000E+02  0.51100000000E-03 0.  1.
         23    2    1    2    0    0  0.00000000000E+00  0.00000000000E+00  0.35527136788E-14  0.91188000000E+02  0.91188000000E+02 0.  0.
    9900012    2    3    3    0    0 -0.32861601667E+02 -0.84666437662E+01  0.27056501437E+02  0.47787272001E+02  0.20000004363E+02 0.  0.
        -12    1    3    3    0    0  0.32861601667E+02  0.84666437662E+01 -0.27056501437E+02  0.43400727999E+02  0.00000000000E+00 0.  1.
         11    1    4    4    0    0 -0.35718614432E+01 -0.70088246789E+01  0.53563636312E+01  0.95169558767E+01  0.51100000000E-03 0. -1.
        -11    1    4    4    0    0 -0.86499486298E+01  0.13713724609E+01  0.85508669720E+00  0.87996276765E+01  0.51100000000E-03 0.  1.
         12    1    4    4    0    0 -0.20639791594E+02 -0.28291915482E+01  0.20845051109E+02  0.29470688448E+02  0.00000000000E+00 0. -1.
</event>
<event>
 8    1  0.5250708E-010  0.9118800E+02  0.7816164E-02  0.1184000E+00
        -11   -1    0    0    0    0  0.00000000000E+00  0.00000000000E+00  0.45593999997E+02  0.45594000000E+02  0.51100000000E-03 0. -1.
         11   -1    0    0    0    0 -0.00000000000E+00 -0.00000000000E+00 -0.45593999997E+02  0.45594000000E+02  0.51100000000E-03 0.  1.
         23    2    1    2    0    0  0.00000000000E+00  0.44408920985E-15  0.00000000000E+00  0.91188000000E+02  0.91188000000E+02 0.  0.
    9900012    2    3    3    0    0 -0.14649060938E+02  0.25910828841E+01 -0.40771496178E+02  0.47787267317E+02  0.19999983004E+02 0.  0.
         12    1    3    3    0    0  0.14649060938E+02 -0.25910828841E+01  0.40771496178E+02  0.43400732683E+02  0.00000000000E+00 0. -1.
         11    1    4    4    0    0 -0.13426378978E+01 -0.42559127218E+01 -0.74142165164E+01  0.86536741580E+01  0.51100000000E-03 0. -1.
        -11    1    4    4    0    0 -0.12597780663E+02  0.66189167034E+01 -0.34751885937E+02  0.37552732422E+02  0.51100000000E-03 0.  1.
         12    1    4    4    0    0 -0.70864237731E+00  0.22807890258E+00  0.13946062754E+01  0.15808607365E+01  0.00000000000E+00 0. -1.
</event>
<event>
 8    1  0.5250708E-010  0.9118800E+02  0.7816164E-02  0.1184000E+00
        -11   -1    0    0    0    0  0.00000000000E+00  0.00000000000E+00  0.45593999997E+02  0.45594000000E+02  0.51100000000E-03 0. -1.
         11   -1    0    0    0    0 -0.00000000000E+00 -0.00000000000E+00 -0.45593999997E+02  0.45594000000E+02  0.51100000000E-03 0.  1.
         23    2    1    2    0    0 -0.35527136788E-14  0.00000000000E+00  0.00000000000E+00  0.91188000000E+02  0.91188000000E+02 0.  0.
    9900012    2    3    3    0    0  0.26002550572E+02 -0.21440692275E+01  0.34682760027E+02  0.47787268299E+02  0.19999987482E+02 0.  0.
        -12    1    3    3    0    0 -0.26002550572E+02  0.21440692275E+01 -0.34682760027E+02  0.43400731701E+02  0.00000000000E+00 0.  1.
         11    1    4    4    0    0  0.21945046890E+02 -0.52327301815E+01  0.23880937498E+02  0.32852179900E+02  0.51100000000E-03 0. -1.
        -11    1    4    4    0    0 -0.13642806883E+01 -0.22279396101E+01  0.37633663754E+01  0.45812556618E+01  0.51100000000E-03 0.  1.
        -12    1    4    4    0    0  0.54217843706E+01  0.53166005640E+01  0.70384561533E+01  0.10353832737E+02  0.00000000000E+00 0.  1.
</event>
<event>
 8    1  0.5250708E-010  0.9118800E+02  0.7816164E-02  0.1184000E+00
        -11   -1    0    0    0    0  0.00000000000E+00  0.00000000000E+00  0.45593999997E+02  0.45594000000E+02  0.51100000000E-03 0. -1.
         11   -1    0    0    0    0 -0.00000000000E+00 -0.00000000000E+00 -0.45593999997E+02  0.45594000000E+02  0.51100000000E-03 0.  1.
         23    2    1    2    0    0  0.44408920985E-15  0.00000000000E+00 -0.35527136788E-14  0.91188000000E+02  0.91188000000E+02 0.  0.
    9900012    2    3    3    0    0  0.22269977781E+01  0.31055957786E+02 -0.30235594271E+02  0.47787271964E+02  0.20000004192E+02 0.  0.
         12    1    3    3    0    0 -0.22269977781E+01 -0.31055957786E+02  0.30235594271E+02  0.43400728036E+02  0.00000000000E+00 0. -1.
         11    1    4    4    0    0  0.50980071479E+01  0.96314790966E+01 -0.11867799702E+02  0.16112099072E+02  0.51100000000E-03 0. -1.
        -11    1    4    4    0    0 -0.15819368570E+01  0.16407738928E+02 -0.48247634545E+01  0.17175411599E+02  0.51100000000E-03 0.  1.
         12    1    4    4    0    0 -0.12890725128E+01  0.50167397621E+01 -0.13543031115E+02  0.14499761293E+02  0.00000000000E+00 0. -1.
</event>
<event>
 8    1  0.5250708E-010  0.9118800E+02  0.7816164E-02  0.1184000E+00
        -11   -1    0    0    0    0  0.00000000000E+00  0.00000000000E+00  0.45593999997E+02  0.45594000000E+02  0.51100000000E-03 0. -1.
         11   -1    0    0    0    0 -0.00000000000E+00 -0.00000000000E+00 -0.45593999997E+02  0.45594000000E+02  0.51100000000E-03 0.  1.
         23    2    1    2    0    0  0.00000000000E+00  0.00000000000E+00  0.00000000000E+00  0.91188000000E+02  0.91188000000E+02 0.  0.
    9900012    2    3    3    0    0 -0.49633668998E+01  0.28730398888E+02 -0.32148914693E+02  0.47787267896E+02  0.19999985645E+02 0.  0.
         12    1    3    3    0    0  0.49633668998E+01 -0.28730398888E+02  0.32148914693E+02  0.43400732104E+02  0.00000000000E+00 0. -1.
         11    1    4    4    0    0 -0.50485726224E+01  0.34372836946E+01 -0.39155753705E+01  0.72549800457E+01  0.51100000000E-03 0. -1.
        -11    1    4    4    0    0 -0.32327354288E+01  0.25500048087E+02 -0.25742429424E+02  0.36378231179E+02  0.51100000000E-03 0.  1.
         12    1    4    4    0    0  0.33179411514E+01 -0.20693289362E+00 -0.24909098984E+01  0.41540566713E+01  0.00000000000E+00 0. -1.
</event>
<event>
 8    1  0.5250708E-010  0.9118800E+02  0.7816164E-02  0.1184000E+00
        -11   -1    0    0    0    0  0.00000000000E+00  0.00000000000E+00  0.45593999997E+02  0.45594000000E+02  0.51100000000E-03 0.  1.
         11   -1    0    0    0    0 -0.00000000000E+00 -0.00000000000E+00 -0.45593999997E+02  0.45594000000E+02  0.51100000000E-03 0. -1.
         23    2    1    2    0    0  0.71054273576E-14  0.11102230246E-15 -0.17763568394E-14  0.91188000000E+02  0.91188000000E+02 0.  0.
    9900012    2    3    3    0    0 -0.41660635019E+02 -0.59338144456E+00 -0.12151651331E+02  0.47787271414E+02  0.20000001686E+02 0.  0.
         12    1    3    3    0    0  0.41660635019E+02  0.59338144456E+00  0.12151651331E+02  0.43400728586E+02  0.00000000000E+00 0. -1.
         11    1    4    4    0    0 -0.47331405243E+01  0.30496053011E+01 -0.62075568884E+00  0.56646314621E+01  0.51100000000E-03 0. -1.
        -11    1    4    4    0    0 -0.32977368114E+02 -0.33864913194E+01 -0.15430465821E+02  0.36566028044E+02  0.51100000000E-03 0.  1.
        -12    1    4    4    0    0 -0.39501263802E+01 -0.25649542628E+00  0.38995701784E+01  0.55566119083E+01  0.00000000000E+00 0.  1.
</event>
<event>
 8    1  0.5250708E-010  0.9118800E+02  0.7816164E-02  0.1184000E+00
        -11   -1    0    0    0    0  0.00000000000E+00  0.00000000000E+00  0.45593999997E+02  0.45594000000E+02  0.51100000000E-03 0. -1.
         11   -1    0    0    0    0 -0.00000000000E+00 -0.00000000000E+00 -0.45593999997E+02  0.45594000000E+02  0.51100000000E-03 0.  1.
         23    2    1    2    0    0  0.00000000000E+00  0.00000000000E+00  0.00000000000E+00  0.91188000000E+02  0.91188000000E+02 0.  0.
    9900012    2    3    3    0    0 -0.27018259429E+02  0.20233520676E+02  0.27280791510E+02  0.47787270894E+02  0.19999999315E+02 0.  0.
        -12    1    3    3    0    0  0.27018259429E+02 -0.20233520676E+02 -0.27280791510E+02  0.43400729106E+02  0.00000000000E+00 0.  1.
         11    1    4    4    0    0 -0.13232934284E+02  0.11105187367E+02  0.14078259828E+02  0.22285267247E+02  0.51100000000E-03 0. -1.
        -11    1    4    4    0    0  0.87896104296E+00  0.35003317281E+00  0.73890941021E+01  0.74494165978E+01  0.51100000000E-03 0.  1.
         12    1    4    4    0    0 -0.14664286188E+02  0.87783001365E+01  0.58134375791E+01  0.18052587049E+02  0.00000000000E+00 0. -1.
</event>
<event>
 8    1  0.5250708E-010  0.9118800E+02  0.7816164E-02  0.1184000E+00
        -11   -1    0    0    0    0  0.00000000000E+00  0.00000000000E+00  0.45593999997E+02  0.45594000000E+02  0.51100000000E-03 0. -1.
         11   -1    0    0    0    0 -0.00000000000E+00 -0.00000000000E+00 -0.45593999997E+02  0.45594000000E+02  0.51100000000E-03 0.  1.
         23    2    1    2    0    0 -0.44408920985E-15  0.00000000000E+00  0.00000000000E+00  0.91188000000E+02  0.91188000000E+02 0.  0.
    9900012    2    3    3    0    0 -0.35609472457E+01 -0.24459496745E+02 -0.35674576345E+02  0.47787277383E+02  0.20000028899E+02 0.  0.
         12    1    3    3    0    0  0.35609472457E+01  0.24459496745E+02  0.35674576345E+02  0.43400722617E+02  0.00000000000E+00 0. -1.
         11    1    4    4    0    0  0.85359950567E+00 -0.17741229484E+01  0.12886113980E+01  0.23530116762E+01  0.51100000000E-03 0. -1.
        -11    1    4    4    0    0  0.27713406442E+01 -0.16935279591E+02 -0.22629453941E+02  0.28400285381E+02  0.51100000000E-03 0.  1.
        -12    1    4    4    0    0 -0.71858873956E+01 -0.57500942061E+01 -0.14333733802E+02  0.17033980326E+02  0.00000000000E+00 0.  1.
</event>
<event>
 8    1  0.5250708E-010  0.9118800E+02  0.7816164E-02  0.1184000E+00
        -11   -1    0    0    0    0  0.00000000000E+00  0.00000000000E+00  0.45593999997E+02  0.45594000000E+02  0.51100000000E-03 0. -1.
         11   -1    0    0    0    0 -0.00000000000E+00 -0.00000000000E+00 -0.45593999997E+02  0.45594000000E+02  0.51100000000E-03 0.  1.
         23    2    1    2    0    0  0.00000000000E+00  0.00000000000E+00  0.00000000000E+00  0.91188000000E+02  0.91188000000E+02 0.  0.
    9900012    2    3    3    0    0  0.12270091912E+02  0.56413763139E+01  0.41246123955E+02  0.47787273928E+02  0.20000013147E+02 0.  0.
        -12    1    3    3    0    0 -0.12270091912E+02 -0.56413763139E+01 -0.41246123955E+02  0.43400726072E+02  0.00000000000E+00 0.  1.
         11    1    4    4    0    0  0.69656829903E+01  0.62022249998E+00  0.34551977081E+02  0.35252581975E+02  0.51100000000E-03 0. -1.
        -11    1    4    4    0    0  0.58232309162E+01  0.28212228554E+00  0.36574323438E+01  0.68823268520E+01  0.51100000000E-03 0.  1.
        -12    1    4    4    0    0 -0.51882199483E+00  0.47390315284E+01  0.30367145306E+01  0.56523651005E+01  0.00000000000E+00 0.  1.
</event>
<event>
 8    1  0.5250708E-010  0.9118800E+02  0.7816164E-02  0.1184000E+00
        -11   -1    0    0    0    0  0.00000000000E+00  0.00000000000E+00  0.45593999997E+02  0.45594000000E+02  0.51100000000E-03 0. -1.
         11   -1    0    0    0    0 -0.00000000000E+00 -0.00000000000E+00 -0.45593999997E+02  0.45594000000E+02  0.51100000000E-03 0.  1.
         23    2    1    2    0    0  0.00000000000E+00  0.00000000000E+00  0.00000000000E+00  0.91188000000E+02  0.91188000000E+02 0.  0.
    9900012    2    3    3    0    0  0.28076948415E+02  0.36788996743E+01  0.32890328633E+02  0.47787273593E+02  0.20000011619E+02 0.  0.
        -12    1    3    3    0    0 -0.28076948415E+02 -0.36788996743E+01 -0.32890328633E+02  0.43400726407E+02  0.00000000000E+00 0.  1.
         11    1    4    4    0    0  0.66823995418E+01 -0.96574781640E+00  0.72437403593E+01  0.99024697493E+01  0.51100000000E-03 0. -1.
        -11    1    4    4    0    0  0.78158296529E+01  0.27479084348E+01 -0.56488995061E+00  0.83040529169E+01  0.51100000000E-03 0.  1.
        -12    1    4    4    0    0  0.13578719220E+02  0.18967390559E+01  0.26211478224E+02  0.29580750927E+02  0.00000000000E+00 0.  1.
</event>
<event>
 8    1  0.5250708E-010  0.9118800E+02  0.7816164E-02  0.1184000E+00
        -11   -1    0    0    0    0  0.00000000000E+00  0.00000000000E+00  0.45593999997E+02  0.45594000000E+02  0.51100000000E-03 0. -1.
         11   -1    0    0    0    0 -0.00000000000E+00 -0.00000000000E+00 -0.45593999997E+02  0.45594000000E+02  0.51100000000E-03 0.  1.
         23    2    1    2    0    0 -0.22204460493E-15  0.00000000000E+00 -0.71054273576E-14  0.91188000000E+02  0.91188000000E+02 0.  0.
    9900012    2    3    3    0    0  0.16302004679E+01 -0.22526650798E+02  0.37060951645E+02  0.47787289331E+02  0.20000083376E+02 0.  0.
        -12    1    3    3    0    0 -0.16302004679E+01  0.22526650798E+02 -0.37060951645E+02  0.43400710669E+02  0.00000000000E+00 0.  1.
         11    1    4    4    0    0  0.40304979097E+01 -0.12295463092E+02  0.31782841127E+02  0.34315773580E+02  0.51100000000E-03 0. -1.
        -11    1    4    4    0    0  0.74579867570E+00  0.22568360860E+00 -0.67801507133E+00  0.10328859830E+01  0.51100000000E-03 0.  1.
         12    1    4    4    0    0 -0.31460961175E+01 -0.10456871314E+02  0.59561255897E+01  0.12438629768E+02  0.00000000000E+00 0. -1.
</event>
<event>
 8    1  0.5250708E-010  0.9118800E+02  0.7816164E-02  0.1184000E+00
        -11   -1    0    0    0    0  0.00000000000E+00  0.00000000000E+00  0.45593999997E+02  0.45594000000E+02  0.51100000000E-03 0. -1.
         11   -1    0    0    0    0 -0.00000000000E+00 -0.00000000000E+00 -0.45593999997E+02  0.45594000000E+02  0.51100000000E-03 0.  1.
         23    2    1    2    0    0  0.35527136788E-14  0.00000000000E+00  0.71054273576E-14  0.91188000000E+02  0.91188000000E+02 0.  0.
    9900012    2    3    3    0    0  0.23113255493E+02 -0.49167650157E+01  0.36403661329E+02  0.47787265953E+02  0.19999976785E+02 0.  0.
        -12    1    3    3    0    0 -0.23113255493E+02  0.49167650157E+01 -0.36403661329E+02  0.43400734047E+02  0.00000000000E+00 0.  1.
         11    1    4    4    0    0  0.13339730163E+02  0.36810322936E+01  0.11626113789E+02  0.18073874009E+02  0.51100000000E-03 0. -1.
        -11    1    4    4    0    0  0.76128322618E+01 -0.16081279680E+00  0.12992642534E+02  0.15059543024E+02  0.51100000000E-03 0.  1.
        -12    1    4    4    0    0  0.21606930680E+01 -0.84369845125E+01  0.11784905005E+02  0.14653848920E+02  0.00000000000E+00 0.  1.
</event>
<event>
 8    1  0.5250708E-010  0.9118800E+02  0.7816164E-02  0.1184000E+00
        -11   -1    0    0    0    0  0.00000000000E+00  0.00000000000E+00  0.45593999997E+02  0.45594000000E+02  0.51100000000E-03 0. -1.
         11   -1    0    0    0    0 -0.00000000000E+00 -0.00000000000E+00 -0.45593999997E+02  0.45594000000E+02  0.51100000000E-03 0.  1.
         23    2    1    2    0    0  0.00000000000E+00 -0.35527136788E-14  0.71054273576E-14  0.91188000000E+02  0.91188000000E+02 0.  0.
    9900012    2    3    3    0    0 -0.48947699728E+01  0.20543666846E+02 -0.37915991536E+02  0.47787269191E+02  0.19999991551E+02 0.  0.
         12    1    3    3    0    0  0.48947699728E+01 -0.20543666846E+02  0.37915991536E+02  0.43400730809E+02  0.00000000000E+00 0. -1.
         11    1    4    4    0    0 -0.40722605592E+01  0.14434378738E+02 -0.11795564708E+02  0.19080616936E+02  0.51100000000E-03 0. -1.
        -11    1    4    4    0    0 -0.16254106293E+01  0.87098383678E+01 -0.22466319746E+02  0.24150336794E+02  0.51100000000E-03 0.  1.
         12    1    4    4    0    0  0.80290121562E+00 -0.26005502595E+01 -0.36541070824E+01  0.45563154614E+01  0.00000000000E+00 0. -1.
</event>
<event>
 8    1  0.5250708E-010  0.9118800E+02  0.7816164E-02  0.1184000E+00
        -11   -1    0    0    0    0  0.00000000000E+00  0.00000000000E+00  0.45593999997E+02  0.45594000000E+02  0.51100000000E-03 0. -1.
         11   -1    0    0    0    0 -0.00000000000E+00 -0.00000000000E+00 -0.45593999997E+02  0.45594000000E+02  0.51100000000E-03 0.  1.
         23    2    1    2    0    0 -0.17763568394E-14  0.17763568394E-14  0.00000000000E+00  0.91188000000E+02  0.91188000000E+02 0.  0.
    9900012    2    3    3    0    0  0.15073677190E+02 -0.13244594380E+02  0.38483609505E+02  0.47787271609E+02  0.20000002573E+02 0.  0.
        -12    1    3    3    0    0 -0.15073677190E+02  0.13244594380E+02 -0.38483609505E+02  0.43400728391E+02  0.00000000000E+00 0.  1.
         11    1    4    4    0    0  0.10620537317E+02 -0.16492615231E+02  0.25808631683E+02  0.32417397176E+02  0.51100000000E-03 0. -1.
        -11    1    4    4    0    0 -0.49680348208E-01  0.41776709900E+00  0.87495948963E+01  0.87597036820E+01  0.51100000000E-03 0.  1.
        -12    1    4    4    0    0  0.45028202212E+01  0.28302537514E+01  0.39253829258E+01  0.66101707509E+01  0.00000000000E+00 0.  1.
</event>
<event>
 8    1  0.5250708E-010  0.9118800E+02  0.7816164E-02  0.1184000E+00
        -11   -1    0    0    0    0  0.00000000000E+00  0.00000000000E+00  0.45593999997E+02  0.45594000000E+02  0.51100000000E-03 0. -1.
         11   -1    0    0    0    0 -0.00000000000E+00 -0.00000000000E+00 -0.45593999997E+02  0.45594000000E+02  0.51100000000E-03 0.  1.
         23    2    1    2    0    0  0.17763568394E-14  0.11102230246E-15  0.00000000000E+00  0.91188000000E+02  0.91188000000E+02 0.  0.
    9900012    2    3    3    0    0 -0.15412576322E+02  0.64253110011E+00  0.40566773776E+02  0.47787268558E+02  0.19999988664E+02 0.  0.
        -12    1    3    3    0    0  0.15412576322E+02 -0.64253110011E+00 -0.40566773776E+02  0.43400731442E+02  0.00000000000E+00 0.  1.
         11    1    4    4    0    0  0.10094039726E+01 -0.36300985108E+01  0.81649073527E+01  0.89923425155E+01  0.51100000000E-03 0. -1.
        -11    1    4    4    0    0 -0.79104455799E+01  0.38302938587E+01  0.50294554177E+01  0.10126288677E+02  0.51100000000E-03 0.  1.
         12    1    4    4    0    0 -0.85115347151E+01  0.44233575223E+00  0.27372411006E+02  0.28668637365E+02  0.00000000000E+00 0. -1.
</event>
<event>
 8    1  0.5250708E-010  0.9118800E+02  0.7816164E-02  0.1184000E+00
        -11   -1    0    0    0    0  0.00000000000E+00  0.00000000000E+00  0.45593999997E+02  0.45594000000E+02  0.51100000000E-03 0. -1.
         11   -1    0    0    0    0 -0.00000000000E+00 -0.00000000000E+00 -0.45593999997E+02  0.45594000000E+02  0.51100000000E-03 0.  1.
         23    2    1    2    0    0 -0.35527136788E-14  0.00000000000E+00 -0.71054273576E-14  0.91188000000E+02  0.91188000000E+02 0.  0.
    9900012    2    3    3    0    0  0.18891004221E+02  0.14077217450E+02 -0.36449764451E+02  0.47787269359E+02  0.19999992315E+02 0.  0.
         12    1    3    3    0    0 -0.18891004221E+02 -0.14077217450E+02  0.36449764451E+02  0.43400730641E+02  0.00000000000E+00 0. -1.
         11    1    4    4    0    0  0.95739629114E+01  0.62580534046E+01 -0.30896775780E+02  0.32945936807E+02  0.51100000000E-03 0. -1.
        -11    1    4    4    0    0  0.73828631385E+01  0.51022505449E+01 -0.68220478629E+01  0.11272975031E+02  0.51100000000E-03 0.  1.
         12    1    4    4    0    0  0.19341781710E+01  0.27169135004E+01  0.12690591913E+01  0.35683575209E+01  0.00000000000E+00 0. -1.
</event>
<event>
 8    1  0.5250708E-010  0.9118800E+02  0.7816164E-02  0.1184000E+00
        -11   -1    0    0    0    0  0.00000000000E+00  0.00000000000E+00  0.45593999997E+02  0.45594000000E+02  0.51100000000E-03 0. -1.
         11   -1    0    0    0    0 -0.00000000000E+00 -0.00000000000E+00 -0.45593999997E+02  0.45594000000E+02  0.51100000000E-03 0.  1.
         23    2    1    2    0    0 -0.66613381478E-15 -0.71054273576E-14 -0.35527136788E-14  0.91188000000E+02  0.91188000000E+02 0.  0.
    9900012    2    3    3    0    0  0.87914594900E+00 -0.34938111865E+02 -0.25732835841E+02  0.47787269606E+02  0.19999993442E+02 0.  0.
         12    1    3    3    0    0 -0.87914594900E+00  0.34938111865E+02  0.25732835841E+02  0.43400730394E+02  0.00000000000E+00 0. -1.
         11    1    4    4    0    0 -0.41977847495E+01 -0.46091499822E+01 -0.67969955210E+00  0.62711762935E+01  0.51100000000E-03 0. -1.
        -11    1    4    4    0    0 -0.35834962007E+00 -0.25552600737E+02 -0.17017267228E+02  0.30702625344E+02  0.51100000000E-03 0.  1.
         12    1    4    4    0    0  0.54352803186E+01 -0.47763611461E+01 -0.80358690607E+01  0.10813467968E+02  0.00000000000E+00 0. -1.
</event>
<event>
 8    1  0.5250708E-010  0.9118800E+02  0.7816164E-02  0.1184000E+00
        -11   -1    0    0    0    0  0.00000000000E+00  0.00000000000E+00  0.45593999997E+02  0.45594000000E+02  0.51100000000E-03 0. -1.
         11   -1    0    0    0    0 -0.00000000000E+00 -0.00000000000E+00 -0.45593999997E+02  0.45594000000E+02  0.51100000000E-03 0.  1.
         23    2    1    2    0    0  0.88817841970E-15 -0.88817841970E-15  0.00000000000E+00  0.91188000000E+02  0.91188000000E+02 0.  0.
    9900012    2    3    3    0    0  0.17038516867E+01 -0.58009282701E+01 -0.42977545760E+02  0.47787270526E+02  0.19999997635E+02 0.  0.
         12    1    3    3    0    0 -0.17038516867E+01  0.58009282701E+01  0.42977545760E+02  0.43400729474E+02  0.00000000000E+00 0. -1.
         11    1    4    4    0    0  0.41364354097E+01  0.10077786212E+01 -0.14824683223E+02  0.15423908343E+02  0.51100000000E-03 0. -1.
        -11    1    4    4    0    0  0.51565166101E+01 -0.24483004963E-01 -0.55597374343E+01  0.75829376608E+01  0.51100000000E-03 0.  1.
        -12    1    4    4    0    0 -0.75891003331E+01 -0.67842238863E+01 -0.22593125102E+02  0.24780424522E+02  0.00000000000E+00 0.  1.
</event>
<event>
 8    1  0.5250708E-010  0.9118800E+02  0.7816164E-02  0.1184000E+00
        -11   -1    0    0    0    0  0.00000000000E+00  0.00000000000E+00  0.45593999997E+02  0.45594000000E+02  0.51100000000E-03 0. -1.
         11   -1    0    0    0    0 -0.00000000000E+00 -0.00000000000E+00 -0.45593999997E+02  0.45594000000E+02  0.51100000000E-03 0.  1.
         23    2    1    2    0    0 -0.13322676296E-14  0.00000000000E+00  0.00000000000E+00  0.91188000000E+02  0.91188000000E+02 0.  0.
    9900012    2    3    3    0    0  0.25207994110E+01 -0.24312856869E+02 -0.35862987256E+02  0.47787270815E+02  0.19999998955E+02 0.  0.
         12    1    3    3    0    0 -0.25207994110E+01  0.24312856869E+02  0.35862987256E+02  0.43400729185E+02  0.00000000000E+00 0. -1.
         11    1    4    4    0    0  0.45062869986E+01 -0.83228617289E+01 -0.47068365265E+01  0.10570286667E+02  0.51100000000E-03 0. -1.
        -11    1    4    4    0    0  0.26648417665E+01 -0.19615237747E+01 -0.14831524101E+02  0.15196152953E+02  0.51100000000E-03 0.  1.
        -12    1    4    4    0    0 -0.46503293541E+01 -0.14028471365E+02 -0.16324626629E+02  0.22020831195E+02  0.00000000000E+00 0.  1.
</event>
<event>
 8    1  0.5250708E-010  0.9118800E+02  0.7816164E-02  0.1184000E+00
        -11   -1    0    0    0    0  0.00000000000E+00  0.00000000000E+00  0.45593999997E+02  0.45594000000E+02  0.51100000000E-03 0. -1.
         11   -1    0    0    0    0 -0.00000000000E+00 -0.00000000000E+00 -0.45593999997E+02  0.45594000000E+02  0.51100000000E-03 0.  1.
         23    2    1    2    0    0  0.17763568394E-14  0.00000000000E+00  0.00000000000E+00  0.91188000000E+02  0.91188000000E+02 0.  0.
    9900012    2    3    3    0    0 -0.15124148869E+02  0.33304867606E+02 -0.23359565443E+02  0.47787269788E+02  0.19999994271E+02 0.  0.
         12    1    3    3    0    0  0.15124148869E+02 -0.33304867606E+02  0.23359565443E+02  0.43400730212E+02  0.00000000000E+00 0. -1.
         11    1    4    4    0    0  0.12283081233E+00  0.80110163691E+01 -0.38670776553E+01  0.88963903089E+01  0.51100000000E-03 0. -1.
        -11    1    4    4    0    0 -0.93144567565E+01  0.42038199208E+01 -0.10863863577E+01  0.10276742780E+02  0.51100000000E-03 0.  1.
        -12    1    4    4    0    0 -0.59325229251E+01  0.21090031316E+02 -0.18406101430E+02  0.28614136699E+02  0.00000000000E+00 0.  1.
</event>
<event>
 8    1  0.5250708E-010  0.9118800E+02  0.7816164E-02  0.1184000E+00
        -11   -1    0    0    0    0  0.00000000000E+00  0.00000000000E+00  0.45593999997E+02  0.45594000000E+02  0.51100000000E-03 0.  1.
         11   -1    0    0    0    0 -0.00000000000E+00 -0.00000000000E+00 -0.45593999997E+02  0.45594000000E+02  0.51100000000E-03 0. -1.
         23    2    1    2    0    0 -0.35527136788E-14  0.71054273576E-14  0.00000000000E+00  0.91188000000E+02  0.91188000000E+02 0.  0.
    9900012    2    3    3    0    0  0.25576826346E+02 -0.34593120667E+02 -0.57240836347E+01  0.47787272162E+02  0.20000005096E+02 0.  0.
         12    1    3    3    0    0 -0.25576826346E+02  0.34593120667E+02  0.57240836347E+01  0.43400727838E+02  0.00000000000E+00 0. -1.
         11    1    4    4    0    0  0.18233321709E+02 -0.15272407728E+02 -0.21646554807E+01  0.23882759304E+02  0.51100000000E-03 0. -1.
        -11    1    4    4    0    0  0.86047743451E+01 -0.20295215648E+02 -0.33403165839E+01  0.22295641611E+02  0.51100000000E-03 0.  1.
         12    1    4    4    0    0 -0.12612697085E+01  0.97450270912E+00 -0.21911157002E+00  0.16088712465E+01  0.00000000000E+00 0. -1.
</event>
<event>
 8    1  0.5250708E-010  0.9118800E+02  0.7816164E-02  0.1184000E+00
        -11   -1    0    0    0    0  0.00000000000E+00  0.00000000000E+00  0.45593999997E+02  0.45594000000E+02  0.51100000000E-03 0. -1.
         11   -1    0    0    0    0 -0.00000000000E+00 -0.00000000000E+00 -0.45593999997E+02  0.45594000000E+02  0.51100000000E-03 0.  1.
         23    2    1    2    0    0 -0.88817841970E-15 -0.71054273576E-14  0.00000000000E+00  0.91188000000E+02  0.91188000000E+02 0.  0.
    9900012    2    3    3    0    0 -0.18045269458E+01 -0.39128522922E+02 -0.18690257711E+02  0.47787270089E+02  0.19999995643E+02 0.  0.
         12    1    3    3    0    0  0.18045269458E+01  0.39128522922E+02  0.18690257711E+02  0.43400729911E+02  0.00000000000E+00 0. -1.
         11    1    4    4    0    0 -0.30531259794E+01 -0.36034588686E+01 -0.33927696147E+01  0.58152712734E+01  0.51100000000E-03 0. -1.
        -11    1    4    4    0    0  0.72765016750E+01 -0.29994125235E+02 -0.11310657550E+02  0.32871355307E+02  0.51100000000E-03 0.  1.
        -12    1    4    4    0    0 -0.60279026414E+01 -0.55309388178E+01 -0.39868305465E+01  0.91006435084E+01  0.00000000000E+00 0.  1.
</event>
<event>
 8    1  0.5250708E-010  0.9118800E+02  0.7816164E-02  0.1184000E+00
        -11   -1    0    0    0    0  0.00000000000E+00  0.00000000000E+00  0.45593999997E+02  0.45594000000E+02  0.51100000000E-03 0. -1.
         11   -1    0    0    0    0 -0.00000000000E+00 -0.00000000000E+00 -0.45593999997E+02  0.45594000000E+02  0.51100000000E-03 0.  1.
         23    2    1    2    0    0  0.00000000000E+00  0.88817841970E-15  0.00000000000E+00  0.91188000000E+02  0.91188000000E+02 0.  0.
    9900012    2    3    3    0    0 -0.85756160509E+01 -0.42929362473E+01  0.42327921876E+02  0.47787268870E+02  0.19999990087E+02 0.  0.
        -12    1    3    3    0    0  0.85756160509E+01  0.42929362473E+01 -0.42327921876E+02  0.43400731130E+02  0.00000000000E+00 0.  1.
         11    1    4    4    0    0 -0.22649625839E+01 -0.18515427958E+01  0.23183784999E+02  0.23367630462E+02  0.51100000000E-03 0. -1.
        -11    1    4    4    0    0 -0.28516705079E+01 -0.16874108403E+01  0.20396916950E+02  0.20664307425E+02  0.51100000000E-03 0.  1.
        -12    1    4    4    0    0 -0.34589829590E+01 -0.75398261123E+00 -0.12527800731E+01  0.37553309841E+01  0.00000000000E+00 0.  1.
</event>
<event>
 8    1  0.5250708E-010  0.9118800E+02  0.7816164E-02  0.1184000E+00
        -11   -1    0    0    0    0  0.00000000000E+00  0.00000000000E+00  0.45593999997E+02  0.45594000000E+02  0.51100000000E-03 0. -1.
         11   -1    0    0    0    0 -0.00000000000E+00 -0.00000000000E+00 -0.45593999997E+02  0.45594000000E+02  0.51100000000E-03 0.  1.
         23    2    1    2    0    0 -0.88817841970E-15  0.00000000000E+00 -0.17763568394E-14  0.91188000000E+02  0.91188000000E+02 0.  0.
    9900012    2    3    3    0    0 -0.24766342871E+01  0.42024103321E+02 -0.10557664153E+02  0.47787271322E+02  0.20000001268E+02 0.  0.
         12    1    3    3    0    0  0.24766342871E+01 -0.42024103321E+02  0.10557664153E+02  0.43400728678E+02  0.00000000000E+00 0. -1.
         11    1    4    4    0    0  0.43667242321E+01  0.35167046096E+01 -0.41086375394E+01  0.69509995340E+01  0.51100000000E-03 0. -1.
        -11    1    4    4    0    0 -0.71162862429E+01  0.13672818999E+02 -0.36736246271E+01  0.15845599624E+02  0.51100000000E-03 0.  1.
         12    1    4    4    0    0  0.27292772373E+00  0.24834579713E+02 -0.27754019868E+01  0.24990672165E+02  0.00000000000E+00 0. -1.
</event>
<event>
 8    1  0.5250708E-010  0.9118800E+02  0.7816164E-02  0.1184000E+00
        -11   -1    0    0    0    0  0.00000000000E+00  0.00000000000E+00  0.45593999997E+02  0.45594000000E+02  0.51100000000E-03 0. -1.
         11   -1    0    0    0    0 -0.00000000000E+00 -0.00000000000E+00 -0.45593999997E+02  0.45594000000E+02  0.51100000000E-03 0.  1.
         23    2    1    2    0    0  0.00000000000E+00  0.17763568394E-14  0.71054273576E-14  0.91188000000E+02  0.91188000000E+02 0.  0.
    9900012    2    3    3    0    0  0.13920888386E+02 -0.91264822309E+01 -0.40081660504E+02  0.47787270512E+02  0.19999997572E+02 0.  0.
         12    1    3    3    0    0 -0.13920888386E+02  0.91264822309E+01  0.40081660504E+02  0.43400729488E+02  0.00000000000E+00 0. -1.
         11    1    4    4    0    0 -0.27434296551E+01 -0.28248429320E+01 -0.72187199714E+01  0.82228986465E+01  0.51100000000E-03 0. -1.
        -11    1    4    4    0    0  0.11180553652E+02 -0.97735865545E+01 -0.17924987408E+02  0.23277305427E+02  0.51100000000E-03 0.  1.
         12    1    4    4    0    0  0.54837643890E+01  0.34719472557E+01 -0.14937953124E+02  0.16287066438E+02  0.00000000000E+00 0. -1.
</event>
<event>
 8    1  0.5250708E-010  0.9118800E+02  0.7816164E-02  0.1184000E+00
        -11   -1    0    0    0    0  0.00000000000E+00  0.00000000000E+00  0.45593999997E+02  0.45594000000E+02  0.51100000000E-03 0.  1.
         11   -1    0    0    0    0 -0.00000000000E+00 -0.00000000000E+00 -0.45593999997E+02  0.45594000000E+02  0.51100000000E-03 0. -1.
         23    2    1    2    0    0  0.00000000000E+00  0.35527136788E-14  0.00000000000E+00  0.91188000000E+02  0.91188000000E+02 0.  0.
    9900012    2    3    3    0    0 -0.24696809545E+02  0.23556404441E+02 -0.26810199682E+02  0.47787269604E+02  0.19999993433E+02 0.  0.
         12    1    3    3    0    0  0.24696809545E+02 -0.23556404441E+02  0.26810199682E+02  0.43400730396E+02  0.00000000000E+00 0. -1.
         11    1    4    4    0    0 -0.24708452334E+01  0.71258102477E+01 -0.84592338509E+01  0.11333176318E+02  0.51100000000E-03 0. -1.
        -11    1    4    4    0    0 -0.84403505192E+01  0.16465913388E+01  0.76406431082E+00  0.86333408629E+01  0.51100000000E-03 0.  1.
        -12    1    4    4    0    0 -0.13785613792E+02  0.14784002855E+02 -0.19115030142E+02  0.27820752423E+02  0.00000000000E+00 0.  1.
</event>
<event>
 8    1  0.5250708E-010  0.9118800E+02  0.7816164E-02  0.1184000E+00
        -11   -1    0    0    0    0  0.00000000000E+00  0.00000000000E+00  0.45593999997E+02  0.45594000000E+02  0.51100000000E-03 0. -1.
         11   -1    0    0    0    0 -0.00000000000E+00 -0.00000000000E+00 -0.45593999997E+02  0.45594000000E+02  0.51100000000E-03 0.  1.
         23    2    1    2    0    0  0.00000000000E+00  0.44408920985E-15 -0.35527136788E-14  0.91188000000E+02  0.91188000000E+02 0.  0.
    9900012    2    3    3    0    0 -0.39971605513E+02 -0.34309419306E+01  0.16556644014E+02  0.47787273384E+02  0.20000010667E+02 0.  0.
        -12    1    3    3    0    0  0.39971605513E+02  0.34309419306E+01 -0.16556644014E+02  0.43400726616E+02  0.00000000000E+00 0.  1.
         11    1    4    4    0    0 -0.48689200473E+01 -0.73069931238E+00  0.71674658868E+01  0.86955661927E+01  0.51100000000E-03 0. -1.
        -11    1    4    4    0    0 -0.28834551715E+02  0.34565645802E+01  0.85074682088E+01  0.30261464388E+02  0.51100000000E-03 0.  1.
        -12    1    4    4    0    0 -0.62681337503E+01 -0.61568071984E+01  0.88170991814E+00  0.88302428035E+01  0.00000000000E+00 0.  1.
</event>
<event>
 8    1  0.5250708E-010  0.9118800E+02  0.7816164E-02  0.1184000E+00
        -11   -1    0    0    0    0  0.00000000000E+00  0.00000000000E+00  0.45593999997E+02  0.45594000000E+02  0.51100000000E-03 0. -1.
         11   -1    0    0    0    0 -0.00000000000E+00 -0.00000000000E+00 -0.45593999997E+02  0.45594000000E+02  0.51100000000E-03 0.  1.
         23    2    1    2    0    0  0.00000000000E+00  0.00000000000E+00  0.00000000000E+00  0.91188000000E+02  0.91188000000E+02 0.  0.
    9900012    2    3    3    0    0 -0.90864520303E+01  0.41587795289E+02 -0.84564013283E+01  0.47787319696E+02  0.20000221819E+02 0.  0.
         12    1    3    3    0    0  0.90864520303E+01 -0.41587795289E+02  0.84564013283E+01  0.43400680304E+02  0.00000000000E+00 0. -1.
         11    1    4    4    0    0 -0.64998368020E+01  0.26632468865E+02 -0.13162417805E+02  0.30410286402E+02  0.51100000000E-03 0. -1.
        -11    1    4    4    0    0  0.50532602633E+00  0.32129842805E+01 -0.16765590089E+01  0.36591628484E+01  0.51100000000E-03 0.  1.
        -12    1    4    4    0    0 -0.30919412547E+01  0.11742342143E+02  0.63825754858E+01  0.13717870445E+02  0.00000000000E+00 0.  1.
</event>
<event>
 8    1  0.5250708E-010  0.9118800E+02  0.7816164E-02  0.1184000E+00
        -11   -1    0    0    0    0  0.00000000000E+00  0.00000000000E+00  0.45593999997E+02  0.45594000000E+02  0.51100000000E-03 0. -1.
         11   -1    0    0    0    0 -0.00000000000E+00 -0.00000000000E+00 -0.45593999997E+02  0.45594000000E+02  0.51100000000E-03 0.  1.
         23    2    1    2    0    0  0.88817841970E-15 -0.11102230246E-15  0.00000000000E+00  0.91188000000E+02  0.91188000000E+02 0.  0.
    9900012    2    3    3    0    0 -0.51278352070E+01 -0.17576604545E+00  0.43096379537E+02  0.47787268246E+02  0.19999987240E+02 0.  0.
        -12    1    3    3    0    0  0.51278352070E+01  0.17576604545E+00 -0.43096379537E+02  0.43400731754E+02  0.00000000000E+00 0.  1.
         11    1    4    4    0    0 -0.43550779558E+01  0.16924391772E+01  0.17669148688E+02  0.18276484071E+02  0.51100000000E-03 0. -1.
        -11    1    4    4    0    0  0.29301973772E+01  0.20123027012E+00  0.25083526721E+02  0.25254897808E+02  0.51100000000E-03 0.  1.
        -12    1    4    4    0    0 -0.37029546284E+01 -0.20694354928E+01  0.34370412804E+00  0.42558863667E+01  0.00000000000E+00 0.  1.
</event>
<event>
 8    1  0.5250708E-010  0.9118800E+02  0.7816164E-02  0.1184000E+00
        -11   -1    0    0    0    0  0.00000000000E+00  0.00000000000E+00  0.45593999997E+02  0.45594000000E+02  0.51100000000E-03 0. -1.
         11   -1    0    0    0    0 -0.00000000000E+00 -0.00000000000E+00 -0.45593999997E+02  0.45594000000E+02  0.51100000000E-03 0.  1.
         23    2    1    2    0    0  0.00000000000E+00  0.00000000000E+00  0.00000000000E+00  0.91188000000E+02  0.91188000000E+02 0.  0.
    9900012    2    3    3    0    0 -0.30051821458E+02 -0.25147412974E+02 -0.18657969915E+02  0.47787260449E+02  0.19999951693E+02 0.  0.
         12    1    3    3    0    0  0.30051821458E+02  0.25147412974E+02  0.18657969915E+02  0.43400739551E+02  0.00000000000E+00 0. -1.
         11    1    4    4    0    0 -0.10270384740E-01  0.12070766778E+00 -0.13292380926E+01  0.13347471632E+01  0.51100000000E-03 0. -1.
        -11    1    4    4    0    0 -0.20250308008E+02 -0.24302619197E+02 -0.18333838600E+02  0.36562575296E+02  0.51100000000E-03 0.  1.
         12    1    4    4    0    0 -0.97912430656E+01 -0.96550144448E+00  0.10051067776E+01  0.98899379899E+01  0.00000000000E+00 0. -1.
</event>
<event>
 8    1  0.5250708E-010  0.9118800E+02  0.7816164E-02  0.1184000E+00
        -11   -1    0    0    0    0  0.00000000000E+00  0.00000000000E+00  0.45593999997E+02  0.45594000000E+02  0.51100000000E-03 0. -1.
         11   -1    0    0    0    0 -0.00000000000E+00 -0.00000000000E+00 -0.45593999997E+02  0.45594000000E+02  0.51100000000E-03 0.  1.
         23    2    1    2    0    0  0.00000000000E+00  0.00000000000E+00  0.00000000000E+00  0.91188000000E+02  0.91188000000E+02 0.  0.
    9900012    2    3    3    0    0 -0.37217817302E+02  0.18458540331E+02  0.12559465790E+02  0.47787264789E+02  0.19999971481E+02 0.  0.
        -12    1    3    3    0    0  0.37217817302E+02 -0.18458540331E+02 -0.12559465790E+02  0.43400735211E+02  0.00000000000E+00 0.  1.
         11    1    4    4    0    0 -0.82055573153E+01  0.70207425114E+01  0.85218039774E+01  0.13756567143E+02  0.51100000000E-03 0. -1.
        -11    1    4    4    0    0 -0.15986662905E+02  0.12597018387E+02  0.30212248774E-01  0.20353357858E+02  0.51100000000E-03 0.  1.
        -12    1    4    4    0    0 -0.13025597083E+02 -0.11592205677E+01  0.40074495635E+01  0.13677339788E+02  0.00000000000E+00 0.  1.
</event>
<event>
 8    1  0.5250708E-010  0.9118800E+02  0.7816164E-02  0.1184000E+00
        -11   -1    0    0    0    0  0.00000000000E+00  0.00000000000E+00  0.45593999997E+02  0.45594000000E+02  0.51100000000E-03 0. -1.
         11   -1    0    0    0    0 -0.00000000000E+00 -0.00000000000E+00 -0.45593999997E+02  0.45594000000E+02  0.51100000000E-03 0.  1.
         23    2    1    2    0    0  0.00000000000E+00 -0.17763568394E-14 -0.71054273576E-14  0.91188000000E+02  0.91188000000E+02 0.  0.
    9900012    2    3    3    0    0 -0.78249339796E+01  0.12651967223E+02  0.40771577705E+02  0.47787269420E+02  0.19999992592E+02 0.  0.
        -12    1    3    3    0    0  0.78249339796E+01 -0.12651967223E+02 -0.40771577705E+02  0.43400730580E+02  0.00000000000E+00 0.  1.
         11    1    4    4    0    0 -0.64667087474E+01  0.73768818883E+01  0.26880993140E+02  0.28615109660E+02  0.51100000000E-03 0. -1.
        -11    1    4    4    0    0 -0.22747366450E+01 -0.19019336462E+01 -0.55436805694E+00  0.30164718799E+01  0.51100000000E-03 0.  1.
         12    1    4    4    0    0  0.91651141280E+00  0.71770189805E+01  0.14444952622E+02  0.16155687880E+02  0.00000000000E+00 0. -1.
</event>
<event>
 8    1  0.5250708E-010  0.9118800E+02  0.7816164E-02  0.1184000E+00
        -11   -1    0    0    0    0  0.00000000000E+00  0.00000000000E+00  0.45593999997E+02  0.45594000000E+02  0.51100000000E-03 0. -1.
         11   -1    0    0    0    0 -0.00000000000E+00 -0.00000000000E+00 -0.45593999997E+02  0.45594000000E+02  0.51100000000E-03 0.  1.
         23    2    1    2    0    0  0.71054273576E-14  0.35527136788E-14  0.00000000000E+00  0.91188000000E+02  0.91188000000E+02 0.  0.
    9900012    2    3    3    0    0 -0.30742673942E+02 -0.19717843694E+02 -0.23446063979E+02  0.47787271007E+02  0.19999999829E+02 0.  0.
         12    1    3    3    0    0  0.30742673942E+02  0.19717843694E+02  0.23446063979E+02  0.43400728993E+02  0.00000000000E+00 0. -1.
         11    1    4    4    0    0 -0.31210901710E+01 -0.94578358854E+01 -0.60656973307E+01  0.11661241266E+02  0.51100000000E-03 0. -1.
        -11    1    4    4    0    0 -0.14878243552E+02 -0.64078874464E+01 -0.15954664148E+02  0.22737072394E+02  0.51100000000E-03 0.  1.
        -12    1    4    4    0    0 -0.12743340219E+02 -0.38521203620E+01 -0.14257025003E+01  0.13388957347E+02  0.00000000000E+00 0.  1.
</event>
<event>
 8    1  0.5250708E-010  0.9118800E+02  0.7816164E-02  0.1184000E+00
        -11   -1    0    0    0    0  0.00000000000E+00  0.00000000000E+00  0.45593999997E+02  0.45594000000E+02  0.51100000000E-03 0.  1.
         11   -1    0    0    0    0 -0.00000000000E+00 -0.00000000000E+00 -0.45593999997E+02  0.45594000000E+02  0.51100000000E-03 0. -1.
         23    2    1    2    0    0  0.00000000000E+00  0.17763568394E-14  0.17763568394E-14  0.91188000000E+02  0.91188000000E+02 0.  0.
    9900012    2    3    3    0    0 -0.39128767629E+02  0.13545016017E+02  0.13003676127E+02  0.47787268349E+02  0.19999987709E+02 0.  0.
        -12    1    3    3    0    0  0.39128767629E+02 -0.13545016017E+02 -0.13003676127E+02  0.43400731651E+02  0.00000000000E+00 0.  1.
         11    1    4    4    0    0 -0.28167194806E+02  0.16581441378E+02  0.12543073753E+02  0.35009481014E+02  0.51100000000E-03 0. -1.
        -11    1    4    4    0    0 -0.41671963674E+01  0.62544366292E+00 -0.20167433011E+01  0.46716120498E+01  0.51100000000E-03 0.  1.
        -12    1    4    4    0    0 -0.67943764550E+01 -0.36618690236E+01  0.24773456755E+01  0.81061752852E+01  0.00000000000E+00 0.  1.
</event>
<event>
 8    1  0.5250708E-010  0.9118800E+02  0.7816164E-02  0.1184000E+00
        -11   -1    0    0    0    0  0.00000000000E+00  0.00000000000E+00  0.45593999997E+02  0.45594000000E+02  0.51100000000E-03 0. -1.
         11   -1    0    0    0    0 -0.00000000000E+00 -0.00000000000E+00 -0.45593999997E+02  0.45594000000E+02  0.51100000000E-03 0.  1.
         23    2    1    2    0    0  0.00000000000E+00  0.00000000000E+00  0.00000000000E+00  0.91188000000E+02  0.91188000000E+02 0.  0.
    9900012    2    3    3    0    0  0.33994012654E+02 -0.22470020457E+02 -0.14937487034E+02  0.47787271498E+02  0.20000002068E+02 0.  0.
         12    1    3    3    0    0 -0.33994012654E+02  0.22470020457E+02  0.14937487034E+02  0.43400728502E+02  0.00000000000E+00 0. -1.
         11    1    4    4    0    0  0.10087425218E+02  0.66993656709E+00 -0.19995957042E+01  0.10305500753E+02  0.51100000000E-03 0. -1.
        -11    1    4    4    0    0  0.45207861716E+01  0.42456687044E-01 -0.38135130453E+01  0.59145745567E+01  0.51100000000E-03 0.  1.
        -12    1    4    4    0    0  0.19385801264E+02 -0.23182413711E+02 -0.91243782842E+01  0.31567196188E+02  0.00000000000E+00 0.  1.
</event>
<event>
 8    1  0.5250708E-010  0.9118800E+02  0.7816164E-02  0.1184000E+00
        -11   -1    0    0    0    0  0.00000000000E+00  0.00000000000E+00  0.45593999997E+02  0.45594000000E+02  0.51100000000E-03 0. -1.
         11   -1    0    0    0    0 -0.00000000000E+00 -0.00000000000E+00 -0.45593999997E+02  0.45594000000E+02  0.51100000000E-03 0.  1.
         23    2    1    2    0    0  0.00000000000E+00  0.00000000000E+00  0.00000000000E+00  0.91188000000E+02  0.91188000000E+02 0.  0.
    9900012    2    3    3    0    0 -0.18943800927E+02 -0.18081649576E+02 -0.34609388927E+02  0.47787269051E+02  0.19999990912E+02 0.  0.
         12    1    3    3    0    0  0.18943800927E+02  0.18081649576E+02  0.34609388927E+02  0.43400730949E+02  0.00000000000E+00 0. -1.
         11    1    4    4    0    0 -0.49941026084E+01  0.80949143490E-01 -0.71997208516E+01  0.87626248482E+01  0.51100000000E-03 0.  1.
        -11    1    4    4    0    0 -0.14348262204E+02 -0.59076844171E+01 -0.15330906883E+02  0.21813071071E+02  0.51100000000E-03 0. -1.
        -12    1    4    4    0    0  0.39856388458E+00 -0.12254914302E+02 -0.12078761193E+02  0.17211573132E+02  0.00000000000E+00 0.  1.
</event>
<event>
 8    1  0.5250708E-010  0.9118800E+02  0.7816164E-02  0.1184000E+00
        -11   -1    0    0    0    0  0.00000000000E+00  0.00000000000E+00  0.45593999997E+02  0.45594000000E+02  0.51100000000E-03 0.  1.
         11   -1    0    0    0    0 -0.00000000000E+00 -0.00000000000E+00 -0.45593999997E+02  0.45594000000E+02  0.51100000000E-03 0. -1.
         23    2    1    2    0    0  0.17763568394E-14  0.71054273576E-14 -0.88817841970E-15  0.91188000000E+02  0.91188000000E+02 0.  0.
    9900012    2    3    3    0    0  0.13402253801E+02  0.40676788891E+02 -0.70285961740E+01  0.47787277361E+02  0.20000028801E+02 0.  0.
         12    1    3    3    0    0 -0.13402253801E+02 -0.40676788891E+02  0.70285961740E+01  0.43400722639E+02  0.00000000000E+00 0. -1.
         11    1    4    4    0    0  0.27856765215E+01  0.10643655316E+02 -0.75241323586E+01  0.13328914441E+02  0.51100000000E-03 0. -1.
        -11    1    4    4    0    0  0.69347864833E+01  0.29700347453E+02 -0.88539598649E+00  0.30512060381E+02  0.51100000000E-03 0.  1.
         12    1    4    4    0    0  0.36817907959E+01  0.33278612155E+00  0.13809321710E+01  0.39463025389E+01  0.00000000000E+00 0. -1.
</event>
<event>
 8    1  0.5250708E-010  0.9118800E+02  0.7816164E-02  0.1184000E+00
        -11   -1    0    0    0    0  0.00000000000E+00  0.00000000000E+00  0.45593999997E+02  0.45594000000E+02  0.51100000000E-03 0. -1.
         11   -1    0    0    0    0 -0.00000000000E+00 -0.00000000000E+00 -0.45593999997E+02  0.45594000000E+02  0.51100000000E-03 0.  1.
         23    2    1    2    0    0 -0.71054273576E-14  0.00000000000E+00  0.00000000000E+00  0.91188000000E+02  0.91188000000E+02 0.  0.
    9900012    2    3    3    0    0  0.37105280780E+02  0.20119897472E+02 -0.10100066273E+02  0.47787268730E+02  0.19999989449E+02 0.  0.
         12    1    3    3    0    0 -0.37105280780E+02 -0.20119897472E+02  0.10100066273E+02  0.43400731270E+02  0.00000000000E+00 0. -1.
         11    1    4    4    0    0  0.50689814947E+01  0.36056467378E+01 -0.47337257480E+01  0.78168677557E+01  0.51100000000E-03 0. -1.
        -11    1    4    4    0    0  0.30240598142E+02  0.12866910190E+02  0.45826497900E+00  0.32867326646E+02  0.51100000000E-03 0.  1.
        -12    1    4    4    0    0  0.17957011431E+01  0.36473405433E+01 -0.58246055041E+01  0.71030743282E+01  0.00000000000E+00 0.  1.
</event>
<event>
 8    1  0.5250708E-010  0.9118800E+02  0.7816164E-02  0.1184000E+00
        -11   -1    0    0    0    0  0.00000000000E+00  0.00000000000E+00  0.45593999997E+02  0.45594000000E+02  0.51100000000E-03 0.  1.
         11   -1    0    0    0    0 -0.00000000000E+00 -0.00000000000E+00 -0.45593999997E+02  0.45594000000E+02  0.51100000000E-03 0. -1.
         23    2    1    2    0    0  0.71054273576E-14 -0.17763568394E-14  0.00000000000E+00  0.91188000000E+02  0.91188000000E+02 0.  0.
    9900012    2    3    3    0    0  0.42806945900E+02  0.69783106546E+01 -0.15774489431E+01  0.47787311272E+02  0.20000183415E+02 0.  0.
        -12    1    3    3    0    0 -0.42806945900E+02 -0.69783106546E+01  0.15774489431E+01  0.43400688728E+02  0.00000000000E+00 0.  1.
         11    1    4    4    0    0  0.33667571091E+01  0.14739215232E+01 -0.34013895715E+01  0.50076890245E+01  0.51100000000E-03 0. -1.
        -11    1    4    4    0    0  0.39083317081E+02  0.82090828058E+01  0.10751957440E+01  0.39950604010E+02  0.51100000000E-03 0.  1.
        -12    1    4    4    0    0  0.35687170925E+00 -0.27046936744E+01  0.74874488441E+00  0.28290182380E+01  0.00000000000E+00 0.  1.
</event>
<event>
 8    1  0.5250708E-010  0.9118800E+02  0.7816164E-02  0.1184000E+00
        -11   -1    0    0    0    0  0.00000000000E+00  0.00000000000E+00  0.45593999997E+02  0.45594000000E+02  0.51100000000E-03 0. -1.
         11   -1    0    0    0    0 -0.00000000000E+00 -0.00000000000E+00 -0.45593999997E+02  0.45594000000E+02  0.51100000000E-03 0.  1.
         23    2    1    2    0    0 -0.44408920985E-15  0.00000000000E+00 -0.88817841970E-15  0.91188000000E+02  0.91188000000E+02 0.  0.
    9900012    2    3    3    0    0  0.37978895767E+00 -0.42741884959E+02  0.75239801403E+01  0.47787271358E+02  0.20000001429E+02 0.  0.
        -12    1    3    3    0    0 -0.37978895767E+00  0.42741884959E+02 -0.75239801403E+01  0.43400728642E+02  0.00000000000E+00 0.  1.
         11    1    4    4    0    0  0.43104020723E+01 -0.68872270993E+01  0.36641460392E+01  0.89128799835E+01  0.51100000000E-03 0. -1.
        -11    1    4    4    0    0 -0.14357421193E+01 -0.13702334971E-01  0.25456870546E+01  0.29226813080E+01  0.51100000000E-03 0.  1.
        -12    1    4    4    0    0 -0.24948709953E+01 -0.35840955525E+02  0.13141470465E+01  0.35951710066E+02  0.00000000000E+00 0.  1.
</event>
<event>
 8    1  0.5588088E-010  0.9118800E+02  0.7816164E-02  0.1184000E+00
        -11   -1    0    0    0    0  0.00000000000E+00  0.00000000000E+00  0.45593999997E+02  0.45594000000E+02  0.51100000000E-03 0. -1.
         11   -1    0    0    0    0 -0.00000000000E+00 -0.00000000000E+00 -0.45593999997E+02  0.45594000000E+02  0.51100000000E-03 0.  1.
         23    2    1    2    0    0  0.00000000000E+00  0.00000000000E+00  0.00000000000E+00  0.91188000000E+02  0.91188000000E+02 0.  0.
    9900012    2    3    3    0    0  0.76860611530E+01 -0.83282950557E+01 -0.41894952285E+02  0.47787273491E+02  0.20000011153E+02 0.  0.
         12    1    3    3    0    0 -0.76860611530E+01  0.83282950557E+01  0.41894952285E+02  0.43400726509E+02  0.00000000000E+00 0. -1.
         11    1    4    4    0    0  0.14985247325E+00  0.21882942343E+01 -0.17944532122E+02  0.18078089522E+02  0.51100000000E-03 0. -1.
        -11    1    4    4    0    0  0.93323167393E+01 -0.64773062287E+01 -0.22232286933E+02  0.24966421735E+02  0.51100000000E-03 0.  1.
         12    1    4    4    0    0 -0.17961080596E+01 -0.40392830613E+01 -0.17181332299E+01  0.47427622338E+01  0.00000000000E+00 0. -1.
</event>
<event>
 8    1  0.5250708E-010  0.9118800E+02  0.7816164E-02  0.1184000E+00
        -11   -1    0    0    0    0  0.00000000000E+00  0.00000000000E+00  0.45593999997E+02  0.45594000000E+02  0.51100000000E-03 0. -1.
         11   -1    0    0    0    0 -0.00000000000E+00 -0.00000000000E+00 -0.45593999997E+02  0.45594000000E+02  0.51100000000E-03 0.  1.
         23    2    1    2    0    0  0.17763568394E-14  0.88817841970E-15  0.00000000000E+00  0.91188000000E+02  0.91188000000E+02 0.  0.
    9900012    2    3    3    0    0  0.92524693641E+01 -0.17933777273E+01 -0.42365064635E+02  0.47787273110E+02  0.20000009419E+02 0.  0.
         12    1    3    3    0    0 -0.92524693641E+01  0.17933777273E+01  0.42365064635E+02  0.43400726890E+02  0.00000000000E+00 0. -1.
         11    1    4    4    0    0  0.88843823715E+01 -0.10177809437E+01 -0.13947494694E+02  0.16568063757E+02  0.51100000000E-03 0. -1.
        -11    1    4    4    0    0  0.13833162194E+01 -0.54847474859E+01 -0.58279470137E+01  0.81216368672E+01  0.51100000000E-03 0.  1.
        -12    1    4    4    0    0 -0.10152292268E+01  0.47091507024E+01 -0.22589622928E+02  0.23097572486E+02  0.00000000000E+00 0.  1.
</event>
<event>
 8    1  0.5250708E-010  0.9118800E+02  0.7816164E-02  0.1184000E+00
        -11   -1    0    0    0    0  0.00000000000E+00  0.00000000000E+00  0.45593999997E+02  0.45594000000E+02  0.51100000000E-03 0. -1.
         11   -1    0    0    0    0 -0.00000000000E+00 -0.00000000000E+00 -0.45593999997E+02  0.45594000000E+02  0.51100000000E-03 0.  1.
         23    2    1    2    0    0  0.00000000000E+00  0.00000000000E+00 -0.71054273576E-14  0.91188000000E+02  0.91188000000E+02 0.  0.
    9900012    2    3    3    0    0  0.21447157497E+02  0.25332285726E+02  0.27962800313E+02  0.47787268830E+02  0.19999989902E+02 0.  0.
        -12    1    3    3    0    0 -0.21447157497E+02 -0.25332285726E+02 -0.27962800313E+02  0.43400731170E+02  0.00000000000E+00 0.  1.
         11    1    4    4    0    0  0.11906618200E+02  0.14895270905E+02  0.14983760391E+02  0.24251798449E+02  0.51100000000E-03 0. -1.
        -11    1    4    4    0    0 -0.70740601253E+00  0.19933638618E+01  0.96049662936E+01  0.98351055162E+01  0.51100000000E-03 0.  1.
         12    1    4    4    0    0  0.10247945309E+02  0.84436509595E+01  0.33740736284E+01  0.13700364865E+02  0.00000000000E+00 0. -1.
</event>
<event>
 8    1  0.5250708E-010  0.9118800E+02  0.7816164E-02  0.1184000E+00
        -11   -1    0    0    0    0  0.00000000000E+00  0.00000000000E+00  0.45593999997E+02  0.45594000000E+02  0.51100000000E-03 0. -1.
         11   -1    0    0    0    0 -0.00000000000E+00 -0.00000000000E+00 -0.45593999997E+02  0.45594000000E+02  0.51100000000E-03 0.  1.
         23    2    1    2    0    0  0.55511151231E-16  0.00000000000E+00  0.00000000000E+00  0.91188000000E+02  0.91188000000E+02 0.  0.
    9900012    2    3    3    0    0 -0.18480035709E+00 -0.25253948659E+02 -0.35296280574E+02  0.47787268480E+02  0.19999988309E+02 0.  0.
         12    1    3    3    0    0  0.18480035709E+00  0.25253948659E+02  0.35296280574E+02  0.43400731520E+02  0.00000000000E+00 0. -1.
         11    1    4    4    0    0 -0.32350384139E+01 -0.12495239138E+02 -0.21783592820E+02  0.25320375018E+02  0.51100000000E-03 0. -1.
        -11    1    4    4    0    0  0.67176420588E+01 -0.11164166071E+02 -0.13050397743E+02  0.18441209299E+02  0.51100000000E-03 0.  1.
         12    1    4    4    0    0 -0.36674040020E+01 -0.15945434496E+01 -0.46229001177E+00  0.40256841632E+01  0.00000000000E+00 0. -1.
</event>
<event>
 8    1  0.5250708E-010  0.9118800E+02  0.7816164E-02  0.1184000E+00
        -11   -1    0    0    0    0  0.00000000000E+00  0.00000000000E+00  0.45593999997E+02  0.45594000000E+02  0.51100000000E-03 0. -1.
         11   -1    0    0    0    0 -0.00000000000E+00 -0.00000000000E+00 -0.45593999997E+02  0.45594000000E+02  0.51100000000E-03 0.  1.
         23    2    1    2    0    0  0.00000000000E+00  0.00000000000E+00  0.00000000000E+00  0.91188000000E+02  0.91188000000E+02 0.  0.
    9900012    2    3    3    0    0  0.36272270470E+02 -0.15593666048E+02 -0.18021742517E+02  0.47787271559E+02  0.20000002346E+02 0.  0.
         12    1    3    3    0    0 -0.36272270470E+02  0.15593666048E+02  0.18021742517E+02  0.43400728441E+02  0.00000000000E+00 0. -1.
         11    1    4    4    0    0  0.85124933774E+01 -0.24299450369E+01 -0.24762588337E+01  0.91923356365E+01  0.51100000000E-03 0. -1.
        -11    1    4    4    0    0  0.20513328316E+02 -0.84236142175E+00 -0.59384253211E+01  0.21372204072E+02  0.51100000000E-03 0.  1.
         12    1    4    4    0    0  0.72464487767E+01 -0.12321359589E+02 -0.96070583624E+01  0.17222731850E+02  0.00000000000E+00 0. -1.
</event>
<event>
 8    1  0.5250708E-010  0.9118800E+02  0.7816164E-02  0.1184000E+00
        -11   -1    0    0    0    0  0.00000000000E+00  0.00000000000E+00  0.45593999997E+02  0.45594000000E+02  0.51100000000E-03 0. -1.
         11   -1    0    0    0    0 -0.00000000000E+00 -0.00000000000E+00 -0.45593999997E+02  0.45594000000E+02  0.51100000000E-03 0.  1.
         23    2    1    2    0    0  0.00000000000E+00  0.00000000000E+00  0.00000000000E+00  0.91188000000E+02  0.91188000000E+02 0.  0.
    9900012    2    3    3    0    0  0.80891525946E+01 -0.83553923460E+01  0.41813579012E+02  0.47787281564E+02  0.20000047965E+02 0.  0.
        -12    1    3    3    0    0 -0.80891525946E+01  0.83553923460E+01 -0.41813579012E+02  0.43400718436E+02  0.00000000000E+00 0.  1.
         11    1    4    4    0    0 -0.34599866341E+01  0.14446544466E+00  0.10560636388E+02  0.11113929051E+02  0.51100000000E-03 0. -1.
        -11    1    4    4    0    0  0.60508552717E+01 -0.99429530312E+01  0.27499892897E+02  0.29861668978E+02  0.51100000000E-03 0.  1.
        -12    1    4    4    0    0  0.54982839570E+01  0.14430952405E+01  0.37530497267E+01  0.68116835361E+01  0.00000000000E+00 0.  1.
</event>
<event>
 8    1  0.5250708E-010  0.9118800E+02  0.7816164E-02  0.1184000E+00
        -11   -1    0    0    0    0  0.00000000000E+00  0.00000000000E+00  0.45593999997E+02  0.45594000000E+02  0.51100000000E-03 0. -1.
         11   -1    0    0    0    0 -0.00000000000E+00 -0.00000000000E+00 -0.45593999997E+02  0.45594000000E+02  0.51100000000E-03 0.  1.
         23    2    1    2    0    0  0.00000000000E+00  0.00000000000E+00  0.71054273576E-14  0.91188000000E+02  0.91188000000E+02 0.  0.
    9900012    2    3    3    0    0 -0.16572473442E+02  0.22650637309E+02 -0.33104752703E+02  0.47787275374E+02  0.20000019742E+02 0.  0.
         12    1    3    3    0    0  0.16572473442E+02 -0.22650637309E+02  0.33104752703E+02  0.43400724626E+02  0.00000000000E+00 0. -1.
         11    1    4    4    0    0 -0.77490687790E+01  0.12544534014E+02 -0.21173175861E+02  0.25801487880E+02  0.51100000000E-03 0. -1.
        -11    1    4    4    0    0 -0.81273683171E+01  0.10634761029E+02 -0.14224614353E+02  0.19531817930E+02  0.51100000000E-03 0.  1.
         12    1    4    4    0    0 -0.69603634638E+00 -0.52865773355E+00  0.22930375106E+01  0.24539695637E+01  0.00000000000E+00 0. -1.
</event>
<event>
 8    1  0.5250708E-010  0.9118800E+02  0.7816164E-02  0.1184000E+00
        -11   -1    0    0    0    0  0.00000000000E+00  0.00000000000E+00  0.45593999997E+02  0.45594000000E+02  0.51100000000E-03 0. -1.
         11   -1    0    0    0    0 -0.00000000000E+00 -0.00000000000E+00 -0.45593999997E+02  0.45594000000E+02  0.51100000000E-03 0.  1.
         23    2    1    2    0    0 -0.11102230246E-14  0.88817841970E-15  0.00000000000E+00  0.91188000000E+02  0.91188000000E+02 0.  0.
    9900012    2    3    3    0    0 -0.11188414981E+01 -0.76491849576E+01  0.42706693133E+02  0.47787268725E+02  0.19999989427E+02 0.  0.
        -12    1    3    3    0    0  0.11188414981E+01  0.76491849576E+01 -0.42706693133E+02  0.43400731275E+02  0.00000000000E+00 0.  1.
         11    1    4    4    0    0 -0.31440490362E+01 -0.69927352269E+01  0.15636458826E+02  0.17415000292E+02  0.51100000000E-03 0. -1.
        -11    1    4    4    0    0  0.77096939790E+01 -0.11887173858E+01  0.12636551803E+02  0.14850416560E+02  0.51100000000E-03 0.  1.
         12    1    4    4    0    0 -0.56844864408E+01  0.53226765507E+00  0.14433682505E+02  0.15521851874E+02  0.00000000000E+00 0. -1.
</event>
<event>
 8    1  0.5250708E-010  0.9118800E+02  0.7816164E-02  0.1184000E+00
        -11   -1    0    0    0    0  0.00000000000E+00  0.00000000000E+00  0.45593999997E+02  0.45594000000E+02  0.51100000000E-03 0. -1.
         11   -1    0    0    0    0 -0.00000000000E+00 -0.00000000000E+00 -0.45593999997E+02  0.45594000000E+02  0.51100000000E-03 0.  1.
         23    2    1    2    0    0 -0.17763568394E-14  0.00000000000E+00 -0.71054273576E-14  0.91188000000E+02  0.91188000000E+02 0.  0.
    9900012    2    3    3    0    0  0.53402371803E+01  0.12292674805E+02  0.41279477050E+02  0.47787271751E+02  0.20000003222E+02 0.  0.
        -12    1    3    3    0    0 -0.53402371803E+01 -0.12292674805E+02 -0.41279477050E+02  0.43400728249E+02  0.00000000000E+00 0.  1.
         11    1    4    4    0    0  0.56309185780E+01  0.60139385550E+01  0.15174310168E+02  0.17266568573E+02  0.51100000000E-03 0. -1.
        -11    1    4    4    0    0 -0.42564590915E+01  0.18157925966E+01  0.23594330505E+02  0.24043855327E+02  0.51100000000E-03 0.  1.
        -12    1    4    4    0    0  0.39657776939E+01  0.44629436534E+01  0.25108363779E+01  0.64768478511E+01  0.00000000000E+00 0.  1.
</event>
<event>
 8    1  0.5250708E-010  0.9118800E+02  0.7816164E-02  0.1184000E+00
        -11   -1    0    0    0    0  0.00000000000E+00  0.00000000000E+00  0.45593999997E+02  0.45594000000E+02  0.51100000000E-03 0.  1.
         11   -1    0    0    0    0 -0.00000000000E+00 -0.00000000000E+00 -0.45593999997E+02  0.45594000000E+02  0.51100000000E-03 0. -1.
         23    2    1    2    0    0  0.00000000000E+00 -0.71054273576E-14  0.00000000000E+00  0.91188000000E+02  0.91188000000E+02 0.  0.
    9900012    2    3    3    0    0  0.28988960406E+02 -0.32056653491E+02  0.39540441308E+01  0.47787270473E+02  0.19999997396E+02 0.  0.
        -12    1    3    3    0    0 -0.28988960406E+02  0.32056653491E+02 -0.39540441308E+01  0.43400729527E+02  0.00000000000E+00 0.  1.
         11    1    4    4    0    0  0.71439643400E+01 -0.10993748647E+02  0.79045462589E+01  0.15309493383E+02  0.51100000000E-03 0. -1.
        -11    1    4    4    0    0  0.12996266077E+02 -0.19014063154E+02 -0.41020635883E+01  0.23393684095E+02  0.51100000000E-03 0.  1.
         12    1    4    4    0    0  0.88487299889E+01 -0.20488416895E+01  0.15156146017E+00  0.90840929960E+01  0.00000000000E+00 0. -1.
</event>
<event>
 8    1  0.5250708E-010  0.9118800E+02  0.7816164E-02  0.1184000E+00
        -11   -1    0    0    0    0  0.00000000000E+00  0.00000000000E+00  0.45593999997E+02  0.45594000000E+02  0.51100000000E-03 0. -1.
         11   -1    0    0    0    0 -0.00000000000E+00 -0.00000000000E+00 -0.45593999997E+02  0.45594000000E+02  0.51100000000E-03 0.  1.
         23    2    1    2    0    0  0.00000000000E+00  0.71054273576E-14  0.71054273576E-14  0.91188000000E+02  0.91188000000E+02 0.  0.
    9900012    2    3    3    0    0 -0.93953687314E+01 -0.34065272458E+02  0.25197377089E+02  0.47787267824E+02  0.19999985316E+02 0.  0.
        -12    1    3    3    0    0  0.93953687314E+01  0.34065272458E+02 -0.25197377089E+02  0.43400732176E+02  0.00000000000E+00 0.  1.
         11    1    4    4    0    0 -0.19866219869E+01 -0.28676316022E+02  0.13659473520E+02  0.31825445553E+02  0.51100000000E-03 0. -1.
        -11    1    4    4    0    0 -0.41643750619E+01 -0.63140345729E+01  0.88959735479E+01  0.11676788851E+02  0.51100000000E-03 0.  1.
        -12    1    4    4    0    0 -0.32443716826E+01  0.92507813702E+00  0.26419300209E+01  0.42850334199E+01  0.00000000000E+00 0.  1.
</event>
<event>
 8    1  0.5250708E-010  0.9118800E+02  0.7816164E-02  0.1184000E+00
        -11   -1    0    0    0    0  0.00000000000E+00  0.00000000000E+00  0.45593999997E+02  0.45594000000E+02  0.51100000000E-03 0. -1.
         11   -1    0    0    0    0 -0.00000000000E+00 -0.00000000000E+00 -0.45593999997E+02  0.45594000000E+02  0.51100000000E-03 0.  1.
         23    2    1    2    0    0  0.00000000000E+00  0.00000000000E+00  0.00000000000E+00  0.91188000000E+02  0.91188000000E+02 0.  0.
    9900012    2    3    3    0    0  0.98087026474E+01 -0.15625267114E+02 -0.39284405096E+02  0.47787261484E+02  0.19999956408E+02 0.  0.
         12    1    3    3    0    0 -0.98087026474E+01  0.15625267114E+02  0.39284405096E+02  0.43400738516E+02  0.00000000000E+00 0. -1.
         11    1    4    4    0    0  0.36099665930E+00  0.96365830360E+00 -0.49173929155E+01  0.50239137394E+01  0.51100000000E-03 0. -1.
        -11    1    4    4    0    0  0.12067758853E+02 -0.15490196122E+02 -0.19667758884E+02  0.27792044175E+02  0.51100000000E-03 0.  1.
        -12    1    4    4    0    0 -0.26200528652E+01 -0.10987292955E+01 -0.14699253297E+02  0.14971303569E+02  0.00000000000E+00 0.  1.
</event>
<event>
 8    1  0.5695549E-010  0.9118800E+02  0.7816164E-02  0.1184000E+00
        -11   -1    0    0    0    0  0.00000000000E+00  0.00000000000E+00  0.45593999997E+02  0.45594000000E+02  0.51100000000E-03 0. -1.
         11   -1    0    0    0    0 -0.00000000000E+00 -0.00000000000E+00 -0.45593999997E+02  0.45594000000E+02  0.51100000000E-03 0.  1.
         23    2    1    2    0    0  0.00000000000E+00  0.00000000000E+00  0.00000000000E+00  0.91188000000E+02  0.91188000000E+02 0.  0.
    9900012    2    3    3    0    0 -0.13513833502E+01  0.16764202856E+02 -0.40009481936E+02  0.47787269832E+02  0.19999994473E+02 0.  0.
         12    1    3    3    0    0  0.13513833502E+01 -0.16764202856E+02  0.40009481936E+02  0.43400730168E+02  0.00000000000E+00 0. -1.
         11    1    4    4    0    0  0.99024487906E+00  0.10522681044E+02 -0.77668900357E+01  0.13116096308E+02  0.51100000000E-03 0. -1.
        -11    1    4    4    0    0  0.29460598999E+01  0.63093512409E+01 -0.22906101202E+02  0.23941108047E+02  0.51100000000E-03 0.  1.
         12    1    4    4    0    0 -0.52876881292E+01 -0.67829428927E-01 -0.93364906984E+01  0.10730065477E+02  0.00000000000E+00 0. -1.
</event>
<event>
 8    1  0.5250708E-010  0.9118800E+02  0.7816164E-02  0.1184000E+00
        -11   -1    0    0    0    0  0.00000000000E+00  0.00000000000E+00  0.45593999997E+02  0.45594000000E+02  0.51100000000E-03 0.  1.
         11   -1    0    0    0    0 -0.00000000000E+00 -0.00000000000E+00 -0.45593999997E+02  0.45594000000E+02  0.51100000000E-03 0. -1.
         23    2    1    2    0    0  0.44408920985E-15  0.71054273576E-14 -0.35527136788E-14  0.91188000000E+02  0.91188000000E+02 0.  0.
    9900012    2    3    3    0    0 -0.25709758422E+01 -0.36942529871E+02  0.22633232494E+02  0.47787266789E+02  0.19999980600E+02 0.  0.
        -12    1    3    3    0    0  0.25709758422E+01  0.36942529871E+02 -0.22633232494E+02  0.43400733211E+02  0.00000000000E+00 0.  1.
         11    1    4    4    0    0 -0.23994073000E+01 -0.18670515065E+02  0.54005595123E+01  0.19583445342E+02  0.51100000000E-03 0. -1.
        -11    1    4    4    0    0 -0.86448996800E+00 -0.19647328315E+02  0.17836120574E+02  0.26549803205E+02  0.51100000000E-03 0.  1.
        -12    1    4    4    0    0  0.69292142580E+00  0.13753135084E+01 -0.60344759208E+00  0.16540182421E+01  0.00000000000E+00 0.  1.
</event>
<event>
 8    1  0.5250708E-010  0.9118800E+02  0.7816164E-02  0.1184000E+00
        -11   -1    0    0    0    0  0.00000000000E+00  0.00000000000E+00  0.45593999997E+02  0.45594000000E+02  0.51100000000E-03 0. -1.
         11   -1    0    0    0    0 -0.00000000000E+00 -0.00000000000E+00 -0.45593999997E+02  0.45594000000E+02  0.51100000000E-03 0.  1.
         23    2    1    2    0    0  0.88817841970E-15  0.00000000000E+00  0.00000000000E+00  0.91188000000E+02  0.91188000000E+02 0.  0.
    9900012    2    3    3    0    0  0.59292886859E+01 -0.56621759972E+01  0.42619323846E+02  0.47787268826E+02  0.19999989887E+02 0.  0.
        -12    1    3    3    0    0 -0.59292886859E+01  0.56621759972E+01 -0.42619323846E+02  0.43400731174E+02  0.00000000000E+00 0.  1.
         11    1    4    4    0    0  0.66832768965E+01  0.14183775763E+01  0.17224553521E+02  0.18530062851E+02  0.51100000000E-03 0. -1.
        -11    1    4    4    0    0 -0.50668488166E+01  0.84486666208E+00  0.12544936801E+02  0.13555891568E+02  0.51100000000E-03 0.  1.
        -12    1    4    4    0    0  0.43128606060E+01 -0.79254202355E+01  0.12849833524E+02  0.15701314407E+02  0.00000000000E+00 0.  1.
</event>
<event>
 8    1  0.5250708E-010  0.9118800E+02  0.7816164E-02  0.1184000E+00
        -11   -1    0    0    0    0  0.00000000000E+00  0.00000000000E+00  0.45593999997E+02  0.45594000000E+02  0.51100000000E-03 0. -1.
         11   -1    0    0    0    0 -0.00000000000E+00 -0.00000000000E+00 -0.45593999997E+02  0.45594000000E+02  0.51100000000E-03 0.  1.
         23    2    1    2    0    0  0.22204460493E-15 -0.44408920985E-15  0.00000000000E+00  0.91188000000E+02  0.91188000000E+02 0.  0.
    9900012    2    3    3    0    0  0.10490132692E+01 -0.34881399615E+01 -0.43247614046E+02  0.47787266482E+02  0.19999979199E+02 0.  0.
         12    1    3    3    0    0 -0.10490132692E+01  0.34881399615E+01  0.43247614046E+02  0.43400733518E+02  0.00000000000E+00 0. -1.
         11    1    4    4    0    0 -0.14751199024E+01 -0.19682449452E+01  0.45027563268E+00  0.25005430004E+01  0.51100000000E-03 0. -1.
        -11    1    4    4    0    0  0.65595920419E+01 -0.38246920510E+00 -0.16376717011E+02  0.17645718766E+02  0.51100000000E-03 0.  1.
        -12    1    4    4    0    0 -0.40354588703E+01 -0.11374258112E+01 -0.27321172667E+02  0.27641004716E+02  0.00000000000E+00 0.  1.
</event>
<event>
 8    1  0.5250708E-010  0.9118800E+02  0.7816164E-02  0.1184000E+00
        -11   -1    0    0    0    0  0.00000000000E+00  0.00000000000E+00  0.45593999997E+02  0.45594000000E+02  0.51100000000E-03 0. -1.
         11   -1    0    0    0    0 -0.00000000000E+00 -0.00000000000E+00 -0.45593999997E+02  0.45594000000E+02  0.51100000000E-03 0.  1.
         23    2    1    2    0    0  0.00000000000E+00  0.00000000000E+00  0.35527136788E-14  0.91188000000E+02  0.91188000000E+02 0.  0.
    9900012    2    3    3    0    0 -0.41278611412E+01 -0.34559976003E+02  0.25926667403E+02  0.47787271186E+02  0.20000000646E+02 0.  0.
        -12    1    3    3    0    0  0.41278611412E+01  0.34559976003E+02 -0.25926667403E+02  0.43400728814E+02  0.00000000000E+00 0.  1.
         11    1    4    4    0    0  0.31095648223E+01 -0.22184137557E+02  0.88023359963E+01  0.24068370775E+02  0.51100000000E-03 0. -1.
        -11    1    4    4    0    0 -0.55205182666E+01 -0.86018303497E+01  0.60113574979E+01  0.11857656873E+02  0.51100000000E-03 0.  1.
        -12    1    4    4    0    0 -0.17169076968E+01 -0.37740080970E+01  0.11112973909E+02  0.11861243538E+02  0.00000000000E+00 0.  1.
</event>
<event>
 8    1  0.5250708E-010  0.9118800E+02  0.7816164E-02  0.1184000E+00
        -11   -1    0    0    0    0  0.00000000000E+00  0.00000000000E+00  0.45593999997E+02  0.45594000000E+02  0.51100000000E-03 0. -1.
         11   -1    0    0    0    0 -0.00000000000E+00 -0.00000000000E+00 -0.45593999997E+02  0.45594000000E+02  0.51100000000E-03 0.  1.
         23    2    1    2    0    0  0.00000000000E+00  0.44408920985E-15  0.00000000000E+00  0.91188000000E+02  0.91188000000E+02 0.  0.
    9900012    2    3    3    0    0  0.46475279725E+01 -0.92870152344E+00 -0.43141170331E+02  0.47787279035E+02  0.20000036431E+02 0.  0.
         12    1    3    3    0    0 -0.46475279725E+01  0.92870152344E+00  0.43141170331E+02  0.43400720965E+02  0.00000000000E+00 0. -1.
         11    1    4    4    0    0  0.26863468659E+01 -0.42974841710E+01 -0.26985155735E+02  0.27456938285E+02  0.51100000000E-03 0. -1.
        -11    1    4    4    0    0 -0.39486386941E+01  0.48444784475E+01 -0.82218219180E+01  0.10327588047E+02  0.51100000000E-03 0.  1.
         12    1    4    4    0    0  0.59098198007E+01 -0.14756958000E+01 -0.79341926780E+01  0.10002752702E+02  0.00000000000E+00 0. -1.
</event>
<event>
 8    1  0.5250708E-010  0.9118800E+02  0.7816164E-02  0.1184000E+00
        -11   -1    0    0    0    0  0.00000000000E+00  0.00000000000E+00  0.45593999997E+02  0.45594000000E+02  0.51100000000E-03 0. -1.
         11   -1    0    0    0    0 -0.00000000000E+00 -0.00000000000E+00 -0.45593999997E+02  0.45594000000E+02  0.51100000000E-03 0.  1.
         23    2    1    2    0    0 -0.35527136788E-14 -0.17763568394E-14  0.00000000000E+00  0.91188000000E+02  0.91188000000E+02 0.  0.
    9900012    2    3    3    0    0  0.23624334148E+02  0.15174735971E+02 -0.33094430061E+02  0.47787273315E+02  0.20000010351E+02 0.  0.
         12    1    3    3    0    0 -0.23624334148E+02 -0.15174735971E+02  0.33094430061E+02  0.43400726685E+02  0.00000000000E+00 0. -1.
         11    1    4    4    0    0  0.35512677380E+01  0.66730897311E+00  0.20905625539E+01  0.41745964913E+01  0.51100000000E-03 0. -1.
        -11    1    4    4    0    0  0.27510114047E+01  0.29068680901E+01 -0.21332759371E+01  0.45352852531E+01  0.51100000000E-03 0.  1.
        -12    1    4    4    0    0  0.17322055006E+02  0.11600558908E+02 -0.33051716678E+02  0.39077391570E+02  0.00000000000E+00 0.  1.
</event>
<event>
 8    1  0.5250708E-010  0.9118800E+02  0.7816164E-02  0.1184000E+00
        -11   -1    0    0    0    0  0.00000000000E+00  0.00000000000E+00  0.45593999997E+02  0.45594000000E+02  0.51100000000E-03 0.  1.
         11   -1    0    0    0    0 -0.00000000000E+00 -0.00000000000E+00 -0.45593999997E+02  0.45594000000E+02  0.51100000000E-03 0. -1.
         23    2    1    2    0    0  0.00000000000E+00 -0.71054273576E-14 -0.88817841970E-15  0.91188000000E+02  0.91188000000E+02 0.  0.
    9900012    2    3    3    0    0  0.17702009677E+02 -0.39474202369E+02  0.34712900458E+01  0.47787266667E+02  0.19999980040E+02 0.  0.
        -12    1    3    3    0    0 -0.17702009677E+02  0.39474202369E+02 -0.34712900458E+01  0.43400733333E+02  0.00000000000E+00 0.  1.
         11    1    4    4    0    0  0.80994317528E+01 -0.20537835594E+02  0.12823055308E+01  0.22114425006E+02  0.51100000000E-03 0. -1.
        -11    1    4    4    0    0  0.62213935636E+01 -0.32798600565E+01 -0.44624314521E+01  0.83292565448E+01  0.51100000000E-03 0.  1.
        -12    1    4    4    0    0  0.33811843604E+01 -0.15656506718E+02  0.66514159671E+01  0.17343585116E+02  0.00000000000E+00 0.  1.
</event>
<event>
 8    1  0.5250708E-010  0.9118800E+02  0.7816164E-02  0.1184000E+00
        -11   -1    0    0    0    0  0.00000000000E+00  0.00000000000E+00  0.45593999997E+02  0.45594000000E+02  0.51100000000E-03 0.  1.
         11   -1    0    0    0    0 -0.00000000000E+00 -0.00000000000E+00 -0.45593999997E+02  0.45594000000E+02  0.51100000000E-03 0. -1.
         23    2    1    2    0    0  0.00000000000E+00 -0.71054273576E-14 -0.17763568394E-14  0.91188000000E+02  0.91188000000E+02 0.  0.
    9900012    2    3    3    0    0  0.13849363131E+02 -0.40634353867E+02 -0.63770424071E+01  0.47787282919E+02  0.20000054140E+02 0.  0.
        -12    1    3    3    0    0 -0.13849363131E+02  0.40634353867E+02  0.63770424071E+01  0.43400717081E+02  0.00000000000E+00 0.  1.
         11    1    4    4    0    0  0.76382695700E+01 -0.10145707215E+02 -0.21121358517E+01  0.12873991418E+02  0.51100000000E-03 0. -1.
        -11    1    4    4    0    0  0.38989383107E+00 -0.16928819001E+02  0.47929457622E+01  0.17598558444E+02  0.51100000000E-03 0.  1.
        -12    1    4    4    0    0  0.58211997295E+01 -0.13559827651E+02 -0.90578523176E+01  0.17314733057E+02  0.00000000000E+00 0.  1.
</event>
<event>
 8    1  0.5250708E-010  0.9118800E+02  0.7816164E-02  0.1184000E+00
        -11   -1    0    0    0    0  0.00000000000E+00  0.00000000000E+00  0.45593999997E+02  0.45594000000E+02  0.51100000000E-03 0. -1.
         11   -1    0    0    0    0 -0.00000000000E+00 -0.00000000000E+00 -0.45593999997E+02  0.45594000000E+02  0.51100000000E-03 0.  1.
         23    2    1    2    0    0  0.00000000000E+00  0.22204460493E-15  0.00000000000E+00  0.91188000000E+02  0.91188000000E+02 0.  0.
    9900012    2    3    3    0    0 -0.35930552573E+02 -0.16791189028E+01 -0.24285732238E+02  0.47787299098E+02  0.20000127907E+02 0.  0.
         12    1    3    3    0    0  0.35930552573E+02  0.16791189028E+01  0.24285732238E+02  0.43400700902E+02  0.00000000000E+00 0. -1.
         11    1    4    4    0    0 -0.62753926901E+01  0.27284383280E+01 -0.91307415775E+00  0.69035232891E+01  0.51100000000E-03 0. -1.
        -11    1    4    4    0    0 -0.79952448036E+01 -0.42514356433E+01 -0.51733699992E-01  0.90554580853E+01  0.51100000000E-03 0.  1.
        -12    1    4    4    0    0 -0.21659915079E+02 -0.15612158748E+00 -0.23320924380E+02  0.31828317724E+02  0.00000000000E+00 0.  1.
</event>
<event>
 8    1  0.5250708E-010  0.9118800E+02  0.7816164E-02  0.1184000E+00
        -11   -1    0    0    0    0  0.00000000000E+00  0.00000000000E+00  0.45593999997E+02  0.45594000000E+02  0.51100000000E-03 0. -1.
         11   -1    0    0    0    0 -0.00000000000E+00 -0.00000000000E+00 -0.45593999997E+02  0.45594000000E+02  0.51100000000E-03 0.  1.
         23    2    1    2    0    0  0.00000000000E+00  0.00000000000E+00  0.00000000000E+00  0.91188000000E+02  0.91188000000E+02 0.  0.
    9900012    2    3    3    0    0 -0.14917372985E+02 -0.94479410674E+01  0.39646324043E+02  0.47787278609E+02  0.20000034488E+02 0.  0.
        -12    1    3    3    0    0  0.14917372985E+02  0.94479410674E+01 -0.39646324043E+02  0.43400721391E+02  0.00000000000E+00 0.  1.
         11    1    4    4    0    0 -0.77199665657E+01 -0.10071718050E+01  0.23443053300E+02  0.24702004516E+02  0.51100000000E-03 0. -1.
        -11    1    4    4    0    0 -0.57218916532E+01  0.12559127634E+01  0.96508034206E+01  0.11289613274E+02  0.51100000000E-03 0.  1.
        -12    1    4    4    0    0 -0.14755147665E+01 -0.96966820258E+01  0.65524673223E+01  0.11795660819E+02  0.00000000000E+00 0.  1.
</event>
<event>
 8    1  0.5250708E-010  0.9118800E+02  0.7816164E-02  0.1184000E+00
        -11   -1    0    0    0    0  0.00000000000E+00  0.00000000000E+00  0.45593999997E+02  0.45594000000E+02  0.51100000000E-03 0. -1.
         11   -1    0    0    0    0 -0.00000000000E+00 -0.00000000000E+00 -0.45593999997E+02  0.45594000000E+02  0.51100000000E-03 0.  1.
         23    2    1    2    0    0 -0.17763568394E-14  0.00000000000E+00  0.00000000000E+00  0.91188000000E+02  0.91188000000E+02 0.  0.
    9900012    2    3    3    0    0  0.15351977621E+02 -0.45224118682E+01  0.40342137912E+02  0.47787268240E+02  0.19999987213E+02 0.  0.
        -12    1    3    3    0    0 -0.15351977621E+02  0.45224118682E+01 -0.40342137912E+02  0.43400731760E+02  0.00000000000E+00 0.  1.
         11    1    4    4    0    0  0.94578909446E+01  0.48162609311E+01  0.95539654259E+01  0.14280277522E+02  0.51100000000E-03 0. -1.
        -11    1    4    4    0    0  0.69424789673E+01 -0.52363862698E+01  0.17181232116E+02  0.19256492222E+02  0.51100000000E-03 0.  1.
         12    1    4    4    0    0 -0.10483922912E+01 -0.41022865294E+01  0.13606940370E+02  0.14250498497E+02  0.00000000000E+00 0. -1.
</event>
<event>
 8    1  0.5250708E-010  0.9118800E+02  0.7816164E-02  0.1184000E+00
        -11   -1    0    0    0    0  0.00000000000E+00  0.00000000000E+00  0.45593999997E+02  0.45594000000E+02  0.51100000000E-03 0. -1.
         11   -1    0    0    0    0 -0.00000000000E+00 -0.00000000000E+00 -0.45593999997E+02  0.45594000000E+02  0.51100000000E-03 0.  1.
         23    2    1    2    0    0  0.00000000000E+00 -0.17763568394E-14  0.00000000000E+00  0.91188000000E+02  0.91188000000E+02 0.  0.
    9900012    2    3    3    0    0  0.13592752631E+02 -0.15260506470E+02  0.38288103861E+02  0.47787252552E+02  0.19999915685E+02 0.  0.
        -12    1    3    3    0    0 -0.13592752631E+02  0.15260506470E+02 -0.38288103861E+02  0.43400747448E+02  0.00000000000E+00 0.  1.
         11    1    4    4    0    0  0.56032519180E+01 -0.41952399191E+01  0.25576493949E+02  0.26517041936E+02  0.51100000000E-03 0. -1.
        -11    1    4    4    0    0 -0.54928326287E+00 -0.76254941578E+01  0.74107896409E+01  0.10647519740E+02  0.51100000000E-03 0.  1.
        -12    1    4    4    0    0  0.85387839759E+01 -0.34397723928E+01  0.53008202708E+01  0.10622690876E+02  0.00000000000E+00 0.  1.
</event>
<event>
 8    1  0.5250708E-010  0.9118800E+02  0.7816164E-02  0.1184000E+00
        -11   -1    0    0    0    0  0.00000000000E+00  0.00000000000E+00  0.45593999997E+02  0.45594000000E+02  0.51100000000E-03 0.  1.
         11   -1    0    0    0    0 -0.00000000000E+00 -0.00000000000E+00 -0.45593999997E+02  0.45594000000E+02  0.51100000000E-03 0. -1.
         23    2    1    2    0    0  0.00000000000E+00  0.00000000000E+00  0.00000000000E+00  0.91188000000E+02  0.91188000000E+02 0.  0.
    9900012    2    3    3    0    0 -0.21082284457E+02  0.29851917557E+02  0.23409883224E+02  0.47787281891E+02  0.20000049456E+02 0.  0.
        -12    1    3    3    0    0  0.21082284457E+02 -0.29851917557E+02 -0.23409883224E+02  0.43400718109E+02  0.00000000000E+00 0.  1.
         11    1    4    4    0    0 -0.16413544241E+02  0.27322971008E+02  0.13416018601E+02  0.34582347153E+02  0.51100000000E-03 0. -1.
        -11    1    4    4    0    0  0.17356213148E+01  0.36938613591E+00  0.13349555228E+01  0.22205706417E+01  0.51100000000E-03 0.  1.
        -12    1    4    4    0    0 -0.64043615313E+01  0.21595604132E+01  0.86589091005E+01  0.10984364097E+02  0.00000000000E+00 0.  1.
</event>
<event>
 8    1  0.5250708E-010  0.9118800E+02  0.7816164E-02  0.1184000E+00
        -11   -1    0    0    0    0  0.00000000000E+00  0.00000000000E+00  0.45593999997E+02  0.45594000000E+02  0.51100000000E-03 0. -1.
         11   -1    0    0    0    0 -0.00000000000E+00 -0.00000000000E+00 -0.45593999997E+02  0.45594000000E+02  0.51100000000E-03 0.  1.
         23    2    1    2    0    0  0.71054273576E-14 -0.88817841970E-15  0.00000000000E+00  0.91188000000E+02  0.91188000000E+02 0.  0.
    9900012    2    3    3    0    0  0.36871507837E+02 -0.23077928657E+01 -0.22776948804E+02  0.47787269651E+02  0.19999993646E+02 0.  0.
         12    1    3    3    0    0 -0.36871507837E+02  0.23077928657E+01  0.22776948804E+02  0.43400730349E+02  0.00000000000E+00 0. -1.
         11    1    4    4    0    0  0.13554211722E+02 -0.49075210642E+01 -0.10263588417E+01  0.14451776054E+02  0.51100000000E-03 0.  1.
        -11    1    4    4    0    0  0.36296639912E+01  0.35977604960E+01 -0.72211079490E+01  0.88466231721E+01  0.51100000000E-03 0. -1.
        -12    1    4    4    0    0  0.19687632124E+02 -0.99803229756E+00 -0.14529482013E+02  0.24488870424E+02  0.00000000000E+00 0.  1.
</event>
<event>
 8    1  0.5250708E-010  0.9118800E+02  0.7816164E-02  0.1184000E+00
        -11   -1    0    0    0    0  0.00000000000E+00  0.00000000000E+00  0.45593999997E+02  0.45594000000E+02  0.51100000000E-03 0.  1.
         11   -1    0    0    0    0 -0.00000000000E+00 -0.00000000000E+00 -0.45593999997E+02  0.45594000000E+02  0.51100000000E-03 0. -1.
         23    2    1    2    0    0  0.00000000000E+00 -0.35527136788E-14  0.00000000000E+00  0.91188000000E+02  0.91188000000E+02 0.  0.
    9900012    2    3    3    0    0 -0.29117184436E+02  0.30963745085E+02  0.87783452604E+01  0.47787270920E+02  0.19999999430E+02 0.  0.
        -12    1    3    3    0    0  0.29117184436E+02 -0.30963745085E+02 -0.87783452604E+01  0.43400729080E+02  0.00000000000E+00 0.  1.
         11    1    4    4    0    0 -0.66484982712E+01  0.18783875238E+02  0.31216007444E+01  0.20168809823E+02  0.51100000000E-03 0. -1.
        -11    1    4    4    0    0 -0.12476969610E+02  0.80193150137E+01  0.75305769870E+01  0.16634114763E+02  0.51100000000E-03 0.  1.
        -12    1    4    4    0    0 -0.99917165548E+01  0.41605548341E+01 -0.18738324709E+01  0.10984346333E+02  0.00000000000E+00 0.  1.
</event>
<event>
 8    1  0.5250708E-010  0.9118800E+02  0.7816164E-02  0.1184000E+00
        -11   -1    0    0    0    0  0.00000000000E+00  0.00000000000E+00  0.45593999997E+02  0.45594000000E+02  0.51100000000E-03 0. -1.
         11   -1    0    0    0    0 -0.00000000000E+00 -0.00000000000E+00 -0.45593999997E+02  0.45594000000E+02  0.51100000000E-03 0.  1.
         23    2    1    2    0    0  0.00000000000E+00 -0.44408920985E-15  0.00000000000E+00  0.91188000000E+02  0.91188000000E+02 0.  0.
    9900012    2    3    3    0    0 -0.42309881455E+02  0.19870810404E+01  0.94630128982E+01  0.47787272208E+02  0.20000005305E+02 0.  0.
        -12    1    3    3    0    0  0.42309881455E+02 -0.19870810404E+01 -0.94630128982E+01  0.43400727792E+02  0.00000000000E+00 0.  1.
         11    1    4    4    0    0 -0.15165932686E+01  0.21999442470E+01 -0.11528292607E+01  0.29101246361E+01  0.51100000000E-03 0.  1.
        -11    1    4    4    0    0 -0.21863005471E+02 -0.77228405655E+01  0.45682733466E+01  0.23632655294E+02  0.51100000000E-03 0. -1.
         12    1    4    4    0    0 -0.18930282715E+02  0.75099773589E+01  0.60475688124E+01  0.21244492278E+02  0.00000000000E+00 0. -1.
</event>
<event>
 8    1  0.5250708E-010  0.9118800E+02  0.7816164E-02  0.1184000E+00
        -11   -1    0    0    0    0  0.00000000000E+00  0.00000000000E+00  0.45593999997E+02  0.45594000000E+02  0.51100000000E-03 0. -1.
         11   -1    0    0    0    0 -0.00000000000E+00 -0.00000000000E+00 -0.45593999997E+02  0.45594000000E+02  0.51100000000E-03 0.  1.
         23    2    1    2    0    0  0.17763568394E-14  0.44408920985E-15  0.00000000000E+00  0.91188000000E+02  0.91188000000E+02 0.  0.
    9900012    2    3    3    0    0  0.11771605012E+02 -0.37613582972E+01 -0.41604154857E+02  0.47787260351E+02  0.19999951242E+02 0.  0.
         12    1    3    3    0    0 -0.11771605012E+02  0.37613582972E+01  0.41604154857E+02  0.43400739649E+02  0.00000000000E+00 0. -1.
         11    1    4    4    0    0 -0.35503301623E+01  0.19378393783E+01 -0.40217649672E+01  0.57039161486E+01  0.51100000000E-03 0. -1.
        -11    1    4    4    0    0  0.20430636954E+01  0.17072562122E+01 -0.12268561224E+02  0.12554139867E+02  0.51100000000E-03 0.  1.
        -12    1    4    4    0    0  0.13278871479E+02 -0.74064538877E+01 -0.25313828665E+02  0.29529204335E+02  0.00000000000E+00 0.  1.
</event>
<event>
 8    1  0.5250708E-010  0.9118800E+02  0.7816164E-02  0.1184000E+00
        -11   -1    0    0    0    0  0.00000000000E+00  0.00000000000E+00  0.45593999997E+02  0.45594000000E+02  0.51100000000E-03 0. -1.
         11   -1    0    0    0    0 -0.00000000000E+00 -0.00000000000E+00 -0.45593999997E+02  0.45594000000E+02  0.51100000000E-03 0.  1.
         23    2    1    2    0    0  0.00000000000E+00  0.88817841970E-15  0.00000000000E+00  0.91188000000E+02  0.91188000000E+02 0.  0.
    9900012    2    3    3    0    0  0.21147560946E+02 -0.74793711246E+01 -0.37154582460E+02  0.47787270465E+02  0.19999997358E+02 0.  0.
         12    1    3    3    0    0 -0.21147560946E+02  0.74793711246E+01  0.37154582460E+02  0.43400729535E+02  0.00000000000E+00 0. -1.
         11    1    4    4    0    0  0.10134541154E+02  0.38468858541E-01 -0.73172953888E+01  0.12500128652E+02  0.51100000000E-03 0. -1.
        -11    1    4    4    0    0  0.64367468730E+01 -0.22945151234E+01 -0.26887303030E+02  0.27742090305E+02  0.51100000000E-03 0.  1.
         12    1    4    4    0    0  0.45762729191E+01 -0.52233248597E+01 -0.29499840412E+01  0.75450515084E+01  0.00000000000E+00 0. -1.
</event>
<event>
 8    1  0.5250708E-010  0.9118800E+02  0.7816164E-02  0.1184000E+00
        -11   -1    0    0    0    0  0.00000000000E+00  0.00000000000E+00  0.45593999997E+02  0.45594000000E+02  0.51100000000E-03 0. -1.
         11   -1    0    0    0    0 -0.00000000000E+00 -0.00000000000E+00 -0.45593999997E+02  0.45594000000E+02  0.51100000000E-03 0.  1.
         23    2    1    2    0    0  0.00000000000E+00  0.17763568394E-14  0.00000000000E+00  0.91188000000E+02  0.91188000000E+02 0.  0.
    9900012    2    3    3    0    0 -0.31496777084E+02  0.14251431414E+02 -0.26238769731E+02  0.47787270731E+02  0.19999998573E+02 0.  0.
         12    1    3    3    0    0  0.31496777084E+02 -0.14251431414E+02  0.26238769731E+02  0.43400729269E+02  0.00000000000E+00 0. -1.
         11    1    4    4    0    0 -0.11129351966E+02  0.10775281890E+02 -0.14047220322E+02  0.20911565557E+02  0.51100000000E-03 0. -1.
        -11    1    4    4    0    0 -0.21768479528E+02  0.23847767183E+01 -0.12262617808E+02  0.25098319799E+02  0.51100000000E-03 0.  1.
         12    1    4    4    0    0  0.14010544096E+01  0.10913728055E+01  0.71068398682E-01  0.17773853765E+01  0.00000000000E+00 0. -1.
</event>
<event>
 8    1  0.5250708E-010  0.9118800E+02  0.7816164E-02  0.1184000E+00
        -11   -1    0    0    0    0  0.00000000000E+00  0.00000000000E+00  0.45593999997E+02  0.45594000000E+02  0.51100000000E-03 0. -1.
         11   -1    0    0    0    0 -0.00000000000E+00 -0.00000000000E+00 -0.45593999997E+02  0.45594000000E+02  0.51100000000E-03 0.  1.
         23    2    1    2    0    0  0.00000000000E+00  0.88817841970E-15  0.71054273576E-14  0.91188000000E+02  0.91188000000E+02 0.  0.
    9900012    2    3    3    0    0  0.21679447304E+02  0.21179304287E+01 -0.37538506670E+02  0.47787267890E+02  0.19999985618E+02 0.  0.
         12    1    3    3    0    0 -0.21679447304E+02 -0.21179304287E+01  0.37538506670E+02  0.43400732110E+02  0.00000000000E+00 0. -1.
         11    1    4    4    0    0  0.95188405916E+01  0.72172272729E+01 -0.13382550899E+02  0.17938488357E+02  0.51100000000E-03 0.  1.
        -11    1    4    4    0    0  0.12708528217E+01  0.30876076244E+01 -0.21643312439E+01  0.39790347738E+01  0.51100000000E-03 0. -1.
        -12    1    4    4    0    0  0.10889753890E+02 -0.81869044686E+01 -0.21991624527E+02  0.25869744759E+02  0.00000000000E+00 0.  1.
</event>
<event>
 8    1  0.5250708E-010  0.9118800E+02  0.7816164E-02  0.1184000E+00
        -11   -1    0    0    0    0  0.00000000000E+00  0.00000000000E+00  0.45593999997E+02  0.45594000000E+02  0.51100000000E-03 0. -1.
         11   -1    0    0    0    0 -0.00000000000E+00 -0.00000000000E+00 -0.45593999997E+02  0.45594000000E+02  0.51100000000E-03 0.  1.
         23    2    1    2    0    0  0.00000000000E+00  0.00000000000E+00  0.00000000000E+00  0.91188000000E+02  0.91188000000E+02 0.  0.
    9900012    2    3    3    0    0 -0.20039900084E+02  0.21720615630E+02  0.31784285955E+02  0.47787267605E+02  0.19999984319E+02 0.  0.
        -12    1    3    3    0    0  0.20039900084E+02 -0.21720615630E+02 -0.31784285955E+02  0.43400732395E+02  0.00000000000E+00 0.  1.
         11    1    4    4    0    0 -0.19549674260E+02  0.17661756705E+02  0.32621970371E+02  0.41932330781E+02  0.51100000000E-03 0. -1.
        -11    1    4    4    0    0 -0.18899429293E+01  0.33680630919E+01  0.37227729197E+00  0.38799901946E+01  0.51100000000E-03 0.  1.
         12    1    4    4    0    0  0.13997171049E+01  0.69079583340E+00 -0.12099617076E+01  0.19749466299E+01  0.00000000000E+00 0. -1.
</event>
<event>
 8    1  0.5250708E-010  0.9118800E+02  0.7816164E-02  0.1184000E+00
        -11   -1    0    0    0    0  0.00000000000E+00  0.00000000000E+00  0.45593999997E+02  0.45594000000E+02  0.51100000000E-03 0. -1.
         11   -1    0    0    0    0 -0.00000000000E+00 -0.00000000000E+00 -0.45593999997E+02  0.45594000000E+02  0.51100000000E-03 0.  1.
         23    2    1    2    0    0  0.00000000000E+00  0.44408920985E-15  0.00000000000E+00  0.91188000000E+02  0.91188000000E+02 0.  0.
    9900012    2    3    3    0    0  0.10528032408E+02 -0.38393991939E+01 -0.41929021486E+02  0.47787270797E+02  0.19999998871E+02 0.  0.
         12    1    3    3    0    0 -0.10528032408E+02  0.38393991939E+01  0.41929021486E+02  0.43400729203E+02  0.00000000000E+00 0. -1.
         11    1    4    4    0    0 -0.59811447787E+00 -0.26594402811E+01 -0.10132217298E+01  0.29080890757E+01  0.51100000000E-03 0. -1.
        -11    1    4    4    0    0  0.30341073888E+00 -0.56108007351E+01 -0.68375720302E+01  0.88501714387E+01  0.51100000000E-03 0.  1.
         12    1    4    4    0    0  0.10822736147E+02  0.44308418222E+01 -0.34078227726E+02  0.36029010282E+02  0.00000000000E+00 0. -1.
</event>
<event>
 8    1  0.5250708E-010  0.9118800E+02  0.7816164E-02  0.1184000E+00
        -11   -1    0    0    0    0  0.00000000000E+00  0.00000000000E+00  0.45593999997E+02  0.45594000000E+02  0.51100000000E-03 0. -1.
         11   -1    0    0    0    0 -0.00000000000E+00 -0.00000000000E+00 -0.45593999997E+02  0.45594000000E+02  0.51100000000E-03 0.  1.
         23    2    1    2    0    0  0.43368086899E-16  0.00000000000E+00 -0.35527136788E-14  0.91188000000E+02  0.91188000000E+02 0.  0.
    9900012    2    3    3    0    0 -0.15039478426E-01 -0.39936304361E+02  0.16991605530E+02  0.47787270850E+02  0.19999999114E+02 0.  0.
        -12    1    3    3    0    0  0.15039478426E-01  0.39936304361E+02 -0.16991605530E+02  0.43400729150E+02  0.00000000000E+00 0.  1.
         11    1    4    4    0    0  0.12733979796E+01 -0.25593375278E+02  0.10176648182E+02  0.27571843773E+02  0.51100000000E-03 0.  1.
        -11    1    4    4    0    0  0.13997950707E+00 -0.69422295060E+01  0.98823592229E+01  0.12077879319E+02  0.51100000000E-03 0. -1.
        -12    1    4    4    0    0 -0.14284169651E+01 -0.74006995774E+01 -0.30674018745E+01  0.81375477584E+01  0.00000000000E+00 0.  1.
</event>
<event>
 8    1  0.5250708E-010  0.9118800E+02  0.7816164E-02  0.1184000E+00
        -11   -1    0    0    0    0  0.00000000000E+00  0.00000000000E+00  0.45593999997E+02  0.45594000000E+02  0.51100000000E-03 0. -1.
         11   -1    0    0    0    0 -0.00000000000E+00 -0.00000000000E+00 -0.45593999997E+02  0.45594000000E+02  0.51100000000E-03 0.  1.
         23    2    1    2    0    0  0.00000000000E+00  0.00000000000E+00  0.00000000000E+00  0.91188000000E+02  0.91188000000E+02 0.  0.
    9900012    2    3    3    0    0 -0.18042841587E+02  0.10293737746E+02  0.38106670124E+02  0.47787268701E+02  0.19999989317E+02 0.  0.
        -12    1    3    3    0    0  0.18042841587E+02 -0.10293737746E+02 -0.38106670124E+02  0.43400731299E+02  0.00000000000E+00 0.  1.
         11    1    4    4    0    0 -0.11270627196E+02  0.74125368622E+01  0.12027503047E+02  0.18073006665E+02  0.51100000000E-03 0. -1.
        -11    1    4    4    0    0  0.16586741599E+01 -0.15505938876E+01  0.37397869001E+00  0.23011739818E+01  0.51100000000E-03 0.  1.
         12    1    4    4    0    0 -0.84308885516E+01  0.44317947714E+01  0.25705188387E+02  0.27413088055E+02  0.00000000000E+00 0. -1.
</event>
<event>
 8    1  0.5250708E-010  0.9118800E+02  0.7816164E-02  0.1184000E+00
        -11   -1    0    0    0    0  0.00000000000E+00  0.00000000000E+00  0.45593999997E+02  0.45594000000E+02  0.51100000000E-03 0.  1.
         11   -1    0    0    0    0 -0.00000000000E+00 -0.00000000000E+00 -0.45593999997E+02  0.45594000000E+02  0.51100000000E-03 0. -1.
         23    2    1    2    0    0  0.00000000000E+00  0.00000000000E+00  0.00000000000E+00  0.91188000000E+02  0.91188000000E+02 0.  0.
    9900012    2    3    3    0    0  0.21374579341E+02  0.35430956698E+02 -0.13091894134E+02  0.47787273894E+02  0.20000012991E+02 0.  0.
        -12    1    3    3    0    0 -0.21374579341E+02 -0.35430956698E+02  0.13091894134E+02  0.43400726106E+02  0.00000000000E+00 0.  1.
         11    1    4    4    0    0  0.71852297368E+01  0.21649266833E+02 -0.68309812523E+01  0.23811354138E+02  0.51100000000E-03 0. -1.
        -11    1    4    4    0    0  0.22757028783E+01  0.90552381215E+01  0.74978454971E+00  0.93668745139E+01  0.51100000000E-03 0.  1.
        -12    1    4    4    0    0  0.11913646726E+02  0.47264517440E+01 -0.70106974314E+01  0.14609045242E+02  0.00000000000E+00 0.  1.
</event>
<event>
 8    1  0.5250708E-010  0.9118800E+02  0.7816164E-02  0.1184000E+00
        -11   -1    0    0    0    0  0.00000000000E+00  0.00000000000E+00  0.45593999997E+02  0.45594000000E+02  0.51100000000E-03 0. -1.
         11   -1    0    0    0    0 -0.00000000000E+00 -0.00000000000E+00 -0.45593999997E+02  0.45594000000E+02  0.51100000000E-03 0.  1.
         23    2    1    2    0    0  0.00000000000E+00  0.00000000000E+00  0.71054273576E-14  0.91188000000E+02  0.91188000000E+02 0.  0.
    9900012    2    3    3    0    0  0.12600781676E+02  0.20627322838E+02  0.36046594832E+02  0.47787272525E+02  0.20000006752E+02 0.  0.
        -12    1    3    3    0    0 -0.12600781676E+02 -0.20627322838E+02 -0.36046594832E+02  0.43400727475E+02  0.00000000000E+00 0.  1.
         11    1    4    4    0    0  0.38733343378E+01  0.14921625791E+02  0.25623277828E+02  0.29903344329E+02  0.51100000000E-03 0. -1.
        -11    1    4    4    0    0 -0.50263042801E-01  0.55908038191E+01  0.53838403277E+01  0.77617878515E+01  0.51100000000E-03 0.  1.
         12    1    4    4    0    0  0.87777103814E+01  0.11489322812E+00  0.50394766770E+01  0.10122140345E+02  0.00000000000E+00 0. -1.
</event>
<event>
 8    1  0.5250708E-010  0.9118800E+02  0.7816164E-02  0.1184000E+00
        -11   -1    0    0    0    0  0.00000000000E+00  0.00000000000E+00  0.45593999997E+02  0.45594000000E+02  0.51100000000E-03 0. -1.
         11   -1    0    0    0    0 -0.00000000000E+00 -0.00000000000E+00 -0.45593999997E+02  0.45594000000E+02  0.51100000000E-03 0.  1.
         23    2    1    2    0    0 -0.71054273576E-14  0.17763568394E-14  0.71054273576E-14  0.91188000000E+02  0.91188000000E+02 0.  0.
    9900012    2    3    3    0    0  0.31045739472E+02 -0.85708146037E+01 -0.29091691005E+02  0.47787270883E+02  0.19999999264E+02 0.  0.
         12    1    3    3    0    0 -0.31045739472E+02  0.85708146037E+01  0.29091691005E+02  0.43400729117E+02  0.00000000000E+00 0. -1.
         11    1    4    4    0    0  0.19067562722E+02 -0.10012777930E+01 -0.17543635745E+02  0.25929783277E+02  0.51100000000E-03 0. -1.
        -11    1    4    4    0    0  0.12147615229E+02 -0.20065990632E+01 -0.10527103496E+02  0.16199101945E+02  0.51100000000E-03 0.  1.
         12    1    4    4    0    0 -0.16943847912E+00 -0.55629377475E+01 -0.10209517642E+01  0.56583856608E+01  0.00000000000E+00 0. -1.
</event>
<event>
 8    1  0.5250708E-010  0.9118800E+02  0.7816164E-02  0.1184000E+00
        -11   -1    0    0    0    0  0.00000000000E+00  0.00000000000E+00  0.45593999997E+02  0.45594000000E+02  0.51100000000E-03 0.  1.
         11   -1    0    0    0    0 -0.00000000000E+00 -0.00000000000E+00 -0.45593999997E+02  0.45594000000E+02  0.51100000000E-03 0. -1.
         23    2    1    2    0    0  0.00000000000E+00  0.71054273576E-14  0.71054273576E-14  0.91188000000E+02  0.91188000000E+02 0.  0.
    9900012    2    3    3    0    0  0.38088312434E+01  0.27538159830E+02  0.33328149475E+02  0.47787274319E+02  0.20000014928E+02 0.  0.
        -12    1    3    3    0    0 -0.38088312434E+01 -0.27538159830E+02 -0.33328149475E+02  0.43400725681E+02  0.00000000000E+00 0.  1.
         11    1    4    4    0    0  0.18061720826E+01  0.49014385229E+01  0.35018404512E+01  0.62888189664E+01  0.51100000000E-03 0. -1.
        -11    1    4    4    0    0  0.59171907909E+01  0.15982656709E+02  0.29127029506E+02  0.33746737775E+02  0.51100000000E-03 0.  1.
        -12    1    4    4    0    0 -0.39145316301E+01  0.66540645977E+01  0.69927951735E+00  0.77517175772E+01  0.00000000000E+00 0.  1.
</event>
<event>
 8    1  0.5250708E-010  0.9118800E+02  0.7816164E-02  0.1184000E+00
        -11   -1    0    0    0    0  0.00000000000E+00  0.00000000000E+00  0.45593999997E+02  0.45594000000E+02  0.51100000000E-03 0. -1.
         11   -1    0    0    0    0 -0.00000000000E+00 -0.00000000000E+00 -0.45593999997E+02  0.45594000000E+02  0.51100000000E-03 0.  1.
         23    2    1    2    0    0  0.00000000000E+00  0.17763568394E-14 -0.71054273576E-14  0.91188000000E+02  0.91188000000E+02 0.  0.
    9900012    2    3    3    0    0  0.59151934544E+01 -0.15730597204E+02 -0.40014776715E+02  0.47787267776E+02  0.19999985100E+02 0.  0.
         12    1    3    3    0    0 -0.59151934544E+01  0.15730597204E+02  0.40014776715E+02  0.43400732224E+02  0.00000000000E+00 0. -1.
         11    1    4    4    0    0  0.70289533280E+01 -0.35361509133E+01 -0.20734711379E+02  0.22177439086E+02  0.51100000000E-03 0. -1.
        -11    1    4    4    0    0 -0.20688312423E+01 -0.94088019792E+01 -0.20319050689E+02  0.22487094934E+02  0.51100000000E-03 0.  1.
        -12    1    4    4    0    0  0.95507136862E+00 -0.27856443118E+01  0.10389853536E+01  0.31227337568E+01  0.00000000000E+00 0.  1.
</event>
<event>
 8    1  0.5250708E-010  0.9118800E+02  0.7816164E-02  0.1184000E+00
        -11   -1    0    0    0    0  0.00000000000E+00  0.00000000000E+00  0.45593999997E+02  0.45594000000E+02  0.51100000000E-03 0. -1.
         11   -1    0    0    0    0 -0.00000000000E+00 -0.00000000000E+00 -0.45593999997E+02  0.45594000000E+02  0.51100000000E-03 0.  1.
         23    2    1    2    0    0  0.00000000000E+00 -0.66613381478E-15  0.00000000000E+00  0.91188000000E+02  0.91188000000E+02 0.  0.
    9900012    2    3    3    0    0  0.29341138174E+02 -0.11400908914E+01  0.31959682212E+02  0.47787268628E+02  0.19999988982E+02 0.  0.
        -12    1    3    3    0    0 -0.29341138174E+02  0.11400908914E+01 -0.31959682212E+02  0.43400731372E+02  0.00000000000E+00 0.  1.
         11    1    4    4    0    0  0.10684127042E+02 -0.12324881282E+01  0.15235465211E+02  0.18649101804E+02  0.51100000000E-03 0. -1.
        -11    1    4    4    0    0  0.51411379133E+00  0.45599725325E+01  0.95229353243E+00  0.46866326633E+01  0.51100000000E-03 0.  1.
        -12    1    4    4    0    0  0.18142897340E+02 -0.44675752957E+01  0.15771923468E+02  0.24451534161E+02  0.00000000000E+00 0.  1.
</event>
<event>
 8    1  0.5250708E-010  0.9118800E+02  0.7816164E-02  0.1184000E+00
        -11   -1    0    0    0    0  0.00000000000E+00  0.00000000000E+00  0.45593999997E+02  0.45594000000E+02  0.51100000000E-03 0. -1.
         11   -1    0    0    0    0 -0.00000000000E+00 -0.00000000000E+00 -0.45593999997E+02  0.45594000000E+02  0.51100000000E-03 0.  1.
         23    2    1    2    0    0  0.00000000000E+00  0.00000000000E+00  0.00000000000E+00  0.91188000000E+02  0.91188000000E+02 0.  0.
    9900012    2    3    3    0    0 -0.39815898733E+01  0.15226736789E+02 -0.40446463900E+02  0.47787274048E+02  0.20000013696E+02 0.  0.
         12    1    3    3    0    0  0.39815898733E+01 -0.15226736789E+02  0.40446463900E+02  0.43400725952E+02  0.00000000000E+00 0. -1.
         11    1    4    4    0    0 -0.33037582647E+01 -0.59502205513E+00 -0.95697307178E+01  0.10141430678E+02  0.51100000000E-03 0. -1.
        -11    1    4    4    0    0  0.25998898511E+01  0.10945903923E+02 -0.29554948198E+02  0.31623839160E+02  0.51100000000E-03 0.  1.
         12    1    4    4    0    0 -0.32777214597E+01  0.48758549205E+01 -0.13217849833E+01  0.60220042108E+01  0.00000000000E+00 0. -1.
</event>
<event>
 8    1  0.5250708E-010  0.9118800E+02  0.7816164E-02  0.1184000E+00
        -11   -1    0    0    0    0  0.00000000000E+00  0.00000000000E+00  0.45593999997E+02  0.45594000000E+02  0.51100000000E-03 0. -1.
         11   -1    0    0    0    0 -0.00000000000E+00 -0.00000000000E+00 -0.45593999997E+02  0.45594000000E+02  0.51100000000E-03 0.  1.
         23    2    1    2    0    0  0.17763568394E-14  0.71054273576E-14  0.00000000000E+00  0.91188000000E+02  0.91188000000E+02 0.  0.
    9900012    2    3    3    0    0 -0.15284691623E+02 -0.34203580142E+02  0.21911501342E+02  0.47787302038E+02  0.20000141314E+02 0.  0.
        -12    1    3    3    0    0  0.15284691623E+02  0.34203580142E+02 -0.21911501342E+02  0.43400697962E+02  0.00000000000E+00 0.  1.
         11    1    4    4    0    0  0.48431572363E+00 -0.64313994018E+01  0.32199475765E+01  0.72087115799E+01  0.51100000000E-03 0. -1.
        -11    1    4    4    0    0  0.32056677360E+01 -0.73803764101E+01  0.28609085717E+01  0.85399683668E+01  0.51100000000E-03 0.  1.
        -12    1    4    4    0    0 -0.18974675082E+02 -0.20391804330E+02  0.15830645193E+02  0.32038622092E+02  0.00000000000E+00 0.  1.
</event>
<event>
 8    1  0.5250708E-010  0.9118800E+02  0.7816164E-02  0.1184000E+00
        -11   -1    0    0    0    0  0.00000000000E+00  0.00000000000E+00  0.45593999997E+02  0.45594000000E+02  0.51100000000E-03 0. -1.
         11   -1    0    0    0    0 -0.00000000000E+00 -0.00000000000E+00 -0.45593999997E+02  0.45594000000E+02  0.51100000000E-03 0.  1.
         23    2    1    2    0    0  0.35527136788E-14  0.00000000000E+00  0.35527136788E-14  0.91188000000E+02  0.91188000000E+02 0.  0.
    9900012    2    3    3    0    0 -0.22093806809E+02 -0.21508922843E+02 -0.30542640483E+02  0.47787274789E+02  0.20000017073E+02 0.  0.
         12    1    3    3    0    0  0.22093806809E+02  0.21508922843E+02  0.30542640483E+02  0.43400725211E+02  0.00000000000E+00 0. -1.
         11    1    4    4    0    0  0.22398422874E+01  0.19524193800E+00 -0.39098535659E+01  0.45102070966E+01  0.51100000000E-03 0. -1.
        -11    1    4    4    0    0 -0.13971456509E+02 -0.63530008497E+01 -0.95227177976E+01  0.18062236054E+02  0.51100000000E-03 0.  1.
        -12    1    4    4    0    0 -0.10362192588E+02 -0.15351163931E+02 -0.17110069120E+02  0.25214831638E+02  0.00000000000E+00 0.  1.
</event>
<event>
 8    1  0.5250708E-010  0.9118800E+02  0.7816164E-02  0.1184000E+00
        -11   -1    0    0    0    0  0.00000000000E+00  0.00000000000E+00  0.45593999997E+02  0.45594000000E+02  0.51100000000E-03 0. -1.
         11   -1    0    0    0    0 -0.00000000000E+00 -0.00000000000E+00 -0.45593999997E+02  0.45594000000E+02  0.51100000000E-03 0.  1.
         23    2    1    2    0    0 -0.88817841970E-15  0.00000000000E+00  0.00000000000E+00  0.91188000000E+02  0.91188000000E+02 0.  0.
    9900012    2    3    3    0    0  0.69196155438E+01  0.23162136993E+02 -0.36045229639E+02  0.47787259810E+02  0.19999948777E+02 0.  0.
         12    1    3    3    0    0 -0.69196155438E+01 -0.23162136993E+02  0.36045229639E+02  0.43400740190E+02  0.00000000000E+00 0. -1.
         11    1    4    4    0    0  0.46278080467E+00  0.33057147560E+01  0.12387193387E+01  0.35603850890E+01  0.51100000000E-03 0. -1.
        -11    1    4    4    0    0  0.54584777718E+01  0.24090213403E+01 -0.13046577753E+02  0.14346133790E+02  0.51100000000E-03 0.  1.
        -12    1    4    4    0    0  0.99835696733E+00  0.17447400897E+02 -0.24237371224E+02  0.29880740930E+02  0.00000000000E+00 0.  1.
</event>
<event>
 8    1  0.5250708E-010  0.9118800E+02  0.7816164E-02  0.1184000E+00
        -11   -1    0    0    0    0  0.00000000000E+00  0.00000000000E+00  0.45593999997E+02  0.45594000000E+02  0.51100000000E-03 0. -1.
         11   -1    0    0    0    0 -0.00000000000E+00 -0.00000000000E+00 -0.45593999997E+02  0.45594000000E+02  0.51100000000E-03 0.  1.
         23    2    1    2    0    0  0.17763568394E-14  0.00000000000E+00 -0.71054273576E-14  0.91188000000E+02  0.91188000000E+02 0.  0.
    9900012    2    3    3    0    0 -0.89431749335E+01  0.19286013805E+02  0.37837730417E+02  0.47787256348E+02  0.19999932995E+02 0.  0.
        -12    1    3    3    0    0  0.89431749335E+01 -0.19286013805E+02 -0.37837730417E+02  0.43400743652E+02  0.00000000000E+00 0.  1.
         11    1    4    4    0    0 -0.71207428654E+01  0.18189493884E+01  0.16234355204E+02  0.17820433355E+02  0.51100000000E-03 0. -1.
        -11    1    4    4    0    0  0.33545613358E+01  0.22738200713E+01  0.78290621557E+01  0.88157560068E+01  0.51100000000E-03 0.  1.
         12    1    4    4    0    0 -0.51769934039E+01  0.15193244346E+02  0.13774313058E+02  0.21151066986E+02  0.00000000000E+00 0. -1.
</event>
<event>
 8    1  0.5250708E-010  0.9118800E+02  0.7816164E-02  0.1184000E+00
        -11   -1    0    0    0    0  0.00000000000E+00  0.00000000000E+00  0.45593999997E+02  0.45594000000E+02  0.51100000000E-03 0. -1.
         11   -1    0    0    0    0 -0.00000000000E+00 -0.00000000000E+00 -0.45593999997E+02  0.45594000000E+02  0.51100000000E-03 0.  1.
         23    2    1    2    0    0  0.17763568394E-14  0.00000000000E+00  0.00000000000E+00  0.91188000000E+02  0.91188000000E+02 0.  0.
    9900012    2    3    3    0    0 -0.14952190946E+02 -0.30563789871E+02  0.26942720870E+02  0.47787268747E+02  0.19999989527E+02 0.  0.
        -12    1    3    3    0    0  0.14952190946E+02  0.30563789871E+02 -0.26942720870E+02  0.43400731253E+02  0.00000000000E+00 0.  1.
         11    1    4    4    0    0 -0.37087608253E+01 -0.14679587744E+02  0.22676295865E+02  0.27266455538E+02  0.51100000000E-03 0. -1.
        -11    1    4    4    0    0 -0.46369435588E+01 -0.10641952209E+02  0.30278360949E+01  0.11996673875E+02  0.51100000000E-03 0.  1.
         12    1    4    4    0    0 -0.66064865621E+01 -0.52422499176E+01  0.12385889099E+01  0.85241393338E+01  0.00000000000E+00 0. -1.
</event>
<event>
 8    1  0.5250708E-010  0.9118800E+02  0.7816164E-02  0.1184000E+00
        -11   -1    0    0    0    0  0.00000000000E+00  0.00000000000E+00  0.45593999997E+02  0.45594000000E+02  0.51100000000E-03 0. -1.
         11   -1    0    0    0    0 -0.00000000000E+00 -0.00000000000E+00 -0.45593999997E+02  0.45594000000E+02  0.51100000000E-03 0.  1.
         23    2    1    2    0    0  0.00000000000E+00  0.88817841970E-15  0.00000000000E+00  0.91188000000E+02  0.91188000000E+02 0.  0.
    9900012    2    3    3    0    0 -0.28035889543E+01 -0.60435756073E+01 -0.42886350578E+02  0.47787262875E+02  0.19999962751E+02 0.  0.
         12    1    3    3    0    0  0.28035889543E+01  0.60435756073E+01  0.42886350578E+02  0.43400737125E+02  0.00000000000E+00 0. -1.
         11    1    4    4    0    0  0.45972931771E+01 -0.10194562136E+02 -0.28284497125E+02  0.30415078161E+02  0.51100000000E-03 0. -1.
        -11    1    4    4    0    0 -0.14429454445E+01  0.22423724258E+01 -0.72152801944E+01  0.76922424687E+01  0.51100000000E-03 0.  1.
         12    1    4    4    0    0 -0.59579366869E+01  0.19086141027E+01 -0.73865732584E+01  0.96799422447E+01  0.00000000000E+00 0. -1.
</event>
<event>
 8    1  0.5250708E-010  0.9118800E+02  0.7816164E-02  0.1184000E+00
        -11   -1    0    0    0    0  0.00000000000E+00  0.00000000000E+00  0.45593999997E+02  0.45594000000E+02  0.51100000000E-03 0. -1.
         11   -1    0    0    0    0 -0.00000000000E+00 -0.00000000000E+00 -0.45593999997E+02  0.45594000000E+02  0.51100000000E-03 0.  1.
         23    2    1    2    0    0 -0.35527136788E-14  0.00000000000E+00 -0.35527136788E-14  0.91188000000E+02  0.91188000000E+02 0.  0.
    9900012    2    3    3    0    0  0.22860593273E+02  0.33662884609E+02  0.15093890478E+02  0.47787285090E+02  0.20000064037E+02 0.  0.
        -12    1    3    3    0    0 -0.22860593273E+02 -0.33662884609E+02 -0.15093890478E+02  0.43400714910E+02  0.00000000000E+00 0.  1.
         11    1    4    4    0    0  0.65123084776E+01  0.13714534240E+02  0.65687479393E+00  0.15196384303E+02  0.51100000000E-03 0. -1.
        -11    1    4    4    0    0  0.18629372436E+02  0.17365450957E+02  0.11058878111E+02  0.27765287494E+02  0.51100000000E-03 0.  1.
        -12    1    4    4    0    0 -0.22810876399E+01  0.25828994121E+01  0.33781375727E+01  0.48256132930E+01  0.00000000000E+00 0.  1.
</event>
<event>
 8    1  0.5250708E-010  0.9118800E+02  0.7816164E-02  0.1184000E+00
        -11   -1    0    0    0    0  0.00000000000E+00  0.00000000000E+00  0.45593999997E+02  0.45594000000E+02  0.51100000000E-03 0. -1.
         11   -1    0    0    0    0 -0.00000000000E+00 -0.00000000000E+00 -0.45593999997E+02  0.45594000000E+02  0.51100000000E-03 0.  1.
         23    2    1    2    0    0  0.00000000000E+00 -0.88817841970E-15  0.00000000000E+00  0.91188000000E+02  0.91188000000E+02 0.  0.
    9900012    2    3    3    0    0  0.11255164878E+02 -0.62355575216E+01  0.41449519413E+02  0.47787267591E+02  0.19999984255E+02 0.  0.
        -12    1    3    3    0    0 -0.11255164878E+02  0.62355575216E+01 -0.41449519413E+02  0.43400732409E+02  0.00000000000E+00 0.  1.
         11    1    4    4    0    0  0.69274718278E+01 -0.77545714622E+01  0.13442038678E+02  0.16994459349E+02  0.51100000000E-03 0. -1.
        -11    1    4    4    0    0 -0.39359489112E+01 -0.55808007871E+00  0.60410905386E+01  0.72317302468E+01  0.51100000000E-03 0.  1.
         12    1    4    4    0    0  0.82636419611E+01  0.20770940193E+01  0.21966390196E+02  0.23561077995E+02  0.00000000000E+00 0. -1.
</event>
<event>
 8    1  0.5250708E-010  0.9118800E+02  0.7816164E-02  0.1184000E+00
        -11   -1    0    0    0    0  0.00000000000E+00  0.00000000000E+00  0.45593999997E+02  0.45594000000E+02  0.51100000000E-03 0.  1.
         11   -1    0    0    0    0 -0.00000000000E+00 -0.00000000000E+00 -0.45593999997E+02  0.45594000000E+02  0.51100000000E-03 0. -1.
         23    2    1    2    0    0  0.00000000000E+00  0.00000000000E+00 -0.88817841970E-15  0.91188000000E+02  0.91188000000E+02 0.  0.
    9900012    2    3    3    0    0 -0.18357708920E+02 -0.38551972941E+02  0.77693612698E+01  0.47787273405E+02  0.20000010763E+02 0.  0.
         12    1    3    3    0    0  0.18357708920E+02  0.38551972941E+02 -0.77693612698E+01  0.43400726595E+02  0.00000000000E+00 0. -1.
         11    1    4    4    0    0 -0.69671336937E+01 -0.52872846569E+01 -0.22195003964E+01  0.90234424263E+01  0.51100000000E-03 0. -1.
        -11    1    4    4    0    0  0.27535773133E+01 -0.81007476478E+01  0.29633043738E+01  0.90545830134E+01  0.51100000000E-03 0.  1.
        -12    1    4    4    0    0 -0.14144152539E+02 -0.25163940636E+02  0.70255572924E+01  0.29709247965E+02  0.00000000000E+00 0.  1.
</event>
<event>
 8    1  0.5250708E-010  0.9118800E+02  0.7816164E-02  0.1184000E+00
        -11   -1    0    0    0    0  0.00000000000E+00  0.00000000000E+00  0.45593999997E+02  0.45594000000E+02  0.51100000000E-03 0. -1.
         11   -1    0    0    0    0 -0.00000000000E+00 -0.00000000000E+00 -0.45593999997E+02  0.45594000000E+02  0.51100000000E-03 0.  1.
         23    2    1    2    0    0  0.00000000000E+00  0.00000000000E+00 -0.71054273576E-14  0.91188000000E+02  0.91188000000E+02 0.  0.
    9900012    2    3    3    0    0 -0.83439237828E+01 -0.19852393387E+02 -0.37681359552E+02  0.47787269073E+02  0.19999991011E+02 0.  0.
         12    1    3    3    0    0  0.83439237828E+01  0.19852393387E+02  0.37681359552E+02  0.43400730927E+02  0.00000000000E+00 0. -1.
         11    1    4    4    0    0 -0.33497049571E+01 -0.10853882545E+02 -0.48558356940E+01  0.12353397514E+02  0.51100000000E-03 0.  1.
        -11    1    4    4    0    0  0.16315531907E+01  0.29729852727E+00 -0.70699430237E+01  0.72618487211E+01  0.51100000000E-03 0. -1.
        -12    1    4    4    0    0 -0.66257720165E+01 -0.92958093700E+01 -0.25755580834E+02  0.28172022838E+02  0.00000000000E+00 0.  1.
</event>
<event>
 8    1  0.5250708E-010  0.9118800E+02  0.7816164E-02  0.1184000E+00
        -11   -1    0    0    0    0  0.00000000000E+00  0.00000000000E+00  0.45593999997E+02  0.45594000000E+02  0.51100000000E-03 0.  1.
         11   -1    0    0    0    0 -0.00000000000E+00 -0.00000000000E+00 -0.45593999997E+02  0.45594000000E+02  0.51100000000E-03 0. -1.
         23    2    1    2    0    0  0.00000000000E+00  0.00000000000E+00  0.66613381478E-15  0.91188000000E+02  0.91188000000E+02 0.  0.
    9900012    2    3    3    0    0  0.35511913674E+02 -0.24924479638E+02  0.11390805134E+01  0.47787271868E+02  0.20000003753E+02 0.  0.
        -12    1    3    3    0    0 -0.35511913674E+02  0.24924479638E+02 -0.11390805134E+01  0.43400728132E+02  0.00000000000E+00 0.  1.
         11    1    4    4    0    0  0.43379583845E+01 -0.61191355672E+01 -0.52658699660E+01  0.91646652855E+01  0.51100000000E-03 0. -1.
        -11    1    4    4    0    0  0.92953967479E+01 -0.10608244966E+02 -0.92817379453E+00  0.14135089983E+02  0.51100000000E-03 0.  1.
        -12    1    4    4    0    0  0.21878558542E+02 -0.81970991041E+01  0.73331242739E+01  0.24487516599E+02  0.00000000000E+00 0.  1.
</event>
<event>
 8    1  0.5250708E-010  0.9118800E+02  0.7816164E-02  0.1184000E+00
        -11   -1    0    0    0    0  0.00000000000E+00  0.00000000000E+00  0.45593999997E+02  0.45594000000E+02  0.51100000000E-03 0. -1.
         11   -1    0    0    0    0 -0.00000000000E+00 -0.00000000000E+00 -0.45593999997E+02  0.45594000000E+02  0.51100000000E-03 0.  1.
         23    2    1    2    0    0  0.00000000000E+00 -0.17763568394E-14  0.71054273576E-14  0.91188000000E+02  0.91188000000E+02 0.  0.
    9900012    2    3    3    0    0  0.20921558080E+02 -0.11148900584E+02  0.36354006875E+02  0.47787269677E+02  0.19999993765E+02 0.  0.
        -12    1    3    3    0    0 -0.20921558080E+02  0.11148900584E+02 -0.36354006875E+02  0.43400730323E+02  0.00000000000E+00 0.  1.
         11    1    4    4    0    0  0.87130842417E+01 -0.54636124436E+01  0.16383408685E+02  0.19343861516E+02  0.51100000000E-03 0. -1.
        -11    1    4    4    0    0  0.71740945941E+01 -0.60309807003E+01  0.17466205904E+01  0.95336795206E+01  0.51100000000E-03 0.  1.
         12    1    4    4    0    0  0.50343792442E+01  0.34569256041E+00  0.18223977599E+02  0.18909728640E+02  0.00000000000E+00 0. -1.
</event>
<event>
 8    1  0.5250708E-010  0.9118800E+02  0.7816164E-02  0.1184000E+00
        -11   -1    0    0    0    0  0.00000000000E+00  0.00000000000E+00  0.45593999997E+02  0.45594000000E+02  0.51100000000E-03 0. -1.
         11   -1    0    0    0    0 -0.00000000000E+00 -0.00000000000E+00 -0.45593999997E+02  0.45594000000E+02  0.51100000000E-03 0.  1.
         23    2    1    2    0    0  0.00000000000E+00  0.00000000000E+00  0.00000000000E+00  0.91188000000E+02  0.91188000000E+02 0.  0.
    9900012    2    3    3    0    0 -0.28147500018E+02 -0.16393702009E+02  0.28680795671E+02  0.47787271168E+02  0.20000000563E+02 0.  0.
        -12    1    3    3    0    0  0.28147500018E+02  0.16393702009E+02 -0.28680795671E+02  0.43400728832E+02  0.00000000000E+00 0.  1.
         11    1    4    4    0    0 -0.71780308027E+01 -0.16221937650E+01  0.10955080149E+02  0.13197326250E+02  0.51100000000E-03 0. -1.
        -11    1    4    4    0    0 -0.14215965623E+02 -0.55034169160E+01  0.17378599420E+02  0.23117028235E+02  0.51100000000E-03 0.  1.
        -12    1    4    4    0    0 -0.67535035925E+01 -0.92680913282E+01  0.34711610236E+00  0.11472916684E+02  0.00000000000E+00 0.  1.
</event>
<event>
 8    1  0.5250708E-010  0.9118800E+02  0.7816164E-02  0.1184000E+00
        -11   -1    0    0    0    0  0.00000000000E+00  0.00000000000E+00  0.45593999997E+02  0.45594000000E+02  0.51100000000E-03 0. -1.
         11   -1    0    0    0    0 -0.00000000000E+00 -0.00000000000E+00 -0.45593999997E+02  0.45594000000E+02  0.51100000000E-03 0.  1.
         23    2    1    2    0    0  0.00000000000E+00 -0.44408920985E-15  0.00000000000E+00  0.91188000000E+02  0.91188000000E+02 0.  0.
    9900012    2    3    3    0    0  0.23395211423E+02  0.32137280710E+01  0.36413722777E+02  0.47787272216E+02  0.20000005343E+02 0.  0.
        -12    1    3    3    0    0 -0.23395211423E+02 -0.32137280710E+01 -0.36413722777E+02  0.43400727784E+02  0.00000000000E+00 0.  1.
         11    1    4    4    0    0  0.17201385632E+02 -0.50239201871E+01  0.14759985750E+02  0.23216042327E+02  0.51100000000E-03 0.  1.
        -11    1    4    4    0    0  0.52433336192E+01  0.40439664124E+01  0.16953644815E+02  0.18200886917E+02  0.51100000000E-03 0. -1.
        -12    1    4    4    0    0  0.95049217259E+00  0.41936818456E+01  0.47000922122E+01  0.63703429732E+01  0.00000000000E+00 0.  1.
</event>
<event>
 8    1  0.5250708E-010  0.9118800E+02  0.7816164E-02  0.1184000E+00
        -11   -1    0    0    0    0  0.00000000000E+00  0.00000000000E+00  0.45593999997E+02  0.45594000000E+02  0.51100000000E-03 0. -1.
         11   -1    0    0    0    0 -0.00000000000E+00 -0.00000000000E+00 -0.45593999997E+02  0.45594000000E+02  0.51100000000E-03 0.  1.
         23    2    1    2    0    0  0.00000000000E+00  0.00000000000E+00  0.00000000000E+00  0.91188000000E+02  0.91188000000E+02 0.  0.
    9900012    2    3    3    0    0  0.20431634720E+02  0.18334960576E+02 -0.33615483668E+02  0.47787271678E+02  0.20000002887E+02 0.  0.
         12    1    3    3    0    0 -0.20431634720E+02 -0.18334960576E+02  0.33615483668E+02  0.43400728322E+02  0.00000000000E+00 0. -1.
         11    1    4    4    0    0  0.14172653175E+01  0.75132090563E+00 -0.13758422356E+00  0.16099856406E+01  0.51100000000E-03 0. -1.
        -11    1    4    4    0    0 -0.29001887907E+01  0.62127185356E+01 -0.49911758325E+01  0.84806133667E+01  0.51100000000E-03 0.  1.
        -12    1    4    4    0    0  0.21914558193E+02  0.11370921135E+02 -0.28486723612E+02  0.37696672670E+02  0.00000000000E+00 0.  1.
</event>
<event>
 8    1  0.5250708E-010  0.9118800E+02  0.7816164E-02  0.1184000E+00
        -11   -1    0    0    0    0  0.00000000000E+00  0.00000000000E+00  0.45593999997E+02  0.45594000000E+02  0.51100000000E-03 0. -1.
         11   -1    0    0    0    0 -0.00000000000E+00 -0.00000000000E+00 -0.45593999997E+02  0.45594000000E+02  0.51100000000E-03 0.  1.
         23    2    1    2    0    0  0.00000000000E+00  0.00000000000E+00  0.00000000000E+00  0.91188000000E+02  0.91188000000E+02 0.  0.
    9900012    2    3    3    0    0  0.14344031762E+02  0.24167264004E+02 -0.33072858465E+02  0.47787287291E+02  0.20000074073E+02 0.  0.
         12    1    3    3    0    0 -0.14344031762E+02 -0.24167264004E+02  0.33072858465E+02  0.43400712709E+02  0.00000000000E+00 0. -1.
         11    1    4    4    0    0 -0.69185634473E+00 -0.90107345442E+00  0.16936114171E+01  0.20393426552E+01  0.51100000000E-03 0.  1.
        -11    1    4    4    0    0  0.60920867758E+01  0.14665175725E+02 -0.16465288133E+02  0.22875458770E+02  0.51100000000E-03 0. -1.
        -12    1    4    4    0    0  0.89438013307E+01  0.10403161733E+02 -0.18301181749E+02  0.22872485866E+02  0.00000000000E+00 0.  1.
</event>
<event>
 8    1  0.5250708E-010  0.9118800E+02  0.7816164E-02  0.1184000E+00
        -11   -1    0    0    0    0  0.00000000000E+00  0.00000000000E+00  0.45593999997E+02  0.45594000000E+02  0.51100000000E-03 0. -1.
         11   -1    0    0    0    0 -0.00000000000E+00 -0.00000000000E+00 -0.45593999997E+02  0.45594000000E+02  0.51100000000E-03 0.  1.
         23    2    1    2    0    0  0.88817841970E-15  0.00000000000E+00  0.00000000000E+00  0.91188000000E+02  0.91188000000E+02 0.  0.
    9900012    2    3    3    0    0 -0.57830855278E+01 -0.10550574421E+02 -0.41699696169E+02  0.47787270059E+02  0.19999995506E+02 0.  0.
         12    1    3    3    0    0  0.57830855278E+01  0.10550574421E+02  0.41699696169E+02  0.43400729941E+02  0.00000000000E+00 0. -1.
         11    1    4    4    0    0  0.33023683789E+01 -0.38991474792E+01 -0.11102392273E+01  0.52289214354E+01  0.51100000000E-03 0. -1.
        -11    1    4    4    0    0 -0.50837220727E+00 -0.18034947702E+01 -0.15352370358E+02  0.15466295987E+02  0.51100000000E-03 0.  1.
         12    1    4    4    0    0 -0.85770816995E+01 -0.48479321714E+01 -0.25237086584E+02  0.27092052637E+02  0.00000000000E+00 0. -1.
</event>
<event>
 8    1  0.5250708E-010  0.9118800E+02  0.7816164E-02  0.1184000E+00
        -11   -1    0    0    0    0  0.00000000000E+00  0.00000000000E+00  0.45593999997E+02  0.45594000000E+02  0.51100000000E-03 0. -1.
         11   -1    0    0    0    0 -0.00000000000E+00 -0.00000000000E+00 -0.45593999997E+02  0.45594000000E+02  0.51100000000E-03 0.  1.
         23    2    1    2    0    0  0.00000000000E+00  0.00000000000E+00  0.00000000000E+00  0.91188000000E+02  0.91188000000E+02 0.  0.
    9900012    2    3    3    0    0  0.19556513096E+02 -0.37791347316E+02  0.85428401071E+01  0.47787271279E+02  0.20000001070E+02 0.  0.
        -12    1    3    3    0    0 -0.19556513096E+02  0.37791347316E+02 -0.85428401071E+01  0.43400728721E+02  0.00000000000E+00 0.  1.
         11    1    4    4    0    0  0.18837625163E+02 -0.30146012700E+02  0.48206521504E+01  0.35873066372E+02  0.51100000000E-03 0. -1.
        -11    1    4    4    0    0 -0.78131867037E-01 -0.18271756275E+01 -0.26685210631E+01  0.32350703683E+01  0.51100000000E-03 0.  1.
        -12    1    4    4    0    0  0.79701980006E+00 -0.58181589879E+01  0.63907090197E+01  0.86791345390E+01  0.00000000000E+00 0.  1.
</event>
<event>
 8    1  0.5250708E-010  0.9118800E+02  0.7816164E-02  0.1184000E+00
        -11   -1    0    0    0    0  0.00000000000E+00  0.00000000000E+00  0.45593999997E+02  0.45594000000E+02  0.51100000000E-03 0. -1.
         11   -1    0    0    0    0 -0.00000000000E+00 -0.00000000000E+00 -0.45593999997E+02  0.45594000000E+02  0.51100000000E-03 0.  1.
         23    2    1    2    0    0 -0.17763568394E-14 -0.17763568394E-14  0.00000000000E+00  0.91188000000E+02  0.91188000000E+02 0.  0.
    9900012    2    3    3    0    0  0.14203385542E+02  0.15740380480E+02 -0.37869878541E+02  0.47787269140E+02  0.19999991318E+02 0.  0.
         12    1    3    3    0    0 -0.14203385542E+02 -0.15740380480E+02  0.37869878541E+02  0.43400730860E+02  0.00000000000E+00 0. -1.
         11    1    4    4    0    0  0.11209418880E+00  0.88678972420E+01 -0.84661760548E+01  0.12260844337E+02  0.51100000000E-03 0. -1.
        -11    1    4    4    0    0  0.11139362506E+02  0.94653321408E+01 -0.27537479819E+02  0.31176765461E+02  0.51100000000E-03 0.  1.
        -12    1    4    4    0    0  0.29519288471E+01 -0.25928489031E+01 -0.18662226671E+01  0.43496593425E+01  0.00000000000E+00 0.  1.
</event>
<event>
 8    1  0.5250708E-010  0.9118800E+02  0.7816164E-02  0.1184000E+00
        -11   -1    0    0    0    0  0.00000000000E+00  0.00000000000E+00  0.45593999997E+02  0.45594000000E+02  0.51100000000E-03 0. -1.
         11   -1    0    0    0    0 -0.00000000000E+00 -0.00000000000E+00 -0.45593999997E+02  0.45594000000E+02  0.51100000000E-03 0.  1.
         23    2    1    2    0    0  0.00000000000E+00  0.16653345369E-15  0.00000000000E+00  0.91188000000E+02  0.91188000000E+02 0.  0.
    9900012    2    3    3    0    0  0.43021556242E+02  0.92834221895E-01 -0.57236845392E+01  0.47787268619E+02  0.19999988941E+02 0.  0.
         12    1    3    3    0    0 -0.43021556242E+02 -0.92834221895E-01  0.57236845392E+01  0.43400731381E+02  0.00000000000E+00 0. -1.
         11    1    4    4    0    0  0.12042548581E+02 -0.29417987119E+01 -0.30122258380E+01  0.12757376719E+02  0.51100000000E-03 0. -1.
        -11    1    4    4    0    0  0.19626075129E+02 -0.47629410723E+01  0.24027482814E+01  0.20338181634E+02  0.51100000000E-03 0.  1.
         12    1    4    4    0    0  0.11352932532E+02  0.77975740062E+01 -0.51142069826E+01  0.14691710265E+02  0.00000000000E+00 0. -1.
</event>
<event>
 8    1  0.6335071E-010  0.9118800E+02  0.7816164E-02  0.1184000E+00
        -11   -1    0    0    0    0  0.00000000000E+00  0.00000000000E+00  0.45593999997E+02  0.45594000000E+02  0.51100000000E-03 0. -1.
         11   -1    0    0    0    0 -0.00000000000E+00 -0.00000000000E+00 -0.45593999997E+02  0.45594000000E+02  0.51100000000E-03 0.  1.
         23    2    1    2    0    0  0.00000000000E+00 -0.17763568394E-14  0.71054273576E-14  0.91188000000E+02  0.91188000000E+02 0.  0.
    9900012    2    3    3    0    0  0.27354560549E+01  0.84628788826E+01 -0.42479647309E+02  0.47787268735E+02  0.19999989472E+02 0.  0.
         12    1    3    3    0    0 -0.27354560549E+01 -0.84628788826E+01  0.42479647309E+02  0.43400731265E+02  0.00000000000E+00 0. -1.
         11    1    4    4    0    0 -0.54497059962E+00  0.44328309653E+01  0.49251336909E+00  0.44932786471E+01  0.51100000000E-03 0. -1.
        -11    1    4    4    0    0  0.14404240882E+01  0.14145657081E+01 -0.13760113737E+02  0.13907427800E+02  0.51100000000E-03 0.  1.
         12    1    4    4    0    0  0.18400025663E+01  0.26154822092E+01 -0.29212046941E+02  0.29386562288E+02  0.00000000000E+00 0. -1.
</event>
<event>
 8    1  0.5250708E-010  0.9118800E+02  0.7816164E-02  0.1184000E+00
        -11   -1    0    0    0    0  0.00000000000E+00  0.00000000000E+00  0.45593999997E+02  0.45594000000E+02  0.51100000000E-03 0. -1.
         11   -1    0    0    0    0 -0.00000000000E+00 -0.00000000000E+00 -0.45593999997E+02  0.45594000000E+02  0.51100000000E-03 0.  1.
         23    2    1    2    0    0  0.00000000000E+00  0.00000000000E+00 -0.35527136788E-14  0.91188000000E+02  0.91188000000E+02 0.  0.
    9900012    2    3    3    0    0 -0.17073537359E+02  0.35924621146E+02  0.17364893047E+02  0.47787267368E+02  0.19999983238E+02 0.  0.
        -12    1    3    3    0    0  0.17073537359E+02 -0.35924621146E+02 -0.17364893047E+02  0.43400732632E+02  0.00000000000E+00 0.  1.
         11    1    4    4    0    0  0.19225023586E+00  0.13245480684E+02  0.12404747912E+01  0.13304829825E+02  0.51100000000E-03 0. -1.
        -11    1    4    4    0    0 -0.10811360383E+02  0.12151696948E+02  0.31430077803E+01  0.16565860986E+02  0.51100000000E-03 0.  1.
        -12    1    4    4    0    0 -0.64544272117E+01  0.10527443515E+02  0.12981410476E+02  0.17916576557E+02  0.00000000000E+00 0.  1.
</event>
<event>
 8    1  0.5250708E-010  0.9118800E+02  0.7816164E-02  0.1184000E+00
        -11   -1    0    0    0    0  0.00000000000E+00  0.00000000000E+00  0.45593999997E+02  0.45594000000E+02  0.51100000000E-03 0. -1.
         11   -1    0    0    0    0 -0.00000000000E+00 -0.00000000000E+00 -0.45593999997E+02  0.45594000000E+02  0.51100000000E-03 0.  1.
         23    2    1    2    0    0 -0.35527136788E-14  0.00000000000E+00  0.00000000000E+00  0.91188000000E+02  0.91188000000E+02 0.  0.
    9900012    2    3    3    0    0 -0.18144202738E+02 -0.59567345978E+01  0.38973428697E+02  0.47787275070E+02  0.20000018353E+02 0.  0.
        -12    1    3    3    0    0  0.18144202738E+02  0.59567345978E+01 -0.38973428697E+02  0.43400724930E+02  0.00000000000E+00 0.  1.
         11    1    4    4    0    0 -0.48312230208E+01  0.48987060198E+01  0.16462894353E+02  0.17842783619E+02  0.51100000000E-03 0. -1.
        -11    1    4    4    0    0  0.21108678327E+00 -0.35144552009E+01  0.13286412181E+01  0.37631424018E+01  0.51100000000E-03 0.  1.
        -12    1    4    4    0    0 -0.13524066501E+02 -0.73409854167E+01  0.21181893126E+02  0.26181349048E+02  0.00000000000E+00 0.  1.
</event>
<event>
 8    1  0.5250708E-010  0.9118800E+02  0.7816164E-02  0.1184000E+00
        -11   -1    0    0    0    0  0.00000000000E+00  0.00000000000E+00  0.45593999997E+02  0.45594000000E+02  0.51100000000E-03 0.  1.
         11   -1    0    0    0    0 -0.00000000000E+00 -0.00000000000E+00 -0.45593999997E+02  0.45594000000E+02  0.51100000000E-03 0. -1.
         23    2    1    2    0    0  0.00000000000E+00  0.00000000000E+00  0.00000000000E+00  0.91188000000E+02  0.91188000000E+02 0.  0.
    9900012    2    3    3    0    0 -0.10646317411E+02  0.37469330953E+02  0.19139673068E+02  0.47787286623E+02  0.20000071028E+02 0.  0.
        -12    1    3    3    0    0  0.10646317411E+02 -0.37469330953E+02 -0.19139673068E+02  0.43400713377E+02  0.00000000000E+00 0.  1.
         11    1    4    4    0    0  0.85163266158E+00  0.98666628207E+00 -0.13107312290E+01  0.18484602128E+01  0.51100000000E-03 0. -1.
        -11    1    4    4    0    0  0.30594437449E+00  0.98469316670E+00 -0.20426982904E+01  0.22881956122E+01  0.51100000000E-03 0.  1.
        -12    1    4    4    0    0 -0.11803894447E+02  0.35497971504E+02  0.22493102588E+02  0.43650630798E+02  0.00000000000E+00 0.  1.
</event>
<event>
 8    1  0.5250708E-010  0.9118800E+02  0.7816164E-02  0.1184000E+00
        -11   -1    0    0    0    0  0.00000000000E+00  0.00000000000E+00  0.45593999997E+02  0.45594000000E+02  0.51100000000E-03 0. -1.
         11   -1    0    0    0    0 -0.00000000000E+00 -0.00000000000E+00 -0.45593999997E+02  0.45594000000E+02  0.51100000000E-03 0.  1.
         23    2    1    2    0    0 -0.35527136788E-14  0.00000000000E+00  0.00000000000E+00  0.91188000000E+02  0.91188000000E+02 0.  0.
    9900012    2    3    3    0    0 -0.26805071240E+02  0.53171466349E+01  0.33717048488E+02  0.47787271305E+02  0.20000001189E+02 0.  0.
        -12    1    3    3    0    0  0.26805071240E+02 -0.53171466349E+01 -0.33717048488E+02  0.43400728695E+02  0.00000000000E+00 0.  1.
         11    1    4    4    0    0 -0.16385608638E+02 -0.18005108303E+01  0.19086234303E+02  0.25219324928E+02  0.51100000000E-03 0. -1.
        -11    1    4    4    0    0 -0.65914057672E+01  0.12131456595E+01  0.42594038655E+00  0.67156368166E+01  0.51100000000E-03 0.  1.
        -12    1    4    4    0    0 -0.38280568353E+01  0.59045118057E+01  0.14204873798E+02  0.15852309561E+02  0.00000000000E+00 0.  1.
</event>
<event>
 8    1  0.5250708E-010  0.9118800E+02  0.7816164E-02  0.1184000E+00
        -11   -1    0    0    0    0  0.00000000000E+00  0.00000000000E+00  0.45593999997E+02  0.45594000000E+02  0.51100000000E-03 0.  1.
         11   -1    0    0    0    0 -0.00000000000E+00 -0.00000000000E+00 -0.45593999997E+02  0.45594000000E+02  0.51100000000E-03 0. -1.
         23    2    1    2    0    0  0.00000000000E+00  0.00000000000E+00  0.17763568394E-14  0.91188000000E+02  0.91188000000E+02 0.  0.
    9900012    2    3    3    0    0 -0.13427214601E+02 -0.39064335277E+02 -0.13315817765E+02  0.47787269760E+02  0.19999994144E+02 0.  0.
         12    1    3    3    0    0  0.13427214601E+02  0.39064335277E+02  0.13315817765E+02  0.43400730240E+02  0.00000000000E+00 0. -1.
         11    1    4    4    0    0 -0.40976022708E+01 -0.93672452170E+01 -0.82207240267E+01  0.13119296136E+02  0.51100000000E-03 0. -1.
        -11    1    4    4    0    0 -0.52128301315E+01 -0.88496880425E+01  0.46687546564E+01  0.11282191575E+02  0.51100000000E-03 0.  1.
        -12    1    4    4    0    0 -0.41167821992E+01 -0.20847402018E+02 -0.97638483948E+01  0.23385782049E+02  0.00000000000E+00 0.  1.
</event>
