<event>
 7    1  0.3050261E-013  0.7246160E+02  0.7816164E-02  0.1226708E+00
        -11   -1    0    0    0    0  0.00000000000E+00  0.00000000000E+00  0.45593999997E+02  0.45594000000E+02  0.51100000000E-03 0.  1.
         11   -1    0    0    0    0 -0.00000000000E+00 -0.00000000000E+00 -0.45593999997E+02  0.45594000000E+02  0.51100000000E-03 0. -1.
    9900012    2    1    2    0    0 -0.11772713021E+02 -0.24595637415E+01  0.14353806677E+02  0.72461601740E+02  0.70000040964E+02 0.  0.
         12    1    1    2    0    0  0.11772713021E+02  0.24595637415E+01 -0.14353806677E+02  0.18726398260E+02  0.00000000000E+00 0. -1.
         11    1    3    3    0    0 -0.55309207749E+01 -0.95540641714E+00 -0.13294512190E+02  0.14430798338E+02  0.51100000000E-03 0. -1.
        -11    1    3    3    0    0 -0.20792658629E+02  0.16060530681E+02  0.68222936801E+01  0.27144409920E+02  0.51100000000E-03 0.  1.
         12    1    3    3    0    0  0.14550866382E+02 -0.17564688005E+02  0.20826025187E+02  0.30886393482E+02  0.00000000000E+00 0. -1.
</event>
<event>
 7    1  0.3050261E-013  0.7246114E+02  0.7816164E-02  0.1226709E+00
        -11   -1    0    0    0    0  0.00000000000E+00  0.00000000000E+00  0.45593999997E+02  0.45594000000E+02  0.51100000000E-03 0.  1.
         11   -1    0    0    0    0 -0.00000000000E+00 -0.00000000000E+00 -0.45593999997E+02  0.45594000000E+02  0.51100000000E-03 0. -1.
    9900012    2    1    2    0    0 -0.12842348454E+02 -0.13629497867E+02  0.78439193502E-01  0.72461140183E+02  0.69999439698E+02 0.  0.
         12    1    1    2    0    0  0.12842348454E+02  0.13629497867E+02 -0.78439193502E-01  0.18726859817E+02  0.00000000000E+00 0. -1.
         11    1    3    3    0    0 -0.58022542267E+01 -0.11307641748E+02 -0.80917802903E+01  0.15066712466E+02  0.51100000000E-03 0. -1.
        -11    1    3    3    0    0 -0.26719467137E+02  0.53265756075E+01 -0.10511400049E+02  0.29202600278E+02  0.51100000000E-03 0.  1.
        -12    1    3    3    0    0  0.19679372909E+02 -0.76484317266E+01  0.18681619532E+02  0.28191827439E+02  0.00000000000E+00 0.  1.
</event>
<event>
 7    1  0.3050261E-013  0.7246152E+02  0.7816164E-02  0.1226708E+00
        -11   -1    0    0    0    0  0.00000000000E+00  0.00000000000E+00  0.45593999997E+02  0.45594000000E+02  0.51100000000E-03 0.  1.
         11   -1    0    0    0    0 -0.00000000000E+00 -0.00000000000E+00 -0.45593999997E+02  0.45594000000E+02  0.51100000000E-03 0. -1.
    9900012    2    1    2    0    0 -0.70355006181E+01  0.23806358113E+01  0.17190564765E+02  0.72461515740E+02  0.69999928932E+02 0.  0.
         12    1    1    2    0    0  0.70355006181E+01 -0.23806358113E+01 -0.17190564765E+02  0.18726484260E+02  0.00000000000E+00 0. -1.
         11    1    3    3    0    0 -0.10904166494E+02 -0.54911983371E+01 -0.15325799880E+02  0.19594240182E+02  0.51100000000E-03 0. -1.
        -11    1    3    3    0    0 -0.89062189644E+01  0.16933914031E+02  0.28828171927E+01  0.19349129590E+02  0.51100000000E-03 0.  1.
        -12    1    3    3    0    0  0.12774884841E+02 -0.90620798830E+01  0.29633547452E+02  0.33518145967E+02  0.00000000000E+00 0.  1.
</event>
<event>
 7    1  0.3050261E-013  0.7246158E+02  0.7816164E-02  0.1226708E+00
        -11   -1    0    0    0    0  0.00000000000E+00  0.00000000000E+00  0.45593999997E+02  0.45594000000E+02  0.51100000000E-03 0.  1.
         11   -1    0    0    0    0 -0.00000000000E+00 -0.00000000000E+00 -0.45593999997E+02  0.45594000000E+02  0.51100000000E-03 0. -1.
    9900012    2    1    2    0    0  0.51941811423E+01  0.69233792912E+01  0.16606202554E+02  0.72461583851E+02  0.70000017660E+02 0.  0.
         12    1    1    2    0    0 -0.51941811423E+01 -0.69233792912E+01 -0.16606202554E+02  0.18726416149E+02  0.00000000000E+00 0. -1.
         11    1    3    3    0    0  0.50005297845E+01  0.45015399214E+00 -0.13329563964E+02  0.14243778026E+02  0.51100000000E-03 0. -1.
        -11    1    3    3    0    0  0.12102831142E+02 -0.66038121395E+01 -0.82975242595E+01  0.16091543292E+02  0.51100000000E-03 0.  1.
        -12    1    3    3    0    0 -0.11909179784E+02  0.13077037439E+02  0.38233290777E+02  0.42126262532E+02  0.00000000000E+00 0.  1.
</event>
<event>
 7    1  0.3050261E-013  0.7246154E+02  0.7816164E-02  0.1226708E+00
        -11   -1    0    0    0    0  0.00000000000E+00  0.00000000000E+00  0.45593999997E+02  0.45594000000E+02  0.51100000000E-03 0.  1.
         11   -1    0    0    0    0 -0.00000000000E+00 -0.00000000000E+00 -0.45593999997E+02  0.45594000000E+02  0.51100000000E-03 0. -1.
    9900012    2    1    2    0    0 -0.21259600659E+01  0.90905504551E+01  0.16233370529E+02  0.72461544583E+02  0.69999966506E+02 0.  0.
         12    1    1    2    0    0  0.21259600659E+01 -0.90905504551E+01 -0.16233370529E+02  0.18726455417E+02  0.00000000000E+00 0. -1.
         11    1    3    3    0    0 -0.19003305840E+02  0.67434208228E+00  0.20568222742E+02  0.28011286245E+02  0.51100000000E-03 0. -1.
        -11    1    3    3    0    0 -0.27937769829E+01 -0.13717285008E+02 -0.49046086585E+01  0.14833215571E+02  0.51100000000E-03 0.  1.
         12    1    3    3    0    0  0.19671122757E+02  0.22133493381E+02  0.56975644532E+00  0.29617042766E+02  0.00000000000E+00 0. -1.
</event>
<event>
 7    1  0.3050261E-013  0.7246153E+02  0.7816164E-02  0.1226708E+00
        -11   -1    0    0    0    0  0.00000000000E+00  0.00000000000E+00  0.45593999997E+02  0.45594000000E+02  0.51100000000E-03 0.  1.
         11   -1    0    0    0    0 -0.00000000000E+00 -0.00000000000E+00 -0.45593999997E+02  0.45594000000E+02  0.51100000000E-03 0. -1.
    9900012    2    1    2    0    0 -0.15145820865E+02  0.43324286136E+01  0.10124966653E+02  0.72461527372E+02  0.69999944086E+02 0.  0.
         12    1    1    2    0    0  0.15145820865E+02 -0.43324286136E+01 -0.10124966653E+02  0.18726472628E+02  0.00000000000E+00 0. -1.
         11    1    3    3    0    0 -0.91754495949E+01  0.12938837866E+01 -0.18231905801E+02  0.20451537837E+02  0.51100000000E-03 0. -1.
        -11    1    3    3    0    0  0.17014611722E+02  0.97788225873E+01  0.11945982464E+02  0.22974526775E+02  0.51100000000E-03 0.  1.
         12    1    3    3    0    0 -0.22984982992E+02 -0.67402777602E+01  0.16410889990E+02  0.29035462760E+02  0.00000000000E+00 0. -1.
</event>
<event>
 7    1  0.3050261E-013  0.7246164E+02  0.7816164E-02  0.1226708E+00
        -11   -1    0    0    0    0  0.00000000000E+00  0.00000000000E+00  0.45593999997E+02  0.45594000000E+02  0.51100000000E-03 0.  1.
         11   -1    0    0    0    0 -0.00000000000E+00 -0.00000000000E+00 -0.45593999997E+02  0.45594000000E+02  0.51100000000E-03 0. -1.
    9900012    2    1    2    0    0 -0.93582779937E+01 -0.67206489667E+01  0.14762528336E+02  0.72461635366E+02  0.70000084768E+02 0.  0.
         12    1    1    2    0    0  0.93582779937E+01  0.67206489667E+01 -0.14762528336E+02  0.18726364634E+02  0.00000000000E+00 0. -1.
         11    1    3    3    0    0  0.63308190606E+01 -0.71728699195E+01 -0.70997267412E+01  0.11913666645E+02  0.51100000000E-03 0. -1.
        -11    1    3    3    0    0 -0.29965580585E+02 -0.14379677343E+02  0.22181338172E+02  0.39959015298E+02  0.51100000000E-03 0.  1.
         12    1    3    3    0    0  0.14276483530E+02  0.14831898295E+02 -0.31908309482E+00  0.20588953423E+02  0.00000000000E+00 0. -1.
</event>
<event>
 7    1  0.3050261E-013  0.7246156E+02  0.7816164E-02  0.1226708E+00
        -11   -1    0    0    0    0  0.00000000000E+00  0.00000000000E+00  0.45593999997E+02  0.45594000000E+02  0.51100000000E-03 0.  1.
         11   -1    0    0    0    0 -0.00000000000E+00 -0.00000000000E+00 -0.45593999997E+02  0.45594000000E+02  0.51100000000E-03 0. -1.
    9900012    2    1    2    0    0 -0.11086085904E+02 -0.99596819655E+01  0.11339448451E+02  0.72461557287E+02  0.69999983055E+02 0.  0.
         12    1    1    2    0    0  0.11086085904E+02  0.99596819655E+01 -0.11339448451E+02  0.18726442713E+02  0.00000000000E+00 0. -1.
         11    1    3    3    0    0  0.55602066133E+01 -0.12636004056E+02  0.55142109212E+01  0.14865766662E+02  0.51100000000E-03 0. -1.
        -11    1    3    3    0    0 -0.24551104743E+02  0.11377522701E+02  0.23854357925E+02  0.36072637264E+02  0.51100000000E-03 0.  1.
        -12    1    3    3    0    0  0.79048122250E+01 -0.87012006107E+01 -0.18029120395E+02  0.21523153361E+02  0.00000000000E+00 0.  1.
</event>
<event>
 7    1  0.3050261E-013  0.7246162E+02  0.7816164E-02  0.1226708E+00
        -11   -1    0    0    0    0  0.00000000000E+00  0.00000000000E+00  0.45593999997E+02  0.45594000000E+02  0.51100000000E-03 0.  1.
         11   -1    0    0    0    0 -0.00000000000E+00 -0.00000000000E+00 -0.45593999997E+02  0.45594000000E+02  0.51100000000E-03 0. -1.
    9900012    2    1    2    0    0  0.18664724984E+01  0.10037775082E+02  0.15698300480E+02  0.72461620581E+02  0.70000065507E+02 0.  0.
         12    1    1    2    0    0 -0.18664724984E+01 -0.10037775082E+02 -0.15698300480E+02  0.18726379419E+02  0.00000000000E+00 0. -1.
         11    1    3    3    0    0 -0.78441318213E+00 -0.47907376790E+01 -0.70500137243E+00  0.49054560182E+01  0.51100000000E-03 0. -1.
        -11    1    3    3    0    0 -0.26008008452E+02  0.19857229795E+02 -0.25655217268E+01  0.32822370127E+02  0.51100000000E-03 0.  1.
         12    1    3    3    0    0  0.28658894132E+02 -0.50287170332E+01  0.18968823580E+02  0.34733794436E+02  0.00000000000E+00 0. -1.
</event>
<event>
 7    1  0.3050261E-013  0.7246154E+02  0.7816164E-02  0.1226708E+00
        -11   -1    0    0    0    0  0.00000000000E+00  0.00000000000E+00  0.45593999997E+02  0.45594000000E+02  0.51100000000E-03 0. -1.
         11   -1    0    0    0    0 -0.00000000000E+00 -0.00000000000E+00 -0.45593999997E+02  0.45594000000E+02  0.51100000000E-03 0.  1.
    9900012    2    1    2    0    0  0.56621385517E+00  0.12291085875E+02 -0.14116978416E+02  0.72461535579E+02  0.69999954777E+02 0.  0.
         12    1    1    2    0    0 -0.56621385517E+00 -0.12291085875E+02  0.14116978416E+02  0.18726464421E+02  0.00000000000E+00 0. -1.
         11    1    3    3    0    0 -0.24131657906E+01 -0.60733879203E+01 -0.13543921510E+02  0.15038192049E+02  0.51100000000E-03 0. -1.
        -11    1    3    3    0    0 -0.13867643263E+02  0.70022427853E+01 -0.22619486787E+02  0.27440556052E+02  0.51100000000E-03 0.  1.
         12    1    3    3    0    0  0.16847022909E+02  0.11362231010E+02  0.22046429881E+02  0.29982787478E+02  0.00000000000E+00 0. -1.
</event>
<event>
 7    1  0.3050261E-013  0.7246158E+02  0.7816164E-02  0.1226708E+00
        -11   -1    0    0    0    0  0.00000000000E+00  0.00000000000E+00  0.45593999997E+02  0.45594000000E+02  0.51100000000E-03 0.  1.
         11   -1    0    0    0    0 -0.00000000000E+00 -0.00000000000E+00 -0.45593999997E+02  0.45594000000E+02  0.51100000000E-03 0. -1.
    9900012    2    1    2    0    0 -0.11325675565E+02 -0.76892350078E+01  0.12778250755E+02  0.72461576039E+02  0.70000007484E+02 0.  0.
         12    1    1    2    0    0  0.11325675565E+02  0.76892350078E+01 -0.12778250755E+02  0.18726423961E+02  0.00000000000E+00 0. -1.
         11    1    3    3    0    0  0.21809929819E+02  0.14191386553E+02  0.99417577060E+01  0.27855107925E+02  0.51100000000E-03 0. -1.
        -11    1    3    3    0    0 -0.11313628658E+02  0.26984588444E+01  0.12808794363E+01  0.11701304454E+02  0.51100000000E-03 0.  1.
        -12    1    3    3    0    0 -0.21821976726E+02 -0.24579080405E+02  0.15556136124E+01  0.32905163660E+02  0.00000000000E+00 0.  1.
</event>
<event>
 7    1  0.3050261E-013  0.7246157E+02  0.7816164E-02  0.1226708E+00
        -11   -1    0    0    0    0  0.00000000000E+00  0.00000000000E+00  0.45593999997E+02  0.45594000000E+02  0.51100000000E-03 0.  1.
         11   -1    0    0    0    0 -0.00000000000E+00 -0.00000000000E+00 -0.45593999997E+02  0.45594000000E+02  0.51100000000E-03 0. -1.
    9900012    2    1    2    0    0  0.16246147772E+02 -0.86312169659E+01 -0.34991154660E+01  0.72461573945E+02  0.70000004756E+02 0.  0.
         12    1    1    2    0    0 -0.16246147772E+02  0.86312169659E+01  0.34991154660E+01  0.18726426055E+02  0.00000000000E+00 0. -1.
         11    1    3    3    0    0 -0.33990423412E+01  0.14389824227E+02 -0.38673854144E+01  0.15283232653E+02  0.51100000000E-03 0. -1.
        -11    1    3    3    0    0  0.25374978253E+02 -0.16507001449E+01  0.16040260192E+02  0.30065000908E+02  0.51100000000E-03 0.  1.
        -12    1    3    3    0    0 -0.57297881400E+01 -0.21370341048E+02 -0.15671990244E+02  0.27113340385E+02  0.00000000000E+00 0.  1.
</event>
<event>
 7    1  0.3050261E-013  0.7246160E+02  0.7816164E-02  0.1226708E+00
        -11   -1    0    0    0    0  0.00000000000E+00  0.00000000000E+00  0.45593999997E+02  0.45594000000E+02  0.51100000000E-03 0. -1.
         11   -1    0    0    0    0 -0.00000000000E+00 -0.00000000000E+00 -0.45593999997E+02  0.45594000000E+02  0.51100000000E-03 0.  1.
    9900012    2    1    2    0    0  0.14560336863E+02  0.91048313129E+01 -0.74683773055E+01  0.72461600924E+02  0.70000039900E+02 0.  0.
         12    1    1    2    0    0 -0.14560336863E+02 -0.91048313129E+01  0.74683773055E+01  0.18726399076E+02  0.00000000000E+00 0. -1.
         11    1    3    3    0    0 -0.91084194566E+01 -0.35512262695E+01 -0.29557332021E+02  0.31132143991E+02  0.51100000000E-03 0. -1.
        -11    1    3    3    0    0  0.26570439649E+01 -0.24694157646E+01 -0.34191186569E+01  0.49848038578E+01  0.51100000000E-03 0.  1.
        -12    1    3    3    0    0  0.21011712354E+02  0.15125473347E+02  0.25508073372E+02  0.36344653075E+02  0.00000000000E+00 0.  1.
</event>
<event>
 7    1  0.3050261E-013  0.7246159E+02  0.7816164E-02  0.1226708E+00
        -11   -1    0    0    0    0  0.00000000000E+00  0.00000000000E+00  0.45593999997E+02  0.45594000000E+02  0.51100000000E-03 0.  1.
         11   -1    0    0    0    0 -0.00000000000E+00 -0.00000000000E+00 -0.45593999997E+02  0.45594000000E+02  0.51100000000E-03 0. -1.
    9900012    2    1    2    0    0 -0.13547778770E+01  0.60108624520E+01  0.17683683118E+02  0.72461587126E+02  0.70000021926E+02 0.  0.
         12    1    1    2    0    0  0.13547778770E+01 -0.60108624520E+01 -0.17683683118E+02  0.18726412874E+02  0.00000000000E+00 0. -1.
         11    1    3    3    0    0 -0.81029942163E+01 -0.93112455501E+01 -0.21881732678E+02  0.25123057819E+02  0.51100000000E-03 0. -1.
        -11    1    3    3    0    0 -0.94454067275E+00 -0.45304724053E+01  0.84844454311E+01  0.96645306059E+01  0.51100000000E-03 0.  1.
        -12    1    3    3    0    0  0.76927570120E+01  0.19852580407E+02  0.31080970365E+02  0.37673998700E+02  0.00000000000E+00 0.  1.
</event>
<event>
 7    1  0.3050261E-013  0.7246158E+02  0.7816164E-02  0.1226708E+00
        -11   -1    0    0    0    0  0.00000000000E+00  0.00000000000E+00  0.45593999997E+02  0.45594000000E+02  0.51100000000E-03 0.  1.
         11   -1    0    0    0    0 -0.00000000000E+00 -0.00000000000E+00 -0.45593999997E+02  0.45594000000E+02  0.51100000000E-03 0. -1.
    9900012    2    1    2    0    0 -0.18448771081E+02 -0.31344491559E+01  0.70498216127E+00  0.72461576803E+02  0.70000008478E+02 0.  0.
         12    1    1    2    0    0  0.18448771081E+02  0.31344491559E+01 -0.70498216127E+00  0.18726423197E+02  0.00000000000E+00 0. -1.
         11    1    3    3    0    0 -0.22127194717E+02  0.33221902576E+00 -0.11748473379E+02  0.25054934495E+02  0.51100000000E-03 0. -1.
        -11    1    3    3    0    0 -0.69541240835E+01 -0.22712718213E+02  0.63621414347E+01  0.24590735131E+02  0.51100000000E-03 0.  1.
        -12    1    3    3    0    0  0.10632547719E+02  0.19246050031E+02  0.60913141054E+01  0.22815907177E+02  0.00000000000E+00 0.  1.
</event>
<event>
 7    1  0.3050261E-013  0.7246156E+02  0.7816164E-02  0.1226708E+00
        -11   -1    0    0    0    0  0.00000000000E+00  0.00000000000E+00  0.45593999997E+02  0.45594000000E+02  0.51100000000E-03 0. -1.
         11   -1    0    0    0    0 -0.00000000000E+00 -0.00000000000E+00 -0.45593999997E+02  0.45594000000E+02  0.51100000000E-03 0.  1.
    9900012    2    1    2    0    0  0.15334197178E+02  0.89307305033E+01  0.59819627788E+01  0.72461563363E+02  0.69999990971E+02 0.  0.
         12    1    1    2    0    0 -0.15334197178E+02 -0.89307305033E+01 -0.59819627788E+01  0.18726436637E+02  0.00000000000E+00 0. -1.
         11    1    3    3    0    0 -0.30454589501E+01  0.21327818822E+01 -0.80702801684E+01  0.88855501254E+01  0.51100000000E-03 0. -1.
        -11    1    3    3    0    0 -0.17703364564E+02  0.14045429192E+02  0.14353020219E+02  0.26771111066E+02  0.51100000000E-03 0.  1.
         12    1    3    3    0    0  0.36083020692E+02 -0.72474805705E+01 -0.30077727152E+00  0.36804902172E+02  0.00000000000E+00 0. -1.
</event>
<event>
 7    1  0.3050261E-013  0.7246154E+02  0.7816164E-02  0.1226708E+00
        -11   -1    0    0    0    0  0.00000000000E+00  0.00000000000E+00  0.45593999997E+02  0.45594000000E+02  0.51100000000E-03 0. -1.
         11   -1    0    0    0    0 -0.00000000000E+00 -0.00000000000E+00 -0.45593999997E+02  0.45594000000E+02  0.51100000000E-03 0.  1.
    9900012    2    1    2    0    0  0.50379702864E+01  0.49671129538E+01 -0.17338598676E+02  0.72461538515E+02  0.69999958602E+02 0.  0.
         12    1    1    2    0    0 -0.50379702864E+01 -0.49671129538E+01  0.17338598676E+02  0.18726461485E+02  0.00000000000E+00 0. -1.
         11    1    3    3    0    0  0.57077996918E+01  0.64442124011E+01 -0.10159812169E+02  0.13316479804E+02  0.51100000000E-03 0. -1.
        -11    1    3    3    0    0 -0.26160170737E+02  0.68366722466E+01 -0.15380052728E+02  0.31106922743E+02  0.51100000000E-03 0.  1.
         12    1    3    3    0    0  0.25490341331E+02 -0.83137716938E+01  0.82012662212E+01  0.28038135968E+02  0.00000000000E+00 0. -1.
</event>
<event>
 7    1  0.3050261E-013  0.7246159E+02  0.7816164E-02  0.1226708E+00
        -11   -1    0    0    0    0  0.00000000000E+00  0.00000000000E+00  0.45593999997E+02  0.45594000000E+02  0.51100000000E-03 0.  1.
         11   -1    0    0    0    0 -0.00000000000E+00 -0.00000000000E+00 -0.45593999997E+02  0.45594000000E+02  0.51100000000E-03 0. -1.
    9900012    2    1    2    0    0  0.17604597374E+02 -0.57387930939E+01 -0.27969413481E+01  0.72461588818E+02  0.70000024130E+02 0.  0.
         12    1    1    2    0    0 -0.17604597374E+02  0.57387930939E+01  0.27969413481E+01  0.18726411182E+02  0.00000000000E+00 0. -1.
         11    1    3    3    0    0 -0.17175744086E+02 -0.23595275629E+02 -0.67715408326E+01  0.29959922937E+02  0.51100000000E-03 0. -1.
        -11    1    3    3    0    0 -0.13348559822E+00 -0.22448811586E+00  0.31646712550E+01  0.31754303224E+01  0.51100000000E-03 0.  1.
        -12    1    3    3    0    0  0.34913827057E+02  0.18080970650E+02  0.80992822957E+00  0.39326235558E+02  0.00000000000E+00 0.  1.
</event>
<event>
 7    1  0.3050261E-013  0.7246152E+02  0.7816164E-02  0.1226708E+00
        -11   -1    0    0    0    0  0.00000000000E+00  0.00000000000E+00  0.45593999997E+02  0.45594000000E+02  0.51100000000E-03 0.  1.
         11   -1    0    0    0    0 -0.00000000000E+00 -0.00000000000E+00 -0.45593999997E+02  0.45594000000E+02  0.51100000000E-03 0. -1.
    9900012    2    1    2    0    0 -0.67973730656E+01  0.51670320585E+01  0.16666686037E+02  0.72461523441E+02  0.69999938964E+02 0.  0.
         12    1    1    2    0    0  0.67973730656E+01 -0.51670320585E+01 -0.16666686037E+02  0.18726476559E+02  0.00000000000E+00 0. -1.
         11    1    3    3    0    0 -0.80691114552E+01  0.84837721252E+01  0.77880195878E+01  0.14061941491E+02  0.51100000000E-03 0.  1.
        -11    1    3    3    0    0  0.23326412124E+02 -0.18219294271E+02  0.11277679103E+02  0.31674125600E+02  0.51100000000E-03 0. -1.
         12    1    3    3    0    0 -0.22054673735E+02  0.14902554204E+02 -0.23990126544E+01  0.26725456349E+02  0.00000000000E+00 0. -1.
</event>
<event>
 7    1  0.3050261E-013  0.7246171E+02  0.7816164E-02  0.1226708E+00
        -11   -1    0    0    0    0  0.00000000000E+00  0.00000000000E+00  0.45593999997E+02  0.45594000000E+02  0.51100000000E-03 0. -1.
         11   -1    0    0    0    0 -0.00000000000E+00 -0.00000000000E+00 -0.45593999997E+02  0.45594000000E+02  0.51100000000E-03 0.  1.
    9900012    2    1    2    0    0 -0.88012682118E+01  0.10179691717E+02 -0.13022494435E+02  0.72461713479E+02  0.70000186524E+02 0.  0.
         12    1    1    2    0    0  0.88012682118E+01 -0.10179691717E+02  0.13022494435E+02  0.18726286521E+02  0.00000000000E+00 0. -1.
         11    1    3    3    0    0 -0.77208311616E+01 -0.15016926298E+02  0.37598554996E+00  0.16889661768E+02  0.51100000000E-03 0. -1.
        -11    1    3    3    0    0 -0.11945197437E+02  0.28883382441E+02 -0.24418570741E+02  0.39663637255E+02  0.51100000000E-03 0.  1.
         12    1    3    3    0    0  0.10864760386E+02 -0.36867644267E+01  0.11020090756E+02  0.15908414455E+02  0.00000000000E+00 0. -1.
</event>
<event>
 7    1  0.3050261E-013  0.7246155E+02  0.7816164E-02  0.1226708E+00
        -11   -1    0    0    0    0  0.00000000000E+00  0.00000000000E+00  0.45593999997E+02  0.45594000000E+02  0.51100000000E-03 0. -1.
         11   -1    0    0    0    0 -0.00000000000E+00 -0.00000000000E+00 -0.45593999997E+02  0.45594000000E+02  0.51100000000E-03 0.  1.
    9900012    2    1    2    0    0  0.13203708179E+02 -0.12516693528E+02 -0.44355924575E+01  0.72461547933E+02  0.69999970871E+02 0.  0.
         12    1    1    2    0    0 -0.13203708179E+02  0.12516693528E+02  0.44355924575E+01  0.18726452067E+02  0.00000000000E+00 0. -1.
         11    1    3    3    0    0  0.94407046202E+01  0.14379452390E+02  0.21853915650E+02  0.27811673525E+02  0.51100000000E-03 0. -1.
        -11    1    3    3    0    0  0.56920221250E+01  0.37549899173E+00 -0.13113986214E+02  0.14300935286E+02  0.51100000000E-03 0.  1.
        -12    1    3    3    0    0 -0.19290185662E+01 -0.27271644910E+02 -0.13175521893E+02  0.30348939123E+02  0.00000000000E+00 0.  1.
</event>
<event>
 7    1  0.3050261E-013  0.7246158E+02  0.7816164E-02  0.1226708E+00
        -11   -1    0    0    0    0  0.00000000000E+00  0.00000000000E+00  0.45593999997E+02  0.45594000000E+02  0.51100000000E-03 0.  1.
         11   -1    0    0    0    0 -0.00000000000E+00 -0.00000000000E+00 -0.45593999997E+02  0.45594000000E+02  0.51100000000E-03 0. -1.
    9900012    2    1    2    0    0 -0.15905808131E+02  0.53211336965E+01 -0.83288311902E+01  0.72461584830E+02  0.70000018935E+02 0.  0.
         12    1    1    2    0    0  0.15905808131E+02 -0.53211336965E+01  0.83288311902E+01  0.18726415170E+02  0.00000000000E+00 0. -1.
         11    1    3    3    0    0 -0.68260779300E+01  0.82992450056E+01  0.11972451943E+02  0.16087647851E+02  0.51100000000E-03 0. -1.
        -11    1    3    3    0    0 -0.25645849952E+02  0.86645682792E+01  0.86300619543E+00  0.27083743153E+02  0.51100000000E-03 0.  1.
         12    1    3    3    0    0  0.16566119751E+02 -0.11642679588E+02 -0.21164289329E+02  0.29290193826E+02  0.00000000000E+00 0. -1.
</event>
<event>
 7    1  0.3050261E-013  0.7246162E+02  0.7816164E-02  0.1226708E+00
        -11   -1    0    0    0    0  0.00000000000E+00  0.00000000000E+00  0.45593999997E+02  0.45594000000E+02  0.51100000000E-03 0. -1.
         11   -1    0    0    0    0 -0.00000000000E+00 -0.00000000000E+00 -0.45593999997E+02  0.45594000000E+02  0.51100000000E-03 0.  1.
    9900012    2    1    2    0    0  0.12425751042E+02  0.13994970603E+02 -0.64723335478E+00  0.72461617483E+02  0.70000061473E+02 0.  0.
         12    1    1    2    0    0 -0.12425751042E+02 -0.13994970603E+02  0.64723335478E+00  0.18726382517E+02  0.00000000000E+00 0. -1.
         11    1    3    3    0    0  0.13820178409E+02 -0.61727164626E+01  0.12968939041E+02  0.19932213623E+02  0.51100000000E-03 0. -1.
        -11    1    3    3    0    0 -0.23638059427E+01  0.29811230253E+02  0.61356680868E+01  0.30527748866E+02  0.51100000000E-03 0.  1.
         12    1    3    3    0    0  0.96937857637E+00 -0.96435431873E+01 -0.19751840483E+02  0.22001654994E+02  0.00000000000E+00 0. -1.
</event>
<event>
 7    1  0.3050261E-013  0.7246160E+02  0.7816164E-02  0.1226708E+00
        -11   -1    0    0    0    0  0.00000000000E+00  0.00000000000E+00  0.45593999997E+02  0.45594000000E+02  0.51100000000E-03 0.  1.
         11   -1    0    0    0    0 -0.00000000000E+00 -0.00000000000E+00 -0.45593999997E+02  0.45594000000E+02  0.51100000000E-03 0. -1.
    9900012    2    1    2    0    0  0.11384340536E+02 -0.42668622488E+00  0.14862464678E+02  0.72461598133E+02  0.70000036265E+02 0.  0.
         12    1    1    2    0    0 -0.11384340536E+02  0.42668622488E+00 -0.14862464678E+02  0.18726401867E+02  0.00000000000E+00 0. -1.
         11    1    3    3    0    0  0.31629335361E+01 -0.82230906659E+00 -0.12491668974E+02  0.12912092579E+02  0.51100000000E-03 0. -1.
        -11    1    3    3    0    0 -0.68597245396E+01 -0.14871701330E+02 -0.79729067949E+01  0.18215119111E+02  0.51100000000E-03 0.  1.
        -12    1    3    3    0    0  0.15081131540E+02  0.15267324171E+02  0.35327040447E+02  0.41334386443E+02  0.00000000000E+00 0.  1.
</event>
<event>
 7    1  0.3050261E-013  0.7246158E+02  0.7816164E-02  0.1226708E+00
        -11   -1    0    0    0    0  0.00000000000E+00  0.00000000000E+00  0.45593999997E+02  0.45594000000E+02  0.51100000000E-03 0.  1.
         11   -1    0    0    0    0 -0.00000000000E+00 -0.00000000000E+00 -0.45593999997E+02  0.45594000000E+02  0.51100000000E-03 0. -1.
    9900012    2    1    2    0    0 -0.91108566934E+01 -0.71081320394E+01  0.14735861183E+02  0.72461578677E+02  0.70000010919E+02 0.  0.
         12    1    1    2    0    0  0.91108566934E+01  0.71081320394E+01 -0.14735861183E+02  0.18726421323E+02  0.00000000000E+00 0. -1.
         11    1    3    3    0    0 -0.71232369963E+01 -0.45208251440E+01  0.27355125580E+02  0.28626583118E+02  0.51100000000E-03 0. -1.
        -11    1    3    3    0    0 -0.24415587800E+01  0.14633122353E+02  0.80897998042E+01  0.16897761397E+02  0.51100000000E-03 0.  1.
         12    1    3    3    0    0  0.45393908291E+00 -0.17220429249E+02 -0.20709064201E+02  0.26937234162E+02  0.00000000000E+00 0. -1.
</event>
<event>
 7    1  0.3050261E-013  0.7246157E+02  0.7816164E-02  0.1226708E+00
        -11   -1    0    0    0    0  0.00000000000E+00  0.00000000000E+00  0.45593999997E+02  0.45594000000E+02  0.51100000000E-03 0.  1.
         11   -1    0    0    0    0 -0.00000000000E+00 -0.00000000000E+00 -0.45593999997E+02  0.45594000000E+02  0.51100000000E-03 0. -1.
    9900012    2    1    2    0    0  0.38052783552E+01  0.14252705672E+02  0.11535143645E+02  0.72461566778E+02  0.69999995419E+02 0.  0.
         12    1    1    2    0    0 -0.38052783552E+01 -0.14252705672E+02 -0.11535143645E+02  0.18726433222E+02  0.00000000000E+00 0. -1.
         11    1    3    3    0    0  0.42907729339E+01 -0.24982176432E+02  0.29317946124E+01  0.25516960861E+02  0.51100000000E-03 0. -1.
        -11    1    3    3    0    0 -0.60932029413E+01  0.93017531868E-01  0.36258782060E+01  0.70910342948E+01  0.51100000000E-03 0.  1.
        -12    1    3    3    0    0  0.56077083626E+01  0.39141864572E+02  0.49774708264E+01  0.39853571622E+02  0.00000000000E+00 0.  1.
</event>
<event>
 7    1  0.3050261E-013  0.7246150E+02  0.7816164E-02  0.1226708E+00
        -11   -1    0    0    0    0  0.00000000000E+00  0.00000000000E+00  0.45593999997E+02  0.45594000000E+02  0.51100000000E-03 0. -1.
         11   -1    0    0    0    0 -0.00000000000E+00 -0.00000000000E+00 -0.45593999997E+02  0.45594000000E+02  0.51100000000E-03 0.  1.
    9900012    2    1    2    0    0 -0.12086089921E+02 -0.74241400911E+01 -0.12226631914E+02  0.72461495958E+02  0.69999903163E+02 0.  0.
         12    1    1    2    0    0  0.12086089921E+02  0.74241400911E+01  0.12226631914E+02  0.18726504042E+02  0.00000000000E+00 0. -1.
         11    1    3    3    0    0  0.16198788699E+01 -0.17665056057E+02  0.52504616599E+01  0.18499880025E+02  0.51100000000E-03 0. -1.
        -11    1    3    3    0    0  0.16029632429E+02  0.16481212574E+01 -0.16398187488E+02  0.22990562687E+02  0.51100000000E-03 0.  1.
        -12    1    3    3    0    0 -0.29735601220E+02  0.85927947081E+01 -0.10789060865E+01  0.30971053246E+02  0.00000000000E+00 0.  1.
</event>
<event>
 7    1  0.3050261E-013  0.7246152E+02  0.7816164E-02  0.1226708E+00
        -11   -1    0    0    0    0  0.00000000000E+00  0.00000000000E+00  0.45593999997E+02  0.45594000000E+02  0.51100000000E-03 0. -1.
         11   -1    0    0    0    0 -0.00000000000E+00 -0.00000000000E+00 -0.45593999997E+02  0.45594000000E+02  0.51100000000E-03 0.  1.
    9900012    2    1    2    0    0  0.13053775153E+02  0.88285235343E+00 -0.13397780962E+02  0.72461521187E+02  0.69999936029E+02 0.  0.
         12    1    1    2    0    0 -0.13053775153E+02 -0.88285235343E+00  0.13397780962E+02  0.18726478813E+02  0.00000000000E+00 0. -1.
         11    1    3    3    0    0  0.36151762993E+01 -0.34665165382E+01  0.82974518933E+01  0.96919525776E+01  0.51100000000E-03 0. -1.
        -11    1    3    3    0    0 -0.18108090525E+02  0.11430348851E+02 -0.26344562253E+02  0.33949842089E+02  0.51100000000E-03 0.  1.
         12    1    3    3    0    0  0.27546689378E+02 -0.70809799595E+01  0.46493293977E+01  0.28819726521E+02  0.00000000000E+00 0. -1.
</event>
<event>
 7    1  0.3050261E-013  0.7246156E+02  0.7816164E-02  0.1226708E+00
        -11   -1    0    0    0    0  0.00000000000E+00  0.00000000000E+00  0.45593999997E+02  0.45594000000E+02  0.51100000000E-03 0.  1.
         11   -1    0    0    0    0 -0.00000000000E+00 -0.00000000000E+00 -0.45593999997E+02  0.45594000000E+02  0.51100000000E-03 0. -1.
    9900012    2    1    2    0    0 -0.12257868487E+02  0.10767912155E+02  0.91911061484E+01  0.72461556017E+02  0.69999981401E+02 0.  0.
         12    1    1    2    0    0  0.12257868487E+02 -0.10767912155E+02 -0.91911061484E+01  0.18726443983E+02  0.00000000000E+00 0. -1.
         11    1    3    3    0    0  0.70693658605E+01  0.21233313274E+02 -0.84015424831E+01  0.23904297577E+02  0.51100000000E-03 0. -1.
        -11    1    3    3    0    0 -0.15605929587E+02  0.96911244785E+01 -0.39835508128E+01  0.18797117047E+02  0.51100000000E-03 0.  1.
        -12    1    3    3    0    0 -0.37213047608E+01 -0.20156525598E+02  0.21576199444E+02  0.29760141393E+02  0.00000000000E+00 0.  1.
</event>
<event>
 7    1  0.3050261E-013  0.7246162E+02  0.7816164E-02  0.1226708E+00
        -11   -1    0    0    0    0  0.00000000000E+00  0.00000000000E+00  0.45593999997E+02  0.45594000000E+02  0.51100000000E-03 0. -1.
         11   -1    0    0    0    0 -0.00000000000E+00 -0.00000000000E+00 -0.45593999997E+02  0.45594000000E+02  0.51100000000E-03 0.  1.
    9900012    2    1    2    0    0  0.17935914479E+01 -0.10001059780E+02 -0.15730196554E+02  0.72461621529E+02  0.70000066743E+02 0.  0.
         12    1    1    2    0    0 -0.17935914479E+01  0.10001059780E+02  0.15730196554E+02  0.18726378471E+02  0.00000000000E+00 0. -1.
         11    1    3    3    0    0 -0.89463513654E+01 -0.16314440152E+02  0.15702016054E+02  0.24346487809E+02  0.51100000000E-03 0. -1.
        -11    1    3    3    0    0  0.36024687399E+01 -0.12385302283E+02 -0.28295457411E+01  0.13205295264E+02  0.51100000000E-03 0.  1.
        -12    1    3    3    0    0  0.71374740735E+01  0.18698682654E+02 -0.28602666867E+02  0.34909838456E+02  0.00000000000E+00 0.  1.
</event>
<event>
 7    1  0.3050261E-013  0.7246159E+02  0.7816164E-02  0.1226708E+00
        -11   -1    0    0    0    0  0.00000000000E+00  0.00000000000E+00  0.45593999997E+02  0.45594000000E+02  0.51100000000E-03 0. -1.
         11   -1    0    0    0    0 -0.00000000000E+00 -0.00000000000E+00 -0.45593999997E+02  0.45594000000E+02  0.51100000000E-03 0.  1.
    9900012    2    1    2    0    0 -0.13254939632E+02  0.18076204161E+00  0.13226957115E+02  0.72461588329E+02  0.70000023493E+02 0.  0.
         12    1    1    2    0    0  0.13254939632E+02 -0.18076204161E+00 -0.13226957115E+02  0.18726411671E+02  0.00000000000E+00 0. -1.
         11    1    3    3    0    0  0.11518912215E+02 -0.23299115110E+02  0.10531207442E+02  0.28043545317E+02  0.51100000000E-03 0.  1.
        -11    1    3    3    0    0 -0.13189553802E+02  0.11040382517E+02  0.15486622891E+02  0.23144974928E+02  0.51100000000E-03 0. -1.
        -12    1    3    3    0    0 -0.11584298045E+02  0.12439494635E+02 -0.12790873218E+02  0.21273068083E+02  0.00000000000E+00 0.  1.
</event>
<event>
 7    1  0.3050261E-013  0.7246147E+02  0.7816164E-02  0.1226708E+00
        -11   -1    0    0    0    0  0.00000000000E+00  0.00000000000E+00  0.45593999997E+02  0.45594000000E+02  0.51100000000E-03 0. -1.
         11   -1    0    0    0    0 -0.00000000000E+00 -0.00000000000E+00 -0.45593999997E+02  0.45594000000E+02  0.51100000000E-03 0.  1.
    9900012    2    1    2    0    0 -0.17809052833E+02  0.82262977090E+00 -0.57309680442E+01  0.72461465957E+02  0.69999864081E+02 0.  0.
         12    1    1    2    0    0  0.17809052833E+02 -0.82262977090E+00  0.57309680442E+01  0.18726534043E+02  0.00000000000E+00 0. -1.
         11    1    3    3    0    0 -0.14028373223E+02 -0.28642148814E+02 -0.48856924172E+01  0.32265119473E+02  0.51100000000E-03 0. -1.
        -11    1    3    3    0    0  0.41184297022E+01 -0.20538057719E+01 -0.57176912632E+01  0.73397258125E+01  0.51100000000E-03 0.  1.
        -12    1    3    3    0    0 -0.78991093125E+01  0.31518584357E+02  0.48724156362E+01  0.32856620671E+02  0.00000000000E+00 0.  1.
</event>
<event>
 7    1  0.3050261E-013  0.7246164E+02  0.7816164E-02  0.1226708E+00
        -11   -1    0    0    0    0  0.00000000000E+00  0.00000000000E+00  0.45593999997E+02  0.45594000000E+02  0.51100000000E-03 0. -1.
         11   -1    0    0    0    0 -0.00000000000E+00 -0.00000000000E+00 -0.45593999997E+02  0.45594000000E+02  0.51100000000E-03 0.  1.
    9900012    2    1    2    0    0  0.13430413734E+02  0.37049137281E-01 -0.13049879512E+02  0.72461635137E+02  0.70000084469E+02 0.  0.
         12    1    1    2    0    0 -0.13430413734E+02 -0.37049137281E-01  0.13049879512E+02  0.18726364863E+02  0.00000000000E+00 0. -1.
         11    1    3    3    0    0 -0.26591525832E+01  0.20220267910E+02 -0.18388417096E+02  0.27460229612E+02  0.51100000000E-03 0. -1.
        -11    1    3    3    0    0  0.83274488490E+01 -0.79644510167E+01 -0.15693240309E+02  0.19469377904E+02  0.51100000000E-03 0.  1.
        -12    1    3    3    0    0  0.77621174680E+01 -0.12218767756E+02  0.21031777893E+02  0.25532027620E+02  0.00000000000E+00 0.  1.
</event>
<event>
 7    1  0.3050261E-013  0.7246161E+02  0.7816164E-02  0.1226708E+00
        -11   -1    0    0    0    0  0.00000000000E+00  0.00000000000E+00  0.45593999997E+02  0.45594000000E+02  0.51100000000E-03 0. -1.
         11   -1    0    0    0    0 -0.00000000000E+00 -0.00000000000E+00 -0.45593999997E+02  0.45594000000E+02  0.51100000000E-03 0.  1.
    9900012    2    1    2    0    0  0.98004714233E+01  0.69976528550E+01 -0.14340894650E+02  0.72461611000E+02  0.70000053027E+02 0.  0.
         12    1    1    2    0    0 -0.98004714233E+01 -0.69976528550E+01  0.14340894650E+02  0.18726389000E+02  0.00000000000E+00 0. -1.
         11    1    3    3    0    0 -0.63341631336E+01  0.54874720090E+01  0.21781557425E+02  0.23338170789E+02  0.51100000000E-03 0. -1.
        -11    1    3    3    0    0 -0.20979444799E+01  0.95435748058E+01 -0.25741162836E+01  0.10104814002E+02  0.51100000000E-03 0.  1.
         12    1    3    3    0    0  0.18232579037E+02 -0.80333939597E+01 -0.33548335792E+02  0.39018626209E+02  0.00000000000E+00 0. -1.
</event>
<event>
 7    1  0.3050261E-013  0.7246152E+02  0.7816164E-02  0.1226708E+00
        -11   -1    0    0    0    0  0.00000000000E+00  0.00000000000E+00  0.45593999997E+02  0.45594000000E+02  0.51100000000E-03 0.  1.
         11   -1    0    0    0    0 -0.00000000000E+00 -0.00000000000E+00 -0.45593999997E+02  0.45594000000E+02  0.51100000000E-03 0. -1.
    9900012    2    1    2    0    0  0.16741607672E+02  0.71600999567E+01  0.43741000520E+01  0.72461515811E+02  0.69999929025E+02 0.  0.
         12    1    1    2    0    0 -0.16741607672E+02 -0.71600999567E+01 -0.43741000520E+01  0.18726484189E+02  0.00000000000E+00 0. -1.
         11    1    3    3    0    0 -0.31261272525E+01 -0.52189452802E+01 -0.14058194890E+02  0.15318058143E+02  0.51100000000E-03 0. -1.
        -11    1    3    3    0    0 -0.11829272807E+02 -0.11982587154E+01 -0.74473762486E+01  0.14029644769E+02  0.51100000000E-03 0.  1.
        -12    1    3    3    0    0  0.31697007731E+02  0.13577303952E+02  0.25879671191E+02  0.43113812899E+02  0.00000000000E+00 0.  1.
</event>
<event>
 7    1  0.3050261E-013  0.7246160E+02  0.7816164E-02  0.1226708E+00
        -11   -1    0    0    0    0  0.00000000000E+00  0.00000000000E+00  0.45593999997E+02  0.45594000000E+02  0.51100000000E-03 0. -1.
         11   -1    0    0    0    0 -0.00000000000E+00 -0.00000000000E+00 -0.45593999997E+02  0.45594000000E+02  0.51100000000E-03 0.  1.
    9900012    2    1    2    0    0  0.98820234785E+01  0.14205516934E+02 -0.71572988494E+01  0.72461600821E+02  0.70000039767E+02 0.  0.
         12    1    1    2    0    0 -0.98820234785E+01 -0.14205516934E+02  0.71572988494E+01  0.18726399179E+02  0.00000000000E+00 0. -1.
         11    1    3    3    0    0 -0.10826235217E+02  0.13333281578E+02  0.16678693159E+02  0.23940813945E+02  0.51100000000E-03 0. -1.
        -11    1    3    3    0    0 -0.10148558614E+02  0.37993076544E+01 -0.93273732597E+01  0.14297827554E+02  0.51100000000E-03 0.  1.
        -12    1    3    3    0    0  0.30856817310E+02 -0.29270722987E+01 -0.14508618748E+02  0.34222959321E+02  0.00000000000E+00 0.  1.
</event>
<event>
 7    1  0.3050261E-013  0.7246161E+02  0.7816164E-02  0.1226708E+00
        -11   -1    0    0    0    0  0.00000000000E+00  0.00000000000E+00  0.45593999997E+02  0.45594000000E+02  0.51100000000E-03 0.  1.
         11   -1    0    0    0    0 -0.00000000000E+00 -0.00000000000E+00 -0.45593999997E+02  0.45594000000E+02  0.51100000000E-03 0. -1.
    9900012    2    1    2    0    0 -0.48133721851E+01 -0.16324575460E+02 -0.78113520870E+01  0.72461613879E+02  0.70000056776E+02 0.  0.
         12    1    1    2    0    0  0.48133721851E+01  0.16324575460E+02  0.78113520870E+01  0.18726386121E+02  0.00000000000E+00 0. -1.
         11    1    3    3    0    0  0.16815043139E+02 -0.21287771601E+02  0.32995870110E+01  0.27327681391E+02  0.51100000000E-03 0. -1.
        -11    1    3    3    0    0  0.40129567672E+01 -0.71835078220E+01  0.75557351025E+01  0.11171201361E+02  0.51100000000E-03 0.  1.
         12    1    3    3    0    0 -0.25641372091E+02  0.12146703963E+02 -0.18666674200E+02  0.33962731127E+02  0.00000000000E+00 0. -1.
</event>
<event>
 7    1  0.3050261E-013  0.7246219E+02  0.7816164E-02  0.1226706E+00
        -11   -1    0    0    0    0  0.00000000000E+00  0.00000000000E+00  0.45593999997E+02  0.45594000000E+02  0.51100000000E-03 0. -1.
         11   -1    0    0    0    0 -0.00000000000E+00 -0.00000000000E+00 -0.45593999997E+02  0.45594000000E+02  0.51100000000E-03 0.  1.
    9900012    2    1    2    0    0 -0.59206029982E+01 -0.20597300642E+01 -0.17645391955E+02  0.72462192005E+02  0.70000809890E+02 0.  0.
         12    1    1    2    0    0  0.59206029982E+01  0.20597300642E+01  0.17645391955E+02  0.18725807995E+02  0.00000000000E+00 0. -1.
         11    1    3    3    0    0  0.16518676251E+01  0.69182534948E+01 -0.92289127056E+01  0.11651769310E+02  0.51100000000E-03 0. -1.
        -11    1    3    3    0    0 -0.28750638987E+02  0.48695328753E+01 -0.17403057423E+02  0.33958474649E+02  0.51100000000E-03 0.  1.
         12    1    3    3    0    0  0.21178168363E+02 -0.13847516434E+02  0.89865781731E+01  0.26851948046E+02  0.00000000000E+00 0. -1.
</event>
<event>
 7    1  0.3050261E-013  0.7246170E+02  0.7816164E-02  0.1226708E+00
        -11   -1    0    0    0    0  0.00000000000E+00  0.00000000000E+00  0.45593999997E+02  0.45594000000E+02  0.51100000000E-03 0. -1.
         11   -1    0    0    0    0 -0.00000000000E+00 -0.00000000000E+00 -0.45593999997E+02  0.45594000000E+02  0.51100000000E-03 0.  1.
    9900012    2    1    2    0    0  0.12823705848E+02 -0.97319609431E+01 -0.95663969048E+01  0.72461696435E+02  0.70000164321E+02 0.  0.
         12    1    1    2    0    0 -0.12823705848E+02  0.97319609431E+01  0.95663969048E+01  0.18726303565E+02  0.00000000000E+00 0. -1.
         11    1    3    3    0    0 -0.62013450299E+00  0.18976630492E+02 -0.92348242125E+01  0.21113480294E+02  0.51100000000E-03 0. -1.
        -11    1    3    3    0    0  0.21302093480E+01 -0.25403141080E+02 -0.17212820494E+02  0.30759365375E+02  0.51100000000E-03 0.  1.
         12    1    3    3    0    0  0.11313631003E+02 -0.33054503545E+01  0.16881247802E+02  0.20588850766E+02  0.00000000000E+00 0. -1.
</event>
<event>
 7    1  0.3050261E-013  0.7246159E+02  0.7816164E-02  0.1226708E+00
        -11   -1    0    0    0    0  0.00000000000E+00  0.00000000000E+00  0.45593999997E+02  0.45594000000E+02  0.51100000000E-03 0.  1.
         11   -1    0    0    0    0 -0.00000000000E+00 -0.00000000000E+00 -0.45593999997E+02  0.45594000000E+02  0.51100000000E-03 0. -1.
    9900012    2    1    2    0    0 -0.33580672053E+01  0.13334601404E+02  0.12711812959E+02  0.72461590877E+02  0.70000026812E+02 0.  0.
         12    1    1    2    0    0  0.33580672053E+01 -0.13334601404E+02 -0.12711812959E+02  0.18726409123E+02  0.00000000000E+00 0. -1.
         11    1    3    3    0    0 -0.14059441661E+02 -0.72080954275E+00  0.40063668643E+01  0.14636886347E+02  0.51100000000E-03 0. -1.
        -11    1    3    3    0    0 -0.15085293006E+01  0.18173871746E+02  0.28720097738E+02  0.34020718529E+02  0.51100000000E-03 0.  1.
         12    1    3    3    0    0  0.12209903756E+02 -0.41184607993E+01 -0.20014651644E+02  0.23803986001E+02  0.00000000000E+00 0. -1.
</event>
<event>
 7    1  0.3050261E-013  0.7246158E+02  0.7816164E-02  0.1226708E+00
        -11   -1    0    0    0    0  0.00000000000E+00  0.00000000000E+00  0.45593999997E+02  0.45594000000E+02  0.51100000000E-03 0. -1.
         11   -1    0    0    0    0 -0.00000000000E+00 -0.00000000000E+00 -0.45593999997E+02  0.45594000000E+02  0.51100000000E-03 0.  1.
    9900012    2    1    2    0    0  0.89813334418E+01 -0.58909126466E+01 -0.15339866943E+02  0.72461582296E+02  0.70000015634E+02 0.  0.
         12    1    1    2    0    0 -0.89813334418E+01  0.58909126466E+01  0.15339866943E+02  0.18726417704E+02  0.00000000000E+00 0. -1.
         11    1    3    3    0    0 -0.79947762773E+01 -0.14488772332E+02  0.11191808943E+02  0.19977426238E+02  0.51100000000E-03 0. -1.
        -11    1    3    3    0    0 -0.77351530521E+01  0.17225991341E+02 -0.85509063808E+01  0.20728853577E+02  0.51100000000E-03 0.  1.
        -12    1    3    3    0    0  0.24711262771E+02 -0.86281316559E+01 -0.17980769506E+02  0.31755302481E+02  0.00000000000E+00 0.  1.
</event>
<event>
 7    1  0.3050261E-013  0.7246156E+02  0.7816164E-02  0.1226708E+00
        -11   -1    0    0    0    0  0.00000000000E+00  0.00000000000E+00  0.45593999997E+02  0.45594000000E+02  0.51100000000E-03 0.  1.
         11   -1    0    0    0    0 -0.00000000000E+00 -0.00000000000E+00 -0.45593999997E+02  0.45594000000E+02  0.51100000000E-03 0. -1.
    9900012    2    1    2    0    0  0.13202269584E+02 -0.49871118886E+01  0.12308871395E+02  0.72461560878E+02  0.69999987733E+02 0.  0.
         12    1    1    2    0    0 -0.13202269584E+02  0.49871118886E+01 -0.12308871395E+02  0.18726439122E+02  0.00000000000E+00 0. -1.
         11    1    3    3    0    0  0.77963743484E+01 -0.13478405978E+02  0.88609168217E+01  0.17915544308E+02  0.51100000000E-03 0. -1.
        -11    1    3    3    0    0 -0.15668151002E+02 -0.14214602470E+02  0.91461321810E+01  0.23047724689E+02  0.51100000000E-03 0.  1.
         12    1    3    3    0    0  0.21074046238E+02  0.22705896559E+02 -0.56981776075E+01  0.31498291881E+02  0.00000000000E+00 0. -1.
</event>
<event>
 7    1  0.3050261E-013  0.7246158E+02  0.7816164E-02  0.1226708E+00
        -11   -1    0    0    0    0  0.00000000000E+00  0.00000000000E+00  0.45593999997E+02  0.45594000000E+02  0.51100000000E-03 0.  1.
         11   -1    0    0    0    0 -0.00000000000E+00 -0.00000000000E+00 -0.45593999997E+02  0.45594000000E+02  0.51100000000E-03 0. -1.
    9900012    2    1    2    0    0 -0.15202857880E+02  0.10543444662E+02  0.28961505215E+01  0.72461580136E+02  0.70000012821E+02 0.  0.
         12    1    1    2    0    0  0.15202857880E+02 -0.10543444662E+02 -0.28961505215E+01  0.18726419864E+02  0.00000000000E+00 0. -1.
         11    1    3    3    0    0 -0.17084953111E+02  0.15798363330E+02 -0.12409033550E+02  0.26371727676E+02  0.51100000000E-03 0.  1.
        -11    1    3    3    0    0  0.12535476938E+02  0.15317740250E+02  0.10587536240E+02  0.22446988045E+02  0.51100000000E-03 0. -1.
         12    1    3    3    0    0 -0.10653381707E+02 -0.20572658917E+02  0.47176478314E+01  0.23642864416E+02  0.00000000000E+00 0. -1.
</event>
<event>
 7    1  0.3050261E-013  0.7246156E+02  0.7816164E-02  0.1226708E+00
        -11   -1    0    0    0    0  0.00000000000E+00  0.00000000000E+00  0.45593999997E+02  0.45594000000E+02  0.51100000000E-03 0.  1.
         11   -1    0    0    0    0 -0.00000000000E+00 -0.00000000000E+00 -0.45593999997E+02  0.45594000000E+02  0.51100000000E-03 0. -1.
    9900012    2    1    2    0    0  0.60209746610E+01  0.15529257214E+02  0.85597582780E+01  0.72461563412E+02  0.69999991035E+02 0.  0.
         12    1    1    2    0    0 -0.60209746610E+01 -0.15529257214E+02 -0.85597582780E+01  0.18726436588E+02  0.00000000000E+00 0. -1.
         11    1    3    3    0    0 -0.80627183190E+01 -0.59437675504E+01  0.18855317479E+02  0.21350850027E+02  0.51100000000E-03 0. -1.
        -11    1    3    3    0    0 -0.98650739344E+01 -0.74292118343E+01 -0.70477910490E+00  0.12369704364E+02  0.51100000000E-03 0.  1.
        -12    1    3    3    0    0  0.23948766914E+02  0.28902236599E+02 -0.95907800957E+01  0.38741009021E+02  0.00000000000E+00 0.  1.
</event>
<event>
 7    1  0.3050261E-013  0.7246156E+02  0.7816164E-02  0.1226708E+00
        -11   -1    0    0    0    0  0.00000000000E+00  0.00000000000E+00  0.45593999997E+02  0.45594000000E+02  0.51100000000E-03 0. -1.
         11   -1    0    0    0    0 -0.00000000000E+00 -0.00000000000E+00 -0.45593999997E+02  0.45594000000E+02  0.51100000000E-03 0.  1.
    9900012    2    1    2    0    0  0.18195169847E+02 -0.44155959192E+01  0.34317281966E+00  0.72461562521E+02  0.69999989873E+02 0.  0.
         12    1    1    2    0    0 -0.18195169847E+02  0.44155959192E+01 -0.34317281966E+00  0.18726437479E+02  0.00000000000E+00 0. -1.
         11    1    3    3    0    0 -0.17183453958E+01 -0.19291260928E+02  0.47886449874E+01  0.19950854121E+02  0.51100000000E-03 0. -1.
        -11    1    3    3    0    0  0.24532754649E+02 -0.97134808342E+01  0.26130449686E+01  0.26514821607E+02  0.51100000000E-03 0.  1.
         12    1    3    3    0    0 -0.46192394066E+01  0.24589145843E+02 -0.70585171364E+01  0.25995886793E+02  0.00000000000E+00 0. -1.
</event>
<event>
 7    1  0.3050261E-013  0.7246163E+02  0.7816164E-02  0.1226708E+00
        -11   -1    0    0    0    0  0.00000000000E+00  0.00000000000E+00  0.45593999997E+02  0.45594000000E+02  0.51100000000E-03 0. -1.
         11   -1    0    0    0    0 -0.00000000000E+00 -0.00000000000E+00 -0.45593999997E+02  0.45594000000E+02  0.51100000000E-03 0.  1.
    9900012    2    1    2    0    0  0.15443506832E+01 -0.15199107307E+02 -0.10829544323E+02  0.72461630565E+02  0.70000078514E+02 0.  0.
         12    1    1    2    0    0 -0.15443506832E+01  0.15199107307E+02  0.10829544323E+02  0.18726369435E+02  0.00000000000E+00 0. -1.
         11    1    3    3    0    0  0.12718722223E+02 -0.36791718239E+02 -0.12844225783E+02  0.40992323210E+02  0.51100000000E-03 0. -1.
        -11    1    3    3    0    0  0.41005160861E+01 -0.28136144103E-01 -0.22161006007E+01  0.46611292568E+01  0.51100000000E-03 0.  1.
        -12    1    3    3    0    0 -0.15274887626E+02  0.21620747076E+02  0.42307820610E+01  0.26808178098E+02  0.00000000000E+00 0.  1.
</event>
<event>
 7    1  0.3050261E-013  0.7246158E+02  0.7816164E-02  0.1226708E+00
        -11   -1    0    0    0    0  0.00000000000E+00  0.00000000000E+00  0.45593999997E+02  0.45594000000E+02  0.51100000000E-03 0. -1.
         11   -1    0    0    0    0 -0.00000000000E+00 -0.00000000000E+00 -0.45593999997E+02  0.45594000000E+02  0.51100000000E-03 0.  1.
    9900012    2    1    2    0    0 -0.89821481690E+01 -0.16002136758E+02  0.37325051744E+01  0.72461575850E+02  0.70000007238E+02 0.  0.
         12    1    1    2    0    0  0.89821481690E+01  0.16002136758E+02 -0.37325051744E+01  0.18726424150E+02  0.00000000000E+00 0. -1.
         11    1    3    3    0    0 -0.22417308244E+02 -0.28398274367E+02 -0.47894922104E+01  0.36495711143E+02  0.51100000000E-03 0. -1.
        -11    1    3    3    0    0 -0.94832050512E+00 -0.89323476268E+01  0.40988864603E+00  0.89918938423E+01  0.51100000000E-03 0.  1.
         12    1    3    3    0    0  0.14383480580E+02  0.21328485236E+02  0.81121087387E+01  0.26973970865E+02  0.00000000000E+00 0. -1.
</event>
<event>
 7    1  0.3050261E-013  0.7246156E+02  0.7816164E-02  0.1226708E+00
        -11   -1    0    0    0    0  0.00000000000E+00  0.00000000000E+00  0.45593999997E+02  0.45594000000E+02  0.51100000000E-03 0. -1.
         11   -1    0    0    0    0 -0.00000000000E+00 -0.00000000000E+00 -0.45593999997E+02  0.45594000000E+02  0.51100000000E-03 0.  1.
    9900012    2    1    2    0    0 -0.15035160141E+02 -0.73689749858E+01  0.83858040098E+01  0.72461560357E+02  0.69999987055E+02 0.  0.
         12    1    1    2    0    0  0.15035160141E+02  0.73689749858E+01 -0.83858040098E+01  0.18726439643E+02  0.00000000000E+00 0. -1.
         11    1    3    3    0    0 -0.15853091856E+02 -0.13536856434E+02  0.20339205004E+01  0.20945258088E+02  0.51100000000E-03 0. -1.
        -11    1    3    3    0    0 -0.15905327138E+02 -0.20101844776E+01 -0.15848926381E+02  0.22543485549E+02  0.51100000000E-03 0.  1.
         12    1    3    3    0    0  0.16723258853E+02  0.81780659253E+01  0.22200809890E+02  0.28972816721E+02  0.00000000000E+00 0. -1.
</event>
<event>
 7    1  0.3050261E-013  0.7246157E+02  0.7816164E-02  0.1226708E+00
        -11   -1    0    0    0    0  0.00000000000E+00  0.00000000000E+00  0.45593999997E+02  0.45594000000E+02  0.51100000000E-03 0.  1.
         11   -1    0    0    0    0 -0.00000000000E+00 -0.00000000000E+00 -0.45593999997E+02  0.45594000000E+02  0.51100000000E-03 0. -1.
    9900012    2    1    2    0    0  0.18362448738E+02  0.36707926074E+01  0.15733936165E+00  0.72461574882E+02  0.70000005977E+02 0.  0.
         12    1    1    2    0    0 -0.18362448738E+02 -0.36707926074E+01 -0.15733936165E+00  0.18726425118E+02  0.00000000000E+00 0. -1.
         11    1    3    3    0    0  0.45384947940E+01 -0.21437466518E+01 -0.19185671269E+02  0.19831378344E+02  0.51100000000E-03 0. -1.
        -11    1    3    3    0    0 -0.16878948863E+02  0.64554441676E+01  0.50915161204E+01  0.18774855813E+02  0.51100000000E-03 0.  1.
         12    1    3    3    0    0  0.30702902807E+02 -0.64090490842E+00  0.14251494511E+02  0.33855340726E+02  0.00000000000E+00 0. -1.
</event>
<event>
 7    1  0.3050261E-013  0.7246161E+02  0.7816164E-02  0.1226708E+00
        -11   -1    0    0    0    0  0.00000000000E+00  0.00000000000E+00  0.45593999997E+02  0.45594000000E+02  0.51100000000E-03 0. -1.
         11   -1    0    0    0    0 -0.00000000000E+00 -0.00000000000E+00 -0.45593999997E+02  0.45594000000E+02  0.51100000000E-03 0.  1.
    9900012    2    1    2    0    0 -0.10125817761E+02  0.13658939670E+02  0.78472267142E+01  0.72461607253E+02  0.70000048145E+02 0.  0.
         12    1    1    2    0    0  0.10125817761E+02 -0.13658939670E+02 -0.78472267142E+01  0.18726392747E+02  0.00000000000E+00 0. -1.
         11    1    3    3    0    0  0.58159257456E+01 -0.12475922044E+01 -0.18629785982E+02  0.19556339243E+02  0.51100000000E-03 0. -1.
        -11    1    3    3    0    0 -0.45232737164E+01 -0.91142917795E+01 -0.52951565890E+01  0.11470353234E+02  0.51100000000E-03 0.  1.
         12    1    3    3    0    0 -0.11418469790E+02  0.24020823654E+02  0.31772169285E+02  0.41434914775E+02  0.00000000000E+00 0. -1.
</event>
<event>
 7    1  0.3050261E-013  0.7246159E+02  0.7816164E-02  0.1226708E+00
        -11   -1    0    0    0    0  0.00000000000E+00  0.00000000000E+00  0.45593999997E+02  0.45594000000E+02  0.51100000000E-03 0.  1.
         11   -1    0    0    0    0 -0.00000000000E+00 -0.00000000000E+00 -0.45593999997E+02  0.45594000000E+02  0.51100000000E-03 0. -1.
    9900012    2    1    2    0    0 -0.38388254002E+01 -0.17573157762E+01  0.18244273913E+02  0.72461594317E+02  0.70000031294E+02 0.  0.
         12    1    1    2    0    0  0.38388254002E+01  0.17573157762E+01 -0.18244273913E+02  0.18726405683E+02  0.00000000000E+00 0. -1.
         11    1    3    3    0    0  0.79127463381E+00  0.76473283680E+00 -0.52544910459E+01  0.53684828649E+01  0.51100000000E-03 0. -1.
        -11    1    3    3    0    0  0.14450934844E+02  0.23884868649E+02  0.18512325364E+01  0.27977554046E+02  0.51100000000E-03 0.  1.
         12    1    3    3    0    0 -0.19081034878E+02 -0.26406917261E+02  0.21647532422E+02  0.39115557407E+02  0.00000000000E+00 0. -1.
</event>
<event>
 7    1  0.3050261E-013  0.7246161E+02  0.7816164E-02  0.1226708E+00
        -11   -1    0    0    0    0  0.00000000000E+00  0.00000000000E+00  0.45593999997E+02  0.45594000000E+02  0.51100000000E-03 0.  1.
         11   -1    0    0    0    0 -0.00000000000E+00 -0.00000000000E+00 -0.45593999997E+02  0.45594000000E+02  0.51100000000E-03 0. -1.
    9900012    2    1    2    0    0  0.98701895389E+00 -0.46218574322E+01  0.18120211766E+02  0.72461605606E+02  0.70000046000E+02 0.  0.
         12    1    1    2    0    0 -0.98701895389E+00  0.46218574322E+01 -0.18120211766E+02  0.18726394394E+02  0.00000000000E+00 0. -1.
         11    1    3    3    0    0  0.68666403835E+01 -0.20179436485E+02  0.16706358830E+01  0.21381099867E+02  0.51100000000E-03 0. -1.
        -11    1    3    3    0    0  0.43091847073E+01 -0.70985171455E+01  0.23773153064E+02  0.25181755804E+02  0.51100000000E-03 0.  1.
         12    1    3    3    0    0 -0.10188806137E+02  0.22656096199E+02 -0.73235771814E+01  0.25898749935E+02  0.00000000000E+00 0. -1.
</event>
<event>
 7    1  0.3050261E-013  0.7246156E+02  0.7816164E-02  0.1226708E+00
        -11   -1    0    0    0    0  0.00000000000E+00  0.00000000000E+00  0.45593999997E+02  0.45594000000E+02  0.51100000000E-03 0.  1.
         11   -1    0    0    0    0 -0.00000000000E+00 -0.00000000000E+00 -0.45593999997E+02  0.45594000000E+02  0.51100000000E-03 0. -1.
    9900012    2    1    2    0    0 -0.82595846718E+01  0.29550631422E+01  0.16544680682E+02  0.72461558908E+02  0.69999985167E+02 0.  0.
         12    1    1    2    0    0  0.82595846718E+01 -0.29550631422E+01 -0.16544680682E+02  0.18726441092E+02  0.00000000000E+00 0. -1.
         11    1    3    3    0    0 -0.14625783016E+02 -0.21851736860E+02  0.24725946967E+02  0.36094104592E+02  0.51100000000E-03 0. -1.
        -11    1    3    3    0    0  0.51420751171E+01 -0.38959656012E+01 -0.32311626483E+01  0.72152544513E+01  0.51100000000E-03 0.  1.
        -12    1    3    3    0    0  0.12241232268E+01  0.28702765603E+02 -0.49501036369E+01  0.29152199865E+02  0.00000000000E+00 0.  1.
</event>
<event>
 7    1  0.3050261E-013  0.7246157E+02  0.7816164E-02  0.1226708E+00
        -11   -1    0    0    0    0  0.00000000000E+00  0.00000000000E+00  0.45593999997E+02  0.45594000000E+02  0.51100000000E-03 0.  1.
         11   -1    0    0    0    0 -0.00000000000E+00 -0.00000000000E+00 -0.45593999997E+02  0.45594000000E+02  0.51100000000E-03 0. -1.
    9900012    2    1    2    0    0 -0.84975530160E+01  0.14688784837E+02  0.79189973218E+01  0.72461566121E+02  0.69999994563E+02 0.  0.
         12    1    1    2    0    0  0.84975530160E+01 -0.14688784837E+02 -0.79189973218E+01  0.18726433879E+02  0.00000000000E+00 0. -1.
         11    1    3    3    0    0 -0.52634318855E+01  0.13494417175E+02 -0.13200898523E+01  0.14544608884E+02  0.51100000000E-03 0. -1.
        -11    1    3    3    0    0 -0.29709576458E+02  0.52149947374E+01  0.74960818440E+01  0.31081286117E+02  0.51100000000E-03 0.  1.
        -12    1    3    3    0    0  0.26475455328E+02 -0.40206270750E+01  0.17430053301E+01  0.26835671120E+02  0.00000000000E+00 0.  1.
</event>
<event>
 7    1  0.3050261E-013  0.7246151E+02  0.7816164E-02  0.1226708E+00
        -11   -1    0    0    0    0  0.00000000000E+00  0.00000000000E+00  0.45593999997E+02  0.45594000000E+02  0.51100000000E-03 0.  1.
         11   -1    0    0    0    0 -0.00000000000E+00 -0.00000000000E+00 -0.45593999997E+02  0.45594000000E+02  0.51100000000E-03 0. -1.
    9900012    2    1    2    0    0  0.10631836004E+02 -0.27791186976E+00  0.15413253311E+02  0.72461506750E+02  0.69999917221E+02 0.  0.
         12    1    1    2    0    0 -0.10631836004E+02  0.27791186976E+00 -0.15413253311E+02  0.18726493250E+02  0.00000000000E+00 0. -1.
         11    1    3    3    0    0 -0.10195720345E+02  0.15935320765E+02 -0.67696956553E+01  0.20092683762E+02  0.51100000000E-03 0. -1.
        -11    1    3    3    0    0 -0.22324025989E+01  0.11263717544E+02  0.67390155476E+01  0.13314251203E+02  0.51100000000E-03 0.  1.
        -12    1    3    3    0    0  0.23059958948E+02 -0.27476950179E+02  0.15443933419E+02  0.39054571785E+02  0.00000000000E+00 0.  1.
</event>
<event>
 7    1  0.3050261E-013  0.7246163E+02  0.7816164E-02  0.1226708E+00
        -11   -1    0    0    0    0  0.00000000000E+00  0.00000000000E+00  0.45593999997E+02  0.45594000000E+02  0.51100000000E-03 0. -1.
         11   -1    0    0    0    0 -0.00000000000E+00 -0.00000000000E+00 -0.45593999997E+02  0.45594000000E+02  0.51100000000E-03 0.  1.
    9900012    2    1    2    0    0 -0.93288834270E+01  0.74087710793E+01 -0.14448496237E+02  0.72461628264E+02  0.70000075516E+02 0.  0.
         12    1    1    2    0    0  0.93288834270E+01 -0.74087710793E+01  0.14448496237E+02  0.18726371736E+02  0.00000000000E+00 0. -1.
         11    1    3    3    0    0 -0.13996909333E+02 -0.13553932019E+02 -0.18108946595E+02  0.26599934043E+02  0.51100000000E-03 0. -1.
        -11    1    3    3    0    0  0.19790018702E+01 -0.92285431003E+01 -0.89735241139E+01  0.13023309542E+02  0.51100000000E-03 0.  1.
        -12    1    3    3    0    0  0.26890240354E+01  0.30191246199E+02  0.12633974472E+02  0.32838384678E+02  0.00000000000E+00 0.  1.
</event>
<event>
 7    1  0.3050261E-013  0.7246156E+02  0.7816164E-02  0.1226708E+00
        -11   -1    0    0    0    0  0.00000000000E+00  0.00000000000E+00  0.45593999997E+02  0.45594000000E+02  0.51100000000E-03 0. -1.
         11   -1    0    0    0    0 -0.00000000000E+00 -0.00000000000E+00 -0.45593999997E+02  0.45594000000E+02  0.51100000000E-03 0.  1.
    9900012    2    1    2    0    0  0.14973500392E+02  0.64932067346E+00 -0.11227304996E+02  0.72461555895E+02  0.69999981243E+02 0.  0.
         12    1    1    2    0    0 -0.14973500392E+02 -0.64932067346E+00  0.11227304996E+02  0.18726444105E+02  0.00000000000E+00 0. -1.
         11    1    3    3    0    0  0.75157838509E+01  0.12052642495E+02  0.20750065029E+02  0.25145941959E+02  0.51100000000E-03 0. -1.
        -11    1    3    3    0    0 -0.90543556608E+01  0.58563087353E+01 -0.76429961293E+01  0.13217151680E+02  0.51100000000E-03 0.  1.
        -12    1    3    3    0    0  0.16512072202E+02 -0.17259630556E+02 -0.24334373896E+02  0.34098462257E+02  0.00000000000E+00 0.  1.
</event>
<event>
 7    1  0.3050261E-013  0.7246153E+02  0.7816164E-02  0.1226708E+00
        -11   -1    0    0    0    0  0.00000000000E+00  0.00000000000E+00  0.45593999997E+02  0.45594000000E+02  0.51100000000E-03 0.  1.
         11   -1    0    0    0    0 -0.00000000000E+00 -0.00000000000E+00 -0.45593999997E+02  0.45594000000E+02  0.51100000000E-03 0. -1.
    9900012    2    1    2    0    0  0.16739832223E+02 -0.75528013135E+01 -0.36624988157E+01  0.72461529748E+02  0.69999947180E+02 0.  0.
         12    1    1    2    0    0 -0.16739832223E+02  0.75528013135E+01  0.36624988157E+01  0.18726470252E+02  0.00000000000E+00 0. -1.
         11    1    3    3    0    0 -0.14359024993E+02  0.57497938806E+01 -0.79715353985E+01  0.17400778870E+02  0.51100000000E-03 0. -1.
        -11    1    3    3    0    0 -0.92718903121E+01  0.29471570344E+00  0.80705713143E+01  0.12295890733E+02  0.51100000000E-03 0.  1.
        -12    1    3    3    0    0  0.40370747528E+02 -0.13597310898E+02 -0.37615347315E+01  0.42764860145E+02  0.00000000000E+00 0.  1.
</event>
<event>
 7    1  0.3050261E-013  0.7246163E+02  0.7816164E-02  0.1226708E+00
        -11   -1    0    0    0    0  0.00000000000E+00  0.00000000000E+00  0.45593999997E+02  0.45594000000E+02  0.51100000000E-03 0. -1.
         11   -1    0    0    0    0 -0.00000000000E+00 -0.00000000000E+00 -0.45593999997E+02  0.45594000000E+02  0.51100000000E-03 0.  1.
    9900012    2    1    2    0    0  0.78011960381E+01 -0.74479350588E+01 -0.15308384704E+02  0.72461627193E+02  0.70000074121E+02 0.  0.
         12    1    1    2    0    0 -0.78011960381E+01  0.74479350588E+01  0.15308384704E+02  0.18726372807E+02  0.00000000000E+00 0. -1.
         11    1    3    3    0    0 -0.44947266080E+00 -0.61671739040E+01  0.18870531468E+02  0.19857820066E+02  0.51100000000E-03 0. -1.
        -11    1    3    3    0    0 -0.52985402754E+01  0.16328510186E+02 -0.10453603732E+02  0.20099069759E+02  0.51100000000E-03 0.  1.
        -12    1    3    3    0    0  0.13549208974E+02 -0.17609271341E+02 -0.23725312440E+02  0.32504737368E+02  0.00000000000E+00 0.  1.
</event>
<event>
 7    1  0.3050261E-013  0.7246177E+02  0.7816164E-02  0.1226707E+00
        -11   -1    0    0    0    0  0.00000000000E+00  0.00000000000E+00  0.45593999997E+02  0.45594000000E+02  0.51100000000E-03 0. -1.
         11   -1    0    0    0    0 -0.00000000000E+00 -0.00000000000E+00 -0.45593999997E+02  0.45594000000E+02  0.51100000000E-03 0.  1.
    9900012    2    1    2    0    0  0.82719659396E+01 -0.14899330198E+02 -0.77624957624E+01  0.72461767028E+02  0.70000256282E+02 0.  0.
         12    1    1    2    0    0 -0.82719659396E+01  0.14899330198E+02  0.77624957624E+01  0.18726232972E+02  0.00000000000E+00 0. -1.
         11    1    3    3    0    0  0.23874929841E+02 -0.84960237991E+01  0.10509536086E+02  0.27434377053E+02  0.51100000000E-03 0.  1.
        -11    1    3    3    0    0  0.86321385119E+01  0.88104447849E+01 -0.34820436163E+01  0.12816488622E+02  0.51100000000E-03 0. -1.
         12    1    3    3    0    0 -0.24235102413E+02 -0.15213751184E+02 -0.14789988232E+02  0.32210901353E+02  0.00000000000E+00 0. -1.
</event>
<event>
 7    1  0.3050261E-013  0.7246157E+02  0.7816164E-02  0.1226708E+00
        -11   -1    0    0    0    0  0.00000000000E+00  0.00000000000E+00  0.45593999997E+02  0.45594000000E+02  0.51100000000E-03 0.  1.
         11   -1    0    0    0    0 -0.00000000000E+00 -0.00000000000E+00 -0.45593999997E+02  0.45594000000E+02  0.51100000000E-03 0. -1.
    9900012    2    1    2    0    0 -0.14793943324E+02 -0.10060381603E+02 -0.55323588991E+01  0.72461573965E+02  0.70000004781E+02 0.  0.
         12    1    1    2    0    0  0.14793943324E+02  0.10060381603E+02  0.55323588991E+01  0.18726426035E+02  0.00000000000E+00 0. -1.
         11    1    3    3    0    0  0.15215645745E+02  0.13504284936E+02 -0.22319190707E+02  0.30199799025E+02  0.51100000000E-03 0. -1.
        -11    1    3    3    0    0 -0.41005889395E+01 -0.60321453790E+01  0.15155052035E+01  0.74497223980E+01  0.51100000000E-03 0.  1.
        -12    1    3    3    0    0 -0.25909000129E+02 -0.17532521160E+02  0.15271326604E+02  0.34812052542E+02  0.00000000000E+00 0.  1.
</event>
<event>
 7    1  0.3050261E-013  0.7246158E+02  0.7816164E-02  0.1226708E+00
        -11   -1    0    0    0    0  0.00000000000E+00  0.00000000000E+00  0.45593999997E+02  0.45594000000E+02  0.51100000000E-03 0.  1.
         11   -1    0    0    0    0 -0.00000000000E+00 -0.00000000000E+00 -0.45593999997E+02  0.45594000000E+02  0.51100000000E-03 0. -1.
    9900012    2    1    2    0    0  0.17029153756E+02 -0.63868518553E+00  0.77639448463E+01  0.72461579200E+02  0.70000011601E+02 0.  0.
         12    1    1    2    0    0 -0.17029153756E+02  0.63868518553E+00 -0.77639448463E+01  0.18726420800E+02  0.00000000000E+00 0. -1.
         11    1    3    3    0    0  0.57491604742E+01  0.69055152441E+01 -0.62246863024E+01  0.10930951778E+02  0.51100000000E-03 0. -1.
        -11    1    3    3    0    0  0.19966278441E+02  0.16602681879E+01 -0.18122499243E+02  0.27015435297E+02  0.51100000000E-03 0.  1.
         12    1    3    3    0    0 -0.86862851587E+01 -0.92044686175E+01  0.32111130391E+02  0.34515192125E+02  0.00000000000E+00 0. -1.
</event>
<event>
 7    1  0.3050261E-013  0.7246156E+02  0.7816164E-02  0.1226708E+00
        -11   -1    0    0    0    0  0.00000000000E+00  0.00000000000E+00  0.45593999997E+02  0.45594000000E+02  0.51100000000E-03 0.  1.
         11   -1    0    0    0    0 -0.00000000000E+00 -0.00000000000E+00 -0.45593999997E+02  0.45594000000E+02  0.51100000000E-03 0. -1.
    9900012    2    1    2    0    0 -0.76617133004E+01 -0.11064788766E+02  0.13021065041E+02  0.72461560511E+02  0.69999987256E+02 0.  0.
         12    1    1    2    0    0  0.76617133004E+01  0.11064788766E+02 -0.13021065041E+02  0.18726439489E+02  0.00000000000E+00 0. -1.
         11    1    3    3    0    0 -0.35438661632E+01  0.16698771776E+02 -0.69947300375E+01  0.18448149359E+02  0.51100000000E-03 0. -1.
        -11    1    3    3    0    0  0.92420123370E+00  0.13108543453E+01 -0.11050617250E+02  0.11166406266E+02  0.51100000000E-03 0.  1.
        -12    1    3    3    0    0 -0.50420483709E+01 -0.29074414887E+02  0.31066412328E+02  0.42847004886E+02  0.00000000000E+00 0.  1.
</event>
<event>
 7    1  0.3050261E-013  0.7246207E+02  0.7816164E-02  0.1226707E+00
        -11   -1    0    0    0    0  0.00000000000E+00  0.00000000000E+00  0.45593999997E+02  0.45594000000E+02  0.51100000000E-03 0.  1.
         11   -1    0    0    0    0 -0.00000000000E+00 -0.00000000000E+00 -0.45593999997E+02  0.45594000000E+02  0.51100000000E-03 0. -1.
    9900012    2    1    2    0    0  0.40993805814E+01 -0.62118121699E+01  0.17183388599E+02  0.72462072110E+02  0.70000653705E+02 0.  0.
         12    1    1    2    0    0 -0.40993805814E+01  0.62118121699E+01 -0.17183388599E+02  0.18725927890E+02  0.00000000000E+00 0. -1.
         11    1    3    3    0    0 -0.11414082446E+02 -0.27971969100E+02  0.12102273719E+02  0.32545005191E+02  0.51100000000E-03 0. -1.
        -11    1    3    3    0    0 -0.36348387451E+01  0.96450483227E+00  0.10482814359E+02  0.11136952879E+02  0.51100000000E-03 0.  1.
        -12    1    3    3    0    0  0.19148301772E+02  0.20795652098E+02 -0.54016994782E+01  0.28780114041E+02  0.00000000000E+00 0.  1.
</event>
<event>
 7    1  0.3050261E-013  0.7246162E+02  0.7816164E-02  0.1226708E+00
        -11   -1    0    0    0    0  0.00000000000E+00  0.00000000000E+00  0.45593999997E+02  0.45594000000E+02  0.51100000000E-03 0. -1.
         11   -1    0    0    0    0 -0.00000000000E+00 -0.00000000000E+00 -0.45593999997E+02  0.45594000000E+02  0.51100000000E-03 0.  1.
    9900012    2    1    2    0    0  0.74786197571E+01  0.11208028729E+02 -0.13004914980E+02  0.72461615535E+02  0.70000058935E+02 0.  0.
         12    1    1    2    0    0 -0.74786197571E+01 -0.11208028729E+02  0.13004914980E+02  0.18726384465E+02  0.00000000000E+00 0. -1.
         11    1    3    3    0    0 -0.20721784728E+02  0.66968921086E+01 -0.24514039760E+02  0.32789920278E+02  0.51100000000E-03 0. -1.
        -11    1    3    3    0    0 -0.36226395974E+01 -0.27895135798E+01 -0.10474840729E+01  0.46906424729E+01  0.51100000000E-03 0.  1.
         12    1    3    3    0    0  0.31823044083E+02  0.73006502004E+01  0.12556608853E+02  0.34981052784E+02  0.00000000000E+00 0. -1.
</event>
<event>
 7    1  0.3050261E-013  0.7246160E+02  0.7816164E-02  0.1226708E+00
        -11   -1    0    0    0    0  0.00000000000E+00  0.00000000000E+00  0.45593999997E+02  0.45594000000E+02  0.51100000000E-03 0. -1.
         11   -1    0    0    0    0 -0.00000000000E+00 -0.00000000000E+00 -0.45593999997E+02  0.45594000000E+02  0.51100000000E-03 0.  1.
    9900012    2    1    2    0    0 -0.85845012249E+01  0.10144695932E+02 -0.13193534518E+02  0.72461604994E+02  0.70000045203E+02 0.  0.
         12    1    1    2    0    0  0.85845012249E+01 -0.10144695932E+02  0.13193534518E+02  0.18726395006E+02  0.00000000000E+00 0. -1.
         11    1    3    3    0    0  0.13150830376E+02  0.18501236426E+01 -0.91910307974E+01  0.16150614367E+02  0.51100000000E-03 0. -1.
        -11    1    3    3    0    0  0.83290899010E+01 -0.15418155397E+02 -0.41983962457E+01  0.18019982956E+02  0.51100000000E-03 0.  1.
         12    1    3    3    0    0 -0.30064421502E+02  0.23712727687E+02  0.19589252520E+00  0.38291007671E+02  0.00000000000E+00 0. -1.
</event>
<event>
 7    1  0.3050261E-013  0.7246155E+02  0.7816164E-02  0.1226708E+00
        -11   -1    0    0    0    0  0.00000000000E+00  0.00000000000E+00  0.45593999997E+02  0.45594000000E+02  0.51100000000E-03 0.  1.
         11   -1    0    0    0    0 -0.00000000000E+00 -0.00000000000E+00 -0.45593999997E+02  0.45594000000E+02  0.51100000000E-03 0. -1.
    9900012    2    1    2    0    0 -0.46569528190E+01 -0.12751777680E+02  0.12899025880E+02  0.72461550464E+02  0.69999974167E+02 0.  0.
         12    1    1    2    0    0  0.46569528190E+01  0.12751777680E+02 -0.12899025880E+02  0.18726449536E+02  0.00000000000E+00 0. -1.
         11    1    3    3    0    0 -0.18605986297E+01 -0.29355443234E+01 -0.99377096446E+00  0.36148068726E+01  0.51100000000E-03 0. -1.
        -11    1    3    3    0    0 -0.23885400413E+02 -0.18994640908E+02  0.28372130855E+02  0.41668771828E+02  0.51100000000E-03 0.  1.
         12    1    3    3    0    0  0.21089046224E+02  0.91784075515E+01 -0.14479334010E+02  0.27177971764E+02  0.00000000000E+00 0. -1.
</event>
<event>
 7    1  0.3050261E-013  0.7246158E+02  0.7816164E-02  0.1226708E+00
        -11   -1    0    0    0    0  0.00000000000E+00  0.00000000000E+00  0.45593999997E+02  0.45594000000E+02  0.51100000000E-03 0. -1.
         11   -1    0    0    0    0 -0.00000000000E+00 -0.00000000000E+00 -0.45593999997E+02  0.45594000000E+02  0.51100000000E-03 0.  1.
    9900012    2    1    2    0    0 -0.63896897658E+00 -0.18652901939E+02  0.15296692189E+01  0.72461576956E+02  0.70000008679E+02 0.  0.
         12    1    1    2    0    0  0.63896897658E+00  0.18652901939E+02 -0.15296692189E+01  0.18726423044E+02  0.00000000000E+00 0. -1.
         11    1    3    3    0    0 -0.34161369184E+01  0.50732456192E+01 -0.12933317740E+01  0.62514414255E+01  0.51100000000E-03 0. -1.
        -11    1    3    3    0    0 -0.25858348351E+02 -0.15372083775E+02  0.15450468018E+02  0.33818221439E+02  0.51100000000E-03 0.  1.
         12    1    3    3    0    0  0.28635516293E+02 -0.83540637830E+01 -0.12627467025E+02  0.32391914092E+02  0.00000000000E+00 0. -1.
</event>
<event>
 7    1  0.3050261E-013  0.7246179E+02  0.7816164E-02  0.1226707E+00
        -11   -1    0    0    0    0  0.00000000000E+00  0.00000000000E+00  0.45593999997E+02  0.45594000000E+02  0.51100000000E-03 0. -1.
         11   -1    0    0    0    0 -0.00000000000E+00 -0.00000000000E+00 -0.45593999997E+02  0.45594000000E+02  0.51100000000E-03 0.  1.
    9900012    2    1    2    0    0 -0.20618105177E+01 -0.18563898852E+02  0.13421797799E+01  0.72461792435E+02  0.70000289379E+02 0.  0.
         12    1    1    2    0    0  0.20618105177E+01  0.18563898852E+02 -0.13421797799E+01  0.18726207565E+02  0.00000000000E+00 0. -1.
         11    1    3    3    0    0  0.85886052968E+00 -0.27628706454E+01  0.22069988388E+01  0.36389476155E+01  0.51100000000E-03 0. -1.
        -11    1    3    3    0    0  0.28504898730E+02 -0.13451164534E+02 -0.14242347748E+02  0.34587679143E+02  0.51100000000E-03 0.  1.
         12    1    3    3    0    0 -0.31425569777E+02 -0.23498636726E+01  0.13377528689E+02  0.34235165677E+02  0.00000000000E+00 0. -1.
</event>
<event>
 7    1  0.3050261E-013  0.7246156E+02  0.7816164E-02  0.1226708E+00
        -11   -1    0    0    0    0  0.00000000000E+00  0.00000000000E+00  0.45593999997E+02  0.45594000000E+02  0.51100000000E-03 0. -1.
         11   -1    0    0    0    0 -0.00000000000E+00 -0.00000000000E+00 -0.45593999997E+02  0.45594000000E+02  0.51100000000E-03 0.  1.
    9900012    2    1    2    0    0 -0.15189609417E+01  0.12371306002E+02 -0.13975800519E+02  0.72461562680E+02  0.69999990081E+02 0.  0.
         12    1    1    2    0    0  0.15189609417E+01 -0.12371306002E+02  0.13975800519E+02  0.18726437320E+02  0.00000000000E+00 0. -1.
         11    1    3    3    0    0  0.33457460746E+01  0.74622754112E+01  0.95476378513E+01  0.12571275190E+02  0.51100000000E-03 0. -1.
        -11    1    3    3    0    0  0.18592235560E+01  0.29279183252E+02 -0.87765298676E+01  0.30622781730E+02  0.51100000000E-03 0.  1.
         12    1    3    3    0    0 -0.67239305723E+01 -0.24370152660E+02 -0.14746908502E+02  0.29267505760E+02  0.00000000000E+00 0. -1.
</event>
<event>
 7    1  0.3050261E-013  0.7246159E+02  0.7816164E-02  0.1226708E+00
        -11   -1    0    0    0    0  0.00000000000E+00  0.00000000000E+00  0.45593999997E+02  0.45594000000E+02  0.51100000000E-03 0.  1.
         11   -1    0    0    0    0 -0.00000000000E+00 -0.00000000000E+00 -0.45593999997E+02  0.45594000000E+02  0.51100000000E-03 0. -1.
    9900012    2    1    2    0    0 -0.86884959755E+01 -0.14217639538E+02  0.85467595006E+01  0.72461592595E+02  0.70000029050E+02 0.  0.
         12    1    1    2    0    0  0.86884959755E+01  0.14217639538E+02 -0.85467595006E+01  0.18726407405E+02  0.00000000000E+00 0. -1.
         11    1    3    3    0    0 -0.74198701342E+01  0.15232384649E+01  0.34623675988E+01  0.83284282959E+01  0.51100000000E-03 0. -1.
        -11    1    3    3    0    0  0.57885369575E+01 -0.83320422998E+01 -0.27852931155E+02  0.29643141925E+02  0.51100000000E-03 0.  1.
        -12    1    3    3    0    0 -0.70571627988E+01 -0.74088357030E+01  0.32937323057E+02  0.34490022374E+02  0.00000000000E+00 0.  1.
</event>
<event>
 7    1  0.3050261E-013  0.7246157E+02  0.7816164E-02  0.1226708E+00
        -11   -1    0    0    0    0  0.00000000000E+00  0.00000000000E+00  0.45593999997E+02  0.45594000000E+02  0.51100000000E-03 0.  1.
         11   -1    0    0    0    0 -0.00000000000E+00 -0.00000000000E+00 -0.45593999997E+02  0.45594000000E+02  0.51100000000E-03 0. -1.
    9900012    2    1    2    0    0  0.16726051522E+02  0.39331244208E+01  0.74463934795E+01  0.72461573671E+02  0.70000004398E+02 0.  0.
         12    1    1    2    0    0 -0.16726051522E+02 -0.39331244208E+01 -0.74463934795E+01  0.18726426329E+02  0.00000000000E+00 0. -1.
         11    1    3    3    0    0  0.17880020612E+02  0.58080277017E+01 -0.84361181332E+01  0.20605737363E+02  0.51100000000E-03 0. -1.
        -11    1    3    3    0    0  0.23933357156E+02  0.15492913483E+01  0.64457907230E+01  0.24834534559E+02  0.51100000000E-03 0.  1.
        -12    1    3    3    0    0 -0.25087326246E+02 -0.34241946291E+01  0.94367208898E+01  0.27021301749E+02  0.00000000000E+00 0.  1.
</event>
<event>
 7    1  0.3050261E-013  0.7246159E+02  0.7816164E-02  0.1226708E+00
        -11   -1    0    0    0    0  0.00000000000E+00  0.00000000000E+00  0.45593999997E+02  0.45594000000E+02  0.51100000000E-03 0. -1.
         11   -1    0    0    0    0 -0.00000000000E+00 -0.00000000000E+00 -0.45593999997E+02  0.45594000000E+02  0.51100000000E-03 0.  1.
    9900012    2    1    2    0    0 -0.11146508755E+02 -0.19404191177E+01 -0.14922084620E+02  0.72461588352E+02  0.70000023524E+02 0.  0.
         12    1    1    2    0    0  0.11146508755E+02  0.19404191177E+01  0.14922084620E+02  0.18726411648E+02  0.00000000000E+00 0. -1.
         11    1    3    3    0    0 -0.35663435373E+02  0.11815844052E+01 -0.10154764819E+00  0.35683148355E+02  0.51100000000E-03 0. -1.
        -11    1    3    3    0    0  0.38218372959E+01  0.60787695831E+01  0.31752587213E+01  0.78511240067E+01  0.51100000000E-03 0.  1.
        -12    1    3    3    0    0  0.20695089322E+02 -0.92007731060E+01 -0.17995795693E+02  0.28927315991E+02  0.00000000000E+00 0.  1.
</event>
<event>
 7    1  0.3050261E-013  0.7246158E+02  0.7816164E-02  0.1226708E+00
        -11   -1    0    0    0    0  0.00000000000E+00  0.00000000000E+00  0.45593999997E+02  0.45594000000E+02  0.51100000000E-03 0.  1.
         11   -1    0    0    0    0 -0.00000000000E+00 -0.00000000000E+00 -0.45593999997E+02  0.45594000000E+02  0.51100000000E-03 0. -1.
    9900012    2    1    2    0    0  0.72478246195E+01 -0.65395701155E+01  0.15980674696E+02  0.72461577417E+02  0.70000009279E+02 0.  0.
         12    1    1    2    0    0 -0.72478246195E+01  0.65395701155E+01 -0.15980674696E+02  0.18726422583E+02  0.00000000000E+00 0. -1.
         11    1    3    3    0    0 -0.10607493743E+02  0.10109023518E+01  0.10050983587E+02  0.14647973184E+02  0.51100000000E-03 0. -1.
        -11    1    3    3    0    0  0.44466638590E+01 -0.14234328257E+01  0.29579238183E+02  0.29945455619E+02  0.51100000000E-03 0.  1.
         12    1    3    3    0    0  0.13408654504E+02 -0.61270396417E+01 -0.23649547074E+02  0.27868148614E+02  0.00000000000E+00 0. -1.
</event>
<event>
 7    1  0.3050261E-013  0.7246161E+02  0.7816164E-02  0.1226708E+00
        -11   -1    0    0    0    0  0.00000000000E+00  0.00000000000E+00  0.45593999997E+02  0.45594000000E+02  0.51100000000E-03 0.  1.
         11   -1    0    0    0    0 -0.00000000000E+00 -0.00000000000E+00 -0.45593999997E+02  0.45594000000E+02  0.51100000000E-03 0. -1.
    9900012    2    1    2    0    0 -0.83770025379E+01  0.16323662112E+02  0.37472144175E+01  0.72461608672E+02  0.70000049994E+02 0.  0.
         12    1    1    2    0    0  0.83770025379E+01 -0.16323662112E+02 -0.37472144175E+01  0.18726391328E+02  0.00000000000E+00 0. -1.
         11    1    3    3    0    0 -0.29205908768E+02 -0.11497765662E+01 -0.17493725538E+02  0.34063727432E+02  0.51100000000E-03 0. -1.
        -11    1    3    3    0    0  0.27621084870E+01  0.36008142875E+01 -0.27575770572E+01  0.53103049173E+01  0.51100000000E-03 0.  1.
        -12    1    3    3    0    0  0.18066797743E+02  0.13872624391E+02  0.23998517012E+02  0.33087576323E+02  0.00000000000E+00 0.  1.
</event>
<event>
 7    1  0.3050261E-013  0.7246160E+02  0.7816164E-02  0.1226708E+00
        -11   -1    0    0    0    0  0.00000000000E+00  0.00000000000E+00  0.45593999997E+02  0.45594000000E+02  0.51100000000E-03 0.  1.
         11   -1    0    0    0    0 -0.00000000000E+00 -0.00000000000E+00 -0.45593999997E+02  0.45594000000E+02  0.51100000000E-03 0. -1.
    9900012    2    1    2    0    0  0.12053483125E+02  0.82955753585E+01  0.11686529338E+02  0.72461601683E+02  0.70000040889E+02 0.  0.
         12    1    1    2    0    0 -0.12053483125E+02 -0.82955753585E+01 -0.11686529338E+02  0.18726398317E+02  0.00000000000E+00 0. -1.
         11    1    3    3    0    0 -0.12802928306E+01 -0.19457051447E+01 -0.18337393932E+02  0.18484721657E+02  0.51100000000E-03 0. -1.
        -11    1    3    3    0    0 -0.11458679065E+02 -0.75298761389E+01  0.52567288585E+01  0.14684466593E+02  0.51100000000E-03 0.  1.
        -12    1    3    3    0    0  0.24792455020E+02  0.17771156642E+02  0.24767194412E+02  0.39292413433E+02  0.00000000000E+00 0.  1.
</event>
<event>
 7    1  0.3050261E-013  0.7246161E+02  0.7816164E-02  0.1226708E+00
        -11   -1    0    0    0    0  0.00000000000E+00  0.00000000000E+00  0.45593999997E+02  0.45594000000E+02  0.51100000000E-03 0.  1.
         11   -1    0    0    0    0 -0.00000000000E+00 -0.00000000000E+00 -0.45593999997E+02  0.45594000000E+02  0.51100000000E-03 0. -1.
    9900012    2    1    2    0    0  0.47291265628E+01 -0.17911483433E+02 -0.27371376549E+01  0.72461606878E+02  0.70000047656E+02 0.  0.
         12    1    1    2    0    0 -0.47291265628E+01  0.17911483433E+02  0.27371376549E+01  0.18726393122E+02  0.00000000000E+00 0. -1.
         11    1    3    3    0    0  0.22743044953E+02 -0.13153447915E+02 -0.99985552278E+00  0.26291804752E+02  0.51100000000E-03 0. -1.
        -11    1    3    3    0    0  0.11857157831E+02 -0.38209566031E+00 -0.92685330162E+01  0.15054696724E+02  0.51100000000E-03 0.  1.
        -12    1    3    3    0    0 -0.29871076221E+02 -0.43759398585E+01  0.75312508841E+01  0.31115105402E+02  0.00000000000E+00 0.  1.
</event>
<event>
 7    1  0.3050261E-013  0.7246160E+02  0.7816164E-02  0.1226708E+00
        -11   -1    0    0    0    0  0.00000000000E+00  0.00000000000E+00  0.45593999997E+02  0.45594000000E+02  0.51100000000E-03 0.  1.
         11   -1    0    0    0    0 -0.00000000000E+00 -0.00000000000E+00 -0.45593999997E+02  0.45594000000E+02  0.51100000000E-03 0. -1.
    9900012    2    1    2    0    0 -0.64964986622E+01  0.16842293842E+02 -0.49810201402E+01  0.72461603701E+02  0.70000043518E+02 0.  0.
         12    1    1    2    0    0  0.64964986622E+01 -0.16842293842E+02  0.49810201402E+01  0.18726396299E+02  0.00000000000E+00 0. -1.
         11    1    3    3    0    0 -0.22745795823E+01  0.73625522169E+01 -0.58117846068E+01  0.96518251124E+01  0.51100000000E-03 0. -1.
        -11    1    3    3    0    0 -0.24917967106E+02  0.18309602003E+02  0.16825764251E+02  0.35203024772E+02  0.51100000000E-03 0.  1.
         12    1    3    3    0    0  0.20696048026E+02 -0.88298603780E+01 -0.15994999784E+02  0.27606753817E+02  0.00000000000E+00 0. -1.
</event>
<event>
 7    1  0.3050261E-013  0.7246161E+02  0.7816164E-02  0.1226708E+00
        -11   -1    0    0    0    0  0.00000000000E+00  0.00000000000E+00  0.45593999997E+02  0.45594000000E+02  0.51100000000E-03 0.  1.
         11   -1    0    0    0    0 -0.00000000000E+00 -0.00000000000E+00 -0.45593999997E+02  0.45594000000E+02  0.51100000000E-03 0. -1.
    9900012    2    1    2    0    0 -0.74057079684E+01  0.43828603988E+01  0.16632006018E+02  0.72461612202E+02  0.70000054593E+02 0.  0.
         12    1    1    2    0    0  0.74057079684E+01 -0.43828603988E+01 -0.16632006018E+02  0.18726387798E+02  0.00000000000E+00 0. -1.
         11    1    3    3    0    0  0.11949385010E+02 -0.70500266284E+01 -0.17911758755E+01  0.13989245471E+02  0.51100000000E-03 0. -1.
        -11    1    3    3    0    0  0.14667843602E+02 -0.22893150144E+01 -0.41289898277E+01  0.15408931060E+02  0.51100000000E-03 0.  1.
        -12    1    3    3    0    0 -0.34022936580E+02  0.13722202042E+02  0.22552171721E+02  0.43063435670E+02  0.00000000000E+00 0.  1.
</event>
<event>
 7    1  0.3050261E-013  0.7246155E+02  0.7816164E-02  0.1226708E+00
        -11   -1    0    0    0    0  0.00000000000E+00  0.00000000000E+00  0.45593999997E+02  0.45594000000E+02  0.51100000000E-03 0.  1.
         11   -1    0    0    0    0 -0.00000000000E+00 -0.00000000000E+00 -0.45593999997E+02  0.45594000000E+02  0.51100000000E-03 0. -1.
    9900012    2    1    2    0    0 -0.10073209973E+02 -0.12032058789E+02  0.10219593202E+02  0.72461545902E+02  0.69999968225E+02 0.  0.
         12    1    1    2    0    0  0.10073209973E+02  0.12032058789E+02 -0.10219593202E+02  0.18726454098E+02  0.00000000000E+00 0. -1.
         11    1    3    3    0    0  0.49101687520E+01 -0.12125523983E+02 -0.21321801174E+02  0.25015141307E+02  0.51100000000E-03 0. -1.
        -11    1    3    3    0    0 -0.63810741069E+01  0.14136840850E+01 -0.60225210720E+01  0.88874838831E+01  0.51100000000E-03 0.  1.
        -12    1    3    3    0    0 -0.86023046185E+01 -0.13202188911E+01  0.37563915448E+02  0.38558920712E+02  0.00000000000E+00 0.  1.
</event>
<event>
 7    1  0.3050261E-013  0.7246147E+02  0.7816164E-02  0.1226708E+00
        -11   -1    0    0    0    0  0.00000000000E+00  0.00000000000E+00  0.45593999997E+02  0.45594000000E+02  0.51100000000E-03 0.  1.
         11   -1    0    0    0    0 -0.00000000000E+00 -0.00000000000E+00 -0.45593999997E+02  0.45594000000E+02  0.51100000000E-03 0. -1.
    9900012    2    1    2    0    0 -0.31370505808E+01  0.17156062536E+02  0.68199349087E+01  0.72461465878E+02  0.69999863978E+02 0.  0.
         12    1    1    2    0    0  0.31370505808E+01 -0.17156062536E+02 -0.68199349087E+01  0.18726534122E+02  0.00000000000E+00 0. -1.
         11    1    3    3    0    0 -0.16710048304E+02  0.56100849235E+01 -0.10018987711E+02  0.20275080325E+02  0.51100000000E-03 0. -1.
        -11    1    3    3    0    0 -0.10259061755E+02  0.15708175878E+02 -0.51907970229E+01  0.19466368729E+02  0.51100000000E-03 0.  1.
         12    1    3    3    0    0  0.23832059478E+02 -0.41621982656E+01  0.22029719643E+02  0.32720016823E+02  0.00000000000E+00 0. -1.
</event>
<event>
 7    1  0.3050261E-013  0.7246172E+02  0.7816164E-02  0.1226708E+00
        -11   -1    0    0    0    0  0.00000000000E+00  0.00000000000E+00  0.45593999997E+02  0.45594000000E+02  0.51100000000E-03 0.  1.
         11   -1    0    0    0    0 -0.00000000000E+00 -0.00000000000E+00 -0.45593999997E+02  0.45594000000E+02  0.51100000000E-03 0. -1.
    9900012    2    1    2    0    0 -0.94545770167E+01 -0.77549640143E+01  0.14182559236E+02  0.72461722209E+02  0.70000197897E+02 0.  0.
         12    1    1    2    0    0  0.94545770167E+01  0.77549640143E+01 -0.14182559236E+02  0.18726277791E+02  0.00000000000E+00 0. -1.
         11    1    3    3    0    0 -0.84686269343E+01  0.49201855235E+01 -0.14789945512E+02  0.17738893885E+02  0.51100000000E-03 0. -1.
        -11    1    3    3    0    0  0.18994383013E+02 -0.11585007512E+02  0.38076277467E+01  0.22572040546E+02  0.51100000000E-03 0.  1.
        -12    1    3    3    0    0 -0.19980333096E+02 -0.10901420259E+01  0.25164877001E+02  0.32150787778E+02  0.00000000000E+00 0.  1.
</event>
<event>
 7    1  0.3050261E-013  0.7246151E+02  0.7816164E-02  0.1226708E+00
        -11   -1    0    0    0    0  0.00000000000E+00  0.00000000000E+00  0.45593999997E+02  0.45594000000E+02  0.51100000000E-03 0.  1.
         11   -1    0    0    0    0 -0.00000000000E+00 -0.00000000000E+00 -0.45593999997E+02  0.45594000000E+02  0.51100000000E-03 0. -1.
    9900012    2    1    2    0    0  0.18626084436E+02  0.99985764187E+00 -0.16585376383E+01  0.72461508502E+02  0.69999919504E+02 0.  0.
         12    1    1    2    0    0 -0.18626084436E+02 -0.99985764187E+00  0.16585376383E+01  0.18726491498E+02  0.00000000000E+00 0. -1.
         11    1    3    3    0    0  0.11419658365E+02  0.13814796544E+02 -0.40913648187E+01  0.18384680227E+02  0.51100000000E-03 0. -1.
        -11    1    3    3    0    0 -0.53943883819E+01  0.56641517382E+01  0.22628198478E+02  0.23941959142E+02  0.51100000000E-03 0.  1.
        -12    1    3    3    0    0  0.12600814454E+02 -0.18479090640E+02 -0.20195371298E+02  0.30134869133E+02  0.00000000000E+00 0.  1.
</event>
<event>
 7    1  0.3050261E-013  0.7246160E+02  0.7816164E-02  0.1226708E+00
        -11   -1    0    0    0    0  0.00000000000E+00  0.00000000000E+00  0.45593999997E+02  0.45594000000E+02  0.51100000000E-03 0.  1.
         11   -1    0    0    0    0 -0.00000000000E+00 -0.00000000000E+00 -0.45593999997E+02  0.45594000000E+02  0.51100000000E-03 0. -1.
    9900012    2    1    2    0    0  0.10737896382E+02  0.64475362992E+00  0.15328399693E+02  0.72461602506E+02  0.70000041962E+02 0.  0.
         12    1    1    2    0    0 -0.10737896382E+02 -0.64475362992E+00 -0.15328399693E+02  0.18726397494E+02  0.00000000000E+00 0. -1.
         11    1    3    3    0    0  0.61879085062E+01  0.82817582903E+00 -0.15031568695E+02  0.16276490548E+02  0.51100000000E-03 0. -1.
        -11    1    3    3    0    0 -0.17882997177E+02  0.45623134266E+01  0.40319255630E+00  0.18460196541E+02  0.51100000000E-03 0.  1.
        -12    1    3    3    0    0  0.22432985053E+02 -0.47457356257E+01  0.29956775831E+02  0.37724915417E+02  0.00000000000E+00 0.  1.
</event>
<event>
 7    1  0.3050261E-013  0.7246156E+02  0.7816164E-02  0.1226708E+00
        -11   -1    0    0    0    0  0.00000000000E+00  0.00000000000E+00  0.45593999997E+02  0.45594000000E+02  0.51100000000E-03 0.  1.
         11   -1    0    0    0    0 -0.00000000000E+00 -0.00000000000E+00 -0.45593999997E+02  0.45594000000E+02  0.51100000000E-03 0. -1.
    9900012    2    1    2    0    0  0.14899683124E+02 -0.37346776440E+01  0.10711260176E+02  0.72461562302E+02  0.69999989588E+02 0.  0.
         12    1    1    2    0    0 -0.14899683124E+02  0.37346776440E+01 -0.10711260176E+02  0.18726437698E+02  0.00000000000E+00 0. -1.
         11    1    3    3    0    0 -0.14335359158E+02  0.28256118479E+01  0.36216965601E+01  0.15053348157E+02  0.51100000000E-03 0. -1.
        -11    1    3    3    0    0 -0.96019663144E+01 -0.17799416702E+01  0.14598985009E+02  0.17564063112E+02  0.51100000000E-03 0.  1.
        -12    1    3    3    0    0  0.38837008596E+02 -0.47803478217E+01 -0.75094213921E+01  0.39844151034E+02  0.00000000000E+00 0.  1.
</event>
<event>
 7    1  0.3050261E-013  0.7246163E+02  0.7816164E-02  0.1226708E+00
        -11   -1    0    0    0    0  0.00000000000E+00  0.00000000000E+00  0.45593999997E+02  0.45594000000E+02  0.51100000000E-03 0. -1.
         11   -1    0    0    0    0 -0.00000000000E+00 -0.00000000000E+00 -0.45593999997E+02  0.45594000000E+02  0.51100000000E-03 0.  1.
    9900012    2    1    2    0    0  0.12914662928E+02  0.10972373538E+01 -0.13516083879E+02  0.72461628975E+02  0.70000076442E+02 0.  0.
         12    1    1    2    0    0 -0.12914662928E+02 -0.10972373538E+01  0.13516083879E+02  0.18726371025E+02  0.00000000000E+00 0. -1.
         11    1    3    3    0    0  0.19548826259E+02 -0.16227482781E+02  0.68318128952E+00  0.25415635787E+02  0.51100000000E-03 0. -1.
        -11    1    3    3    0    0 -0.16604741448E+02 -0.72770669078E+01 -0.78248935722E+01  0.19745938849E+02  0.51100000000E-03 0.  1.
         12    1    3    3    0    0  0.99705781177E+01  0.24601787043E+02 -0.63743715960E+01  0.27300054339E+02  0.00000000000E+00 0. -1.
</event>
<event>
 7    1  0.3050261E-013  0.7246165E+02  0.7816164E-02  0.1226708E+00
        -11   -1    0    0    0    0  0.00000000000E+00  0.00000000000E+00  0.45593999997E+02  0.45594000000E+02  0.51100000000E-03 0.  1.
         11   -1    0    0    0    0 -0.00000000000E+00 -0.00000000000E+00 -0.45593999997E+02  0.45594000000E+02  0.51100000000E-03 0. -1.
    9900012    2    1    2    0    0 -0.15488597776E+02 -0.10407768399E+02  0.15677965160E+01  0.72461647178E+02  0.70000100155E+02 0.  0.
         12    1    1    2    0    0  0.15488597776E+02  0.10407768399E+02 -0.15677965160E+01  0.18726352822E+02  0.00000000000E+00 0. -1.
         11    1    3    3    0    0 -0.12981664879E+02 -0.25297386794E+02 -0.19927127103E+02  0.34721344969E+02  0.51100000000E-03 0. -1.
        -11    1    3    3    0    0  0.19200242958E+01  0.47008702342E+01 -0.61331797801E+01  0.79624474084E+01  0.51100000000E-03 0.  1.
        -12    1    3    3    0    0 -0.44269571925E+01  0.10188748160E+02  0.27628103399E+02  0.29777854800E+02  0.00000000000E+00 0.  1.
</event>
<event>
 7    1  0.3050261E-013  0.7246149E+02  0.7816164E-02  0.1226708E+00
        -11   -1    0    0    0    0  0.00000000000E+00  0.00000000000E+00  0.45593999997E+02  0.45594000000E+02  0.51100000000E-03 0.  1.
         11   -1    0    0    0    0 -0.00000000000E+00 -0.00000000000E+00 -0.45593999997E+02  0.45594000000E+02  0.51100000000E-03 0. -1.
    9900012    2    1    2    0    0  0.13566546252E+02  0.12611433526E+02 -0.27537044979E+01  0.72461486143E+02  0.69999890377E+02 0.  0.
         12    1    1    2    0    0 -0.13566546252E+02 -0.12611433526E+02  0.27537044979E+01  0.18726513857E+02  0.00000000000E+00 0. -1.
         11    1    3    3    0    0 -0.34230738925E+00  0.44581730899E+01  0.36241900056E+01  0.57556263870E+01  0.51100000000E-03 0.  1.
        -11    1    3    3    0    0  0.34494498701E+02  0.72382469787E+01 -0.21374463444E+02  0.41220508824E+02  0.51100000000E-03 0. -1.
         12    1    3    3    0    0 -0.20585645059E+02  0.91501345699E+00  0.14996568940E+02  0.25485350932E+02  0.00000000000E+00 0. -1.
</event>
<event>
 7    1  0.3050261E-013  0.7246155E+02  0.7816164E-02  0.1226708E+00
        -11   -1    0    0    0    0  0.00000000000E+00  0.00000000000E+00  0.45593999997E+02  0.45594000000E+02  0.51100000000E-03 0.  1.
         11   -1    0    0    0    0 -0.00000000000E+00 -0.00000000000E+00 -0.45593999997E+02  0.45594000000E+02  0.51100000000E-03 0. -1.
    9900012    2    1    2    0    0  0.13609323568E+02  0.41780347932E+00  0.12856576961E+02  0.72461552956E+02  0.69999977414E+02 0.  0.
         12    1    1    2    0    0 -0.13609323568E+02 -0.41780347932E+00 -0.12856576961E+02  0.18726447044E+02  0.00000000000E+00 0. -1.
         11    1    3    3    0    0  0.17007083566E+02  0.17178578657E+02 -0.40367931300E+01  0.24507961056E+02  0.51100000000E-03 0. -1.
        -11    1    3    3    0    0 -0.20625704163E+02  0.29603215704E+00  0.82258092735E+01  0.22207459236E+02  0.51100000000E-03 0.  1.
        -12    1    3    3    0    0  0.17227944165E+02 -0.17056807335E+02  0.86675608179E+01  0.25746132663E+02  0.00000000000E+00 0.  1.
</event>
<event>
 7    1  0.3050261E-013  0.7246179E+02  0.7816164E-02  0.1226707E+00
        -11   -1    0    0    0    0  0.00000000000E+00  0.00000000000E+00  0.45593999997E+02  0.45594000000E+02  0.51100000000E-03 0.  1.
         11   -1    0    0    0    0 -0.00000000000E+00 -0.00000000000E+00 -0.45593999997E+02  0.45594000000E+02  0.51100000000E-03 0. -1.
    9900012    2    1    2    0    0 -0.58822451685E+01 -0.13535980942E+02 -0.11525946945E+02  0.72461787322E+02  0.70000282719E+02 0.  0.
         12    1    1    2    0    0  0.58822451685E+01  0.13535980942E+02  0.11525946945E+02  0.18726212678E+02  0.00000000000E+00 0. -1.
         11    1    3    3    0    0  0.13281832503E+02 -0.16639884037E+02 -0.22072105148E+02  0.30667093787E+02  0.51100000000E-03 0. -1.
        -11    1    3    3    0    0 -0.90694106884E+01 -0.49766875713E+01 -0.11975449390E+02  0.15825075601E+02  0.51100000000E-03 0.  1.
         12    1    3    3    0    0 -0.10094666983E+02  0.80805906662E+01  0.22521607594E+02  0.25969617934E+02  0.00000000000E+00 0. -1.
</event>
<event>
 7    1  0.3050261E-013  0.7246153E+02  0.7816164E-02  0.1226708E+00
        -11   -1    0    0    0    0  0.00000000000E+00  0.00000000000E+00  0.45593999997E+02  0.45594000000E+02  0.51100000000E-03 0. -1.
         11   -1    0    0    0    0 -0.00000000000E+00 -0.00000000000E+00 -0.45593999997E+02  0.45594000000E+02  0.51100000000E-03 0.  1.
    9900012    2    1    2    0    0  0.10304929779E+02  0.15516726815E+02 -0.19287989670E+01  0.72461530652E+02  0.69999948358E+02 0.  0.
         12    1    1    2    0    0 -0.10304929779E+02 -0.15516726815E+02  0.19287989670E+01  0.18726469348E+02  0.00000000000E+00 0. -1.
         11    1    3    3    0    0 -0.21975119009E+01 -0.17086056186E+02  0.10800122816E+02  0.20332364044E+02  0.51100000000E-03 0. -1.
        -11    1    3    3    0    0 -0.95656094669E+01  0.47072668068E+01 -0.12671860746E+02  0.16560051337E+02  0.51100000000E-03 0.  1.
         12    1    3    3    0    0  0.22068051147E+02  0.27895516194E+02 -0.57061037275E-01  0.35569115270E+02  0.00000000000E+00 0. -1.
</event>
<event>
 7    1  0.3050261E-013  0.7246159E+02  0.7816164E-02  0.1226708E+00
        -11   -1    0    0    0    0  0.00000000000E+00  0.00000000000E+00  0.45593999997E+02  0.45594000000E+02  0.51100000000E-03 0. -1.
         11   -1    0    0    0    0 -0.00000000000E+00 -0.00000000000E+00 -0.45593999997E+02  0.45594000000E+02  0.51100000000E-03 0.  1.
    9900012    2    1    2    0    0 -0.14271616970E+02 -0.15182865377E+01 -0.12028894791E+02  0.72461586706E+02  0.70000021380E+02 0.  0.
         12    1    1    2    0    0  0.14271616970E+02  0.15182865377E+01  0.12028894791E+02  0.18726413294E+02  0.00000000000E+00 0. -1.
         11    1    3    3    0    0 -0.10825425496E+02 -0.15152991623E+02  0.71163885346E+00  0.18636239492E+02  0.51100000000E-03 0. -1.
        -11    1    3    3    0    0 -0.21406958854E+02 -0.82475576591E+01 -0.11055740147E+02  0.25465849390E+02  0.51100000000E-03 0.  1.
         12    1    3    3    0    0  0.17960767380E+02  0.21882262744E+02 -0.16847934978E+01  0.28359497824E+02  0.00000000000E+00 0. -1.
</event>
<event>
 7    1  0.3050261E-013  0.7246158E+02  0.7816164E-02  0.1226708E+00
        -11   -1    0    0    0    0  0.00000000000E+00  0.00000000000E+00  0.45593999997E+02  0.45594000000E+02  0.51100000000E-03 0. -1.
         11   -1    0    0    0    0 -0.00000000000E+00 -0.00000000000E+00 -0.45593999997E+02  0.45594000000E+02  0.51100000000E-03 0.  1.
    9900012    2    1    2    0    0 -0.81997202341E+01  0.14744162525E+02 -0.81272928782E+01  0.72461584699E+02  0.70000018765E+02 0.  0.
         12    1    1    2    0    0  0.81997202341E+01 -0.14744162525E+02  0.81272928782E+01  0.18726415301E+02  0.00000000000E+00 0. -1.
         11    1    3    3    0    0  0.11112689088E+02 -0.16465004774E+02  0.14000152143E+02  0.24302108987E+02  0.51100000000E-03 0. -1.
        -11    1    3    3    0    0 -0.55674501440E+01 -0.30174553737E+00 -0.10463740172E+02  0.11856534490E+02  0.51100000000E-03 0.  1.
        -12    1    3    3    0    0 -0.13744959178E+02  0.31510912836E+02 -0.11663704849E+02  0.36302941222E+02  0.00000000000E+00 0.  1.
</event>
<event>
 7    1  0.3050261E-013  0.7246154E+02  0.7816164E-02  0.1226708E+00
        -11   -1    0    0    0    0  0.00000000000E+00  0.00000000000E+00  0.45593999997E+02  0.45594000000E+02  0.51100000000E-03 0.  1.
         11   -1    0    0    0    0 -0.00000000000E+00 -0.00000000000E+00 -0.45593999997E+02  0.45594000000E+02  0.51100000000E-03 0. -1.
    9900012    2    1    2    0    0 -0.26063547090E+01  0.10725436943E+02  0.15127861240E+02  0.72461540960E+02  0.69999961786E+02 0.  0.
         12    1    1    2    0    0  0.26063547090E+01 -0.10725436943E+02 -0.15127861240E+02  0.18726459040E+02  0.00000000000E+00 0. -1.
         11    1    3    3    0    0 -0.24855876149E+02  0.25986296074E+02  0.12489950581E+01  0.35981413975E+02  0.51100000000E-03 0. -1.
        -11    1    3    3    0    0 -0.15723742104E+00  0.12354143819E+01 -0.34724347146E+01  0.36890073746E+01  0.51100000000E-03 0.  1.
        -12    1    3    3    0    0  0.22406758861E+02 -0.16496273513E+02  0.17351300897E+02  0.32791119610E+02  0.00000000000E+00 0.  1.
</event>
<event>
 7    1  0.3050261E-013  0.7246164E+02  0.7816164E-02  0.1226708E+00
        -11   -1    0    0    0    0  0.00000000000E+00  0.00000000000E+00  0.45593999997E+02  0.45594000000E+02  0.51100000000E-03 0.  1.
         11   -1    0    0    0    0 -0.00000000000E+00 -0.00000000000E+00 -0.45593999997E+02  0.45594000000E+02  0.51100000000E-03 0. -1.
    9900012    2    1    2    0    0  0.14765593630E+02  0.76881686919E+01  0.85758783878E+01  0.72461644690E+02  0.70000096914E+02 0.  0.
         12    1    1    2    0    0 -0.14765593630E+02 -0.76881686919E+01 -0.85758783878E+01  0.18726355310E+02  0.00000000000E+00 0. -1.
         11    1    3    3    0    0 -0.71699480990E+00  0.18531804173E+02  0.97493040519E-01  0.18545925499E+02  0.51100000000E-03 0. -1.
        -11    1    3    3    0    0 -0.18767515982E+01  0.44651634438E+01  0.25008781644E+02  0.25473496830E+02  0.51100000000E-03 0.  1.
         12    1    3    3    0    0  0.17359340038E+02 -0.15308798925E+02 -0.16530396297E+02  0.28442222361E+02  0.00000000000E+00 0. -1.
</event>
<event>
 7    1  0.3050261E-013  0.7246151E+02  0.7816164E-02  0.1226708E+00
        -11   -1    0    0    0    0  0.00000000000E+00  0.00000000000E+00  0.45593999997E+02  0.45594000000E+02  0.51100000000E-03 0.  1.
         11   -1    0    0    0    0 -0.00000000000E+00 -0.00000000000E+00 -0.45593999997E+02  0.45594000000E+02  0.51100000000E-03 0. -1.
    9900012    2    1    2    0    0 -0.14205428869E+02  0.80273081741E+01 -0.91896487290E+01  0.72461507279E+02  0.69999917911E+02 0.  0.
         12    1    1    2    0    0  0.14205428869E+02 -0.80273081741E+01  0.91896487290E+01  0.18726492721E+02  0.00000000000E+00 0. -1.
         11    1    3    3    0    0 -0.26319234217E+02  0.51673786741E+01 -0.54245273868E+00  0.26827190448E+02  0.51100000000E-03 0. -1.
        -11    1    3    3    0    0  0.91198729232E+01  0.12975766190E+02  0.13677066050E+02  0.20942892025E+02  0.51100000000E-03 0.  1.
         12    1    3    3    0    0  0.29939324247E+01 -0.10115836690E+02 -0.22324262041E+02  0.24691424806E+02  0.00000000000E+00 0. -1.
</event>
<event>
 7    1  0.3050261E-013  0.7246157E+02  0.7816164E-02  0.1226708E+00
        -11   -1    0    0    0    0  0.00000000000E+00  0.00000000000E+00  0.45593999997E+02  0.45594000000E+02  0.51100000000E-03 0.  1.
         11   -1    0    0    0    0 -0.00000000000E+00 -0.00000000000E+00 -0.45593999997E+02  0.45594000000E+02  0.51100000000E-03 0. -1.
    9900012    2    1    2    0    0 -0.97089507603E+01  0.15163774635E+02 -0.51454321713E+01  0.72461567924E+02  0.69999996912E+02 0.  0.
         12    1    1    2    0    0  0.97089507603E+01 -0.15163774635E+02  0.51454321713E+01  0.18726432076E+02  0.00000000000E+00 0. -1.
         11    1    3    3    0    0 -0.68407010802E+00  0.15635307957E+01 -0.12459201017E+01  0.21130304359E+01  0.51100000000E-03 0. -1.
        -11    1    3    3    0    0 -0.20263064111E+02  0.22523528821E+02  0.24214127527E+02  0.38784340782E+02  0.51100000000E-03 0.  1.
         12    1    3    3    0    0  0.11238183459E+02 -0.89232849815E+01 -0.28113639597E+02  0.31564196706E+02  0.00000000000E+00 0. -1.
</event>
<event>
 7    1  0.3050261E-013  0.7246157E+02  0.7816164E-02  0.1226708E+00
        -11   -1    0    0    0    0  0.00000000000E+00  0.00000000000E+00  0.45593999997E+02  0.45594000000E+02  0.51100000000E-03 0. -1.
         11   -1    0    0    0    0 -0.00000000000E+00 -0.00000000000E+00 -0.45593999997E+02  0.45594000000E+02  0.51100000000E-03 0.  1.
    9900012    2    1    2    0    0 -0.17038559689E+02  0.54550546093E+01 -0.55325273475E+01  0.72461574929E+02  0.70000006038E+02 0.  0.
         12    1    1    2    0    0  0.17038559689E+02 -0.54550546093E+01  0.55325273475E+01  0.18726425071E+02  0.00000000000E+00 0. -1.
         11    1    3    3    0    0  0.31174637750E+01 -0.16771115263E+02  0.28443731880E+01  0.17293910681E+02  0.51100000000E-03 0. -1.
        -11    1    3    3    0    0 -0.34682202721E+02  0.12402861224E+02 -0.76342546166E+01  0.37616060345E+02  0.51100000000E-03 0.  1.
         12    1    3    3    0    0  0.14526179256E+02  0.98233086484E+01 -0.74264591885E+00  0.17551603902E+02  0.00000000000E+00 0. -1.
</event>
<event>
 7    1  0.3050261E-013  0.7246153E+02  0.7816164E-02  0.1226708E+00
        -11   -1    0    0    0    0  0.00000000000E+00  0.00000000000E+00  0.45593999997E+02  0.45594000000E+02  0.51100000000E-03 0. -1.
         11   -1    0    0    0    0 -0.00000000000E+00 -0.00000000000E+00 -0.45593999997E+02  0.45594000000E+02  0.51100000000E-03 0.  1.
    9900012    2    1    2    0    0  0.59889412777E+01  0.10289425487E+02 -0.14454792738E+02  0.72461528694E+02  0.69999945808E+02 0.  0.
         12    1    1    2    0    0 -0.59889412777E+01 -0.10289425487E+02  0.14454792738E+02  0.18726471306E+02  0.00000000000E+00 0. -1.
         11    1    3    3    0    0 -0.54008316731E+01  0.40428284749E+01 -0.95772441704E+00  0.68140062488E+01  0.51100000000E-03 0. -1.
        -11    1    3    3    0    0 -0.18548702180E+00 -0.26199609992E+02 -0.16667936467E+02  0.31052762767E+02  0.51100000000E-03 0.  1.
         12    1    3    3    0    0  0.11575259973E+02  0.32446207004E+02  0.31708681463E+01  0.34594759678E+02  0.00000000000E+00 0. -1.
</event>
<event>
 7    1  0.3050261E-013  0.7246157E+02  0.7816164E-02  0.1226708E+00
        -11   -1    0    0    0    0  0.00000000000E+00  0.00000000000E+00  0.45593999997E+02  0.45594000000E+02  0.51100000000E-03 0.  1.
         11   -1    0    0    0    0 -0.00000000000E+00 -0.00000000000E+00 -0.45593999997E+02  0.45594000000E+02  0.51100000000E-03 0. -1.
    9900012    2    1    2    0    0 -0.26906391144E+01 -0.76348205301E+01  0.16886360562E+02  0.72461569577E+02  0.69999999065E+02 0.  0.
         12    1    1    2    0    0  0.26906391144E+01  0.76348205301E+01 -0.16886360562E+02  0.18726430423E+02  0.00000000000E+00 0. -1.
         11    1    3    3    0    0  0.19944249173E+02  0.71448531388E+01 -0.13587290371E+02  0.25168163646E+02  0.51100000000E-03 0. -1.
        -11    1    3    3    0    0  0.27876416242E+01 -0.67507836449E+01  0.71422655466E+00  0.73385383747E+01  0.51100000000E-03 0.  1.
        -12    1    3    3    0    0 -0.25422529911E+02 -0.80288900240E+01  0.29759424378E+02  0.39954867556E+02  0.00000000000E+00 0.  1.
</event>
<event>
 7    1  0.3050261E-013  0.7246158E+02  0.7816164E-02  0.1226708E+00
        -11   -1    0    0    0    0  0.00000000000E+00  0.00000000000E+00  0.45593999997E+02  0.45594000000E+02  0.51100000000E-03 0. -1.
         11   -1    0    0    0    0 -0.00000000000E+00 -0.00000000000E+00 -0.45593999997E+02  0.45594000000E+02  0.51100000000E-03 0.  1.
    9900012    2    1    2    0    0  0.16295243488E+02  0.74667590208E+01 -0.54213705177E+01  0.72461582593E+02  0.70000016022E+02 0.  0.
         12    1    1    2    0    0 -0.16295243488E+02 -0.74667590208E+01  0.54213705177E+01  0.18726417407E+02  0.00000000000E+00 0. -1.
         11    1    3    3    0    0 -0.88164506183E+01  0.14510239679E+02 -0.11157313387E+02  0.20316557270E+02  0.51100000000E-03 0. -1.
        -11    1    3    3    0    0 -0.26943835465E+01 -0.50762415039E+01 -0.15868729335E+02  0.16877336919E+02  0.51100000000E-03 0.  1.
        -12    1    3    3    0    0  0.27806077653E+02 -0.19672391542E+01  0.21604672204E+02  0.35267688404E+02  0.00000000000E+00 0.  1.
</event>
<event>
 7    1  0.3922880E-013  0.7246178E+02  0.7816164E-02  0.1226707E+00
        -11   -1    0    0    0    0  0.00000000000E+00  0.00000000000E+00  0.45593999997E+02  0.45594000000E+02  0.51100000000E-03 0. -1.
         11   -1    0    0    0    0 -0.00000000000E+00 -0.00000000000E+00 -0.45593999997E+02  0.45594000000E+02  0.51100000000E-03 0.  1.
    9900012    2    1    2    0    0  0.11959868690E+01 -0.12394948541E+02 -0.13985930848E+02  0.72461777861E+02  0.70000270393E+02 0.  0.
         12    1    1    2    0    0 -0.11959868690E+01  0.12394948541E+02  0.13985930848E+02  0.18726222139E+02  0.00000000000E+00 0. -1.
         11    1    3    3    0    0 -0.13530790101E+02 -0.77757701485E+01 -0.50077881960E+01  0.16389717052E+02  0.51100000000E-03 0. -1.
        -11    1    3    3    0    0  0.26392399354E+01  0.90424716017E+00 -0.30581381198E+02  0.30708372255E+02  0.51100000000E-03 0.  1.
         12    1    3    3    0    0  0.12087537035E+02 -0.55234255522E+01  0.21603238545E+02  0.25363688553E+02  0.00000000000E+00 0. -1.
</event>
<event>
 7    1  0.3050261E-013  0.7246156E+02  0.7816164E-02  0.1226708E+00
        -11   -1    0    0    0    0  0.00000000000E+00  0.00000000000E+00  0.45593999997E+02  0.45594000000E+02  0.51100000000E-03 0. -1.
         11   -1    0    0    0    0 -0.00000000000E+00 -0.00000000000E+00 -0.45593999997E+02  0.45594000000E+02  0.51100000000E-03 0.  1.
    9900012    2    1    2    0    0 -0.63916274080E+01  0.15789797917E+02  0.77787493839E+01  0.72461559837E+02  0.69999986378E+02 0.  0.
         12    1    1    2    0    0  0.63916274080E+01 -0.15789797917E+02 -0.77787493839E+01  0.18726440163E+02  0.00000000000E+00 0. -1.
         11    1    3    3    0    0 -0.22421339048E+02 -0.66224980680E+01 -0.47214274392E+01  0.23850907796E+02  0.51100000000E-03 0. -1.
        -11    1    3    3    0    0 -0.11420187896E+02  0.57036806204E+00  0.60736649848E+01  0.12947409699E+02  0.51100000000E-03 0.  1.
         12    1    3    3    0    0  0.27449899536E+02  0.21841927923E+02  0.64265118383E+01  0.35663242342E+02  0.00000000000E+00 0. -1.
</event>
<event>
 7    1  0.3050261E-013  0.7246147E+02  0.7816164E-02  0.1226708E+00
        -11   -1    0    0    0    0  0.00000000000E+00  0.00000000000E+00  0.45593999997E+02  0.45594000000E+02  0.51100000000E-03 0. -1.
         11   -1    0    0    0    0 -0.00000000000E+00 -0.00000000000E+00 -0.45593999997E+02  0.45594000000E+02  0.51100000000E-03 0.  1.
    9900012    2    1    2    0    0  0.77685037705E+00  0.99891335477E+01 -0.15820765348E+02  0.72461470643E+02  0.69999870186E+02 0.  0.
         12    1    1    2    0    0 -0.77685037705E+00 -0.99891335477E+01  0.15820765348E+02  0.18726529357E+02  0.00000000000E+00 0. -1.
         11    1    3    3    0    0  0.26691465846E+02 -0.49757888629E+01 -0.86816985836E+01  0.28505520770E+02  0.51100000000E-03 0. -1.
        -11    1    3    3    0    0  0.51527147061E+01  0.44623029008E+00 -0.81454710342E+01  0.96487454597E+01  0.51100000000E-03 0.  1.
        -12    1    3    3    0    0 -0.31067330175E+02  0.14518692121E+02  0.10064042693E+01  0.34307204413E+02  0.00000000000E+00 0.  1.
</event>
<event>
 7    1  0.3050261E-013  0.7246157E+02  0.7816164E-02  0.1226708E+00
        -11   -1    0    0    0    0  0.00000000000E+00  0.00000000000E+00  0.45593999997E+02  0.45594000000E+02  0.51100000000E-03 0.  1.
         11   -1    0    0    0    0 -0.00000000000E+00 -0.00000000000E+00 -0.45593999997E+02  0.45594000000E+02  0.51100000000E-03 0. -1.
    9900012    2    1    2    0    0  0.15647036053E+02 -0.96479828883E+01 -0.35729514520E+01  0.72461566994E+02  0.69999995701E+02 0.  0.
         12    1    1    2    0    0 -0.15647036053E+02  0.96479828883E+01  0.35729514520E+01  0.18726433006E+02  0.00000000000E+00 0. -1.
         11    1    3    3    0    0 -0.33913897079E+01 -0.21520359392E+02 -0.33990860606E+01  0.22049516521E+02  0.51100000000E-03 0.  1.
        -11    1    3    3    0    0  0.17802469640E+02  0.98839482399E+01 -0.21118959664E+02  0.29336509944E+02  0.51100000000E-03 0. -1.
         12    1    3    3    0    0  0.12359561204E+01  0.19884282639E+01  0.20945094273E+02  0.21075540529E+02  0.00000000000E+00 0. -1.
</event>
<event>
 7    1  0.3050261E-013  0.7246160E+02  0.7816164E-02  0.1226708E+00
        -11   -1    0    0    0    0  0.00000000000E+00  0.00000000000E+00  0.45593999997E+02  0.45594000000E+02  0.51100000000E-03 0. -1.
         11   -1    0    0    0    0 -0.00000000000E+00 -0.00000000000E+00 -0.45593999997E+02  0.45594000000E+02  0.51100000000E-03 0.  1.
    9900012    2    1    2    0    0 -0.53894770691E+01 -0.16872525517E+02 -0.60786214895E+01  0.72461595658E+02  0.70000033040E+02 0.  0.
         12    1    1    2    0    0  0.53894770691E+01  0.16872525517E+02  0.60786214895E+01  0.18726404342E+02  0.00000000000E+00 0. -1.
         11    1    3    3    0    0  0.89703504579E+00  0.15015915164E+02 -0.16920051128E+01  0.15137544770E+02  0.51100000000E-03 0. -1.
        -11    1    3    3    0    0  0.35458640180E+01  0.11439341710E+02 -0.47745610837E+01  0.12892948623E+02  0.51100000000E-03 0.  1.
        -12    1    3    3    0    0 -0.98323761329E+01 -0.43327782391E+02  0.38794470697E+00  0.44431102265E+02  0.00000000000E+00 0.  1.
</event>
<event>
 7    1  0.3050261E-013  0.7246157E+02  0.7816164E-02  0.1226708E+00
        -11   -1    0    0    0    0  0.00000000000E+00  0.00000000000E+00  0.45593999997E+02  0.45594000000E+02  0.51100000000E-03 0. -1.
         11   -1    0    0    0    0 -0.00000000000E+00 -0.00000000000E+00 -0.45593999997E+02  0.45594000000E+02  0.51100000000E-03 0.  1.
    9900012    2    1    2    0    0 -0.66720318626E+01 -0.16651311742E+02 -0.53755959212E+01  0.72461568856E+02  0.69999998126E+02 0.  0.
         12    1    1    2    0    0  0.66720318626E+01  0.16651311742E+02  0.53755959212E+01  0.18726431144E+02  0.00000000000E+00 0. -1.
         11    1    3    3    0    0  0.85713132212E+00  0.16464384104E+02  0.14096229455E+02  0.21691341662E+02  0.51100000000E-03 0. -1.
        -11    1    3    3    0    0  0.12509095152E+02 -0.15091884040E+02 -0.52332569253E+01  0.20288652092E+02  0.51100000000E-03 0.  1.
        -12    1    3    3    0    0 -0.20038258336E+02 -0.18023811805E+02 -0.14238568451E+02  0.30481575101E+02  0.00000000000E+00 0.  1.
</event>
<event>
 7    1  0.3050261E-013  0.7246160E+02  0.7816164E-02  0.1226708E+00
        -11   -1    0    0    0    0  0.00000000000E+00  0.00000000000E+00  0.45593999997E+02  0.45594000000E+02  0.51100000000E-03 0.  1.
         11   -1    0    0    0    0 -0.00000000000E+00 -0.00000000000E+00 -0.45593999997E+02  0.45594000000E+02  0.51100000000E-03 0. -1.
    9900012    2    1    2    0    0  0.12272031006E+02 -0.73542204869E+01  0.12082670325E+02  0.72461595482E+02  0.70000032812E+02 0.  0.
         12    1    1    2    0    0 -0.12272031006E+02  0.73542204869E+01 -0.12082670325E+02  0.18726404518E+02  0.00000000000E+00 0. -1.
         11    1    3    3    0    0  0.59352768437E+01 -0.16272051748E+02  0.13877748237E+02  0.22194573113E+02  0.51100000000E-03 0. -1.
        -11    1    3    3    0    0 -0.18786883811E+02  0.47591380627E+01  0.10441518381E+02  0.22014125120E+02  0.51100000000E-03 0.  1.
         12    1    3    3    0    0  0.25123637973E+02  0.41586931979E+01 -0.12236596293E+02  0.28252897249E+02  0.00000000000E+00 0. -1.
</event>
<event>
 7    1  0.3050261E-013  0.7246156E+02  0.7816164E-02  0.1226708E+00
        -11   -1    0    0    0    0  0.00000000000E+00  0.00000000000E+00  0.45593999997E+02  0.45594000000E+02  0.51100000000E-03 0.  1.
         11   -1    0    0    0    0 -0.00000000000E+00 -0.00000000000E+00 -0.45593999997E+02  0.45594000000E+02  0.51100000000E-03 0. -1.
    9900012    2    1    2    0    0 -0.83415198785E+01 -0.16361184392E+02  0.36619819478E+01  0.72461563596E+02  0.69999991275E+02 0.  0.
         12    1    1    2    0    0  0.83415198785E+01  0.16361184392E+02 -0.36619819478E+01  0.18726436404E+02  0.00000000000E+00 0. -1.
         11    1    3    3    0    0 -0.64296394430E+01  0.62166061321E+01  0.92181460510E+01  0.12843701649E+02  0.51100000000E-03 0. -1.
        -11    1    3    3    0    0 -0.26571970385E+02 -0.16422480868E+01  0.87216310943E+00  0.26636952860E+02  0.51100000000E-03 0.  1.
        -12    1    3    3    0    0  0.24660089950E+02 -0.20935542437E+02 -0.64283272127E+01  0.32980909087E+02  0.00000000000E+00 0.  1.
</event>
<event>
 7    1  0.3050261E-013  0.7246152E+02  0.7816164E-02  0.1226708E+00
        -11   -1    0    0    0    0  0.00000000000E+00  0.00000000000E+00  0.45593999997E+02  0.45594000000E+02  0.51100000000E-03 0. -1.
         11   -1    0    0    0    0 -0.00000000000E+00 -0.00000000000E+00 -0.45593999997E+02  0.45594000000E+02  0.51100000000E-03 0.  1.
    9900012    2    1    2    0    0  0.90079073281E+01 -0.15091800279E+02  0.64634510417E+01  0.72461520633E+02  0.69999935307E+02 0.  0.
         12    1    1    2    0    0 -0.90079073281E+01  0.15091800279E+02 -0.64634510417E+01  0.18726479367E+02  0.00000000000E+00 0. -1.
         11    1    3    3    0    0  0.58079076203E+01  0.53458356059E+01 -0.72212837952E+01  0.10698443306E+02  0.51100000000E-03 0. -1.
        -11    1    3    3    0    0 -0.30491766359E+01 -0.31310692074E+02 -0.11607848480E+02  0.33532060224E+02  0.51100000000E-03 0.  1.
         12    1    3    3    0    0  0.62491763437E+01  0.10873056189E+02  0.25292583317E+02  0.28231017104E+02  0.00000000000E+00 0. -1.
</event>
<event>
 7    1  0.3050261E-013  0.7246158E+02  0.7816164E-02  0.1226708E+00
        -11   -1    0    0    0    0  0.00000000000E+00  0.00000000000E+00  0.45593999997E+02  0.45594000000E+02  0.51100000000E-03 0.  1.
         11   -1    0    0    0    0 -0.00000000000E+00 -0.00000000000E+00 -0.45593999997E+02  0.45594000000E+02  0.51100000000E-03 0. -1.
    9900012    2    1    2    0    0 -0.79412562398E+01 -0.82564887959E+01  0.14813692850E+02  0.72461584066E+02  0.70000017940E+02 0.  0.
         12    1    1    2    0    0  0.79412562398E+01  0.82564887959E+01 -0.14813692850E+02  0.18726415934E+02  0.00000000000E+00 0. -1.
         11    1    3    3    0    0 -0.22499395391E+01  0.19426602599E+01 -0.10847435160E+02  0.11247355539E+02  0.51100000000E-03 0. -1.
        -11    1    3    3    0    0  0.23270404467E+02 -0.96357693347E+01  0.51160105762E+01  0.25700843162E+02  0.51100000000E-03 0.  1.
         12    1    3    3    0    0 -0.28961721168E+02 -0.56337972107E+00  0.20545117433E+02  0.35513385365E+02  0.00000000000E+00 0. -1.
</event>
<event>
 7    1  0.3050261E-013  0.7246162E+02  0.7816164E-02  0.1226708E+00
        -11   -1    0    0    0    0  0.00000000000E+00  0.00000000000E+00  0.45593999997E+02  0.45594000000E+02  0.51100000000E-03 0.  1.
         11   -1    0    0    0    0 -0.00000000000E+00 -0.00000000000E+00 -0.45593999997E+02  0.45594000000E+02  0.51100000000E-03 0. -1.
    9900012    2    1    2    0    0  0.55625694386E+01 -0.80937662642E+01  0.15944466167E+02  0.72461622015E+02  0.70000067376E+02 0.  0.
         12    1    1    2    0    0 -0.55625694386E+01  0.80937662642E+01 -0.15944466167E+02  0.18726377985E+02  0.00000000000E+00 0. -1.
         11    1    3    3    0    0 -0.10088211087E+02  0.10028751393E+02  0.61668377481E+01  0.15504120275E+02  0.51100000000E-03 0. -1.
        -11    1    3    3    0    0  0.21794417174E+02  0.11151496720E+02  0.11391618190E+02  0.27002249246E+02  0.51100000000E-03 0.  1.
         12    1    3    3    0    0 -0.61436366488E+01 -0.29274014377E+02 -0.16139897717E+01  0.29955252494E+02  0.00000000000E+00 0. -1.
</event>
<event>
 7    1  0.3050261E-013  0.7246159E+02  0.7816164E-02  0.1226708E+00
        -11   -1    0    0    0    0  0.00000000000E+00  0.00000000000E+00  0.45593999997E+02  0.45594000000E+02  0.51100000000E-03 0. -1.
         11   -1    0    0    0    0 -0.00000000000E+00 -0.00000000000E+00 -0.45593999997E+02  0.45594000000E+02  0.51100000000E-03 0.  1.
    9900012    2    1    2    0    0  0.12662516330E+02  0.11879376254E+02 -0.70156710834E+01  0.72461587083E+02  0.70000021870E+02 0.  0.
         12    1    1    2    0    0 -0.12662516330E+02 -0.11879376254E+02  0.70156710834E+01  0.18726412917E+02  0.00000000000E+00 0. -1.
         11    1    3    3    0    0  0.85412951221E+01 -0.62036999046E+01  0.12276835144E+01  0.10627644233E+02  0.51100000000E-03 0. -1.
        -11    1    3    3    0    0  0.17539806750E+02  0.12157178188E+02  0.20482199915E+02  0.29579761931E+02  0.51100000000E-03 0.  1.
        -12    1    3    3    0    0 -0.13418585541E+02  0.59258979707E+01 -0.28725554512E+02  0.32254180919E+02  0.00000000000E+00 0.  1.
</event>
<event>
 7    1  0.3050261E-013  0.7246158E+02  0.7816164E-02  0.1226708E+00
        -11   -1    0    0    0    0  0.00000000000E+00  0.00000000000E+00  0.45593999997E+02  0.45594000000E+02  0.51100000000E-03 0. -1.
         11   -1    0    0    0    0 -0.00000000000E+00 -0.00000000000E+00 -0.45593999997E+02  0.45594000000E+02  0.51100000000E-03 0.  1.
    9900012    2    1    2    0    0 -0.32942050614E+01  0.58354101180E+01 -0.17486426812E+02  0.72461576933E+02  0.70000008649E+02 0.  0.
         12    1    1    2    0    0  0.32942050614E+01 -0.58354101180E+01  0.17486426812E+02  0.18726423067E+02  0.00000000000E+00 0. -1.
         11    1    3    3    0    0  0.25773264229E+01  0.17876084886E+02  0.41390889818E+01  0.18529141378E+02  0.51100000000E-03 0. -1.
        -11    1    3    3    0    0  0.12939697764E+02  0.12634226408E+02 -0.10834467338E+02  0.21081867515E+02  0.51100000000E-03 0.  1.
         12    1    3    3    0    0 -0.18811229248E+02 -0.24674901176E+02 -0.10791048455E+02  0.32850568041E+02  0.00000000000E+00 0. -1.
</event>
<event>
 7    1  0.3050261E-013  0.7246159E+02  0.7816164E-02  0.1226708E+00
        -11   -1    0    0    0    0  0.00000000000E+00  0.00000000000E+00  0.45593999997E+02  0.45594000000E+02  0.51100000000E-03 0.  1.
         11   -1    0    0    0    0 -0.00000000000E+00 -0.00000000000E+00 -0.45593999997E+02  0.45594000000E+02  0.51100000000E-03 0. -1.
    9900012    2    1    2    0    0 -0.15252493518E+02 -0.20397000754E+01 -0.10671429970E+02  0.72461592109E+02  0.70000028417E+02 0.  0.
         12    1    1    2    0    0  0.15252493518E+02  0.20397000754E+01  0.10671429970E+02  0.18726407891E+02  0.00000000000E+00 0. -1.
         11    1    3    3    0    0 -0.30388360402E+02  0.39369341190E+01 -0.95665674037E+01  0.32100951860E+02  0.51100000000E-03 0.  1.
        -11    1    3    3    0    0  0.70959232183E+01  0.12680984582E+02  0.95809697424E+01  0.17405587544E+02  0.51100000000E-03 0. -1.
         12    1    3    3    0    0  0.80399436655E+01 -0.18657618776E+02 -0.10685832309E+02  0.22955052705E+02  0.00000000000E+00 0. -1.
</event>
<event>
 7    1  0.3050261E-013  0.7246157E+02  0.7816164E-02  0.1226708E+00
        -11   -1    0    0    0    0  0.00000000000E+00  0.00000000000E+00  0.45593999997E+02  0.45594000000E+02  0.51100000000E-03 0.  1.
         11   -1    0    0    0    0 -0.00000000000E+00 -0.00000000000E+00 -0.45593999997E+02  0.45594000000E+02  0.51100000000E-03 0. -1.
    9900012    2    1    2    0    0 -0.80233764136E+01 -0.16267930227E+02  0.46539408858E+01  0.72461567112E+02  0.69999995855E+02 0.  0.
         12    1    1    2    0    0  0.80233764136E+01  0.16267930227E+02 -0.46539408858E+01  0.18726432888E+02  0.00000000000E+00 0. -1.
         11    1    3    3    0    0 -0.69046816933E+01 -0.15903643584E+01  0.12053996872E+02  0.13982229041E+02  0.51100000000E-03 0. -1.
        -11    1    3    3    0    0 -0.59827943756E+01 -0.25531244226E+02  0.17057915225E+02  0.31282754552E+02  0.51100000000E-03 0.  1.
         12    1    3    3    0    0  0.48640996553E+01  0.10853678357E+02 -0.24457971212E+02  0.27196583520E+02  0.00000000000E+00 0. -1.
</event>
<event>
 7    1  0.3050261E-013  0.7246158E+02  0.7816164E-02  0.1226708E+00
        -11   -1    0    0    0    0  0.00000000000E+00  0.00000000000E+00  0.45593999997E+02  0.45594000000E+02  0.51100000000E-03 0.  1.
         11   -1    0    0    0    0 -0.00000000000E+00 -0.00000000000E+00 -0.45593999997E+02  0.45594000000E+02  0.51100000000E-03 0. -1.
    9900012    2    1    2    0    0 -0.48605886082E+01  0.15738101091E+02  0.89087388390E+01  0.72461580821E+02  0.70000013713E+02 0.  0.
         12    1    1    2    0    0  0.48605886082E+01 -0.15738101091E+02 -0.89087388390E+01  0.18726419179E+02  0.00000000000E+00 0. -1.
         11    1    3    3    0    0 -0.11689217440E+02 -0.45380128566E+01 -0.19389866959E+02  0.23091087154E+02  0.51100000000E-03 0. -1.
        -11    1    3    3    0    0 -0.12832647790E+02  0.14437717433E+01  0.63012030903E+01  0.14368941742E+02  0.51100000000E-03 0.  1.
        -12    1    3    3    0    0  0.19661276621E+02  0.18832342204E+02  0.21997402707E+02  0.35001551925E+02  0.00000000000E+00 0.  1.
</event>
<event>
 7    1  0.3050261E-013  0.7246158E+02  0.7816164E-02  0.1226708E+00
        -11   -1    0    0    0    0  0.00000000000E+00  0.00000000000E+00  0.45593999997E+02  0.45594000000E+02  0.51100000000E-03 0.  1.
         11   -1    0    0    0    0 -0.00000000000E+00 -0.00000000000E+00 -0.45593999997E+02  0.45594000000E+02  0.51100000000E-03 0. -1.
    9900012    2    1    2    0    0  0.17696548800E+02 -0.74081949087E+00 -0.60796496634E+01  0.72461580348E+02  0.70000013097E+02 0.  0.
         12    1    1    2    0    0 -0.17696548800E+02  0.74081949087E+00  0.60796496634E+01  0.18726419652E+02  0.00000000000E+00 0. -1.
         11    1    3    3    0    0 -0.19533002961E+01 -0.83402935165E+01  0.14137684360E+02  0.16530275174E+02  0.51100000000E-03 0. -1.
        -11    1    3    3    0    0  0.51625608288E+01 -0.46006394142E+01  0.14679095691E+02  0.16226329465E+02  0.51100000000E-03 0.  1.
         12    1    3    3    0    0  0.14487288267E+02  0.12200113440E+02 -0.34896429715E+02  0.39704975710E+02  0.00000000000E+00 0. -1.
</event>
<event>
 7    1  0.3050261E-013  0.7246176E+02  0.7816164E-02  0.1226708E+00
        -11   -1    0    0    0    0  0.00000000000E+00  0.00000000000E+00  0.45593999997E+02  0.45594000000E+02  0.51100000000E-03 0.  1.
         11   -1    0    0    0    0 -0.00000000000E+00 -0.00000000000E+00 -0.45593999997E+02  0.45594000000E+02  0.51100000000E-03 0. -1.
    9900012    2    1    2    0    0  0.67874662518E+01  0.11079887885E+01  0.17417652222E+02  0.72461763159E+02  0.70000251242E+02 0.  0.
         12    1    1    2    0    0 -0.67874662518E+01 -0.11079887885E+01 -0.17417652222E+02  0.18726236841E+02  0.00000000000E+00 0. -1.
         11    1    3    3    0    0  0.16908715250E+02  0.20302931928E+01 -0.69242785125E+00  0.17044242384E+02  0.51100000000E-03 0. -1.
        -11    1    3    3    0    0  0.15184628680E+02  0.12143044165E+02  0.18637569041E+02  0.26932980707E+02  0.51100000000E-03 0.  1.
         12    1    3    3    0    0 -0.25305877678E+02 -0.13065348569E+02 -0.52748896725E+00  0.28484540068E+02  0.00000000000E+00 0. -1.
</event>
<event>
 7    1  0.3050261E-013  0.7246161E+02  0.7816164E-02  0.1226708E+00
        -11   -1    0    0    0    0  0.00000000000E+00  0.00000000000E+00  0.45593999997E+02  0.45594000000E+02  0.51100000000E-03 0.  1.
         11   -1    0    0    0    0 -0.00000000000E+00 -0.00000000000E+00 -0.45593999997E+02  0.45594000000E+02  0.51100000000E-03 0. -1.
    9900012    2    1    2    0    0 -0.17792160041E+02 -0.37512628147E+01  0.44771380705E+01  0.72461609613E+02  0.70000051219E+02 0.  0.
         12    1    1    2    0    0  0.17792160041E+02  0.37512628147E+01 -0.44771380705E+01  0.18726390387E+02  0.00000000000E+00 0. -1.
         11    1    3    3    0    0 -0.75925713976E+01 -0.69071618232E+01 -0.38908265376E+01  0.10977001243E+02  0.51100000000E-03 0. -1.
        -11    1    3    3    0    0 -0.33638065519E+02 -0.81498735371E+01  0.76783279876E+01  0.35452737715E+02  0.51100000000E-03 0.  1.
         12    1    3    3    0    0  0.23438476876E+02  0.11305772546E+02  0.68963662050E+00  0.26031870655E+02  0.00000000000E+00 0. -1.
</event>
<event>
 7    1  0.3050261E-013  0.7246163E+02  0.7816164E-02  0.1226708E+00
        -11   -1    0    0    0    0  0.00000000000E+00  0.00000000000E+00  0.45593999997E+02  0.45594000000E+02  0.51100000000E-03 0.  1.
         11   -1    0    0    0    0 -0.00000000000E+00 -0.00000000000E+00 -0.45593999997E+02  0.45594000000E+02  0.51100000000E-03 0. -1.
    9900012    2    1    2    0    0 -0.11795407180E+02  0.14078591197E+02  0.36522261810E+01  0.72461625105E+02  0.70000071401E+02 0.  0.
         12    1    1    2    0    0  0.11795407180E+02 -0.14078591197E+02 -0.36522261810E+01  0.18726374895E+02  0.00000000000E+00 0. -1.
         11    1    3    3    0    0 -0.19663213530E+02  0.17343738884E+02  0.69813186592E+01  0.27132748760E+02  0.51100000000E-03 0. -1.
        -11    1    3    3    0    0 -0.17553163673E+02  0.13106196532E+01 -0.75569446938E+01  0.19155643873E+02  0.51100000000E-03 0.  1.
        -12    1    3    3    0    0  0.25420970023E+02 -0.45757673400E+01  0.42278522155E+01  0.26173232472E+02  0.00000000000E+00 0.  1.
</event>
<event>
 7    1  0.3050261E-013  0.7246146E+02  0.7816164E-02  0.1226708E+00
        -11   -1    0    0    0    0  0.00000000000E+00  0.00000000000E+00  0.45593999997E+02  0.45594000000E+02  0.51100000000E-03 0. -1.
         11   -1    0    0    0    0 -0.00000000000E+00 -0.00000000000E+00 -0.45593999997E+02  0.45594000000E+02  0.51100000000E-03 0.  1.
    9900012    2    1    2    0    0 -0.18646297853E+02 -0.13549075977E+01 -0.10784003149E+01  0.72461464136E+02  0.69999861709E+02 0.  0.
         12    1    1    2    0    0  0.18646297853E+02  0.13549075977E+01  0.10784003149E+01  0.18726535864E+02  0.00000000000E+00 0. -1.
         11    1    3    3    0    0 -0.14088559886E+02 -0.21941110174E+02 -0.76630600226E+01  0.27177607042E+02  0.51100000000E-03 0. -1.
        -11    1    3    3    0    0 -0.29017552223E+01  0.22776463495E+01 -0.15853304562E+02  0.16276827764E+02  0.51100000000E-03 0.  1.
        -12    1    3    3    0    0 -0.16559827443E+01  0.18308556227E+02  0.22437964270E+02  0.29007029330E+02  0.00000000000E+00 0.  1.
</event>
<event>
 7    1  0.3050261E-013  0.7246157E+02  0.7816164E-02  0.1226708E+00
        -11   -1    0    0    0    0  0.00000000000E+00  0.00000000000E+00  0.45593999997E+02  0.45594000000E+02  0.51100000000E-03 0.  1.
         11   -1    0    0    0    0 -0.00000000000E+00 -0.00000000000E+00 -0.45593999997E+02  0.45594000000E+02  0.51100000000E-03 0. -1.
    9900012    2    1    2    0    0 -0.58510528989E+01  0.16251846472E+02  0.72333828176E+01  0.72461570529E+02  0.70000000305E+02 0.  0.
         12    1    1    2    0    0  0.58510528989E+01 -0.16251846472E+02 -0.72333828176E+01  0.18726429471E+02  0.00000000000E+00 0. -1.
         11    1    3    3    0    0 -0.68608479314E+00 -0.11049261323E+02 -0.23212576571E+02  0.25717321001E+02  0.51100000000E-03 0. -1.
        -11    1    3    3    0    0  0.30284799369E+01 -0.23672810437E+01  0.63649031721E+00  0.38962585198E+01  0.51100000000E-03 0.  1.
        -12    1    3    3    0    0 -0.81934480427E+01  0.29668388838E+02  0.29809469072E+02  0.42847991008E+02  0.00000000000E+00 0.  1.
</event>
<event>
 7    1  0.3050261E-013  0.7246155E+02  0.7816164E-02  0.1226708E+00
        -11   -1    0    0    0    0  0.00000000000E+00  0.00000000000E+00  0.45593999997E+02  0.45594000000E+02  0.51100000000E-03 0. -1.
         11   -1    0    0    0    0 -0.00000000000E+00 -0.00000000000E+00 -0.45593999997E+02  0.45594000000E+02  0.51100000000E-03 0.  1.
    9900012    2    1    2    0    0 -0.13427354544E+02 -0.84814181752E+01 -0.99222724965E+01  0.72461553573E+02  0.69999978217E+02 0.  0.
         12    1    1    2    0    0  0.13427354544E+02  0.84814181752E+01  0.99222724965E+01  0.18726446427E+02  0.00000000000E+00 0. -1.
         11    1    3    3    0    0  0.10561319519E+02  0.91883326881E+00 -0.10862698170E+02  0.15178403617E+02  0.51100000000E-03 0. -1.
        -11    1    3    3    0    0  0.15897951687E+01 -0.20697634711E+01 -0.21998110023E+02  0.22152386200E+02  0.51100000000E-03 0.  1.
         12    1    3    3    0    0 -0.25578469231E+02 -0.73304879729E+01  0.22938535697E+02  0.35130763756E+02  0.00000000000E+00 0. -1.
</event>
<event>
 7    1  0.3050261E-013  0.7246163E+02  0.7816164E-02  0.1226708E+00
        -11   -1    0    0    0    0  0.00000000000E+00  0.00000000000E+00  0.45593999997E+02  0.45594000000E+02  0.51100000000E-03 0.  1.
         11   -1    0    0    0    0 -0.00000000000E+00 -0.00000000000E+00 -0.45593999997E+02  0.45594000000E+02  0.51100000000E-03 0. -1.
    9900012    2    1    2    0    0  0.10712813815E+01 -0.78925856546E+01  0.16948048023E+02  0.72461631321E+02  0.70000079498E+02 0.  0.
         12    1    1    2    0    0 -0.10712813815E+01  0.78925856546E+01 -0.16948048023E+02  0.18726368679E+02  0.00000000000E+00 0. -1.
         11    1    3    3    0    0 -0.41231610851E+01  0.27976900847E+00  0.17280014535E+01  0.44793657270E+01  0.51100000000E-03 0. -1.
        -11    1    3    3    0    0 -0.11652525184E+02 -0.30929165308E+02 -0.46706416218E+01  0.33379776861E+02  0.51100000000E-03 0.  1.
         12    1    3    3    0    0  0.16846967651E+02  0.22756810645E+02  0.19890688192E+02  0.34602488733E+02  0.00000000000E+00 0. -1.
</event>
<event>
 7    1  0.3050261E-013  0.7246157E+02  0.7816164E-02  0.1226708E+00
        -11   -1    0    0    0    0  0.00000000000E+00  0.00000000000E+00  0.45593999997E+02  0.45594000000E+02  0.51100000000E-03 0.  1.
         11   -1    0    0    0    0 -0.00000000000E+00 -0.00000000000E+00 -0.45593999997E+02  0.45594000000E+02  0.51100000000E-03 0. -1.
    9900012    2    1    2    0    0 -0.14230807205E+01  0.17268472487E+02 -0.71030892816E+01  0.72461570065E+02  0.69999999701E+02 0.  0.
         12    1    1    2    0    0  0.14230807205E+01 -0.17268472487E+02  0.71030892816E+01  0.18726429935E+02  0.00000000000E+00 0. -1.
         11    1    3    3    0    0 -0.17885782361E+02  0.12735390858E+02 -0.15565103131E+02  0.26914008001E+02  0.51100000000E-03 0. -1.
        -11    1    3    3    0    0 -0.27193937055E+01  0.75991606835E+01  0.20952208930E+02  0.22453004354E+02  0.51100000000E-03 0.  1.
         12    1    3    3    0    0  0.19182095346E+02 -0.30660790550E+01 -0.12490195081E+02  0.23094557709E+02  0.00000000000E+00 0. -1.
</event>
<event>
 7    1  0.3050261E-013  0.7246162E+02  0.7816164E-02  0.1226708E+00
        -11   -1    0    0    0    0  0.00000000000E+00  0.00000000000E+00  0.45593999997E+02  0.45594000000E+02  0.51100000000E-03 0. -1.
         11   -1    0    0    0    0 -0.00000000000E+00 -0.00000000000E+00 -0.45593999997E+02  0.45594000000E+02  0.51100000000E-03 0.  1.
    9900012    2    1    2    0    0 -0.47597726343E+01  0.95862582807E+01 -0.15366379139E+02  0.72461617776E+02  0.70000061853E+02 0.  0.
         12    1    1    2    0    0  0.47597726343E+01 -0.95862582807E+01  0.15366379139E+02  0.18726382224E+02  0.00000000000E+00 0. -1.
         11    1    3    3    0    0 -0.10663520278E+02 -0.95269468619E+01 -0.11800385940E+02  0.18539754309E+02  0.51100000000E-03 0.  1.
        -11    1    3    3    0    0 -0.20031033744E+02  0.81106721570E+00  0.57227841236E+01  0.20848270942E+02  0.51100000000E-03 0. -1.
         12    1    3    3    0    0  0.25934781388E+02  0.18302137927E+02 -0.92887773228E+01  0.33073592525E+02  0.00000000000E+00 0. -1.
</event>
<event>
 7    1  0.3050261E-013  0.7246160E+02  0.7816164E-02  0.1226708E+00
        -11   -1    0    0    0    0  0.00000000000E+00  0.00000000000E+00  0.45593999997E+02  0.45594000000E+02  0.51100000000E-03 0. -1.
         11   -1    0    0    0    0 -0.00000000000E+00 -0.00000000000E+00 -0.45593999997E+02  0.45594000000E+02  0.51100000000E-03 0.  1.
    9900012    2    1    2    0    0  0.14618551981E+01  0.74561054880E+01 -0.17115707572E+02  0.72461602179E+02  0.70000041536E+02 0.  0.
         12    1    1    2    0    0 -0.14618551981E+01 -0.74561054880E+01  0.17115707572E+02  0.18726397821E+02  0.00000000000E+00 0. -1.
         11    1    3    3    0    0  0.35025886404E+01  0.37826769614E+01 -0.73440999635E+01  0.89728800680E+01  0.51100000000E-03 0. -1.
        -11    1    3    3    0    0  0.27678718257E+02  0.24934879591E+01 -0.17393104995E+02  0.32784890242E+02  0.51100000000E-03 0.  1.
         12    1    3    3    0    0 -0.29719451699E+02  0.11799405675E+01  0.76214973873E+01  0.30703831869E+02  0.00000000000E+00 0. -1.
</event>
<event>
 7    1  0.3050261E-013  0.7246155E+02  0.7816164E-02  0.1226708E+00
        -11   -1    0    0    0    0  0.00000000000E+00  0.00000000000E+00  0.45593999997E+02  0.45594000000E+02  0.51100000000E-03 0.  1.
         11   -1    0    0    0    0 -0.00000000000E+00 -0.00000000000E+00 -0.45593999997E+02  0.45594000000E+02  0.51100000000E-03 0. -1.
    9900012    2    1    2    0    0  0.48173642666E+01 -0.68079229227E+01  0.16766789609E+02  0.72461546871E+02  0.69999969487E+02 0.  0.
         12    1    1    2    0    0 -0.48173642666E+01  0.68079229227E+01 -0.16766789609E+02  0.18726453129E+02  0.00000000000E+00 0. -1.
         11    1    3    3    0    0 -0.19417997708E+02 -0.20492860818E+01  0.38570566824E+01  0.19903142841E+02  0.51100000000E-03 0. -1.
        -11    1    3    3    0    0 -0.62349272930E+01  0.13889125833E+02  0.39306379854E+01  0.15723614406E+02  0.51100000000E-03 0.  1.
         12    1    3    3    0    0  0.30470289267E+02 -0.18647762673E+02  0.89790949410E+01  0.36834789625E+02  0.00000000000E+00 0. -1.
</event>
<event>
 7    1  0.3050261E-013  0.7246156E+02  0.7816164E-02  0.1226708E+00
        -11   -1    0    0    0    0  0.00000000000E+00  0.00000000000E+00  0.45593999997E+02  0.45594000000E+02  0.51100000000E-03 0.  1.
         11   -1    0    0    0    0 -0.00000000000E+00 -0.00000000000E+00 -0.45593999997E+02  0.45594000000E+02  0.51100000000E-03 0. -1.
    9900012    2    1    2    0    0 -0.77652619344E+00  0.15594694977E+02  0.10338370529E+02  0.72461563886E+02  0.69999991652E+02 0.  0.
         12    1    1    2    0    0  0.77652619344E+00 -0.15594694977E+02 -0.10338370529E+02  0.18726436114E+02  0.00000000000E+00 0. -1.
         11    1    3    3    0    0  0.55457403850E+01  0.12574941181E+02 -0.12009025913E+02  0.18251057114E+02  0.51100000000E-03 0. -1.
        -11    1    3    3    0    0 -0.15596475273E+02 -0.22158866047E+01 -0.10993591117E+02  0.19209873511E+02  0.51100000000E-03 0.  1.
         12    1    3    3    0    0  0.92742086941E+01  0.52356404005E+01  0.33340987559E+02  0.35000633262E+02  0.00000000000E+00 0. -1.
</event>
<event>
 7    1  0.3050261E-013  0.7246164E+02  0.7816164E-02  0.1226708E+00
        -11   -1    0    0    0    0  0.00000000000E+00  0.00000000000E+00  0.45593999997E+02  0.45594000000E+02  0.51100000000E-03 0.  1.
         11   -1    0    0    0    0 -0.00000000000E+00 -0.00000000000E+00 -0.45593999997E+02  0.45594000000E+02  0.51100000000E-03 0. -1.
    9900012    2    1    2    0    0  0.43811841641E+01  0.15037559087E+02  0.10264196768E+02  0.72461636411E+02  0.70000086129E+02 0.  0.
         12    1    1    2    0    0 -0.43811841641E+01 -0.15037559087E+02 -0.10264196768E+02  0.18726363589E+02  0.00000000000E+00 0. -1.
         11    1    3    3    0    0  0.56596696535E+00 -0.20986275286E+02 -0.45844978945E+01  0.21488640957E+02  0.51100000000E-03 0. -1.
        -11    1    3    3    0    0 -0.67541030811E+01  0.13090317054E+00 -0.51986069359E+01  0.85241162830E+01  0.51100000000E-03 0.  1.
        -12    1    3    3    0    0  0.10569320280E+02  0.35892931202E+02  0.20047301599E+02  0.42448879171E+02  0.00000000000E+00 0.  1.
</event>
<event>
 7    1  0.3050261E-013  0.7246160E+02  0.7816164E-02  0.1226708E+00
        -11   -1    0    0    0    0  0.00000000000E+00  0.00000000000E+00  0.45593999997E+02  0.45594000000E+02  0.51100000000E-03 0.  1.
         11   -1    0    0    0    0 -0.00000000000E+00 -0.00000000000E+00 -0.45593999997E+02  0.45594000000E+02  0.51100000000E-03 0. -1.
    9900012    2    1    2    0    0 -0.65662737508E+01 -0.40825552833E+01  0.17055643570E+02  0.72461596550E+02  0.70000034202E+02 0.  0.
         12    1    1    2    0    0  0.65662737508E+01  0.40825552833E+01 -0.17055643570E+02  0.18726403450E+02  0.00000000000E+00 0. -1.
         11    1    3    3    0    0  0.22824700406E+01 -0.49339417746E+01  0.95487390715E+01  0.10987805470E+02  0.51100000000E-03 0. -1.
        -11    1    3    3    0    0  0.19651781393E+02  0.34200557950E+01  0.21747608302E+02  0.29510129797E+02  0.51100000000E-03 0.  1.
         12    1    3    3    0    0 -0.28500525184E+02 -0.25686693037E+01 -0.14240703804E+02  0.31963661282E+02  0.00000000000E+00 0. -1.
</event>
<event>
 7    1  0.3050261E-013  0.7246127E+02  0.7816164E-02  0.1226709E+00
        -11   -1    0    0    0    0  0.00000000000E+00  0.00000000000E+00  0.45593999997E+02  0.45594000000E+02  0.51100000000E-03 0. -1.
         11   -1    0    0    0    0 -0.00000000000E+00 -0.00000000000E+00 -0.45593999997E+02  0.45594000000E+02  0.51100000000E-03 0.  1.
    9900012    2    1    2    0    0 -0.11435510204E+02 -0.12280108688E+02 -0.83137408548E+01  0.72461274445E+02  0.69999614600E+02 0.  0.
         12    1    1    2    0    0  0.11435510204E+02  0.12280108688E+02  0.83137408548E+01  0.18726725555E+02  0.00000000000E+00 0. -1.
         11    1    3    3    0    0  0.14292028938E+02 -0.93466170393E+01 -0.96100082812E+01  0.19595244338E+02  0.51100000000E-03 0. -1.
        -11    1    3    3    0    0  0.41918856267E+01 -0.12699496564E+02 -0.12680260988E+02  0.18429273916E+02  0.51100000000E-03 0.  1.
         12    1    3    3    0    0 -0.29919424768E+02  0.97660049147E+01  0.13976528415E+02  0.34436756191E+02  0.00000000000E+00 0. -1.
</event>
<event>
 7    1  0.3050261E-013  0.7246090E+02  0.7816164E-02  0.1226710E+00
        -11   -1    0    0    0    0  0.00000000000E+00  0.00000000000E+00  0.45593999997E+02  0.45594000000E+02  0.51100000000E-03 0.  1.
         11   -1    0    0    0    0 -0.00000000000E+00 -0.00000000000E+00 -0.45593999997E+02  0.45594000000E+02  0.51100000000E-03 0. -1.
    9900012    2    1    2    0    0  0.18221089435E+02 -0.43167919727E+01  0.24774515871E+00  0.72460902766E+02  0.69999130415E+02 0.  0.
         12    1    1    2    0    0 -0.18221089435E+02  0.43167919727E+01 -0.24774515871E+00  0.18727097234E+02  0.00000000000E+00 0. -1.
         11    1    3    3    0    0 -0.20364487091E+01 -0.16485183449E+02  0.45745893135E+01  0.17228907810E+02  0.51100000000E-03 0. -1.
        -11    1    3    3    0    0  0.29596026728E+02  0.26059685766E+01  0.13760152550E+02  0.32742291745E+02  0.51100000000E-03 0.  1.
         12    1    3    3    0    0 -0.93384885832E+01  0.95624228994E+01 -0.18086996704E+02  0.22489703211E+02  0.00000000000E+00 0. -1.
</event>
<event>
 7    1  0.3050261E-013  0.7246182E+02  0.7816164E-02  0.1226707E+00
        -11   -1    0    0    0    0  0.00000000000E+00  0.00000000000E+00  0.45593999997E+02  0.45594000000E+02  0.51100000000E-03 0. -1.
         11   -1    0    0    0    0 -0.00000000000E+00 -0.00000000000E+00 -0.45593999997E+02  0.45594000000E+02  0.51100000000E-03 0.  1.
    9900012    2    1    2    0    0  0.10483664856E+02  0.12378683773E+02 -0.93557953875E+01  0.72461816510E+02  0.70000320741E+02 0.  0.
         12    1    1    2    0    0 -0.10483664856E+02 -0.12378683773E+02  0.93557953875E+01  0.18726183490E+02  0.00000000000E+00 0. -1.
         11    1    3    3    0    0 -0.27904735080E+01  0.31238625036E+01 -0.16337928116E+02  0.16866331988E+02  0.51100000000E-03 0. -1.
        -11    1    3    3    0    0  0.19988840391E+02 -0.15133062222E+02 -0.78511529277E+01  0.26271732241E+02  0.51100000000E-03 0.  1.
         12    1    3    3    0    0 -0.67147020262E+01  0.24387883491E+02  0.14833285656E+02  0.29323752281E+02  0.00000000000E+00 0. -1.
</event>
<event>
 7    1  0.3050261E-013  0.7246154E+02  0.7816164E-02  0.1226708E+00
        -11   -1    0    0    0    0  0.00000000000E+00  0.00000000000E+00  0.45593999997E+02  0.45594000000E+02  0.51100000000E-03 0.  1.
         11   -1    0    0    0    0 -0.00000000000E+00 -0.00000000000E+00 -0.45593999997E+02  0.45594000000E+02  0.51100000000E-03 0. -1.
    9900012    2    1    2    0    0 -0.55315132895E+01 -0.17062706098E+02 -0.53802097202E+01  0.72461541838E+02  0.69999962930E+02 0.  0.
         12    1    1    2    0    0  0.55315132895E+01  0.17062706098E+02  0.53802097202E+01  0.18726458162E+02  0.00000000000E+00 0. -1.
         11    1    3    3    0    0 -0.11203042820E+02 -0.12291956844E+02 -0.11454731525E+00  0.16631701441E+02  0.51100000000E-03 0. -1.
        -11    1    3    3    0    0 -0.24203876890E+02 -0.80727996508E+01 -0.29175929399E+01  0.25680928712E+02  0.51100000000E-03 0.  1.
         12    1    3    3    0    0  0.29875406420E+02  0.33020503964E+01 -0.23480694651E+01  0.30148911685E+02  0.00000000000E+00 0. -1.
</event>
<event>
 7    1  0.3050261E-013  0.7246163E+02  0.7816164E-02  0.1226708E+00
        -11   -1    0    0    0    0  0.00000000000E+00  0.00000000000E+00  0.45593999997E+02  0.45594000000E+02  0.51100000000E-03 0.  1.
         11   -1    0    0    0    0 -0.00000000000E+00 -0.00000000000E+00 -0.45593999997E+02  0.45594000000E+02  0.51100000000E-03 0. -1.
    9900012    2    1    2    0    0  0.14004442498E+02  0.12419042524E+02 -0.56557753267E+00  0.72461630762E+02  0.70000078770E+02 0.  0.
         12    1    1    2    0    0 -0.14004442498E+02 -0.12419042524E+02  0.56557753267E+00  0.18726369238E+02  0.00000000000E+00 0. -1.
         11    1    3    3    0    0 -0.25564067001E+01  0.28215585130E+01 -0.25002316274E+01  0.45549496277E+01  0.51100000000E-03 0. -1.
        -11    1    3    3    0    0  0.12828255222E+02  0.36566937593E+02 -0.67358445939E+01  0.39332895389E+02  0.51100000000E-03 0.  1.
         12    1    3    3    0    0  0.37325939759E+01 -0.26969453582E+02  0.86704986886E+01  0.28573785746E+02  0.00000000000E+00 0. -1.
</event>
<event>
 7    1  0.3050261E-013  0.7246154E+02  0.7816164E-02  0.1226708E+00
        -11   -1    0    0    0    0  0.00000000000E+00  0.00000000000E+00  0.45593999997E+02  0.45594000000E+02  0.51100000000E-03 0.  1.
         11   -1    0    0    0    0 -0.00000000000E+00 -0.00000000000E+00 -0.45593999997E+02  0.45594000000E+02  0.51100000000E-03 0. -1.
    9900012    2    1    2    0    0 -0.82405169144E+01 -0.33223485288E+01  0.16484421326E+02  0.72461541039E+02  0.69999961889E+02 0.  0.
         12    1    1    2    0    0  0.82405169144E+01  0.33223485288E+01 -0.16484421326E+02  0.18726458961E+02  0.00000000000E+00 0. -1.
         11    1    3    3    0    0  0.29702684739E+01 -0.36837579574E+01  0.62790915630E+01  0.78625414857E+01  0.51100000000E-03 0. -1.
        -11    1    3    3    0    0 -0.26116158039E+02  0.74190660316E+01  0.28911735248E+02  0.39660870979E+02  0.51100000000E-03 0.  1.
         12    1    3    3    0    0  0.14905372651E+02 -0.70576566029E+01 -0.18706405485E+02  0.24938128574E+02  0.00000000000E+00 0. -1.
</event>
<event>
 7    1  0.3050261E-013  0.7246160E+02  0.7816164E-02  0.1226708E+00
        -11   -1    0    0    0    0  0.00000000000E+00  0.00000000000E+00  0.45593999997E+02  0.45594000000E+02  0.51100000000E-03 0.  1.
         11   -1    0    0    0    0 -0.00000000000E+00 -0.00000000000E+00 -0.45593999997E+02  0.45594000000E+02  0.51100000000E-03 0. -1.
    9900012    2    1    2    0    0  0.11471031323E+02  0.16018331152E+01  0.14714881156E+02  0.72461597346E+02  0.70000035239E+02 0.  0.
         12    1    1    2    0    0 -0.11471031323E+02 -0.16018331152E+01 -0.14714881156E+02  0.18726402654E+02  0.00000000000E+00 0. -1.
         11    1    3    3    0    0  0.24050445977E+02 -0.12700703494E+02  0.11950654022E+02  0.29707742303E+02  0.51100000000E-03 0. -1.
        -11    1    3    3    0    0  0.23569207105E+01  0.10523024818E+02 -0.15485378379E+02  0.18870242986E+02  0.51100000000E-03 0.  1.
        -12    1    3    3    0    0 -0.14936335364E+02  0.37795117909E+01  0.18249605513E+02  0.23883612056E+02  0.00000000000E+00 0.  1.
</event>
<event>
 7    1  0.3050261E-013  0.7246153E+02  0.7816164E-02  0.1226708E+00
        -11   -1    0    0    0    0  0.00000000000E+00  0.00000000000E+00  0.45593999997E+02  0.45594000000E+02  0.51100000000E-03 0. -1.
         11   -1    0    0    0    0 -0.00000000000E+00 -0.00000000000E+00 -0.45593999997E+02  0.45594000000E+02  0.51100000000E-03 0.  1.
    9900012    2    1    2    0    0 -0.82135779995E+00  0.99128824116E+01 -0.15866343380E+02  0.72461528934E+02  0.69999946121E+02 0.  0.
         12    1    1    2    0    0  0.82135779995E+00 -0.99128824116E+01  0.15866343380E+02  0.18726471066E+02  0.00000000000E+00 0. -1.
         11    1    3    3    0    0  0.22100894362E+02 -0.82117327406E+01 -0.17481603868E+02  0.29351125366E+02  0.51100000000E-03 0.  1.
        -11    1    3    3    0    0 -0.40355517997E+01  0.20102496197E+02  0.94389905261E+01  0.22571897884E+02  0.51100000000E-03 0. -1.
        -12    1    3    3    0    0 -0.18886700363E+02 -0.19778810446E+01 -0.78237300378E+01  0.20538505684E+02  0.00000000000E+00 0.  1.
</event>
<event>
 7    1  0.3050261E-013  0.7246158E+02  0.7816164E-02  0.1226708E+00
        -11   -1    0    0    0    0  0.00000000000E+00  0.00000000000E+00  0.45593999997E+02  0.45594000000E+02  0.51100000000E-03 0.  1.
         11   -1    0    0    0    0 -0.00000000000E+00 -0.00000000000E+00 -0.45593999997E+02  0.45594000000E+02  0.51100000000E-03 0. -1.
    9900012    2    1    2    0    0 -0.52064625450E+01  0.97740061083E+01  0.15101004714E+02  0.72461580400E+02  0.70000013165E+02 0.  0.
         12    1    1    2    0    0  0.52064625450E+01 -0.97740061083E+01 -0.15101004714E+02  0.18726419600E+02  0.00000000000E+00 0. -1.
         11    1    3    3    0    0 -0.20606450841E+02  0.14942470560E+01 -0.72177683906E+01  0.21885035329E+02  0.51100000000E-03 0. -1.
        -11    1    3    3    0    0  0.41700564109E+01  0.23059351896E+02  0.21802491166E+02  0.32007369489E+02  0.51100000000E-03 0.  1.
        -12    1    3    3    0    0  0.11229931885E+02 -0.14779592843E+02  0.51628193876E+00  0.18569175582E+02  0.00000000000E+00 0.  1.
</event>
<event>
 7    1  0.3050261E-013  0.7246157E+02  0.7816164E-02  0.1226708E+00
        -11   -1    0    0    0    0  0.00000000000E+00  0.00000000000E+00  0.45593999997E+02  0.45594000000E+02  0.51100000000E-03 0. -1.
         11   -1    0    0    0    0 -0.00000000000E+00 -0.00000000000E+00 -0.45593999997E+02  0.45594000000E+02  0.51100000000E-03 0.  1.
    9900012    2    1    2    0    0 -0.11198578987E+02 -0.48022256102E+01 -0.14220045589E+02  0.72461568448E+02  0.69999997594E+02 0.  0.
         12    1    1    2    0    0  0.11198578987E+02  0.48022256102E+01  0.14220045589E+02  0.18726431552E+02  0.00000000000E+00 0. -1.
         11    1    3    3    0    0 -0.11301693543E+02 -0.15385030424E+02 -0.28648536533E+02  0.34426241209E+02  0.51100000000E-03 0. -1.
        -11    1    3    3    0    0  0.14742019405E+02  0.41110445448E+00 -0.54108352552E+00  0.14757673078E+02  0.51100000000E-03 0.  1.
        -12    1    3    3    0    0 -0.14638904850E+02  0.10171700359E+02  0.14969574470E+02  0.23277654161E+02  0.00000000000E+00 0.  1.
</event>
<event>
 7    1  0.3050261E-013  0.7246160E+02  0.7816164E-02  0.1226708E+00
        -11   -1    0    0    0    0  0.00000000000E+00  0.00000000000E+00  0.45593999997E+02  0.45594000000E+02  0.51100000000E-03 0.  1.
         11   -1    0    0    0    0 -0.00000000000E+00 -0.00000000000E+00 -0.45593999997E+02  0.45594000000E+02  0.51100000000E-03 0. -1.
    9900012    2    1    2    0    0  0.17186354189E+02  0.69830159450E-01 -0.74365514662E+01  0.72461603009E+02  0.70000042617E+02 0.  0.
         12    1    1    2    0    0 -0.17186354189E+02 -0.69830159449E-01  0.74365514662E+01  0.18726396991E+02  0.00000000000E+00 0. -1.
         11    1    3    3    0    0 -0.23464117217E+01  0.17121051189E+01 -0.53240349723E+01  0.60648413461E+01  0.51100000000E-03 0. -1.
        -11    1    3    3    0    0  0.24360319173E+02 -0.66429218612E+01 -0.29100657151E+02  0.38527935422E+02  0.51100000000E-03 0.  1.
         12    1    3    3    0    0 -0.48275532621E+01  0.50006469018E+01  0.26988140657E+02  0.27868826241E+02  0.00000000000E+00 0. -1.
</event>
<event>
 7    1  0.3050261E-013  0.7246156E+02  0.7816164E-02  0.1226708E+00
        -11   -1    0    0    0    0  0.00000000000E+00  0.00000000000E+00  0.45593999997E+02  0.45594000000E+02  0.51100000000E-03 0. -1.
         11   -1    0    0    0    0 -0.00000000000E+00 -0.00000000000E+00 -0.45593999997E+02  0.45594000000E+02  0.51100000000E-03 0.  1.
    9900012    2    1    2    0    0 -0.16577894621E+02  0.25963642160E+01 -0.83133570971E+01  0.72461558709E+02  0.69999984908E+02 0.  0.
         12    1    1    2    0    0  0.16577894621E+02 -0.25963642160E+01  0.83133570971E+01  0.18726441291E+02  0.00000000000E+00 0. -1.
         11    1    3    3    0    0  0.26916634004E+01  0.30105057662E+01  0.29049349441E+01  0.49746199975E+01  0.51100000000E-03 0. -1.
        -11    1    3    3    0    0 -0.11697341422E+02  0.28696272882E+02  0.77283899298E+01  0.31937938018E+02  0.51100000000E-03 0.  1.
        -12    1    3    3    0    0 -0.75722165990E+01 -0.29110414432E+02 -0.18946681971E+02  0.35549000694E+02  0.00000000000E+00 0.  1.
</event>
<event>
 7    1  0.3050261E-013  0.7246156E+02  0.7816164E-02  0.1226708E+00
        -11   -1    0    0    0    0  0.00000000000E+00  0.00000000000E+00  0.45593999997E+02  0.45594000000E+02  0.51100000000E-03 0.  1.
         11   -1    0    0    0    0 -0.00000000000E+00 -0.00000000000E+00 -0.45593999997E+02  0.45594000000E+02  0.51100000000E-03 0. -1.
    9900012    2    1    2    0    0  0.24179320395E+01 -0.18448815246E+02  0.21152731267E+01  0.72461559876E+02  0.69999986428E+02 0.  0.
         12    1    1    2    0    0 -0.24179320395E+01  0.18448815246E+02 -0.21152731267E+01  0.18726440124E+02  0.00000000000E+00 0. -1.
         11    1    3    3    0    0  0.19747510519E+02  0.32882508698E+01  0.20845475272E+01  0.20127645271E+02  0.51100000000E-03 0. -1.
        -11    1    3    3    0    0  0.86749396839E+01  0.70393279081E+01  0.66301153325E+01  0.12990963994E+02  0.51100000000E-03 0.  1.
        -12    1    3    3    0    0 -0.26004518164E+02 -0.28776394023E+02 -0.65993897330E+01  0.39342950611E+02  0.00000000000E+00 0.  1.
</event>
<event>
 7    1  0.3050261E-013  0.7246152E+02  0.7816164E-02  0.1226708E+00
        -11   -1    0    0    0    0  0.00000000000E+00  0.00000000000E+00  0.45593999997E+02  0.45594000000E+02  0.51100000000E-03 0. -1.
         11   -1    0    0    0    0 -0.00000000000E+00 -0.00000000000E+00 -0.45593999997E+02  0.45594000000E+02  0.51100000000E-03 0.  1.
    9900012    2    1    2    0    0  0.57605873361E+01 -0.16365200614E+02  0.70481925768E+01  0.72461516716E+02  0.69999930204E+02 0.  0.
         12    1    1    2    0    0 -0.57605873361E+01  0.16365200614E+02 -0.70481925768E+01  0.18726483284E+02  0.00000000000E+00 0. -1.
         11    1    3    3    0    0 -0.75209662405E+01 -0.22463347027E+01  0.20551915393E+00  0.78519546083E+01  0.51100000000E-03 0. -1.
        -11    1    3    3    0    0 -0.18653343377E+02  0.11154041740E+02 -0.47899105398E+01  0.22255406299E+02  0.51100000000E-03 0.  1.
         12    1    3    3    0    0  0.31934896954E+02 -0.25272907651E+02  0.11632583963E+02  0.42354155809E+02  0.00000000000E+00 0. -1.
</event>
<event>
 7    1  0.3050261E-013  0.7246156E+02  0.7816164E-02  0.1226708E+00
        -11   -1    0    0    0    0  0.00000000000E+00  0.00000000000E+00  0.45593999997E+02  0.45594000000E+02  0.51100000000E-03 0.  1.
         11   -1    0    0    0    0 -0.00000000000E+00 -0.00000000000E+00 -0.45593999997E+02  0.45594000000E+02  0.51100000000E-03 0. -1.
    9900012    2    1    2    0    0 -0.20903303952E+01  0.97008632889E+00  0.18584102816E+02  0.72461563443E+02  0.69999991075E+02 0.  0.
         12    1    1    2    0    0  0.20903303952E+01 -0.97008632889E+00 -0.18584102816E+02  0.18726436557E+02  0.00000000000E+00 0. -1.
         11    1    3    3    0    0 -0.20045855409E+02 -0.23477480959E+02  0.23589979595E+02  0.38852484718E+02  0.51100000000E-03 0. -1.
        -11    1    3    3    0    0 -0.76238711733E+00  0.63167153292E+01 -0.40300524180E+01  0.75314971566E+01  0.51100000000E-03 0.  1.
        -12    1    3    3    0    0  0.18717912131E+02  0.18130851958E+02 -0.97582436091E+00  0.26077581569E+02  0.00000000000E+00 0.  1.
</event>
<event>
 7    1  0.3050261E-013  0.7246174E+02  0.7816164E-02  0.1226708E+00
        -11   -1    0    0    0    0  0.00000000000E+00  0.00000000000E+00  0.45593999997E+02  0.45594000000E+02  0.51100000000E-03 0.  1.
         11   -1    0    0    0    0 -0.00000000000E+00 -0.00000000000E+00 -0.45593999997E+02  0.45594000000E+02  0.51100000000E-03 0. -1.
    9900012    2    1    2    0    0  0.64779239038E+00  0.18269732612E+02  0.40583332754E+01  0.72461739463E+02  0.70000220374E+02 0.  0.
         12    1    1    2    0    0 -0.64779239038E+00 -0.18269732612E+02 -0.40583332754E+01  0.18726260537E+02  0.00000000000E+00 0. -1.
         11    1    3    3    0    0 -0.13712064160E+02  0.24500331456E+01 -0.20837136337E+02  0.25064110136E+02  0.51100000000E-03 0. -1.
        -11    1    3    3    0    0  0.15310643218E+02 -0.17835039654E+01 -0.16813075570E+01  0.15505595039E+02  0.51100000000E-03 0.  1.
        -12    1    3    3    0    0 -0.95078666832E+00  0.17603203432E+02  0.26576777169E+02  0.31892034288E+02  0.00000000000E+00 0.  1.
</event>
<event>
 7    1  0.3050261E-013  0.7246160E+02  0.7816164E-02  0.1226708E+00
        -11   -1    0    0    0    0  0.00000000000E+00  0.00000000000E+00  0.45593999997E+02  0.45594000000E+02  0.51100000000E-03 0.  1.
         11   -1    0    0    0    0 -0.00000000000E+00 -0.00000000000E+00 -0.45593999997E+02  0.45594000000E+02  0.51100000000E-03 0. -1.
    9900012    2    1    2    0    0  0.85949853082E+01  0.13133753008E+02 -0.10213177282E+02  0.72461595361E+02  0.70000032654E+02 0.  0.
         12    1    1    2    0    0 -0.85949853082E+01 -0.13133753008E+02  0.10213177282E+02  0.18726404639E+02  0.00000000000E+00 0. -1.
         11    1    3    3    0    0 -0.25168952887E+01  0.18524553965E+02  0.54957072891E+01  0.19485806639E+02  0.51100000000E-03 0.  1.
        -11    1    3    3    0    0 -0.10584553664E+02 -0.11844908684E+01  0.12961508064E+02  0.16776068861E+02  0.51100000000E-03 0. -1.
         12    1    3    3    0    0  0.21696434260E+02 -0.42063100892E+01 -0.28670392635E+02  0.36199719861E+02  0.00000000000E+00 0. -1.
</event>
<event>
 7    1  0.3050261E-013  0.7246164E+02  0.7816164E-02  0.1226708E+00
        -11   -1    0    0    0    0  0.00000000000E+00  0.00000000000E+00  0.45593999997E+02  0.45594000000E+02  0.51100000000E-03 0.  1.
         11   -1    0    0    0    0 -0.00000000000E+00 -0.00000000000E+00 -0.45593999997E+02  0.45594000000E+02  0.51100000000E-03 0. -1.
    9900012    2    1    2    0    0 -0.19630154735E+01  0.81124172801E+01  0.16763407278E+02  0.72461639771E+02  0.70000090506E+02 0.  0.
         12    1    1    2    0    0  0.19630154735E+01 -0.81124172801E+01 -0.16763407278E+02  0.18726360229E+02  0.00000000000E+00 0. -1.
         11    1    3    3    0    0  0.86266877259E+01 -0.41841978364E+01  0.17040259828E+00  0.95893842326E+01  0.51100000000E-03 0. -1.
        -11    1    3    3    0    0  0.93056137461E+01  0.11545268178E+02  0.33575149087E+02  0.36703927596E+02  0.51100000000E-03 0.  1.
         12    1    3    3    0    0 -0.19895316946E+02  0.75134693856E+00 -0.16982144408E+02  0.26168327942E+02  0.00000000000E+00 0. -1.
</event>
<event>
 7    1  0.3050261E-013  0.7246160E+02  0.7816164E-02  0.1226708E+00
        -11   -1    0    0    0    0  0.00000000000E+00  0.00000000000E+00  0.45593999997E+02  0.45594000000E+02  0.51100000000E-03 0.  1.
         11   -1    0    0    0    0 -0.00000000000E+00 -0.00000000000E+00 -0.45593999997E+02  0.45594000000E+02  0.51100000000E-03 0. -1.
    9900012    2    1    2    0    0 -0.54191048636E+01  0.80462130008E+01  0.16017801605E+02  0.72461595929E+02  0.70000033394E+02 0.  0.
         12    1    1    2    0    0  0.54191048636E+01 -0.80462130008E+01 -0.16017801605E+02  0.18726404071E+02  0.00000000000E+00 0. -1.
         11    1    3    3    0    0 -0.26113732145E+00  0.69243151400E+01 -0.23521777268E+02  0.24521181435E+02  0.51100000000E-03 0. -1.
        -11    1    3    3    0    0 -0.11579522946E+01  0.10725475443E+02  0.50412401435E+01  0.11907593352E+02  0.51100000000E-03 0.  1.
        -12    1    3    3    0    0 -0.40000152476E+01 -0.96035775822E+01  0.34498338729E+02  0.36032821142E+02  0.00000000000E+00 0.  1.
</event>
<event>
 7    1  0.3050261E-013  0.7246152E+02  0.7816164E-02  0.1226708E+00
        -11   -1    0    0    0    0  0.00000000000E+00  0.00000000000E+00  0.45593999997E+02  0.45594000000E+02  0.51100000000E-03 0.  1.
         11   -1    0    0    0    0 -0.00000000000E+00 -0.00000000000E+00 -0.45593999997E+02  0.45594000000E+02  0.51100000000E-03 0. -1.
    9900012    2    1    2    0    0  0.25121571548E+01 -0.95374446207E+01  0.15918770677E+02  0.72461520264E+02  0.69999934826E+02 0.  0.
         12    1    1    2    0    0 -0.25121571548E+01  0.95374446207E+01 -0.15918770677E+02  0.18726479736E+02  0.00000000000E+00 0. -1.
         11    1    3    3    0    0 -0.42489055205E+01  0.26502486646E+01 -0.45697110867E+01  0.67793270892E+01  0.51100000000E-03 0. -1.
        -11    1    3    3    0    0  0.23256708378E+02 -0.51255084270E+01 -0.13407537614E+02  0.27329606407E+02  0.51100000000E-03 0.  1.
         12    1    3    3    0    0 -0.16495645703E+02 -0.70621848584E+01  0.33896019377E+02  0.38352586768E+02  0.00000000000E+00 0. -1.
</event>
<event>
 7    1  0.3050261E-013  0.7246160E+02  0.7816164E-02  0.1226708E+00
        -11   -1    0    0    0    0  0.00000000000E+00  0.00000000000E+00  0.45593999997E+02  0.45594000000E+02  0.51100000000E-03 0.  1.
         11   -1    0    0    0    0 -0.00000000000E+00 -0.00000000000E+00 -0.45593999997E+02  0.45594000000E+02  0.51100000000E-03 0. -1.
    9900012    2    1    2    0    0 -0.26276846468E+01 -0.14320224318E+02 -0.11777290007E+02  0.72461598557E+02  0.70000036817E+02 0.  0.
         12    1    1    2    0    0  0.26276846468E+01  0.14320224318E+02  0.11777290007E+02  0.18726401443E+02  0.00000000000E+00 0. -1.
         11    1    3    3    0    0 -0.15508762880E+02 -0.13127579084E+02 -0.24796395170E+02  0.32058014167E+02  0.51100000000E-03 0. -1.
        -11    1    3    3    0    0 -0.78293585664E+01 -0.11140865306E+02 -0.71537319355E+00  0.13635596591E+02  0.51100000000E-03 0.  1.
        -12    1    3    3    0    0  0.20710436800E+02  0.99482200722E+01  0.13734478356E+02  0.26767987798E+02  0.00000000000E+00 0.  1.
</event>
<event>
 7    1  0.3050261E-013  0.7246160E+02  0.7816164E-02  0.1226708E+00
        -11   -1    0    0    0    0  0.00000000000E+00  0.00000000000E+00  0.45593999997E+02  0.45594000000E+02  0.51100000000E-03 0.  1.
         11   -1    0    0    0    0 -0.00000000000E+00 -0.00000000000E+00 -0.45593999997E+02  0.45594000000E+02  0.51100000000E-03 0. -1.
    9900012    2    1    2    0    0 -0.16075463194E+02  0.88682930497E+01 -0.36892942229E+01  0.72461600710E+02  0.70000039622E+02 0.  0.
         12    1    1    2    0    0  0.16075463194E+02 -0.88682930497E+01  0.36892942229E+01  0.18726399290E+02  0.00000000000E+00 0. -1.
         11    1    3    3    0    0 -0.30640044482E+02 -0.10838786110E+02 -0.13385019628E+01  0.32528190819E+02  0.51100000000E-03 0. -1.
        -11    1    3    3    0    0 -0.90157368769E+01  0.17624420929E+01 -0.44891557002E+01  0.10224589612E+02  0.51100000000E-03 0.  1.
        -12    1    3    3    0    0  0.23580318165E+02  0.17944637067E+02  0.21383634401E+01  0.29708820280E+02  0.00000000000E+00 0.  1.
</event>
<event>
 7    1  0.3050261E-013  0.7246162E+02  0.7816164E-02  0.1226708E+00
        -11   -1    0    0    0    0  0.00000000000E+00  0.00000000000E+00  0.45593999997E+02  0.45594000000E+02  0.51100000000E-03 0. -1.
         11   -1    0    0    0    0 -0.00000000000E+00 -0.00000000000E+00 -0.45593999997E+02  0.45594000000E+02  0.51100000000E-03 0.  1.
    9900012    2    1    2    0    0 -0.10107403837E+02 -0.15351693810E+02 -0.35837566201E+01  0.72461616829E+02  0.70000060620E+02 0.  0.
         12    1    1    2    0    0  0.10107403837E+02  0.15351693810E+02  0.35837566201E+01  0.18726383171E+02  0.00000000000E+00 0. -1.
         11    1    3    3    0    0  0.21593952526E+01 -0.46483916361E+01 -0.81319974354E+01  0.96124874621E+01  0.51100000000E-03 0. -1.
        -11    1    3    3    0    0 -0.19052395479E+02  0.72079801758E+01 -0.22084306716E+02  0.30044389744E+02  0.51100000000E-03 0.  1.
         12    1    3    3    0    0  0.67855963897E+01 -0.17911282350E+02  0.26632547531E+02  0.32804739623E+02  0.00000000000E+00 0. -1.
</event>
<event>
 7    1  0.3050261E-013  0.7246152E+02  0.7816164E-02  0.1226708E+00
        -11   -1    0    0    0    0  0.00000000000E+00  0.00000000000E+00  0.45593999997E+02  0.45594000000E+02  0.51100000000E-03 0.  1.
         11   -1    0    0    0    0 -0.00000000000E+00 -0.00000000000E+00 -0.45593999997E+02  0.45594000000E+02  0.51100000000E-03 0. -1.
    9900012    2    1    2    0    0  0.14979855224E+02 -0.11129475737E+02  0.15556076239E+01  0.72461515872E+02  0.69999929105E+02 0.  0.
         12    1    1    2    0    0 -0.14979855224E+02  0.11129475737E+02 -0.15556076239E+01  0.18726484128E+02  0.00000000000E+00 0. -1.
         11    1    3    3    0    0 -0.11779472376E+02 -0.96323905999E+01 -0.26246247506E+01  0.15441100138E+02  0.51100000000E-03 0. -1.
        -11    1    3    3    0    0  0.23461360036E+02 -0.24090300857E+02  0.58281803540E+01  0.34128370846E+02  0.51100000000E-03 0.  1.
        -12    1    3    3    0    0  0.32979675647E+01  0.22593215720E+02 -0.16479479796E+01  0.22892044888E+02  0.00000000000E+00 0.  1.
</event>
<event>
 7    1  0.3050261E-013  0.7246158E+02  0.7816164E-02  0.1226708E+00
        -11   -1    0    0    0    0  0.00000000000E+00  0.00000000000E+00  0.45593999997E+02  0.45594000000E+02  0.51100000000E-03 0.  1.
         11   -1    0    0    0    0 -0.00000000000E+00 -0.00000000000E+00 -0.45593999997E+02  0.45594000000E+02  0.51100000000E-03 0. -1.
    9900012    2    1    2    0    0 -0.64976044768E+00 -0.10912186420E+02  0.15204636236E+02  0.72461575777E+02  0.70000007142E+02 0.  0.
         12    1    1    2    0    0  0.64976044768E+00  0.10912186420E+02 -0.15204636236E+02  0.18726424223E+02  0.00000000000E+00 0. -1.
         11    1    3    3    0    0 -0.31306060478E+02 -0.14062915785E+02  0.10524305589E+01  0.34335734059E+02  0.51100000000E-03 0. -1.
        -11    1    3    3    0    0  0.36542459352E+01  0.64542651497E+01 -0.94723888152E-01  0.74175484396E+01  0.51100000000E-03 0.  1.
        -12    1    3    3    0    0  0.27002054095E+02 -0.33035357847E+01  0.14246929565E+02  0.30708293278E+02  0.00000000000E+00 0.  1.
</event>
<event>
 7    1  0.3050261E-013  0.7246139E+02  0.7816164E-02  0.1226708E+00
        -11   -1    0    0    0    0  0.00000000000E+00  0.00000000000E+00  0.45593999997E+02  0.45594000000E+02  0.51100000000E-03 0.  1.
         11   -1    0    0    0    0 -0.00000000000E+00 -0.00000000000E+00 -0.45593999997E+02  0.45594000000E+02  0.51100000000E-03 0. -1.
    9900012    2    1    2    0    0  0.61048019786E+01  0.40862258777E+01  0.17225562791E+02  0.72461391589E+02  0.69999767203E+02 0.  0.
         12    1    1    2    0    0 -0.61048019786E+01 -0.40862258777E+01 -0.17225562791E+02  0.18726608411E+02  0.00000000000E+00 0. -1.
         11    1    3    3    0    0 -0.86045590433E+01  0.34395705990E+02  0.92159544196E+01  0.36633821026E+02  0.51100000000E-03 0. -1.
        -11    1    3    3    0    0  0.17076690168E+01 -0.10177603511E+01 -0.13949501957E+01  0.24285501668E+01  0.51100000000E-03 0.  1.
        -12    1    3    3    0    0  0.13001692005E+02 -0.29291719761E+02  0.94045585667E+01  0.33399020396E+02  0.00000000000E+00 0.  1.
</event>
<event>
 7    1  0.3050261E-013  0.7246152E+02  0.7816164E-02  0.1226708E+00
        -11   -1    0    0    0    0  0.00000000000E+00  0.00000000000E+00  0.45593999997E+02  0.45594000000E+02  0.51100000000E-03 0.  1.
         11   -1    0    0    0    0 -0.00000000000E+00 -0.00000000000E+00 -0.45593999997E+02  0.45594000000E+02  0.51100000000E-03 0. -1.
    9900012    2    1    2    0    0 -0.86541544353E+01 -0.87647751631E+01  0.14105510857E+02  0.72461518505E+02  0.69999932535E+02 0.  0.
         12    1    1    2    0    0  0.86541544353E+01  0.87647751631E+01 -0.14105510857E+02  0.18726481495E+02  0.00000000000E+00 0. -1.
         11    1    3    3    0    0 -0.21480318665E+02 -0.53365171713E+00 -0.33746050603E+01  0.21750329507E+02  0.51100000000E-03 0. -1.
        -11    1    3    3    0    0 -0.27131151208E+01  0.78898360627E+01  0.25575312772E+02  0.26901805337E+02  0.51100000000E-03 0.  1.
         12    1    3    3    0    0  0.15539279350E+02 -0.16120959509E+02 -0.80951968547E+01  0.23809383661E+02  0.00000000000E+00 0. -1.
</event>
<event>
 7    1  0.3050261E-013  0.7246149E+02  0.7816164E-02  0.1226708E+00
        -11   -1    0    0    0    0  0.00000000000E+00  0.00000000000E+00  0.45593999997E+02  0.45594000000E+02  0.51100000000E-03 0.  1.
         11   -1    0    0    0    0 -0.00000000000E+00 -0.00000000000E+00 -0.45593999997E+02  0.45594000000E+02  0.51100000000E-03 0. -1.
    9900012    2    1    2    0    0 -0.82606841021E+01  0.71557096807E+01  0.15206550570E+02  0.72461487695E+02  0.69999892399E+02 0.  0.
         12    1    1    2    0    0  0.82606841021E+01 -0.71557096807E+01 -0.15206550570E+02  0.18726512305E+02  0.00000000000E+00 0. -1.
         11    1    3    3    0    0  0.18158497519E+01 -0.17200278616E+02 -0.62351428334E+01  0.18385426327E+02  0.51100000000E-03 0. -1.
        -11    1    3    3    0    0  0.15799273669E+02  0.82924085877E+01  0.20273937928E+01  0.17958045955E+02  0.51100000000E-03 0.  1.
         12    1    3    3    0    0 -0.25875807523E+02  0.16063579709E+02  0.19414299610E+02  0.36118015414E+02  0.00000000000E+00 0. -1.
</event>
<event>
 7    1  0.3050261E-013  0.7246160E+02  0.7816164E-02  0.1226708E+00
        -11   -1    0    0    0    0  0.00000000000E+00  0.00000000000E+00  0.45593999997E+02  0.45594000000E+02  0.51100000000E-03 0.  1.
         11   -1    0    0    0    0 -0.00000000000E+00 -0.00000000000E+00 -0.45593999997E+02  0.45594000000E+02  0.51100000000E-03 0. -1.
    9900012    2    1    2    0    0 -0.13207677649E+02  0.71072234452E+01  0.11212606969E+02  0.72461603416E+02  0.70000043147E+02 0.  0.
         12    1    1    2    0    0  0.13207677649E+02 -0.71072234452E+01 -0.11212606969E+02  0.18726396584E+02  0.00000000000E+00 0. -1.
         11    1    3    3    0    0 -0.10116781143E+02 -0.16528865334E+02 -0.19032014377E+02  0.27161925952E+02  0.51100000000E-03 0. -1.
        -11    1    3    3    0    0  0.10148847661E+02  0.64398365064E+01  0.10540906705E+02  0.15986910818E+02  0.51100000000E-03 0.  1.
        -12    1    3    3    0    0 -0.13239744166E+02  0.17196252273E+02  0.19703714641E+02  0.29312766646E+02  0.00000000000E+00 0.  1.
</event>
<event>
 7    1  0.3050261E-013  0.7246161E+02  0.7816164E-02  0.1226708E+00
        -11   -1    0    0    0    0  0.00000000000E+00  0.00000000000E+00  0.45593999997E+02  0.45594000000E+02  0.51100000000E-03 0. -1.
         11   -1    0    0    0    0 -0.00000000000E+00 -0.00000000000E+00 -0.45593999997E+02  0.45594000000E+02  0.51100000000E-03 0.  1.
    9900012    2    1    2    0    0 -0.10844935567E+02  0.11269904953E+02 -0.10298260388E+02  0.72461613479E+02  0.70000056257E+02 0.  0.
         12    1    1    2    0    0  0.10844935567E+02 -0.11269904953E+02  0.10298260388E+02  0.18726386521E+02  0.00000000000E+00 0. -1.
         11    1    3    3    0    0  0.93842751566E+01 -0.45812604121E+01  0.11068049072E+00  0.10443410248E+02  0.51100000000E-03 0. -1.
        -11    1    3    3    0    0 -0.19333008369E+02  0.20400753502E+02 -0.30455312740E+02  0.41442514769E+02  0.51100000000E-03 0.  1.
         12    1    3    3    0    0 -0.89620235537E+00 -0.45495881371E+01  0.20046371862E+02  0.20575688462E+02  0.00000000000E+00 0. -1.
</event>
<event>
 7    1  0.3050261E-013  0.7246156E+02  0.7816164E-02  0.1226708E+00
        -11   -1    0    0    0    0  0.00000000000E+00  0.00000000000E+00  0.45593999997E+02  0.45594000000E+02  0.51100000000E-03 0.  1.
         11   -1    0    0    0    0 -0.00000000000E+00 -0.00000000000E+00 -0.45593999997E+02  0.45594000000E+02  0.51100000000E-03 0. -1.
    9900012    2    1    2    0    0 -0.16664512627E+02 -0.82633957506E+01  0.21656314240E+01  0.72461557468E+02  0.69999983292E+02 0.  0.
         12    1    1    2    0    0  0.16664512627E+02  0.82633957506E+01 -0.21656314240E+01  0.18726442532E+02  0.00000000000E+00 0. -1.
         11    1    3    3    0    0  0.35115043256E+01 -0.26433549162E+02  0.15116669309E+02  0.30652518252E+02  0.51100000000E-03 0. -1.
        -11    1    3    3    0    0  0.61943734986E+01 -0.11655463057E+01 -0.52783300935E+01  0.82212851834E+01  0.51100000000E-03 0.  1.
        -12    1    3    3    0    0 -0.26370390451E+02  0.19335699718E+02 -0.76727077915E+01  0.33587754033E+02  0.00000000000E+00 0.  1.
</event>
<event>
 7    1  0.3050261E-013  0.7246158E+02  0.7816164E-02  0.1226708E+00
        -11   -1    0    0    0    0  0.00000000000E+00  0.00000000000E+00  0.45593999997E+02  0.45594000000E+02  0.51100000000E-03 0.  1.
         11   -1    0    0    0    0 -0.00000000000E+00 -0.00000000000E+00 -0.45593999997E+02  0.45594000000E+02  0.51100000000E-03 0. -1.
    9900012    2    1    2    0    0 -0.96127588394E+01 -0.13743797925E+02  0.83295570706E+01  0.72461584569E+02  0.70000018595E+02 0.  0.
         12    1    1    2    0    0  0.96127588394E+01  0.13743797925E+02 -0.83295570706E+01  0.18726415431E+02  0.00000000000E+00 0. -1.
         11    1    3    3    0    0  0.20990547799E+02 -0.83289112139E+01 -0.16423709054E+02  0.27923324986E+02  0.51100000000E-03 0. -1.
        -11    1    3    3    0    0 -0.10871862358E+02 -0.12030499132E+02  0.10859902469E+02  0.19515834146E+02  0.51100000000E-03 0.  1.
        -12    1    3    3    0    0 -0.19731444280E+02  0.66156124207E+01  0.13893363656E+02  0.25022425437E+02  0.00000000000E+00 0.  1.
</event>
<event>
 7    1  0.3050261E-013  0.7246196E+02  0.7816164E-02  0.1226707E+00
        -11   -1    0    0    0    0  0.00000000000E+00  0.00000000000E+00  0.45593999997E+02  0.45594000000E+02  0.51100000000E-03 0.  1.
         11   -1    0    0    0    0 -0.00000000000E+00 -0.00000000000E+00 -0.45593999997E+02  0.45594000000E+02  0.51100000000E-03 0. -1.
    9900012    2    1    2    0    0  0.70527160602E+01 -0.26010608664E+01  0.17151040176E+02  0.72461961962E+02  0.70000510218E+02 0.  0.
         12    1    1    2    0    0 -0.70527160602E+01  0.26010608664E+01 -0.17151040176E+02  0.18726038038E+02  0.00000000000E+00 0. -1.
         11    1    3    3    0    0  0.15316657751E+02  0.36728192667E+01  0.10834790744E+01  0.15788081998E+02  0.51100000000E-03 0. -1.
        -11    1    3    3    0    0  0.16654838767E+02  0.82775466983E+01  0.20274068608E+02  0.27512529725E+02  0.51100000000E-03 0.  1.
         12    1    3    3    0    0 -0.24918780458E+02 -0.14551426831E+02 -0.42065075061E+01  0.29161350238E+02  0.00000000000E+00 0. -1.
</event>
<event>
 7    1  0.3050261E-013  0.7246156E+02  0.7816164E-02  0.1226708E+00
        -11   -1    0    0    0    0  0.00000000000E+00  0.00000000000E+00  0.45593999997E+02  0.45594000000E+02  0.51100000000E-03 0. -1.
         11   -1    0    0    0    0 -0.00000000000E+00 -0.00000000000E+00 -0.45593999997E+02  0.45594000000E+02  0.51100000000E-03 0.  1.
    9900012    2    1    2    0    0 -0.17796012315E+02 -0.42268807887E+01  0.40143364097E+01  0.72461562209E+02  0.69999989468E+02 0.  0.
         12    1    1    2    0    0  0.17796012315E+02  0.42268807887E+01 -0.40143364097E+01  0.18726437791E+02  0.00000000000E+00 0. -1.
         11    1    3    3    0    0  0.21812322955E+01 -0.28572123273E+02  0.15523798530E+01  0.28697280117E+02  0.51100000000E-03 0. -1.
        -11    1    3    3    0    0 -0.36060337516E+01  0.17159764886E+01 -0.11761444854E+02  0.12420935555E+02  0.51100000000E-03 0.  1.
        -12    1    3    3    0    0 -0.16371210859E+02  0.22629265995E+02  0.14223401411E+02  0.31343346538E+02  0.00000000000E+00 0.  1.
</event>
<event>
 7    1  0.3050261E-013  0.7246215E+02  0.7816164E-02  0.1226706E+00
        -11   -1    0    0    0    0  0.00000000000E+00  0.00000000000E+00  0.45593999997E+02  0.45594000000E+02  0.51100000000E-03 0.  1.
         11   -1    0    0    0    0 -0.00000000000E+00 -0.00000000000E+00 -0.45593999997E+02  0.45594000000E+02  0.51100000000E-03 0. -1.
    9900012    2    1    2    0    0  0.16027223699E+02  0.59654345963E+01  0.76288429363E+01  0.72462147444E+02  0.70000751840E+02 0.  0.
         12    1    1    2    0    0 -0.16027223699E+02 -0.59654345963E+01 -0.76288429363E+01  0.18725852556E+02  0.00000000000E+00 0. -1.
         11    1    3    3    0    0  0.77118316669E+01  0.11953115825E+02 -0.24847395762E+02  0.28631143917E+02  0.51100000000E-03 0. -1.
        -11    1    3    3    0    0 -0.43640946768E+01  0.17712179171E+01 -0.28497229642E+01  0.55048575361E+01  0.51100000000E-03 0.  1.
        -12    1    3    3    0    0  0.12679486709E+02 -0.77588991463E+01  0.35325961662E+02  0.38326145991E+02  0.00000000000E+00 0.  1.
</event>
<event>
 7    1  0.3050261E-013  0.7246146E+02  0.7816164E-02  0.1226708E+00
        -11   -1    0    0    0    0  0.00000000000E+00  0.00000000000E+00  0.45593999997E+02  0.45594000000E+02  0.51100000000E-03 0.  1.
         11   -1    0    0    0    0 -0.00000000000E+00 -0.00000000000E+00 -0.45593999997E+02  0.45594000000E+02  0.51100000000E-03 0. -1.
    9900012    2    1    2    0    0 -0.11616032967E+02 -0.12642375306E+02  0.74780591207E+01  0.72461461519E+02  0.69999858300E+02 0.  0.
         12    1    1    2    0    0  0.11616032967E+02  0.12642375306E+02 -0.74780591207E+01  0.18726538481E+02  0.00000000000E+00 0. -1.
         11    1    3    3    0    0 -0.27024654144E+01 -0.17360991577E+01 -0.44056386277E+00  0.32421376251E+01  0.51100000000E-03 0. -1.
        -11    1    3    3    0    0  0.21566472305E+02 -0.23410208294E+02  0.15514698359E+02  0.35409835434E+02  0.51100000000E-03 0.  1.
         12    1    3    3    0    0 -0.30480039857E+02  0.12503932146E+02 -0.75960753755E+01  0.33809488460E+02  0.00000000000E+00 0. -1.
</event>
<event>
 7    1  0.3050261E-013  0.7246156E+02  0.7816164E-02  0.1226708E+00
        -11   -1    0    0    0    0  0.00000000000E+00  0.00000000000E+00  0.45593999997E+02  0.45594000000E+02  0.51100000000E-03 0.  1.
         11   -1    0    0    0    0 -0.00000000000E+00 -0.00000000000E+00 -0.45593999997E+02  0.45594000000E+02  0.51100000000E-03 0. -1.
    9900012    2    1    2    0    0  0.30300822381E-01  0.16329623415E+02  0.91663502090E+01  0.72461561599E+02  0.69999988673E+02 0.  0.
         12    1    1    2    0    0 -0.30300822381E-01 -0.16329623415E+02 -0.91663502090E+01  0.18726438401E+02  0.00000000000E+00 0. -1.
         11    1    3    3    0    0 -0.26810843549E+01  0.37964045871E+01 -0.27205774668E+02  0.27599910808E+02  0.51100000000E-03 0. -1.
        -11    1    3    3    0    0  0.13320882296E+01  0.27240618808E+01 -0.29982083970E+01  0.42642966635E+01  0.51100000000E-03 0.  1.
        -12    1    3    3    0    0  0.13792969476E+01  0.98091569472E+01  0.39370333274E+02  0.40597354128E+02  0.00000000000E+00 0.  1.
</event>
<event>
 7    1  0.3050261E-013  0.7246162E+02  0.7816164E-02  0.1226708E+00
        -11   -1    0    0    0    0  0.00000000000E+00  0.00000000000E+00  0.45593999997E+02  0.45594000000E+02  0.51100000000E-03 0.  1.
         11   -1    0    0    0    0 -0.00000000000E+00 -0.00000000000E+00 -0.45593999997E+02  0.45594000000E+02  0.51100000000E-03 0. -1.
    9900012    2    1    2    0    0  0.12151830102E+02  0.13211335867E+02  0.53358163344E+01  0.72461620046E+02  0.70000064810E+02 0.  0.
         12    1    1    2    0    0 -0.12151830102E+02 -0.13211335867E+02 -0.53358163344E+01  0.18726379954E+02  0.00000000000E+00 0. -1.
         11    1    3    3    0    0 -0.17036394342E+02 -0.31546456492E+01  0.25195132536E+02  0.30577528107E+02  0.51100000000E-03 0. -1.
        -11    1    3    3    0    0  0.39684976071E+01  0.67227884990E+01 -0.10957455429E+02  0.13454021265E+02  0.51100000000E-03 0.  1.
        -12    1    3    3    0    0  0.25219726837E+02  0.96431930176E+01 -0.89018607724E+01  0.28430070674E+02  0.00000000000E+00 0.  1.
</event>
<event>
 7    1  0.3168764E-013  0.7246159E+02  0.7816164E-02  0.1226708E+00
        -11   -1    0    0    0    0  0.00000000000E+00  0.00000000000E+00  0.45593999997E+02  0.45594000000E+02  0.51100000000E-03 0. -1.
         11   -1    0    0    0    0 -0.00000000000E+00 -0.00000000000E+00 -0.45593999997E+02  0.45594000000E+02  0.51100000000E-03 0.  1.
    9900012    2    1    2    0    0  0.68692921201E+01 -0.29566839924E+01 -0.17168268006E+02  0.72461586013E+02  0.70000020477E+02 0.  0.
         12    1    1    2    0    0 -0.68692921201E+01  0.29566839924E+01  0.17168268006E+02  0.18726413987E+02  0.00000000000E+00 0. -1.
         11    1    3    3    0    0 -0.13848477340E+02 -0.16423175479E+02  0.19348401385E+00  0.21483446041E+02  0.51100000000E-03 0. -1.
        -11    1    3    3    0    0  0.17525054001E+02 -0.91985034406E+01 -0.19755414650E+02  0.27964555987E+02  0.51100000000E-03 0.  1.
         12    1    3    3    0    0  0.31927154596E+01  0.22664994928E+02  0.23936626297E+01  0.23013583985E+02  0.00000000000E+00 0. -1.
</event>
<event>
 7    1  0.3050261E-013  0.7246157E+02  0.7816164E-02  0.1226708E+00
        -11   -1    0    0    0    0  0.00000000000E+00  0.00000000000E+00  0.45593999997E+02  0.45594000000E+02  0.51100000000E-03 0. -1.
         11   -1    0    0    0    0 -0.00000000000E+00 -0.00000000000E+00 -0.45593999997E+02  0.45594000000E+02  0.51100000000E-03 0.  1.
    9900012    2    1    2    0    0  0.93631081389E+01  0.93956588435E+00 -0.16190382267E+02  0.72461573325E+02  0.70000003948E+02 0.  0.
         12    1    1    2    0    0 -0.93631081389E+01 -0.93956588435E+00  0.16190382267E+02  0.18726426675E+02  0.00000000000E+00 0. -1.
         11    1    3    3    0    0  0.77910661793E+01  0.59143006205E+01 -0.22673196321E+02  0.24693187232E+02  0.51100000000E-03 0. -1.
        -11    1    3    3    0    0 -0.91501590518E+01 -0.15211784431E+02 -0.13912990769E+02  0.22554270297E+02  0.51100000000E-03 0.  1.
         12    1    3    3    0    0  0.10722201011E+02  0.10237049694E+02  0.20395804823E+02  0.25214115796E+02  0.00000000000E+00 0. -1.
</event>
<event>
 7    1  0.3050261E-013  0.7246154E+02  0.7816164E-02  0.1226708E+00
        -11   -1    0    0    0    0  0.00000000000E+00  0.00000000000E+00  0.45593999997E+02  0.45594000000E+02  0.51100000000E-03 0.  1.
         11   -1    0    0    0    0 -0.00000000000E+00 -0.00000000000E+00 -0.45593999997E+02  0.45594000000E+02  0.51100000000E-03 0. -1.
    9900012    2    1    2    0    0 -0.14369360043E+02 -0.97699574110E+01  0.69820981403E+01  0.72461540904E+02  0.69999961713E+02 0.  0.
         12    1    1    2    0    0  0.14369360043E+02  0.97699574110E+01 -0.69820981403E+01  0.18726459096E+02  0.00000000000E+00 0. -1.
         11    1    3    3    0    0  0.12092387205E+02  0.29569569814E+01  0.11395480690E+02  0.16876800743E+02  0.51100000000E-03 0. -1.
        -11    1    3    3    0    0 -0.19699821026E+02 -0.16609684048E+02  0.18277408108E+02  0.31591584323E+02  0.51100000000E-03 0.  1.
        -12    1    3    3    0    0 -0.67619262215E+01  0.38827696556E+01 -0.22690790657E+02  0.23993155838E+02  0.00000000000E+00 0.  1.
</event>
<event>
 7    1  0.3050261E-013  0.7246158E+02  0.7816164E-02  0.1226708E+00
        -11   -1    0    0    0    0  0.00000000000E+00  0.00000000000E+00  0.45593999997E+02  0.45594000000E+02  0.51100000000E-03 0.  1.
         11   -1    0    0    0    0 -0.00000000000E+00 -0.00000000000E+00 -0.45593999997E+02  0.45594000000E+02  0.51100000000E-03 0. -1.
    9900012    2    1    2    0    0 -0.13927664014E+02  0.93384368677E+01  0.83362111557E+01  0.72461584314E+02  0.70000018263E+02 0.  0.
         12    1    1    2    0    0  0.13927664014E+02 -0.93384368677E+01 -0.83362111557E+01  0.18726415686E+02  0.00000000000E+00 0. -1.
         11    1    3    3    0    0 -0.27348939894E+02  0.34181426878E+01  0.10844073041E+02  0.29618273636E+02  0.51100000000E-03 0. -1.
        -11    1    3    3    0    0  0.79197641079E+01  0.20878152101E+01  0.18799378466E+02  0.20506054395E+02  0.51100000000E-03 0.  1.
         12    1    3    3    0    0  0.55015117727E+01  0.38324789699E+01 -0.21307240352E+02  0.22337256283E+02  0.00000000000E+00 0. -1.
</event>
<event>
 7    1  0.3050261E-013  0.7246154E+02  0.7816164E-02  0.1226708E+00
        -11   -1    0    0    0    0  0.00000000000E+00  0.00000000000E+00  0.45593999997E+02  0.45594000000E+02  0.51100000000E-03 0. -1.
         11   -1    0    0    0    0 -0.00000000000E+00 -0.00000000000E+00 -0.45593999997E+02  0.45594000000E+02  0.51100000000E-03 0.  1.
    9900012    2    1    2    0    0  0.20733103365E+01  0.77924159354E+00 -0.18595013018E+02  0.72461538980E+02  0.69999959207E+02 0.  0.
         12    1    1    2    0    0 -0.20733103365E+01 -0.77924159354E+00  0.18595013018E+02  0.18726461020E+02  0.00000000000E+00 0. -1.
         11    1    3    3    0    0  0.27904218763E+02 -0.13832391788E+02 -0.24801946168E+02  0.39813528120E+02  0.51100000000E-03 0. -1.
        -11    1    3    3    0    0 -0.15147594958E+01  0.56295537012E+01 -0.56184846239E+00  0.58567947856E+01  0.51100000000E-03 0.  1.
        -12    1    3    3    0    0 -0.24316148931E+02  0.89820796800E+01  0.67687816129E+01  0.26791216074E+02  0.00000000000E+00 0.  1.
</event>
<event>
 7    1  0.3050261E-013  0.7246154E+02  0.7816164E-02  0.1226708E+00
        -11   -1    0    0    0    0  0.00000000000E+00  0.00000000000E+00  0.45593999997E+02  0.45594000000E+02  0.51100000000E-03 0.  1.
         11   -1    0    0    0    0 -0.00000000000E+00 -0.00000000000E+00 -0.45593999997E+02  0.45594000000E+02  0.51100000000E-03 0. -1.
    9900012    2    1    2    0    0 -0.33108709306E+01  0.25261535188E+00  0.18429721549E+02  0.72461539651E+02  0.69999960081E+02 0.  0.
         12    1    1    2    0    0  0.33108709306E+01 -0.25261535188E+00 -0.18429721549E+02  0.18726460349E+02  0.00000000000E+00 0. -1.
         11    1    3    3    0    0 -0.76387925468E+01  0.29729422851E+01  0.14071045731E+02  0.16284467005E+02  0.51100000000E-03 0. -1.
        -11    1    3    3    0    0  0.11790000308E+02 -0.10742525851E+02  0.26809549446E+02  0.31195479010E+02  0.51100000000E-03 0.  1.
         12    1    3    3    0    0 -0.74620786922E+01  0.80221989174E+01 -0.22450873628E+02  0.24981593635E+02  0.00000000000E+00 0. -1.
</event>
<event>
 7    1  0.3050261E-013  0.7246176E+02  0.7816164E-02  0.1226708E+00
        -11   -1    0    0    0    0  0.00000000000E+00  0.00000000000E+00  0.45593999997E+02  0.45594000000E+02  0.51100000000E-03 0. -1.
         11   -1    0    0    0    0 -0.00000000000E+00 -0.00000000000E+00 -0.45593999997E+02  0.45594000000E+02  0.51100000000E-03 0.  1.
    9900012    2    1    2    0    0 -0.77389253034E+01 -0.15516674774E+02 -0.70720525374E+01  0.72461759374E+02  0.70000246311E+02 0.  0.
         12    1    1    2    0    0  0.77389253034E+01  0.15516674774E+02  0.70720525374E+01  0.18726240626E+02  0.00000000000E+00 0. -1.
         11    1    3    3    0    0 -0.20698511264E+02  0.71567220823E+01  0.28100535897E+01  0.22080385888E+02  0.51100000000E-03 0. -1.
        -11    1    3    3    0    0 -0.80730027322E+01  0.25374360862E+01  0.91244000849E+01  0.12444542265E+02  0.51100000000E-03 0.  1.
        -12    1    3    3    0    0  0.21032588693E+02 -0.25210832942E+02 -0.19006506212E+02  0.37936831222E+02  0.00000000000E+00 0.  1.
</event>
<event>
 7    1  0.3050261E-013  0.7246154E+02  0.7816164E-02  0.1226708E+00
        -11   -1    0    0    0    0  0.00000000000E+00  0.00000000000E+00  0.45593999997E+02  0.45594000000E+02  0.51100000000E-03 0. -1.
         11   -1    0    0    0    0 -0.00000000000E+00 -0.00000000000E+00 -0.45593999997E+02  0.45594000000E+02  0.51100000000E-03 0.  1.
    9900012    2    1    2    0    0  0.18695130969E+02 -0.10438235666E+01 -0.28800510007E+00  0.72461536465E+02  0.69999955931E+02 0.  0.
         12    1    1    2    0    0 -0.18695130969E+02  0.10438235666E+01  0.28800510007E+00  0.18726463535E+02  0.00000000000E+00 0. -1.
         11    1    3    3    0    0  0.91210941572E+01  0.15696209056E+02 -0.90603309415E+01  0.20289281269E+02  0.51100000000E-03 0. -1.
        -11    1    3    3    0    0  0.13663377332E+02  0.10132164663E+02  0.16720836939E+02  0.23852358983E+02  0.51100000000E-03 0.  1.
        -12    1    3    3    0    0 -0.40893405196E+01 -0.26872197286E+02 -0.79485110972E+01  0.28319896213E+02  0.00000000000E+00 0.  1.
</event>
<event>
 7    1  0.3050261E-013  0.7246158E+02  0.7816164E-02  0.1226708E+00
        -11   -1    0    0    0    0  0.00000000000E+00  0.00000000000E+00  0.45593999997E+02  0.45594000000E+02  0.51100000000E-03 0.  1.
         11   -1    0    0    0    0 -0.00000000000E+00 -0.00000000000E+00 -0.45593999997E+02  0.45594000000E+02  0.51100000000E-03 0. -1.
    9900012    2    1    2    0    0  0.17266012852E+01 -0.71502716614E+01  0.17221245796E+02  0.72461578996E+02  0.70000011336E+02 0.  0.
         12    1    1    2    0    0 -0.17266012852E+01  0.71502716614E+01 -0.17221245796E+02  0.18726421004E+02  0.00000000000E+00 0. -1.
         11    1    3    3    0    0 -0.11685721000E+02 -0.45183221203E+01 -0.11960455785E+02  0.17321195482E+02  0.51100000000E-03 0. -1.
        -11    1    3    3    0    0  0.16011531551E+02 -0.18714780287E+02  0.30016065862E+02  0.38827520573E+02  0.51100000000E-03 0.  1.
         12    1    3    3    0    0 -0.25992092656E+01  0.16082830745E+02 -0.83436428089E+00  0.16312862941E+02  0.00000000000E+00 0. -1.
</event>
<event>
 7    1  0.3050261E-013  0.7246158E+02  0.7816164E-02  0.1226708E+00
        -11   -1    0    0    0    0  0.00000000000E+00  0.00000000000E+00  0.45593999997E+02  0.45594000000E+02  0.51100000000E-03 0.  1.
         11   -1    0    0    0    0 -0.00000000000E+00 -0.00000000000E+00 -0.45593999997E+02  0.45594000000E+02  0.51100000000E-03 0. -1.
    9900012    2    1    2    0    0  0.57542128471E+01  0.82184279380E+01  0.15812188938E+02  0.72461579032E+02  0.70000011382E+02 0.  0.
         12    1    1    2    0    0 -0.57542128471E+01 -0.82184279380E+01 -0.15812188938E+02  0.18726420968E+02  0.00000000000E+00 0. -1.
         11    1    3    3    0    0  0.65339968094E+01 -0.14696032663E+02  0.91631727200E+01  0.18510273496E+02  0.51100000000E-03 0. -1.
        -11    1    3    3    0    0 -0.46594444786E+01 -0.11403081641E+02  0.13993421178E+02  0.18642868081E+02  0.51100000000E-03 0.  1.
         12    1    3    3    0    0  0.38796605162E+01  0.34317542242E+02 -0.73444049603E+01  0.35308437455E+02  0.00000000000E+00 0. -1.
</event>
<event>
 7    1  0.3050261E-013  0.7246156E+02  0.7816164E-02  0.1226708E+00
        -11   -1    0    0    0    0  0.00000000000E+00  0.00000000000E+00  0.45593999997E+02  0.45594000000E+02  0.51100000000E-03 0.  1.
         11   -1    0    0    0    0 -0.00000000000E+00 -0.00000000000E+00 -0.45593999997E+02  0.45594000000E+02  0.51100000000E-03 0. -1.
    9900012    2    1    2    0    0  0.32077594744E+01  0.74255236682E+01  0.16889388704E+02  0.72461559511E+02  0.69999985953E+02 0.  0.
         12    1    1    2    0    0 -0.32077594744E+01 -0.74255236682E+01 -0.16889388704E+02  0.18726440489E+02  0.00000000000E+00 0. -1.
         11    1    3    3    0    0  0.47721835998E+01  0.75799619315E+01  0.78326189523E+01  0.11898717540E+02  0.51100000000E-03 0. -1.
        -11    1    3    3    0    0 -0.24555054201E+02  0.19685099128E+00  0.23022582752E+02  0.33660492479E+02  0.51100000000E-03 0.  1.
         12    1    3    3    0    0  0.22990630075E+02 -0.35128925451E+00 -0.13965813001E+02  0.26902349492E+02  0.00000000000E+00 0. -1.
</event>
<event>
 7    1  0.3050261E-013  0.7246158E+02  0.7816164E-02  0.1226708E+00
        -11   -1    0    0    0    0  0.00000000000E+00  0.00000000000E+00  0.45593999997E+02  0.45594000000E+02  0.51100000000E-03 0.  1.
         11   -1    0    0    0    0 -0.00000000000E+00 -0.00000000000E+00 -0.45593999997E+02  0.45594000000E+02  0.51100000000E-03 0. -1.
    9900012    2    1    2    0    0  0.99803765881E+01  0.92667449129E+01  0.12852952359E+02  0.72461578493E+02  0.70000010680E+02 0.  0.
         12    1    1    2    0    0 -0.99803765881E+01 -0.92667449129E+01 -0.12852952359E+02  0.18726421507E+02  0.00000000000E+00 0. -1.
         11    1    3    3    0    0  0.52165408047E+00 -0.29232045297E+01 -0.24773137868E+02  0.24950463078E+02  0.51100000000E-03 0. -1.
        -11    1    3    3    0    0  0.45222067313E+01  0.12253732559E+02  0.41967915613E+01  0.13719233762E+02  0.51100000000E-03 0.  1.
         12    1    3    3    0    0  0.49365157764E+01 -0.63783116671E-01  0.33429298666E+02  0.33791881652E+02  0.00000000000E+00 0. -1.
</event>
<event>
 7    1  0.3050261E-013  0.7246164E+02  0.7816164E-02  0.1226708E+00
        -11   -1    0    0    0    0  0.00000000000E+00  0.00000000000E+00  0.45593999997E+02  0.45594000000E+02  0.51100000000E-03 0.  1.
         11   -1    0    0    0    0 -0.00000000000E+00 -0.00000000000E+00 -0.45593999997E+02  0.45594000000E+02  0.51100000000E-03 0. -1.
    9900012    2    1    2    0    0  0.10920261493E+02  0.14368844168E+02  0.49960917551E+01  0.72461635520E+02  0.70000084968E+02 0.  0.
         12    1    1    2    0    0 -0.10920261493E+02 -0.14368844168E+02 -0.49960917551E+01  0.18726364480E+02  0.00000000000E+00 0. -1.
         11    1    3    3    0    0  0.17055721867E+02 -0.96910800699E+01 -0.13132957937E+02  0.23606974938E+02  0.51100000000E-03 0. -1.
        -11    1    3    3    0    0 -0.20972378869E+02  0.61502471265E+01  0.11365202463E+02  0.24634001754E+02  0.51100000000E-03 0.  1.
        -12    1    3    3    0    0  0.14836918496E+02  0.17909677112E+02  0.67638472285E+01  0.24220658827E+02  0.00000000000E+00 0.  1.
</event>
<event>
 7    1  0.3050261E-013  0.7246146E+02  0.7816164E-02  0.1226708E+00
        -11   -1    0    0    0    0  0.00000000000E+00  0.00000000000E+00  0.45593999997E+02  0.45594000000E+02  0.51100000000E-03 0.  1.
         11   -1    0    0    0    0 -0.00000000000E+00 -0.00000000000E+00 -0.45593999997E+02  0.45594000000E+02  0.51100000000E-03 0. -1.
    9900012    2    1    2    0    0  0.10954195319E+02  0.11010677265E+02 -0.10462019285E+02  0.72461461173E+02  0.69999857849E+02 0.  0.
         12    1    1    2    0    0 -0.10954195319E+02 -0.11010677265E+02  0.10462019285E+02  0.18726538827E+02  0.00000000000E+00 0. -1.
         11    1    3    3    0    0  0.21482508242E+02  0.10428278359E+01  0.18292652148E+02  0.28234850330E+02  0.51100000000E-03 0.  1.
        -11    1    3    3    0    0 -0.15994649547E+02  0.14667784526E+02 -0.95439671055E+01  0.23707805158E+02  0.51100000000E-03 0. -1.
        -12    1    3    3    0    0  0.54663366241E+01 -0.46999350963E+01 -0.19210704328E+02  0.20518805685E+02  0.00000000000E+00 0.  1.
</event>
<event>
 7    1  0.3050261E-013  0.7246156E+02  0.7816164E-02  0.1226708E+00
        -11   -1    0    0    0    0  0.00000000000E+00  0.00000000000E+00  0.45593999997E+02  0.45594000000E+02  0.51100000000E-03 0. -1.
         11   -1    0    0    0    0 -0.00000000000E+00 -0.00000000000E+00 -0.45593999997E+02  0.45594000000E+02  0.51100000000E-03 0.  1.
    9900012    2    1    2    0    0  0.73188164389E+01  0.16832774868E+02  0.37111058293E+01  0.72461556389E+02  0.69999981886E+02 0.  0.
         12    1    1    2    0    0 -0.73188164389E+01 -0.16832774868E+02 -0.37111058293E+01  0.18726443611E+02  0.00000000000E+00 0. -1.
         11    1    3    3    0    0  0.28236619524E+02 -0.52078928652E+01 -0.10564305910E+01  0.28732296743E+02  0.51100000000E-03 0. -1.
        -11    1    3    3    0    0  0.33521688304E+01  0.34109352637E+01  0.11453207355E+02  0.12411586289E+02  0.51100000000E-03 0.  1.
        -12    1    3    3    0    0 -0.24269971916E+02  0.18629732469E+02 -0.66856709347E+01  0.31317673357E+02  0.00000000000E+00 0.  1.
</event>
<event>
 7    1  0.3050261E-013  0.7246157E+02  0.7816164E-02  0.1226708E+00
        -11   -1    0    0    0    0  0.00000000000E+00  0.00000000000E+00  0.45593999997E+02  0.45594000000E+02  0.51100000000E-03 0. -1.
         11   -1    0    0    0    0 -0.00000000000E+00 -0.00000000000E+00 -0.45593999997E+02  0.45594000000E+02  0.51100000000E-03 0.  1.
    9900012    2    1    2    0    0  0.75817514818E+01 -0.14299443375E+02  0.94192400513E+01  0.72461571630E+02  0.70000001740E+02 0.  0.
         12    1    1    2    0    0 -0.75817514818E+01  0.14299443375E+02 -0.94192400513E+01  0.18726428370E+02  0.00000000000E+00 0. -1.
         11    1    3    3    0    0 -0.11997736529E+02  0.10961290284E+02  0.15175479971E+02  0.22234899575E+02  0.51100000000E-03 0. -1.
        -11    1    3    3    0    0 -0.79488598247E+01  0.30343042593E+01 -0.65569430432E+01  0.10741735297E+02  0.51100000000E-03 0.  1.
        -12    1    3    3    0    0  0.27528347835E+02 -0.28295037918E+02  0.80070312385E+00  0.39484936758E+02  0.00000000000E+00 0.  1.
</event>
<event>
 7    1  0.3050261E-013  0.7246158E+02  0.7816164E-02  0.1226708E+00
        -11   -1    0    0    0    0  0.00000000000E+00  0.00000000000E+00  0.45593999997E+02  0.45594000000E+02  0.51100000000E-03 0.  1.
         11   -1    0    0    0    0 -0.00000000000E+00 -0.00000000000E+00 -0.45593999997E+02  0.45594000000E+02  0.51100000000E-03 0. -1.
    9900012    2    1    2    0    0 -0.11296846997E+02 -0.14910336185E+02  0.86132683705E+00  0.72461581198E+02  0.70000014204E+02 0.  0.
         12    1    1    2    0    0  0.11296846997E+02  0.14910336185E+02 -0.86132683705E+00  0.18726418802E+02  0.00000000000E+00 0. -1.
         11    1    3    3    0    0  0.10615148914E+02 -0.93983137200E+01  0.20986408464E+02  0.25326646595E+02  0.51100000000E-03 0. -1.
        -11    1    3    3    0    0 -0.22741361376E+01 -0.18783112286E+02 -0.90634815486E+01  0.20979125348E+02  0.51100000000E-03 0.  1.
        -12    1    3    3    0    0 -0.19637859773E+02  0.13271089821E+02 -0.11061600078E+02  0.26155809255E+02  0.00000000000E+00 0.  1.
</event>
<event>
 7    1  0.3050261E-013  0.7246160E+02  0.7816164E-02  0.1226708E+00
        -11   -1    0    0    0    0  0.00000000000E+00  0.00000000000E+00  0.45593999997E+02  0.45594000000E+02  0.51100000000E-03 0.  1.
         11   -1    0    0    0    0 -0.00000000000E+00 -0.00000000000E+00 -0.45593999997E+02  0.45594000000E+02  0.51100000000E-03 0. -1.
    9900012    2    1    2    0    0  0.10077974017E+02  0.13731390445E+02 -0.77821230195E+01  0.72461599317E+02  0.70000037808E+02 0.  0.
         12    1    1    2    0    0 -0.10077974017E+02 -0.13731390445E+02  0.77821230195E+01  0.18726400683E+02  0.00000000000E+00 0. -1.
         11    1    3    3    0    0 -0.23387538254E+01  0.40200840604E+01  0.95209117696E+00  0.47473490686E+01  0.51100000000E-03 0. -1.
        -11    1    3    3    0    0 -0.24602555444E+02 -0.12583936871E+01  0.76153085616E+01  0.25784922218E+02  0.51100000000E-03 0.  1.
         12    1    3    3    0    0  0.37019283286E+02  0.10969700072E+02 -0.16349522758E+02  0.41929328031E+02  0.00000000000E+00 0. -1.
</event>
<event>
 7    1  0.3050261E-013  0.7246160E+02  0.7816164E-02  0.1226708E+00
        -11   -1    0    0    0    0  0.00000000000E+00  0.00000000000E+00  0.45593999997E+02  0.45594000000E+02  0.51100000000E-03 0. -1.
         11   -1    0    0    0    0 -0.00000000000E+00 -0.00000000000E+00 -0.45593999997E+02  0.45594000000E+02  0.51100000000E-03 0.  1.
    9900012    2    1    2    0    0 -0.16843231812E+02 -0.48188077371E+01 -0.66153501928E+01  0.72461595539E+02  0.70000032885E+02 0.  0.
         12    1    1    2    0    0  0.16843231812E+02  0.48188077371E+01  0.66153501928E+01  0.18726404461E+02  0.00000000000E+00 0. -1.
         11    1    3    3    0    0  0.17729574221E+02  0.44488958127E+01  0.34134998297E+01  0.18595226736E+02  0.51100000000E-03 0. -1.
        -11    1    3    3    0    0 -0.12846571317E-01 -0.16588421990E+02 -0.81686525511E+01  0.18490613671E+02  0.51100000000E-03 0.  1.
         12    1    3    3    0    0 -0.34559959462E+02  0.73207184404E+01 -0.18601974715E+01  0.35375755132E+02  0.00000000000E+00 0. -1.
</event>
<event>
 7    1  0.3050261E-013  0.7246156E+02  0.7816164E-02  0.1226708E+00
        -11   -1    0    0    0    0  0.00000000000E+00  0.00000000000E+00  0.45593999997E+02  0.45594000000E+02  0.51100000000E-03 0. -1.
         11   -1    0    0    0    0 -0.00000000000E+00 -0.00000000000E+00 -0.45593999997E+02  0.45594000000E+02  0.51100000000E-03 0.  1.
    9900012    2    1    2    0    0  0.66878108536E+01 -0.16876535092E+02  0.45973345011E+01  0.72461555189E+02  0.69999980323E+02 0.  0.
         12    1    1    2    0    0 -0.66878108536E+01  0.16876535092E+02 -0.45973345011E+01  0.18726444811E+02  0.00000000000E+00 0. -1.
         11    1    3    3    0    0 -0.96726151305E+01 -0.20590856282E+02  0.27770158716E+02  0.35898810025E+02  0.51100000000E-03 0. -1.
        -11    1    3    3    0    0 -0.31671883136E+01  0.58823447089E+01 -0.70800010349E+00  0.67182085034E+01  0.51100000000E-03 0.  1.
        -12    1    3    3    0    0  0.19527614298E+02 -0.21680235192E+01 -0.22464824111E+02  0.29844536661E+02  0.00000000000E+00 0.  1.
</event>
<event>
 7    1  0.3050261E-013  0.7246159E+02  0.7816164E-02  0.1226708E+00
        -11   -1    0    0    0    0  0.00000000000E+00  0.00000000000E+00  0.45593999997E+02  0.45594000000E+02  0.51100000000E-03 0.  1.
         11   -1    0    0    0    0 -0.00000000000E+00 -0.00000000000E+00 -0.45593999997E+02  0.45594000000E+02  0.51100000000E-03 0. -1.
    9900012    2    1    2    0    0 -0.15641488045E+01 -0.15391129824E+01  0.18597388316E+02  0.72461593979E+02  0.70000030854E+02 0.  0.
         12    1    1    2    0    0  0.15641488045E+01  0.15391129824E+01 -0.18597388316E+02  0.18726406021E+02  0.00000000000E+00 0. -1.
         11    1    3    3    0    0 -0.33937275353E+01  0.20719590502E+02  0.51526834394E+01  0.21618717909E+02  0.51100000000E-03 0. -1.
        -11    1    3    3    0    0 -0.18339382888E+02 -0.95992549705E+00 -0.48392329640E+00  0.18370862900E+02  0.51100000000E-03 0.  1.
        -12    1    3    3    0    0  0.20168961619E+02 -0.21298777987E+02  0.13928628173E+02  0.32472013170E+02  0.00000000000E+00 0.  1.
</event>
<event>
 7    1  0.3050261E-013  0.7246156E+02  0.7816164E-02  0.1226708E+00
        -11   -1    0    0    0    0  0.00000000000E+00  0.00000000000E+00  0.45593999997E+02  0.45594000000E+02  0.51100000000E-03 0.  1.
         11   -1    0    0    0    0 -0.00000000000E+00 -0.00000000000E+00 -0.45593999997E+02  0.45594000000E+02  0.51100000000E-03 0. -1.
    9900012    2    1    2    0    0 -0.10771225364E+00  0.13193504263E+02  0.13289072635E+02  0.72461558582E+02  0.69999984743E+02 0.  0.
         12    1    1    2    0    0  0.10771225364E+00 -0.13193504263E+02 -0.13289072635E+02  0.18726441418E+02  0.00000000000E+00 0. -1.
         11    1    3    3    0    0  0.51127867818E+01 -0.19997668217E+02  0.24283320679E+01  0.20783265376E+02  0.51100000000E-03 0. -1.
        -11    1    3    3    0    0  0.10834296381E+02 -0.20022354056E+01  0.63942885361E+01  0.12738832397E+02  0.51100000000E-03 0.  1.
         12    1    3    3    0    0 -0.16054795416E+02  0.35193407885E+02  0.44664520313E+01  0.38939460810E+02  0.00000000000E+00 0. -1.
</event>
<event>
 7    1  0.3050261E-013  0.7246156E+02  0.7816164E-02  0.1226708E+00
        -11   -1    0    0    0    0  0.00000000000E+00  0.00000000000E+00  0.45593999997E+02  0.45594000000E+02  0.51100000000E-03 0. -1.
         11   -1    0    0    0    0 -0.00000000000E+00 -0.00000000000E+00 -0.45593999997E+02  0.45594000000E+02  0.51100000000E-03 0.  1.
    9900012    2    1    2    0    0 -0.11707715295E+02 -0.10307728672E+02 -0.10361460374E+02  0.72461555359E+02  0.69999980545E+02 0.  0.
         12    1    1    2    0    0  0.11707715295E+02  0.10307728672E+02  0.10361460374E+02  0.18726444641E+02  0.00000000000E+00 0. -1.
         11    1    3    3    0    0  0.12753496328E+01 -0.96885171780E+01 -0.13823113352E+02  0.16928447796E+02  0.51100000000E-03 0. -1.
        -11    1    3    3    0    0 -0.22879786220E+02 -0.82901656567E+01  0.22237208464E+02  0.32965207486E+02  0.51100000000E-03 0.  1.
         12    1    3    3    0    0  0.98967212920E+01  0.76709541630E+01 -0.18775555486E+02  0.22567900077E+02  0.00000000000E+00 0. -1.
</event>
<event>
 7    1  0.3050261E-013  0.7246156E+02  0.7816164E-02  0.1226708E+00
        -11   -1    0    0    0    0  0.00000000000E+00  0.00000000000E+00  0.45593999997E+02  0.45594000000E+02  0.51100000000E-03 0. -1.
         11   -1    0    0    0    0 -0.00000000000E+00 -0.00000000000E+00 -0.45593999997E+02  0.45594000000E+02  0.51100000000E-03 0.  1.
    9900012    2    1    2    0    0 -0.83528314165E+01 -0.13352270240E+02 -0.10130478695E+02  0.72461561154E+02  0.69999988094E+02 0.  0.
         12    1    1    2    0    0  0.83528314165E+01  0.13352270240E+02  0.10130478695E+02  0.18726438846E+02  0.00000000000E+00 0. -1.
         11    1    3    3    0    0  0.26742365672E+01 -0.46151689105E+01 -0.88392160393E+01  0.10323907484E+02  0.51100000000E-03 0. -1.
        -11    1    3    3    0    0  0.41859094264E+01  0.36738632596E+01 -0.28246429282E+02  0.28790273990E+02  0.51100000000E-03 0.  1.
         12    1    3    3    0    0 -0.15212977410E+02 -0.12410964589E+02  0.26955166626E+02  0.33347379680E+02  0.00000000000E+00 0. -1.
</event>
<event>
 7    1  0.3050261E-013  0.7246156E+02  0.7816164E-02  0.1226708E+00
        -11   -1    0    0    0    0  0.00000000000E+00  0.00000000000E+00  0.45593999997E+02  0.45594000000E+02  0.51100000000E-03 0.  1.
         11   -1    0    0    0    0 -0.00000000000E+00 -0.00000000000E+00 -0.45593999997E+02  0.45594000000E+02  0.51100000000E-03 0. -1.
    9900012    2    1    2    0    0  0.84707607177E+01 -0.46758400399E+01  0.16033158343E+02  0.72461563242E+02  0.69999990813E+02 0.  0.
         12    1    1    2    0    0 -0.84707607177E+01  0.46758400399E+01 -0.16033158343E+02  0.18726436758E+02  0.00000000000E+00 0. -1.
         11    1    3    3    0    0  0.19473939679E+02 -0.13860178418E+02  0.18923817104E+01  0.23977489051E+02  0.51100000000E-03 0. -1.
        -11    1    3    3    0    0 -0.19267851891E+02 -0.12089410091E+02  0.25566202129E+01  0.22889741371E+02  0.51100000000E-03 0.  1.
         12    1    3    3    0    0  0.82646729299E+01  0.21273748469E+02  0.11584156419E+02  0.25594332820E+02  0.00000000000E+00 0. -1.
</event>
<event>
 7    1  0.3050261E-013  0.7246156E+02  0.7816164E-02  0.1226708E+00
        -11   -1    0    0    0    0  0.00000000000E+00  0.00000000000E+00  0.45593999997E+02  0.45594000000E+02  0.51100000000E-03 0.  1.
         11   -1    0    0    0    0 -0.00000000000E+00 -0.00000000000E+00 -0.45593999997E+02  0.45594000000E+02  0.51100000000E-03 0. -1.
    9900012    2    1    2    0    0 -0.16527586441E+02 -0.77530280574E+00  0.87702567318E+01  0.72461558503E+02  0.69999984639E+02 0.  0.
         12    1    1    2    0    0  0.16527586441E+02  0.77530280574E+00 -0.87702567318E+01  0.18726441497E+02  0.00000000000E+00 0. -1.
         11    1    3    3    0    0 -0.77919089193E+01 -0.55266533977E+01 -0.94969291080E+01  0.13470315703E+02  0.51100000000E-03 0. -1.
        -11    1    3    3    0    0  0.70690452894E+01 -0.20879626259E+02 -0.28289951919E+01  0.22224612664E+02  0.51100000000E-03 0.  1.
        -12    1    3    3    0    0 -0.15804722811E+02  0.25630976851E+02  0.21096181032E+02  0.36766630136E+02  0.00000000000E+00 0.  1.
</event>
<event>
 7    1  0.3050261E-013  0.7246150E+02  0.7816164E-02  0.1226708E+00
        -11   -1    0    0    0    0  0.00000000000E+00  0.00000000000E+00  0.45593999997E+02  0.45594000000E+02  0.51100000000E-03 0.  1.
         11   -1    0    0    0    0 -0.00000000000E+00 -0.00000000000E+00 -0.45593999997E+02  0.45594000000E+02  0.51100000000E-03 0. -1.
    9900012    2    1    2    0    0  0.93399356981E+01  0.10046191435E+02  0.12748390307E+02  0.72461499617E+02  0.69999907929E+02 0.  0.
         12    1    1    2    0    0 -0.93399356981E+01 -0.10046191435E+02 -0.12748390307E+02  0.18726500383E+02  0.00000000000E+00 0. -1.
         11    1    3    3    0    0  0.16084544035E+02  0.27549765779E-01 -0.20024594328E+02  0.25684580862E+02  0.51100000000E-03 0. -1.
        -11    1    3    3    0    0 -0.11952427103E+02 -0.12480833099E+01  0.30937484270E+00  0.12021395038E+02  0.51100000000E-03 0.  1.
         12    1    3    3    0    0  0.52078187663E+01  0.11266724979E+02  0.32463609792E+02  0.34755523716E+02  0.00000000000E+00 0. -1.
</event>
<event>
 7    1  0.3050261E-013  0.7246139E+02  0.7816164E-02  0.1226708E+00
        -11   -1    0    0    0    0  0.00000000000E+00  0.00000000000E+00  0.45593999997E+02  0.45594000000E+02  0.51100000000E-03 0. -1.
         11   -1    0    0    0    0 -0.00000000000E+00 -0.00000000000E+00 -0.45593999997E+02  0.45594000000E+02  0.51100000000E-03 0.  1.
    9900012    2    1    2    0    0 -0.14883633526E+02 -0.11326581747E+02 -0.93375091909E+00  0.72461390809E+02  0.69999766187E+02 0.  0.
         12    1    1    2    0    0  0.14883633526E+02  0.11326581747E+02  0.93375091909E+00  0.18726609191E+02  0.00000000000E+00 0. -1.
         11    1    3    3    0    0  0.12300095665E+02 -0.26140099943E+02 -0.12993595728E+02  0.31676974423E+02  0.51100000000E-03 0. -1.
        -11    1    3    3    0    0 -0.76691894537E+01 -0.34179633599E+01 -0.43331817705E+01  0.94485662893E+01  0.51100000000E-03 0.  1.
         12    1    3    3    0    0 -0.19514539737E+02  0.18231481556E+02  0.16393026579E+02  0.31335850097E+02  0.00000000000E+00 0. -1.
</event>
<event>
 7    1  0.3050261E-013  0.7246150E+02  0.7816164E-02  0.1226708E+00
        -11   -1    0    0    0    0  0.00000000000E+00  0.00000000000E+00  0.45593999997E+02  0.45594000000E+02  0.51100000000E-03 0. -1.
         11   -1    0    0    0    0 -0.00000000000E+00 -0.00000000000E+00 -0.45593999997E+02  0.45594000000E+02  0.51100000000E-03 0.  1.
    9900012    2    1    2    0    0  0.15221421774E+02 -0.95036488994E+01  0.53545190279E+01  0.72461497464E+02  0.69999905125E+02 0.  0.
         12    1    1    2    0    0 -0.15221421774E+02  0.95036488994E+01 -0.53545190279E+01  0.18726502536E+02  0.00000000000E+00 0. -1.
         11    1    3    3    0    0  0.81957738347E+01  0.32168153031E+01  0.30105863920E+01  0.93049578252E+01  0.51100000000E-03 0. -1.
        -11    1    3    3    0    0 -0.23451644072E+02 -0.17888320836E+02  0.10291004556E+02  0.31239020584E+02  0.51100000000E-03 0.  1.
         12    1    3    3    0    0  0.30477292011E+02  0.51678566334E+01 -0.79470719206E+01  0.31917519055E+02  0.00000000000E+00 0. -1.
</event>
<event>
 7    1  0.3050261E-013  0.7246167E+02  0.7816164E-02  0.1226708E+00
        -11   -1    0    0    0    0  0.00000000000E+00  0.00000000000E+00  0.45593999997E+02  0.45594000000E+02  0.51100000000E-03 0.  1.
         11   -1    0    0    0    0 -0.00000000000E+00 -0.00000000000E+00 -0.45593999997E+02  0.45594000000E+02  0.51100000000E-03 0. -1.
    9900012    2    1    2    0    0 -0.22897106688E+00 -0.98950922267E+01  0.15896861803E+02  0.72461668456E+02  0.70000127873E+02 0.  0.
         12    1    1    2    0    0  0.22897106688E+00  0.98950922267E+01 -0.15896861803E+02  0.18726331544E+02  0.00000000000E+00 0. -1.
         11    1    3    3    0    0  0.19675226354E+02  0.48143488690E+01 -0.14581995247E+02  0.24958507022E+02  0.51100000000E-03 0. -1.
        -11    1    3    3    0    0 -0.54973870389E+00  0.42126799534E+00 -0.46140438874E+01  0.46657347356E+01  0.51100000000E-03 0.  1.
        -12    1    3    3    0    0 -0.19354458717E+02 -0.15130709091E+02  0.35092900938E+02  0.42837426698E+02  0.00000000000E+00 0.  1.
</event>
<event>
 7    1  0.3050261E-013  0.7246159E+02  0.7816164E-02  0.1226708E+00
        -11   -1    0    0    0    0  0.00000000000E+00  0.00000000000E+00  0.45593999997E+02  0.45594000000E+02  0.51100000000E-03 0.  1.
         11   -1    0    0    0    0 -0.00000000000E+00 -0.00000000000E+00 -0.45593999997E+02  0.45594000000E+02  0.51100000000E-03 0. -1.
    9900012    2    1    2    0    0 -0.64368522950E+01 -0.16747909366E+02  0.53621742342E+01  0.72461589556E+02  0.70000025092E+02 0.  0.
         12    1    1    2    0    0  0.64368522950E+01  0.16747909366E+02 -0.53621742342E+01  0.18726410444E+02  0.00000000000E+00 0. -1.
         11    1    3    3    0    0  0.84241614150E+00  0.38011111838E+01  0.62705455236E+01  0.73809113673E+01  0.51100000000E-03 0. -1.
        -11    1    3    3    0    0 -0.18968360675E+02 -0.85705051316E-01  0.24131989362E+02  0.30694608042E+02  0.51100000000E-03 0.  1.
         12    1    3    3    0    0  0.11689092239E+02 -0.20463315499E+02 -0.25040360651E+02  0.34386070146E+02  0.00000000000E+00 0. -1.
</event>
<event>
 7    1  0.3050261E-013  0.7246159E+02  0.7816164E-02  0.1226708E+00
        -11   -1    0    0    0    0  0.00000000000E+00  0.00000000000E+00  0.45593999997E+02  0.45594000000E+02  0.51100000000E-03 0. -1.
         11   -1    0    0    0    0 -0.00000000000E+00 -0.00000000000E+00 -0.45593999997E+02  0.45594000000E+02  0.51100000000E-03 0.  1.
    9900012    2    1    2    0    0 -0.15841991613E+02  0.99348692177E+01  0.10041077349E+01  0.72461586649E+02  0.70000021305E+02 0.  0.
         12    1    1    2    0    0  0.15841991613E+02 -0.99348692177E+01 -0.10041077349E+01  0.18726413351E+02  0.00000000000E+00 0. -1.
         11    1    3    3    0    0 -0.11419742513E+02 -0.57964084386E+01 -0.28606455090E+01  0.13122201143E+02  0.51100000000E-03 0. -1.
        -11    1    3    3    0    0 -0.30260994428E+02  0.33437397777E+01  0.38262161843E+01  0.30684659197E+02  0.51100000000E-03 0.  1.
         12    1    3    3    0    0  0.25838745328E+02  0.12387537879E+02  0.38537059603E-01  0.28654726310E+02  0.00000000000E+00 0. -1.
</event>
<event>
 7    1  0.3050261E-013  0.7246158E+02  0.7816164E-02  0.1226708E+00
        -11   -1    0    0    0    0  0.00000000000E+00  0.00000000000E+00  0.45593999997E+02  0.45594000000E+02  0.51100000000E-03 0. -1.
         11   -1    0    0    0    0 -0.00000000000E+00 -0.00000000000E+00 -0.45593999997E+02  0.45594000000E+02  0.51100000000E-03 0.  1.
    9900012    2    1    2    0    0 -0.11791009275E+02 -0.14394581568E+02  0.21087406732E+01  0.72461583753E+02  0.70000017532E+02 0.  0.
         12    1    1    2    0    0  0.11791009275E+02  0.14394581568E+02 -0.21087406732E+01  0.18726416247E+02  0.00000000000E+00 0. -1.
         11    1    3    3    0    0  0.94154931408E+01  0.17683392322E+02  0.61049150825E+01  0.20943348909E+02  0.51100000000E-03 0. -1.
        -11    1    3    3    0    0 -0.27207640481E+01  0.83742045767E+00 -0.12500954937E+02  0.12820986882E+02  0.51100000000E-03 0.  1.
        -12    1    3    3    0    0 -0.18485738368E+02 -0.32915394347E+02  0.85047805276E+01  0.38697247962E+02  0.00000000000E+00 0.  1.
</event>
<event>
 7    1  0.3050261E-013  0.7246156E+02  0.7816164E-02  0.1226708E+00
        -11   -1    0    0    0    0  0.00000000000E+00  0.00000000000E+00  0.45593999997E+02  0.45594000000E+02  0.51100000000E-03 0. -1.
         11   -1    0    0    0    0 -0.00000000000E+00 -0.00000000000E+00 -0.45593999997E+02  0.45594000000E+02  0.51100000000E-03 0.  1.
    9900012    2    1    2    0    0  0.21907099113E+01  0.72828827984E+01  0.17112566013E+02  0.72461561275E+02  0.69999988251E+02 0.  0.
         12    1    1    2    0    0 -0.21907099113E+01 -0.72828827984E+01 -0.17112566013E+02  0.18726438725E+02  0.00000000000E+00 0. -1.
         11    1    3    3    0    0  0.15698610439E+01 -0.13192237036E+02  0.73186051181E+01  0.15167780420E+02  0.51100000000E-03 0. -1.
        -11    1    3    3    0    0  0.18979482953E+02 -0.85285068322E+01  0.97250166281E+01  0.22968068065E+02  0.51100000000E-03 0.  1.
         12    1    3    3    0    0 -0.18358634085E+02  0.29003626667E+02  0.68944266500E-01  0.34325712791E+02  0.00000000000E+00 0. -1.
</event>
<event>
 7    1  0.3050261E-013  0.7246151E+02  0.7816164E-02  0.1226708E+00
        -11   -1    0    0    0    0  0.00000000000E+00  0.00000000000E+00  0.45593999997E+02  0.45594000000E+02  0.51100000000E-03 0. -1.
         11   -1    0    0    0    0 -0.00000000000E+00 -0.00000000000E+00 -0.45593999997E+02  0.45594000000E+02  0.51100000000E-03 0.  1.
    9900012    2    1    2    0    0 -0.44947204599E+01 -0.26852745557E+01 -0.17979663103E+02  0.72461508157E+02  0.69999919055E+02 0.  0.
         12    1    1    2    0    0  0.44947204599E+01  0.26852745557E+01  0.17979663103E+02  0.18726491843E+02  0.00000000000E+00 0. -1.
         11    1    3    3    0    0 -0.22682201896E+02 -0.19177967206E+02  0.53832158900E+01  0.30187012482E+02  0.51100000000E-03 0. -1.
        -11    1    3    3    0    0 -0.51200129791E+01 -0.18888807967E+01 -0.47733621090E+01  0.72503372097E+01  0.51100000000E-03 0.  1.
        -12    1    3    3    0    0  0.23307494415E+02  0.18381573447E+02 -0.18589516884E+02  0.35024158466E+02  0.00000000000E+00 0.  1.
</event>
<event>
 7    1  0.3050261E-013  0.7246156E+02  0.7816164E-02  0.1226708E+00
        -11   -1    0    0    0    0  0.00000000000E+00  0.00000000000E+00  0.45593999997E+02  0.45594000000E+02  0.51100000000E-03 0.  1.
         11   -1    0    0    0    0 -0.00000000000E+00 -0.00000000000E+00 -0.45593999997E+02  0.45594000000E+02  0.51100000000E-03 0. -1.
    9900012    2    1    2    0    0  0.16201063799E+01 -0.91866584791E+01 -0.16237612002E+02  0.72461561945E+02  0.69999989124E+02 0.  0.
         12    1    1    2    0    0 -0.16201063799E+01  0.91866584791E+01  0.16237612002E+02  0.18726438055E+02  0.00000000000E+00 0. -1.
         11    1    3    3    0    0 -0.13200792376E+02 -0.15340738532E+02 -0.61889420123E+01  0.21163699619E+02  0.51100000000E-03 0. -1.
        -11    1    3    3    0    0 -0.37031088693E+01  0.30941541055E+01  0.17391921496E+02  0.18048981647E+02  0.51100000000E-03 0.  1.
         12    1    3    3    0    0  0.18524007625E+02  0.30599259473E+01 -0.27440591486E+02  0.33248880679E+02  0.00000000000E+00 0. -1.
</event>
<event>
 7    1  0.3050261E-013  0.7246157E+02  0.7816164E-02  0.1226708E+00
        -11   -1    0    0    0    0  0.00000000000E+00  0.00000000000E+00  0.45593999997E+02  0.45594000000E+02  0.51100000000E-03 0.  1.
         11   -1    0    0    0    0 -0.00000000000E+00 -0.00000000000E+00 -0.45593999997E+02  0.45594000000E+02  0.51100000000E-03 0. -1.
    9900012    2    1    2    0    0 -0.86032103060E+01 -0.10010619705E+02  0.13283508129E+02  0.72461566205E+02  0.69999994673E+02 0.  0.
         12    1    1    2    0    0  0.86032103060E+01  0.10010619705E+02 -0.13283508129E+02  0.18726433795E+02  0.00000000000E+00 0. -1.
         11    1    3    3    0    0 -0.21314624906E+02  0.16093192659E+02  0.10540167011E+02  0.28712352841E+02  0.51100000000E-03 0. -1.
        -11    1    3    3    0    0 -0.37437885475E+01  0.20562368399E+01  0.95226733608E+01  0.10436731808E+02  0.51100000000E-03 0.  1.
         12    1    3    3    0    0  0.16455203147E+02 -0.28160049204E+02 -0.67793322427E+01  0.33312481556E+02  0.00000000000E+00 0. -1.
</event>
<event>
 7    1  0.3050261E-013  0.7246155E+02  0.7816164E-02  0.1226708E+00
        -11   -1    0    0    0    0  0.00000000000E+00  0.00000000000E+00  0.45593999997E+02  0.45594000000E+02  0.51100000000E-03 0.  1.
         11   -1    0    0    0    0 -0.00000000000E+00 -0.00000000000E+00 -0.45593999997E+02  0.45594000000E+02  0.51100000000E-03 0. -1.
    9900012    2    1    2    0    0 -0.25020151773E+01 -0.16359346982E+02  0.87630874298E+01  0.72461547722E+02  0.69999970595E+02 0.  0.
         12    1    1    2    0    0  0.25020151773E+01  0.16359346982E+02 -0.87630874298E+01  0.18726452278E+02  0.00000000000E+00 0. -1.
         11    1    3    3    0    0  0.13077370488E+01  0.51740592818E+01  0.49422536987E+01  0.72737155240E+01  0.51100000000E-03 0. -1.
        -11    1    3    3    0    0  0.27937258100E+02 -0.61332092962E+01 -0.44491732513E+01  0.28946533286E+02  0.51100000000E-03 0.  1.
         12    1    3    3    0    0 -0.31747010326E+02 -0.15400196968E+02  0.82700069823E+01  0.36241298911E+02  0.00000000000E+00 0. -1.
</event>
<event>
 7    1  0.3050261E-013  0.7246155E+02  0.7816164E-02  0.1226708E+00
        -11   -1    0    0    0    0  0.00000000000E+00  0.00000000000E+00  0.45593999997E+02  0.45594000000E+02  0.51100000000E-03 0. -1.
         11   -1    0    0    0    0 -0.00000000000E+00 -0.00000000000E+00 -0.45593999997E+02  0.45594000000E+02  0.51100000000E-03 0.  1.
    9900012    2    1    2    0    0 -0.82049746951E+01  0.15933830918E+02 -0.54287479096E+01  0.72461551288E+02  0.69999975241E+02 0.  0.
         12    1    1    2    0    0  0.82049746951E+01 -0.15933830918E+02  0.54287479096E+01  0.18726448712E+02  0.00000000000E+00 0. -1.
         11    1    3    3    0    0  0.64975330556E+01 -0.12948394715E+02  0.10463070063E+02  0.17870497948E+02  0.51100000000E-03 0. -1.
        -11    1    3    3    0    0 -0.60904396436E+01  0.16117688656E+02  0.13180111696E+02  0.21693056199E+02  0.51100000000E-03 0.  1.
        -12    1    3    3    0    0 -0.86120681070E+01  0.12764536977E+02 -0.29071929668E+02  0.32897997142E+02  0.00000000000E+00 0.  1.
</event>
<event>
 7    1  0.3050261E-013  0.7246155E+02  0.7816164E-02  0.1226708E+00
        -11   -1    0    0    0    0  0.00000000000E+00  0.00000000000E+00  0.45593999997E+02  0.45594000000E+02  0.51100000000E-03 0. -1.
         11   -1    0    0    0    0 -0.00000000000E+00 -0.00000000000E+00 -0.45593999997E+02  0.45594000000E+02  0.51100000000E-03 0.  1.
    9900012    2    1    2    0    0 -0.40698944476E+01  0.12043210142E+02 -0.13750529270E+02  0.72461547945E+02  0.69999970886E+02 0.  0.
         12    1    1    2    0    0  0.40698944476E+01 -0.12043210142E+02  0.13750529270E+02  0.18726452055E+02  0.00000000000E+00 0. -1.
         11    1    3    3    0    0 -0.85041088354E+01 -0.30463308436E+01 -0.76348462752E+01  0.11827547362E+02  0.51100000000E-03 0. -1.
        -11    1    3    3    0    0 -0.19206567487E+02  0.92755473892E+01 -0.22722011767E+02  0.31164368002E+02  0.51100000000E-03 0.  1.
         12    1    3    3    0    0  0.23640781875E+02  0.58139935965E+01  0.16606328771E+02  0.29469632581E+02  0.00000000000E+00 0. -1.
</event>
<event>
 7    1  0.3050261E-013  0.7246151E+02  0.7816164E-02  0.1226708E+00
        -11   -1    0    0    0    0  0.00000000000E+00  0.00000000000E+00  0.45593999997E+02  0.45594000000E+02  0.51100000000E-03 0. -1.
         11   -1    0    0    0    0 -0.00000000000E+00 -0.00000000000E+00 -0.45593999997E+02  0.45594000000E+02  0.51100000000E-03 0.  1.
    9900012    2    1    2    0    0 -0.14730833214E+02 -0.93174426690E+01 -0.68461122629E+01  0.72461509721E+02  0.69999921092E+02 0.  0.
         12    1    1    2    0    0  0.14730833214E+02  0.93174426690E+01  0.68461122629E+01  0.18726490279E+02  0.00000000000E+00 0. -1.
         11    1    3    3    0    0  0.15417462116E+02 -0.11822408604E+02  0.20149104079E+02  0.27990246136E+02  0.51100000000E-03 0. -1.
        -11    1    3    3    0    0 -0.80607504768E+01  0.81587309136E+01 -0.41538233380E+01  0.12198148915E+02  0.51100000000E-03 0.  1.
        -12    1    3    3    0    0 -0.22087544854E+02 -0.56537649784E+01 -0.22841393004E+02  0.32273114669E+02  0.00000000000E+00 0.  1.
</event>
<event>
 7    1  0.3050261E-013  0.7246156E+02  0.7816164E-02  0.1226708E+00
        -11   -1    0    0    0    0  0.00000000000E+00  0.00000000000E+00  0.45593999997E+02  0.45594000000E+02  0.51100000000E-03 0.  1.
         11   -1    0    0    0    0 -0.00000000000E+00 -0.00000000000E+00 -0.45593999997E+02  0.45594000000E+02  0.51100000000E-03 0. -1.
    9900012    2    1    2    0    0 -0.51468318989E+01 -0.29236873604E+01  0.17766307642E+02  0.72461561107E+02  0.69999988032E+02 0.  0.
         12    1    1    2    0    0  0.51468318989E+01  0.29236873604E+01 -0.17766307642E+02  0.18726438893E+02  0.00000000000E+00 0. -1.
         11    1    3    3    0    0  0.19008502813E+02  0.33763228225E+01 -0.15348991776E+02  0.24664028134E+02  0.51100000000E-03 0. -1.
        -11    1    3    3    0    0 -0.30489539623E+01  0.12821070557E+01 -0.35279693121E+01  0.48359576606E+01  0.51100000000E-03 0.  1.
        -12    1    3    3    0    0 -0.21106380750E+02 -0.75821172387E+01  0.36643268730E+02  0.42961575313E+02  0.00000000000E+00 0.  1.
</event>
<event>
 7    1  0.3050261E-013  0.7246146E+02  0.7816164E-02  0.1226708E+00
        -11   -1    0    0    0    0  0.00000000000E+00  0.00000000000E+00  0.45593999997E+02  0.45594000000E+02  0.51100000000E-03 0. -1.
         11   -1    0    0    0    0 -0.00000000000E+00 -0.00000000000E+00 -0.45593999997E+02  0.45594000000E+02  0.51100000000E-03 0.  1.
    9900012    2    1    2    0    0  0.14610093034E+02  0.31192877515E+01  0.11291525764E+02  0.72461459245E+02  0.69999855338E+02 0.  0.
         12    1    1    2    0    0 -0.14610093034E+02 -0.31192877515E+01 -0.11291525764E+02  0.18726540755E+02  0.00000000000E+00 0. -1.
         11    1    3    3    0    0  0.22770163400E+02 -0.14338588800E+01  0.23236881658E+02  0.32565149501E+02  0.51100000000E-03 0. -1.
        -11    1    3    3    0    0  0.65942105253E+01 -0.12782402036E+02 -0.89386695535E+01  0.16934380057E+02  0.51100000000E-03 0.  1.
        -12    1    3    3    0    0 -0.14754280891E+02  0.17335548668E+02 -0.30066863404E+01  0.22961929688E+02  0.00000000000E+00 0.  1.
</event>
<event>
 7    1  0.3050261E-013  0.7246159E+02  0.7816164E-02  0.1226708E+00
        -11   -1    0    0    0    0  0.00000000000E+00  0.00000000000E+00  0.45593999997E+02  0.45594000000E+02  0.51100000000E-03 0.  1.
         11   -1    0    0    0    0 -0.00000000000E+00 -0.00000000000E+00 -0.45593999997E+02  0.45594000000E+02  0.51100000000E-03 0. -1.
    9900012    2    1    2    0    0 -0.16035588296E+02 -0.87360080074E+01 -0.41497722144E+01  0.72461587174E+02  0.70000021989E+02 0.  0.
         12    1    1    2    0    0  0.16035588296E+02  0.87360080074E+01  0.41497722144E+01  0.18726412826E+02  0.00000000000E+00 0. -1.
         11    1    3    3    0    0 -0.35536156275E+01  0.26861654492E+02 -0.58300014620E+01  0.27715800248E+02  0.51100000000E-03 0. -1.
        -11    1    3    3    0    0 -0.65171686266E+01 -0.14955062151E+02 -0.11112615784E+02  0.19738733513E+02  0.51100000000E-03 0.  1.
        -12    1    3    3    0    0 -0.59648040414E+01 -0.20642600348E+02  0.12792845032E+02  0.25007053413E+02  0.00000000000E+00 0.  1.
</event>
<event>
 7    1  0.3050261E-013  0.7246154E+02  0.7816164E-02  0.1226708E+00
        -11   -1    0    0    0    0  0.00000000000E+00  0.00000000000E+00  0.45593999997E+02  0.45594000000E+02  0.51100000000E-03 0.  1.
         11   -1    0    0    0    0 -0.00000000000E+00 -0.00000000000E+00 -0.45593999997E+02  0.45594000000E+02  0.51100000000E-03 0. -1.
    9900012    2    1    2    0    0  0.34926847961E+01  0.18120380533E+02  0.31832743145E+01  0.72461540829E+02  0.69999961615E+02 0.  0.
         12    1    1    2    0    0 -0.34926847961E+01 -0.18120380533E+02 -0.31832743145E+01  0.18726459171E+02  0.00000000000E+00 0. -1.
         11    1    3    3    0    0  0.95984484154E+01  0.34018496645E+02  0.13362988607E+02  0.37788328764E+02  0.51100000000E-03 0. -1.
        -11    1    3    3    0    0 -0.22885247235E+01  0.81259264998E+01 -0.49693289321E+01  0.97960327269E+01  0.51100000000E-03 0.  1.
        -12    1    3    3    0    0 -0.38172388958E+01 -0.24024042612E+02 -0.52103853607E+01  0.24877179338E+02  0.00000000000E+00 0.  1.
</event>
<event>
 7    1  0.3050261E-013  0.7246159E+02  0.7816164E-02  0.1226708E+00
        -11   -1    0    0    0    0  0.00000000000E+00  0.00000000000E+00  0.45593999997E+02  0.45594000000E+02  0.51100000000E-03 0. -1.
         11   -1    0    0    0    0 -0.00000000000E+00 -0.00000000000E+00 -0.45593999997E+02  0.45594000000E+02  0.51100000000E-03 0.  1.
    9900012    2    1    2    0    0 -0.95062165716E+01 -0.15199332534E+02 -0.54120658578E+01  0.72461592981E+02  0.70000029554E+02 0.  0.
         12    1    1    2    0    0  0.95062165716E+01  0.15199332534E+02  0.54120658578E+01  0.18726407019E+02  0.00000000000E+00 0. -1.
         11    1    3    3    0    0 -0.11475577735E+01  0.38122505364E+01  0.26832932757E+02  0.27126673655E+02  0.51100000000E-03 0. -1.
        -11    1    3    3    0    0 -0.52373942124E+01 -0.93472212597E+01  0.81954567346E+00  0.10745813082E+02  0.51100000000E-03 0.  1.
        -12    1    3    3    0    0 -0.31212645857E+01 -0.96643618107E+01 -0.33064544288E+02  0.34589106244E+02  0.00000000000E+00 0.  1.
</event>
<event>
 7    1  0.3050261E-013  0.7246151E+02  0.7816164E-02  0.1226708E+00
        -11   -1    0    0    0    0  0.00000000000E+00  0.00000000000E+00  0.45593999997E+02  0.45594000000E+02  0.51100000000E-03 0.  1.
         11   -1    0    0    0    0 -0.00000000000E+00 -0.00000000000E+00 -0.45593999997E+02  0.45594000000E+02  0.51100000000E-03 0. -1.
    9900012    2    1    2    0    0  0.14377046067E+00 -0.14710892514E+02  0.11586640605E+02  0.72461514238E+02  0.69999926976E+02 0.  0.
         12    1    1    2    0    0 -0.14377046067E+00  0.14710892514E+02 -0.11586640605E+02  0.18726485762E+02  0.00000000000E+00 0. -1.
         11    1    3    3    0    0  0.90955974618E+01  0.18708141427E+01  0.15767992125E+02  0.18299164316E+02  0.51100000000E-03 0. -1.
        -11    1    3    3    0    0 -0.32962430774E+01 -0.34172477216E+02  0.27184723186E+01  0.34438546856E+02  0.51100000000E-03 0.  1.
         12    1    3    3    0    0 -0.56555839237E+01  0.17590770560E+02 -0.68998238384E+01  0.19723803066E+02  0.00000000000E+00 0. -1.
</event>
<event>
 7    1  0.3050261E-013  0.7246157E+02  0.7816164E-02  0.1226708E+00
        -11   -1    0    0    0    0  0.00000000000E+00  0.00000000000E+00  0.45593999997E+02  0.45594000000E+02  0.51100000000E-03 0.  1.
         11   -1    0    0    0    0 -0.00000000000E+00 -0.00000000000E+00 -0.45593999997E+02  0.45594000000E+02  0.51100000000E-03 0. -1.
    9900012    2    1    2    0    0 -0.44503610173E+01 -0.15593873157E+02 -0.93650656011E+01  0.72461573567E+02  0.70000004263E+02 0.  0.
         12    1    1    2    0    0  0.44503610173E+01  0.15593873157E+02  0.93650656011E+01  0.18726426433E+02  0.00000000000E+00 0. -1.
         11    1    3    3    0    0  0.78467862946E+01  0.11668457022E+02 -0.39854313879E+01  0.14615355214E+02  0.51100000000E-03 0. -1.
        -11    1    3    3    0    0 -0.10593394818E+02  0.13073670326E+02 -0.46907618086E+01  0.17468374743E+02  0.51100000000E-03 0.  1.
        -12    1    3    3    0    0 -0.17037524943E+01 -0.40336000506E+02 -0.68887240458E+00  0.40377843610E+02  0.00000000000E+00 0.  1.
</event>
<event>
 7    1  0.3050261E-013  0.7246093E+02  0.7816164E-02  0.1226710E+00
        -11   -1    0    0    0    0  0.00000000000E+00  0.00000000000E+00  0.45593999997E+02  0.45594000000E+02  0.51100000000E-03 0. -1.
         11   -1    0    0    0    0 -0.00000000000E+00 -0.00000000000E+00 -0.45593999997E+02  0.45594000000E+02  0.51100000000E-03 0.  1.
    9900012    2    1    2    0    0  0.17079183610E+02  0.55049986779E+01  0.53572070449E+01  0.72460928938E+02  0.69999164510E+02 0.  0.
         12    1    1    2    0    0 -0.17079183610E+02 -0.55049986779E+01 -0.53572070449E+01  0.18727071062E+02  0.00000000000E+00 0. -1.
         11    1    3    3    0    0  0.32799463137E+02  0.12641009663E+02  0.21482137333E+02  0.41195656713E+02  0.51100000000E-03 0. -1.
        -11    1    3    3    0    0 -0.11116556819E+00 -0.90106535725E+01 -0.12009231493E+02  0.15014189186E+02  0.51100000000E-03 0.  1.
        -12    1    3    3    0    0 -0.15609113959E+02  0.18746425874E+01 -0.41156987947E+01  0.16251083040E+02  0.00000000000E+00 0.  1.
</event>
<event>
 7    1  0.3050261E-013  0.7246153E+02  0.7816164E-02  0.1226708E+00
        -11   -1    0    0    0    0  0.00000000000E+00  0.00000000000E+00  0.45593999997E+02  0.45594000000E+02  0.51100000000E-03 0.  1.
         11   -1    0    0    0    0 -0.00000000000E+00 -0.00000000000E+00 -0.45593999997E+02  0.45594000000E+02  0.51100000000E-03 0. -1.
    9900012    2    1    2    0    0 -0.14559837598E+02  0.16023723874E+01  0.11667222370E+02  0.72461533542E+02  0.69999952123E+02 0.  0.
         12    1    1    2    0    0  0.14559837598E+02 -0.16023723874E+01 -0.11667222370E+02  0.18726466458E+02  0.00000000000E+00 0. -1.
         11    1    3    3    0    0 -0.77376228867E+01  0.18825328953E+02  0.11252878680E+02  0.23257065528E+02  0.51100000000E-03 0. -1.
        -11    1    3    3    0    0 -0.77630858790E+00 -0.47248229332E+01  0.22562248610E+02  0.23064727819E+02  0.51100000000E-03 0.  1.
        -12    1    3    3    0    0 -0.60459061239E+01 -0.12498133632E+02 -0.22147904919E+02  0.26139740195E+02  0.00000000000E+00 0.  1.
</event>
<event>
 7    1  0.3050261E-013  0.7246145E+02  0.7816164E-02  0.1226708E+00
        -11   -1    0    0    0    0  0.00000000000E+00  0.00000000000E+00  0.45593999997E+02  0.45594000000E+02  0.51100000000E-03 0.  1.
         11   -1    0    0    0    0 -0.00000000000E+00 -0.00000000000E+00 -0.45593999997E+02  0.45594000000E+02  0.51100000000E-03 0. -1.
    9900012    2    1    2    0    0  0.12418772666E+02 -0.22658672823E+01  0.13831972239E+02  0.72461454000E+02  0.69999848505E+02 0.  0.
         12    1    1    2    0    0 -0.12418772666E+02  0.22658672823E+01 -0.13831972239E+02  0.18726546000E+02  0.00000000000E+00 0. -1.
         11    1    3    3    0    0  0.39236214479E+02  0.17205675439E+01  0.70429608360E+01  0.39900428280E+02  0.51100000000E-03 0. -1.
        -11    1    3    3    0    0  0.74574777394E+00  0.26321896982E+01  0.28351941600E+01  0.39399097116E+01  0.51100000000E-03 0.  1.
        -12    1    3    3    0    0 -0.27563189587E+02 -0.66186245245E+01  0.39538172430E+01  0.28621116009E+02  0.00000000000E+00 0.  1.
</event>
<event>
 7    1  0.3050261E-013  0.7246158E+02  0.7816164E-02  0.1226708E+00
        -11   -1    0    0    0    0  0.00000000000E+00  0.00000000000E+00  0.45593999997E+02  0.45594000000E+02  0.51100000000E-03 0. -1.
         11   -1    0    0    0    0 -0.00000000000E+00 -0.00000000000E+00 -0.45593999997E+02  0.45594000000E+02  0.51100000000E-03 0.  1.
    9900012    2    1    2    0    0 -0.33286775788E+01 -0.14756445851E+00 -0.18427614640E+02  0.72461578799E+02  0.70000011079E+02 0.  0.
         12    1    1    2    0    0  0.33286775788E+01  0.14756445851E+00  0.18427614640E+02  0.18726421201E+02  0.00000000000E+00 0. -1.
         11    1    3    3    0    0 -0.29625442206E+02 -0.14050668210E+01  0.36388739185E+01  0.29881138571E+02  0.51100000000E-03 0. -1.
        -11    1    3    3    0    0 -0.10841396152E+01 -0.75626371399E+01 -0.42252196739E+01  0.87304822759E+01  0.51100000000E-03 0.  1.
        -12    1    3    3    0    0  0.27380904242E+02  0.88201395024E+01 -0.17841268884E+02  0.33849957952E+02  0.00000000000E+00 0.  1.
</event>
<event>
 7    1  0.3050261E-013  0.7246147E+02  0.7816164E-02  0.1226708E+00
        -11   -1    0    0    0    0  0.00000000000E+00  0.00000000000E+00  0.45593999997E+02  0.45594000000E+02  0.51100000000E-03 0. -1.
         11   -1    0    0    0    0 -0.00000000000E+00 -0.00000000000E+00 -0.45593999997E+02  0.45594000000E+02  0.51100000000E-03 0.  1.
    9900012    2    1    2    0    0  0.54709818399E+01  0.71270145566E+01  0.16430362908E+02  0.72461473251E+02  0.69999873583E+02 0.  0.
         12    1    1    2    0    0 -0.54709818399E+01 -0.71270145566E+01 -0.16430362908E+02  0.18726526749E+02  0.00000000000E+00 0. -1.
         11    1    3    3    0    0  0.12184966394E+02 -0.45253088959E+01  0.88438117293E+01  0.15721476801E+02  0.51100000000E-03 0. -1.
        -11    1    3    3    0    0 -0.14451797317E+02 -0.87007057364E+01 -0.16964764303E+02  0.23924045522E+02  0.51100000000E-03 0.  1.
         12    1    3    3    0    0  0.77378127633E+01  0.20353029189E+02  0.24551315481E+02  0.32815950929E+02  0.00000000000E+00 0. -1.
</event>
<event>
 7    1  0.3050261E-013  0.7246161E+02  0.7816164E-02  0.1226708E+00
        -11   -1    0    0    0    0  0.00000000000E+00  0.00000000000E+00  0.45593999997E+02  0.45594000000E+02  0.51100000000E-03 0. -1.
         11   -1    0    0    0    0 -0.00000000000E+00 -0.00000000000E+00 -0.45593999997E+02  0.45594000000E+02  0.51100000000E-03 0.  1.
    9900012    2    1    2    0    0  0.13954945830E+02  0.61516840719E+01  0.10867105489E+02  0.72461609217E+02  0.70000050704E+02 0.  0.
         12    1    1    2    0    0 -0.13954945830E+02 -0.61516840719E+01 -0.10867105489E+02  0.18726390783E+02  0.00000000000E+00 0. -1.
         11    1    3    3    0    0  0.29606790732E+01 -0.47556794494E+01  0.17508244802E+02  0.18382620703E+02  0.51100000000E-03 0. -1.
        -11    1    3    3    0    0  0.18040934959E+02  0.12828499276E+02  0.17903482443E+02  0.28470693911E+02  0.51100000000E-03 0.  1.
        -12    1    3    3    0    0 -0.70466682023E+01 -0.19211357549E+01 -0.24544621757E+02  0.25608294604E+02  0.00000000000E+00 0.  1.
</event>
<event>
 7    1  0.3050261E-013  0.7246156E+02  0.7816164E-02  0.1226708E+00
        -11   -1    0    0    0    0  0.00000000000E+00  0.00000000000E+00  0.45593999997E+02  0.45594000000E+02  0.51100000000E-03 0. -1.
         11   -1    0    0    0    0 -0.00000000000E+00 -0.00000000000E+00 -0.45593999997E+02  0.45594000000E+02  0.51100000000E-03 0.  1.
    9900012    2    1    2    0    0  0.65119482501E+01  0.10282598735E+02 -0.14231736680E+02  0.72461557848E+02  0.69999983786E+02 0.  0.
         12    1    1    2    0    0 -0.65119482501E+01 -0.10282598735E+02  0.14231736680E+02  0.18726442152E+02  0.00000000000E+00 0. -1.
         11    1    3    3    0    0  0.23542143591E+01  0.20615628163E+02  0.15971135540E+02  0.26184415604E+02  0.51100000000E-03 0. -1.
        -11    1    3    3    0    0  0.89747212296E+00  0.62853429636E+01 -0.28565988237E+02  0.29263059932E+02  0.51100000000E-03 0.  1.
        -12    1    3    3    0    0  0.32602617680E+01 -0.16618372391E+02 -0.16368839826E+01  0.17014082312E+02  0.00000000000E+00 0.  1.
</event>
<event>
 7    1  0.3050261E-013  0.7246155E+02  0.7816164E-02  0.1226708E+00
        -11   -1    0    0    0    0  0.00000000000E+00  0.00000000000E+00  0.45593999997E+02  0.45594000000E+02  0.51100000000E-03 0.  1.
         11   -1    0    0    0    0 -0.00000000000E+00 -0.00000000000E+00 -0.45593999997E+02  0.45594000000E+02  0.51100000000E-03 0. -1.
    9900012    2    1    2    0    0 -0.13756033734E+02  0.49892639065E+01 -0.11685837247E+02  0.72461547838E+02  0.69999970747E+02 0.  0.
         12    1    1    2    0    0  0.13756033734E+02 -0.49892639065E+01  0.11685837247E+02  0.18726452162E+02  0.00000000000E+00 0. -1.
         11    1    3    3    0    0  0.26638769565E+02  0.81268036809E+01 -0.70783672278E+01  0.28736253494E+02  0.51100000000E-03 0. -1.
        -11    1    3    3    0    0 -0.21665102274E+02 -0.48548990067E+01 -0.97165306622E+01  0.24235463051E+02  0.51100000000E-03 0.  1.
        -12    1    3    3    0    0 -0.18729701024E+02  0.17173592323E+01  0.51090606434E+01  0.19489831293E+02  0.00000000000E+00 0.  1.
</event>
<event>
 7    1  0.3050261E-013  0.7246154E+02  0.7816164E-02  0.1226708E+00
        -11   -1    0    0    0    0  0.00000000000E+00  0.00000000000E+00  0.45593999997E+02  0.45594000000E+02  0.51100000000E-03 0. -1.
         11   -1    0    0    0    0 -0.00000000000E+00 -0.00000000000E+00 -0.45593999997E+02  0.45594000000E+02  0.51100000000E-03 0.  1.
    9900012    2    1    2    0    0 -0.13185239930E+02 -0.90247800010E+01 -0.97664183870E+01  0.72461544538E+02  0.69999966447E+02 0.  0.
         12    1    1    2    0    0  0.13185239930E+02  0.90247800010E+01  0.97664183870E+01  0.18726455462E+02  0.00000000000E+00 0. -1.
         11    1    3    3    0    0 -0.24427793269E+02 -0.37367764444E+01  0.20032920787E+01  0.24793018404E+02  0.51100000000E-03 0. -1.
        -11    1    3    3    0    0 -0.13931930674E+02 -0.12464484446E+02  0.62642758257E+00  0.18704397253E+02  0.51100000000E-03 0.  1.
         12    1    3    3    0    0  0.25174484013E+02  0.71764808897E+01 -0.12396138048E+02  0.28964128880E+02  0.00000000000E+00 0. -1.
</event>
<event>
 7    1  0.3050261E-013  0.7246181E+02  0.7816164E-02  0.1226707E+00
        -11   -1    0    0    0    0  0.00000000000E+00  0.00000000000E+00  0.45593999997E+02  0.45594000000E+02  0.51100000000E-03 0.  1.
         11   -1    0    0    0    0 -0.00000000000E+00 -0.00000000000E+00 -0.45593999997E+02  0.45594000000E+02  0.51100000000E-03 0. -1.
    9900012    2    1    2    0    0 -0.65528005959E+01 -0.57455447173E+01  0.16574675512E+02  0.72461805830E+02  0.70000306828E+02 0.  0.
         12    1    1    2    0    0  0.65528005959E+01  0.57455447173E+01 -0.16574675512E+02  0.18726194170E+02  0.00000000000E+00 0. -1.
         11    1    3    3    0    0 -0.12803489512E+02 -0.74849415779E+01 -0.15384575855E+02  0.21369110150E+02  0.51100000000E-03 0. -1.
        -11    1    3    3    0    0 -0.14731052968E+02 -0.18979527706E+01  0.24266344282E+02  0.28451038845E+02  0.51100000000E-03 0.  1.
        -12    1    3    3    0    0  0.20981741884E+02  0.36373496312E+01  0.76929070852E+01  0.22641656836E+02  0.00000000000E+00 0.  1.
</event>
<event>
 7    1  0.3050261E-013  0.7246154E+02  0.7816164E-02  0.1226708E+00
        -11   -1    0    0    0    0  0.00000000000E+00  0.00000000000E+00  0.45593999997E+02  0.45594000000E+02  0.51100000000E-03 0.  1.
         11   -1    0    0    0    0 -0.00000000000E+00 -0.00000000000E+00 -0.45593999997E+02  0.45594000000E+02  0.51100000000E-03 0. -1.
    9900012    2    1    2    0    0  0.12457978566E+02 -0.13964260957E+02 -0.69170485404E+00  0.72461540921E+02  0.69999961736E+02 0.  0.
         12    1    1    2    0    0 -0.12457978566E+02  0.13964260957E+02  0.69170485404E+00  0.18726459079E+02  0.00000000000E+00 0. -1.
         11    1    3    3    0    0  0.14233680250E+01  0.19646593777E+02 -0.51235663958E+01  0.20353514597E+02  0.51100000000E-03 0. -1.
        -11    1    3    3    0    0  0.44407031016E+00  0.77932674506E+01  0.51731377264E+01  0.93644845130E+01  0.51100000000E-03 0.  1.
        -12    1    3    3    0    0  0.10590540231E+02 -0.41404122184E+02 -0.74127618468E+00  0.42743541812E+02  0.00000000000E+00 0.  1.
</event>
<event>
 7    1  0.3050261E-013  0.7246160E+02  0.7816164E-02  0.1226708E+00
        -11   -1    0    0    0    0  0.00000000000E+00  0.00000000000E+00  0.45593999997E+02  0.45594000000E+02  0.51100000000E-03 0. -1.
         11   -1    0    0    0    0 -0.00000000000E+00 -0.00000000000E+00 -0.45593999997E+02  0.45594000000E+02  0.51100000000E-03 0.  1.
    9900012    2    1    2    0    0  0.97902703855E+01  0.78954923806E+01 -0.13874077627E+02  0.72461595536E+02  0.70000032882E+02 0.  0.
         12    1    1    2    0    0 -0.97902703855E+01 -0.78954923806E+01  0.13874077627E+02  0.18726404464E+02  0.00000000000E+00 0. -1.
         11    1    3    3    0    0  0.63867817958E+00  0.68803762729E+01  0.37866270618E+01  0.78794690329E+01  0.51100000000E-03 0. -1.
        -11    1    3    3    0    0  0.26961449685E+02  0.84574818500E+01  0.10751731323E+02  0.30233234942E+02  0.51100000000E-03 0.  1.
        -12    1    3    3    0    0 -0.17809857480E+02 -0.74423657424E+01 -0.28412436012E+02  0.34348891560E+02  0.00000000000E+00 0.  1.
</event>
<event>
 7    1  0.3050261E-013  0.7246161E+02  0.7816164E-02  0.1226708E+00
        -11   -1    0    0    0    0  0.00000000000E+00  0.00000000000E+00  0.45593999997E+02  0.45594000000E+02  0.51100000000E-03 0. -1.
         11   -1    0    0    0    0 -0.00000000000E+00 -0.00000000000E+00 -0.45593999997E+02  0.45594000000E+02  0.51100000000E-03 0.  1.
    9900012    2    1    2    0    0  0.95251396511E+01  0.45770865654E+01 -0.15459618681E+02  0.72461606419E+02  0.70000047059E+02 0.  0.
         12    1    1    2    0    0 -0.95251396511E+01 -0.45770865654E+01  0.15459618681E+02  0.18726393581E+02  0.00000000000E+00 0. -1.
         11    1    3    3    0    0 -0.50852103063E+01 -0.77690301484E+01 -0.45135722671E+01  0.10324220463E+02  0.51100000000E-03 0. -1.
        -11    1    3    3    0    0  0.19149171882E+02  0.34343614297E+01 -0.32781987075E+02  0.38120129841E+02  0.51100000000E-03 0.  1.
         12    1    3    3    0    0 -0.45388219250E+01  0.89117552841E+01  0.21835940662E+02  0.24017256115E+02  0.00000000000E+00 0. -1.
</event>
<event>
 7    1  0.3050261E-013  0.7246158E+02  0.7816164E-02  0.1226708E+00
        -11   -1    0    0    0    0  0.00000000000E+00  0.00000000000E+00  0.45593999997E+02  0.45594000000E+02  0.51100000000E-03 0. -1.
         11   -1    0    0    0    0 -0.00000000000E+00 -0.00000000000E+00 -0.45593999997E+02  0.45594000000E+02  0.51100000000E-03 0.  1.
    9900012    2    1    2    0    0 -0.22860530121E+01 -0.18313277976E+02 -0.31743640926E+01  0.72461580801E+02  0.70000013687E+02 0.  0.
         12    1    1    2    0    0  0.22860530121E+01  0.18313277976E+02  0.31743640926E+01  0.18726419199E+02  0.00000000000E+00 0. -1.
         11    1    3    3    0    0 -0.13791312110E+02  0.69674660004E+01  0.20910113916E+02  0.25999591082E+02  0.51100000000E-03 0. -1.
        -11    1    3    3    0    0 -0.87359591199E+01 -0.21941777183E+01 -0.61120894688E+01  0.10885266903E+02  0.51100000000E-03 0.  1.
        -12    1    3    3    0    0  0.20241218218E+02 -0.23086566258E+02 -0.17972388540E+02  0.35576722817E+02  0.00000000000E+00 0.  1.
</event>
<event>
 7    1  0.3050261E-013  0.7246157E+02  0.7816164E-02  0.1226708E+00
        -11   -1    0    0    0    0  0.00000000000E+00  0.00000000000E+00  0.45593999997E+02  0.45594000000E+02  0.51100000000E-03 0. -1.
         11   -1    0    0    0    0 -0.00000000000E+00 -0.00000000000E+00 -0.45593999997E+02  0.45594000000E+02  0.51100000000E-03 0.  1.
    9900012    2    1    2    0    0  0.51377818145E+01 -0.13849494535E+02 -0.11509735041E+02  0.72461566769E+02  0.69999995408E+02 0.  0.
         12    1    1    2    0    0 -0.51377818145E+01  0.13849494535E+02  0.11509735041E+02  0.18726433231E+02  0.00000000000E+00 0. -1.
         11    1    3    3    0    0  0.19470656194E+02  0.58580679055E+01 -0.46459663813E+01  0.20856855374E+02  0.51100000000E-03 0. -1.
        -11    1    3    3    0    0  0.88382765796E+01 -0.93145820107E+01 -0.19415130794E+02  0.23277110537E+02  0.51100000000E-03 0.  1.
        -12    1    3    3    0    0 -0.23171150959E+02 -0.10392980429E+02  0.12551362135E+02  0.28327600859E+02  0.00000000000E+00 0.  1.
</event>
<event>
 7    1  0.3050261E-013  0.7246125E+02  0.7816164E-02  0.1226709E+00
        -11   -1    0    0    0    0  0.00000000000E+00  0.00000000000E+00  0.45593999997E+02  0.45594000000E+02  0.51100000000E-03 0. -1.
         11   -1    0    0    0    0 -0.00000000000E+00 -0.00000000000E+00 -0.45593999997E+02  0.45594000000E+02  0.51100000000E-03 0.  1.
    9900012    2    1    2    0    0 -0.14745348474E+02 -0.95404120046E+00 -0.11504591893E+02  0.72461250927E+02  0.69999583963E+02 0.  0.
         12    1    1    2    0    0  0.14745348474E+02  0.95404120046E+00  0.11504591893E+02  0.18726749073E+02  0.00000000000E+00 0. -1.
         11    1    3    3    0    0  0.26700781590E+00 -0.13104793176E+02 -0.11440000735E+01  0.13157341441E+02  0.51100000000E-03 0. -1.
        -11    1    3    3    0    0 -0.27586825583E+02 -0.75327608315E+01 -0.19074081990E+02  0.34374351420E+02  0.51100000000E-03 0.  1.
         12    1    3    3    0    0  0.12574469293E+02  0.19683512807E+02  0.87134901707E+01  0.24929558066E+02  0.00000000000E+00 0. -1.
</event>
<event>
 7    1  0.3050261E-013  0.7246159E+02  0.7816164E-02  0.1226708E+00
        -11   -1    0    0    0    0  0.00000000000E+00  0.00000000000E+00  0.45593999997E+02  0.45594000000E+02  0.51100000000E-03 0. -1.
         11   -1    0    0    0    0 -0.00000000000E+00 -0.00000000000E+00 -0.45593999997E+02  0.45594000000E+02  0.51100000000E-03 0.  1.
    9900012    2    1    2    0    0  0.16395490245E+02  0.81365136414E+01  0.39576885830E+01  0.72461594752E+02  0.70000031860E+02 0.  0.
         12    1    1    2    0    0 -0.16395490245E+02 -0.81365136414E+01 -0.39576885830E+01  0.18726405248E+02  0.00000000000E+00 0. -1.
         11    1    3    3    0    0  0.29309360571E+02  0.70819916033E+01 -0.39393915836E+01  0.30409078060E+02  0.51100000000E-03 0. -1.
        -11    1    3    3    0    0 -0.20103167603E+02 -0.47195138211E+01 -0.92162694338E+01  0.22613066597E+02  0.51100000000E-03 0.  1.
         12    1    3    3    0    0  0.71892972765E+01  0.57740358593E+01  0.17113349600E+02  0.19439450095E+02  0.00000000000E+00 0. -1.
</event>
<event>
 7    1  0.3050261E-013  0.7246157E+02  0.7816164E-02  0.1226708E+00
        -11   -1    0    0    0    0  0.00000000000E+00  0.00000000000E+00  0.45593999997E+02  0.45594000000E+02  0.51100000000E-03 0.  1.
         11   -1    0    0    0    0 -0.00000000000E+00 -0.00000000000E+00 -0.45593999997E+02  0.45594000000E+02  0.51100000000E-03 0. -1.
    9900012    2    1    2    0    0 -0.31907145680E+01  0.11610999003E+02  0.14341656105E+02  0.72461573295E+02  0.70000003909E+02 0.  0.
         12    1    1    2    0    0  0.31907145680E+01 -0.11610999003E+02 -0.14341656105E+02  0.18726426705E+02  0.00000000000E+00 0. -1.
         11    1    3    3    0    0  0.22924000978E+02  0.55932473482E+01 -0.42069877955E+00  0.23600237805E+02  0.51100000000E-03 0. -1.
        -11    1    3    3    0    0  0.77727228327E+01 -0.33168372033E+01 -0.36219208103E+01  0.91942884381E+01  0.51100000000E-03 0.  1.
        -12    1    3    3    0    0 -0.33887438378E+02  0.93345888578E+01  0.18384275695E+02  0.39667047052E+02  0.00000000000E+00 0.  1.
</event>
<event>
 7    1  0.3050261E-013  0.7246190E+02  0.7816164E-02  0.1226707E+00
        -11   -1    0    0    0    0  0.00000000000E+00  0.00000000000E+00  0.45593999997E+02  0.45594000000E+02  0.51100000000E-03 0.  1.
         11   -1    0    0    0    0 -0.00000000000E+00 -0.00000000000E+00 -0.45593999997E+02  0.45594000000E+02  0.51100000000E-03 0. -1.
    9900012    2    1    2    0    0  0.89593286548E+01 -0.16298014667E+00  0.16442953473E+02  0.72461899195E+02  0.70000428452E+02 0.  0.
         12    1    1    2    0    0 -0.89593286548E+01  0.16298014667E+00 -0.16442953473E+02  0.18726100805E+02  0.00000000000E+00 0. -1.
         11    1    3    3    0    0 -0.61933738668E+00 -0.83510071123E+01  0.11377956076E+02  0.14127306300E+02  0.51100000000E-03 0. -1.
        -11    1    3    3    0    0 -0.16792573626E+02 -0.59178309058E+01  0.18387023853E+02  0.25594802168E+02  0.51100000000E-03 0.  1.
         12    1    3    3    0    0  0.26371239667E+02  0.14105857871E+02 -0.13322026456E+02  0.32739790726E+02  0.00000000000E+00 0. -1.
</event>
<event>
 7    1  0.3050261E-013  0.7246158E+02  0.7816164E-02  0.1226708E+00
        -11   -1    0    0    0    0  0.00000000000E+00  0.00000000000E+00  0.45593999997E+02  0.45594000000E+02  0.51100000000E-03 0. -1.
         11   -1    0    0    0    0 -0.00000000000E+00 -0.00000000000E+00 -0.45593999997E+02  0.45594000000E+02  0.51100000000E-03 0.  1.
    9900012    2    1    2    0    0 -0.11112725786E+02  0.63275949772E+01 -0.13680185927E+02  0.72461584977E+02  0.70000019127E+02 0.  0.
         12    1    1    2    0    0  0.11112725786E+02 -0.63275949772E+01  0.13680185927E+02  0.18726415023E+02  0.00000000000E+00 0. -1.
         11    1    3    3    0    0 -0.19388851224E+02  0.83472185521E+01  0.11387081443E+02  0.23984770864E+02  0.51100000000E-03 0. -1.
        -11    1    3    3    0    0 -0.14032663164E+02  0.86016953418E+01 -0.13029642693E+02  0.20992293519E+02  0.51100000000E-03 0.  1.
        -12    1    3    3    0    0  0.22308788602E+02 -0.10621318917E+02 -0.12037624677E+02  0.27484520594E+02  0.00000000000E+00 0.  1.
</event>
<event>
 7    1  0.3050261E-013  0.7246145E+02  0.7816164E-02  0.1226708E+00
        -11   -1    0    0    0    0  0.00000000000E+00  0.00000000000E+00  0.45593999997E+02  0.45594000000E+02  0.51100000000E-03 0.  1.
         11   -1    0    0    0    0 -0.00000000000E+00 -0.00000000000E+00 -0.45593999997E+02  0.45594000000E+02  0.51100000000E-03 0. -1.
    9900012    2    1    2    0    0  0.37598806843E+01  0.79679765041E+01 -0.16524473519E+02  0.72461452603E+02  0.69999846685E+02 0.  0.
         12    1    1    2    0    0 -0.37598806843E+01 -0.79679765041E+01  0.16524473519E+02  0.18726547397E+02  0.00000000000E+00 0. -1.
         11    1    3    3    0    0 -0.72534964465E+01  0.14657917308E+02 -0.35774822959E+02  0.39335806951E+02  0.51100000000E-03 0. -1.
        -11    1    3    3    0    0  0.66314813140E+01 -0.39864193812E+01 -0.44137975874E+01  0.89078444814E+01  0.51100000000E-03 0.  1.
        -12    1    3    3    0    0  0.43818958168E+01 -0.27035214223E+01  0.23664147027E+02  0.24217801171E+02  0.00000000000E+00 0.  1.
</event>
<event>
 7    1  0.3050261E-013  0.7246160E+02  0.7816164E-02  0.1226708E+00
        -11   -1    0    0    0    0  0.00000000000E+00  0.00000000000E+00  0.45593999997E+02  0.45594000000E+02  0.51100000000E-03 0.  1.
         11   -1    0    0    0    0 -0.00000000000E+00 -0.00000000000E+00 -0.45593999997E+02  0.45594000000E+02  0.51100000000E-03 0. -1.
    9900012    2    1    2    0    0  0.10577343450E+02 -0.11857033820E+02  0.99100348671E+01  0.72461595205E+02  0.70000032451E+02 0.  0.
         12    1    1    2    0    0 -0.10577343450E+02  0.11857033820E+02 -0.99100348671E+01  0.18726404795E+02  0.00000000000E+00 0. -1.
         11    1    3    3    0    0  0.15434766053E+02 -0.30860527159E+02 -0.12489394730E+02  0.36695900597E+02  0.51100000000E-03 0. -1.
        -11    1    3    3    0    0 -0.47053728272E+01 -0.19707564078E+01  0.30921642694E-01  0.51015067060E+01  0.51100000000E-03 0.  1.
        -12    1    3    3    0    0 -0.15204977560E+00  0.20974249747E+02  0.22368507954E+02  0.30664187902E+02  0.00000000000E+00 0.  1.
</event>
<event>
 7    1  0.3050261E-013  0.7246162E+02  0.7816164E-02  0.1226708E+00
        -11   -1    0    0    0    0  0.00000000000E+00  0.00000000000E+00  0.45593999997E+02  0.45594000000E+02  0.51100000000E-03 0. -1.
         11   -1    0    0    0    0 -0.00000000000E+00 -0.00000000000E+00 -0.45593999997E+02  0.45594000000E+02  0.51100000000E-03 0.  1.
    9900012    2    1    2    0    0  0.57558806402E+00  0.11138570495E+02 -0.15042542317E+02  0.72461624652E+02  0.70000070811E+02 0.  0.
         12    1    1    2    0    0 -0.57558806402E+00 -0.11138570495E+02  0.15042542317E+02  0.18726375348E+02  0.00000000000E+00 0. -1.
         11    1    3    3    0    0  0.17414450661E+02  0.71780911560E+01 -0.10010747751E+02  0.21330802969E+02  0.51100000000E-03 0. -1.
        -11    1    3    3    0    0 -0.17804868475E+02 -0.61195041544E+01 -0.23474064423E+02  0.30091416937E+02  0.51100000000E-03 0.  1.
         12    1    3    3    0    0  0.96600587731E+00  0.10079983494E+02  0.18442269857E+02  0.21039404746E+02  0.00000000000E+00 0. -1.
</event>
<event>
 7    1  0.3050261E-013  0.7246154E+02  0.7816164E-02  0.1226708E+00
        -11   -1    0    0    0    0  0.00000000000E+00  0.00000000000E+00  0.45593999997E+02  0.45594000000E+02  0.51100000000E-03 0. -1.
         11   -1    0    0    0    0 -0.00000000000E+00 -0.00000000000E+00 -0.45593999997E+02  0.45594000000E+02  0.51100000000E-03 0.  1.
    9900012    2    1    2    0    0  0.15909678067E+02  0.97800916729E+01  0.13828024494E+01  0.72461542995E+02  0.69999964438E+02 0.  0.
         12    1    1    2    0    0 -0.15909678067E+02 -0.97800916729E+01 -0.13828024494E+01  0.18726457005E+02  0.00000000000E+00 0. -1.
         11    1    3    3    0    0  0.31862316689E+02  0.95326119202E+01  0.94900542551E+01  0.34585243166E+02  0.51100000000E-03 0. -1.
        -11    1    3    3    0    0 -0.17553082468E+01  0.15617064527E+02 -0.88054974372E+00  0.15740050178E+02  0.51100000000E-03 0.  1.
        -12    1    3    3    0    0 -0.14197330375E+02 -0.15369584775E+02 -0.72267020619E+01  0.22136249651E+02  0.00000000000E+00 0.  1.
</event>
<event>
 7    1  0.3050261E-013  0.7246229E+02  0.7816164E-02  0.1226706E+00
        -11   -1    0    0    0    0  0.00000000000E+00  0.00000000000E+00  0.45593999997E+02  0.45594000000E+02  0.51100000000E-03 0. -1.
         11   -1    0    0    0    0 -0.00000000000E+00 -0.00000000000E+00 -0.45593999997E+02  0.45594000000E+02  0.51100000000E-03 0.  1.
    9900012    2    1    2    0    0 -0.13639971121E+02 -0.47837548490E+01 -0.11904588582E+02  0.72462286344E+02  0.70000932781E+02 0.  0.
         12    1    1    2    0    0  0.13639971121E+02  0.47837548490E+01  0.11904588582E+02  0.18725713656E+02  0.00000000000E+00 0. -1.
         11    1    3    3    0    0 -0.59319200071E+01 -0.14051456540E+01  0.54749265594E+01  0.81937128563E+01  0.51100000000E-03 0. -1.
        -11    1    3    3    0    0  0.29822747728E+01 -0.12345416284E+02  0.20380028681E+02  0.24013513599E+02  0.51100000000E-03 0.  1.
        -12    1    3    3    0    0 -0.10690325887E+02  0.89668070888E+01 -0.37759543823E+02  0.40255059889E+02  0.00000000000E+00 0.  1.
</event>
<event>
 7    1  0.3050261E-013  0.7246159E+02  0.7816164E-02  0.1226708E+00
        -11   -1    0    0    0    0  0.00000000000E+00  0.00000000000E+00  0.45593999997E+02  0.45594000000E+02  0.51100000000E-03 0.  1.
         11   -1    0    0    0    0 -0.00000000000E+00 -0.00000000000E+00 -0.45593999997E+02  0.45594000000E+02  0.51100000000E-03 0. -1.
    9900012    2    1    2    0    0 -0.18263648749E+02  0.32519628413E+01 -0.25578166876E+01  0.72461586725E+02  0.70000021403E+02 0.  0.
         12    1    1    2    0    0  0.18263648749E+02 -0.32519628413E+01  0.25578166876E+01  0.18726413275E+02  0.00000000000E+00 0. -1.
         11    1    3    3    0    0 -0.21496193189E+02 -0.20699126537E+02 -0.22112993745E+02  0.37141952744E+02  0.51100000000E-03 0. -1.
        -11    1    3    3    0    0  0.33882032167E+01  0.18436575126E+02  0.44891807850E+01  0.19275372053E+02  0.51100000000E-03 0.  1.
        -12    1    3    3    0    0 -0.15565877657E+00  0.55145142519E+01  0.15065996273E+02  0.16044261927E+02  0.00000000000E+00 0.  1.
</event>
<event>
 7    1  0.3050261E-013  0.7246159E+02  0.7816164E-02  0.1226708E+00
        -11   -1    0    0    0    0  0.00000000000E+00  0.00000000000E+00  0.45593999997E+02  0.45594000000E+02  0.51100000000E-03 0.  1.
         11   -1    0    0    0    0 -0.00000000000E+00 -0.00000000000E+00 -0.45593999997E+02  0.45594000000E+02  0.51100000000E-03 0. -1.
    9900012    2    1    2    0    0  0.86946889358E+01 -0.63701898697E+01  0.15313444796E+02  0.72461587472E+02  0.70000022377E+02 0.  0.
         12    1    1    2    0    0 -0.86946889358E+01  0.63701898697E+01 -0.15313444796E+02  0.18726412528E+02  0.00000000000E+00 0. -1.
         11    1    3    3    0    0  0.25560178066E+01  0.67869469363E+01 -0.46400420504E+01  0.86096379851E+01  0.51100000000E-03 0. -1.
        -11    1    3    3    0    0  0.32610720246E+02 -0.84150589210E+01  0.94443355809E+01  0.34978104100E+02  0.51100000000E-03 0.  1.
         12    1    3    3    0    0 -0.26472049117E+02 -0.47420778850E+01  0.10509151265E+02  0.28873845387E+02  0.00000000000E+00 0. -1.
</event>
<event>
 7    1  0.3050261E-013  0.7246160E+02  0.7816164E-02  0.1226708E+00
        -11   -1    0    0    0    0  0.00000000000E+00  0.00000000000E+00  0.45593999997E+02  0.45594000000E+02  0.51100000000E-03 0. -1.
         11   -1    0    0    0    0 -0.00000000000E+00 -0.00000000000E+00 -0.45593999997E+02  0.45594000000E+02  0.51100000000E-03 0.  1.
    9900012    2    1    2    0    0  0.12419247165E+02 -0.10647642636E+01 -0.13975209490E+02  0.72461604101E+02  0.70000044039E+02 0.  0.
         12    1    1    2    0    0 -0.12419247165E+02  0.10647642636E+01  0.13975209490E+02  0.18726395899E+02  0.00000000000E+00 0. -1.
         11    1    3    3    0    0  0.80325022435E+01 -0.61762002208E+01 -0.38872023048E+01  0.10852505862E+02  0.51100000000E-03 0. -1.
        -11    1    3    3    0    0 -0.10466076701E+02 -0.51869606131E+01 -0.31495754738E+02  0.33592050975E+02  0.51100000000E-03 0.  1.
         12    1    3    3    0    0  0.14852821623E+02  0.10298396570E+02  0.21407747553E+02  0.28017047264E+02  0.00000000000E+00 0. -1.
</event>
<event>
 7    1  0.3050261E-013  0.7246151E+02  0.7816164E-02  0.1226708E+00
        -11   -1    0    0    0    0  0.00000000000E+00  0.00000000000E+00  0.45593999997E+02  0.45594000000E+02  0.51100000000E-03 0.  1.
         11   -1    0    0    0    0 -0.00000000000E+00 -0.00000000000E+00 -0.45593999997E+02  0.45594000000E+02  0.51100000000E-03 0. -1.
    9900012    2    1    2    0    0  0.96484814909E+01  0.90031481229E+01  0.13286510813E+02  0.72461514991E+02  0.69999927957E+02 0.  0.
         12    1    1    2    0    0 -0.96484814909E+01 -0.90031481229E+01 -0.13286510813E+02  0.18726485009E+02  0.00000000000E+00 0. -1.
         11    1    3    3    0    0 -0.11118244831E+02 -0.16298912985E+02 -0.72010841008E+01  0.21002988957E+02  0.51100000000E-03 0. -1.
        -11    1    3    3    0    0 -0.91982907186E+01  0.93338392085E+01  0.75441387562E+01  0.15120950246E+02  0.51100000000E-03 0.  1.
        -12    1    3    3    0    0  0.29965017041E+02  0.15968221900E+02  0.12943456157E+02  0.36337575788E+02  0.00000000000E+00 0.  1.
</event>
<event>
 7    1  0.3050261E-013  0.7246159E+02  0.7816164E-02  0.1226708E+00
        -11   -1    0    0    0    0  0.00000000000E+00  0.00000000000E+00  0.45593999997E+02  0.45594000000E+02  0.51100000000E-03 0.  1.
         11   -1    0    0    0    0 -0.00000000000E+00 -0.00000000000E+00 -0.45593999997E+02  0.45594000000E+02  0.51100000000E-03 0. -1.
    9900012    2    1    2    0    0  0.41330999370E+01  0.16419591069E+02  0.79995515950E+01  0.72461593198E+02  0.70000029837E+02 0.  0.
         12    1    1    2    0    0 -0.41330999370E+01 -0.16419591069E+02 -0.79995515950E+01  0.18726406802E+02  0.00000000000E+00 0. -1.
         11    1    3    3    0    0 -0.17313226863E+02 -0.36240316495E+01  0.13679401629E+00  0.17688983652E+02  0.51100000000E-03 0. -1.
        -11    1    3    3    0    0 -0.10751653285E+02 -0.21838937498E+01  0.10982144775E+02  0.15523367689E+02  0.51100000000E-03 0.  1.
        -12    1    3    3    0    0  0.32197980085E+02  0.22227516469E+02 -0.31193871967E+01  0.39249241857E+02  0.00000000000E+00 0.  1.
</event>
<event>
 7    1  0.3050261E-013  0.7246160E+02  0.7816164E-02  0.1226708E+00
        -11   -1    0    0    0    0  0.00000000000E+00  0.00000000000E+00  0.45593999997E+02  0.45594000000E+02  0.51100000000E-03 0.  1.
         11   -1    0    0    0    0 -0.00000000000E+00 -0.00000000000E+00 -0.45593999997E+02  0.45594000000E+02  0.51100000000E-03 0. -1.
    9900012    2    1    2    0    0 -0.12614529815E+02 -0.13835280394E+02  0.36979570174E+00  0.72461598988E+02  0.70000037378E+02 0.  0.
         12    1    1    2    0    0  0.12614529815E+02  0.13835280394E+02 -0.36979570174E+00  0.18726401012E+02  0.00000000000E+00 0. -1.
         11    1    3    3    0    0  0.12113664443E+02 -0.15404551265E+02 -0.16150102642E+02  0.25394229296E+02  0.51100000000E-03 0. -1.
        -11    1    3    3    0    0  0.80848044038E+01 -0.91316065764E+00 -0.31559640684E+01  0.87268570571E+01  0.51100000000E-03 0.  1.
        -12    1    3    3    0    0 -0.32812998662E+02  0.24824315290E+01  0.19675862412E+02  0.38340512635E+02  0.00000000000E+00 0.  1.
</event>
<event>
 7    1  0.3050261E-013  0.7246159E+02  0.7816164E-02  0.1226708E+00
        -11   -1    0    0    0    0  0.00000000000E+00  0.00000000000E+00  0.45593999997E+02  0.45594000000E+02  0.51100000000E-03 0.  1.
         11   -1    0    0    0    0 -0.00000000000E+00 -0.00000000000E+00 -0.45593999997E+02  0.45594000000E+02  0.51100000000E-03 0. -1.
    9900012    2    1    2    0    0 -0.73749094407E+01 -0.14528467952E+02  0.92310792070E+01  0.72461588341E+02  0.70000023509E+02 0.  0.
         12    1    1    2    0    0  0.73749094407E+01  0.14528467952E+02 -0.92310792070E+01  0.18726411659E+02  0.00000000000E+00 0. -1.
         11    1    3    3    0    0  0.34740498283E+01 -0.14627843822E+02  0.24680784452E+01  0.15235952499E+02  0.51100000000E-03 0. -1.
        -11    1    3    3    0    0  0.44122515211E+01  0.76875568627E+01  0.28360371099E+02  0.29713248613E+02  0.51100000000E-03 0.  1.
         12    1    3    3    0    0 -0.15261210790E+02 -0.75881809935E+01 -0.21597370337E+02  0.27512387229E+02  0.00000000000E+00 0. -1.
</event>
<event>
 7    1  0.3050261E-013  0.7246170E+02  0.7816164E-02  0.1226708E+00
        -11   -1    0    0    0    0  0.00000000000E+00  0.00000000000E+00  0.45593999997E+02  0.45594000000E+02  0.51100000000E-03 0. -1.
         11   -1    0    0    0    0 -0.00000000000E+00 -0.00000000000E+00 -0.45593999997E+02  0.45594000000E+02  0.51100000000E-03 0.  1.
    9900012    2    1    2    0    0 -0.11849541270E+02 -0.67059882176E+01 -0.12856613101E+02  0.72461697463E+02  0.70000165661E+02 0.  0.
         12    1    1    2    0    0  0.11849541270E+02  0.67059882176E+01  0.12856613101E+02  0.18726302537E+02  0.00000000000E+00 0. -1.
         11    1    3    3    0    0 -0.14862114700E+02  0.22446935442E+02 -0.93179049757E+01  0.28488080270E+02  0.51100000000E-03 0. -1.
        -11    1    3    3    0    0  0.11007261325E+01 -0.21852272858E+01 -0.14570190445E+02  0.14774209494E+02  0.51100000000E-03 0.  1.
         12    1    3    3    0    0  0.19118472978E+01 -0.26967696374E+02  0.11031482320E+02  0.29199407699E+02  0.00000000000E+00 0. -1.
</event>
<event>
 7    1  0.3050261E-013  0.7246146E+02  0.7816164E-02  0.1226708E+00
        -11   -1    0    0    0    0  0.00000000000E+00  0.00000000000E+00  0.45593999997E+02  0.45594000000E+02  0.51100000000E-03 0. -1.
         11   -1    0    0    0    0 -0.00000000000E+00 -0.00000000000E+00 -0.45593999997E+02  0.45594000000E+02  0.51100000000E-03 0.  1.
    9900012    2    1    2    0    0  0.87576013902E+01 -0.70465168628E+01 -0.14977799712E+02  0.72461455572E+02  0.69999850553E+02 0.  0.
         12    1    1    2    0    0 -0.87576013902E+01  0.70465168628E+01  0.14977799712E+02  0.18726544428E+02  0.00000000000E+00 0. -1.
         11    1    3    3    0    0 -0.31247130368E+01  0.10189265782E+02 -0.81499971982E+00  0.10688741439E+02  0.51100000000E-03 0. -1.
        -11    1    3    3    0    0 -0.18927002961E+02  0.48934102551E+01  0.36143965774E+01  0.19880663166E+02  0.51100000000E-03 0.  1.
        -12    1    3    3    0    0  0.30809317389E+02 -0.22129192900E+02 -0.17777196569E+02  0.41892050967E+02  0.00000000000E+00 0.  1.
</event>
<event>
 7    1  0.3050261E-013  0.7246157E+02  0.7816164E-02  0.1226708E+00
        -11   -1    0    0    0    0  0.00000000000E+00  0.00000000000E+00  0.45593999997E+02  0.45594000000E+02  0.51100000000E-03 0.  1.
         11   -1    0    0    0    0 -0.00000000000E+00 -0.00000000000E+00 -0.45593999997E+02  0.45594000000E+02  0.51100000000E-03 0. -1.
    9900012    2    1    2    0    0 -0.46537198964E+01  0.13141512634E+02  0.12502910154E+02  0.72461568799E+02  0.69999998053E+02 0.  0.
         12    1    1    2    0    0  0.46537198964E+01 -0.13141512634E+02 -0.12502910154E+02  0.18726431201E+02  0.00000000000E+00 0. -1.
         11    1    3    3    0    0  0.17452458274E+02  0.15176639509E+02  0.75237561127E+01  0.24321299161E+02  0.51100000000E-03 0. -1.
        -11    1    3    3    0    0  0.72067737540E+01  0.46211566916E+01  0.14301995849E+02  0.16668526109E+02  0.51100000000E-03 0.  1.
        -12    1    3    3    0    0 -0.29312951924E+02 -0.66562835663E+01 -0.93228418077E+01  0.31471743530E+02  0.00000000000E+00 0.  1.
</event>
<event>
 7    1  0.3050261E-013  0.7246162E+02  0.7816164E-02  0.1226708E+00
        -11   -1    0    0    0    0  0.00000000000E+00  0.00000000000E+00  0.45593999997E+02  0.45594000000E+02  0.51100000000E-03 0.  1.
         11   -1    0    0    0    0 -0.00000000000E+00 -0.00000000000E+00 -0.45593999997E+02  0.45594000000E+02  0.51100000000E-03 0. -1.
    9900012    2    1    2    0    0 -0.10131672147E+02 -0.56224233063E+01  0.14711042987E+02  0.72461622611E+02  0.70000068152E+02 0.  0.
         12    1    1    2    0    0  0.10131672147E+02  0.56224233063E+01 -0.14711042987E+02  0.18726377389E+02  0.00000000000E+00 0. -1.
         11    1    3    3    0    0 -0.13121589288E+01  0.40422874300E+01 -0.49126315537E+01  0.64958292592E+01  0.51100000000E-03 0. -1.
        -11    1    3    3    0    0  0.19327824138E+02 -0.57640859407E+01  0.29626617335E+02  0.35840283587E+02  0.51100000000E-03 0.  1.
         12    1    3    3    0    0 -0.28147337357E+02 -0.39006247956E+01 -0.10002942794E+02  0.30125509765E+02  0.00000000000E+00 0. -1.
</event>
<event>
 7    1  0.3050261E-013  0.7246154E+02  0.7816164E-02  0.1226708E+00
        -11   -1    0    0    0    0  0.00000000000E+00  0.00000000000E+00  0.45593999997E+02  0.45594000000E+02  0.51100000000E-03 0. -1.
         11   -1    0    0    0    0 -0.00000000000E+00 -0.00000000000E+00 -0.45593999997E+02  0.45594000000E+02  0.51100000000E-03 0.  1.
    9900012    2    1    2    0    0 -0.14286314326E+02  0.46258390145E+01 -0.11188521641E+02  0.72461543311E+02  0.69999964849E+02 0.  0.
         12    1    1    2    0    0  0.14286314326E+02 -0.46258390145E+01  0.11188521641E+02  0.18726456689E+02  0.00000000000E+00 0. -1.
         11    1    3    3    0    0  0.18745702078E+02  0.33571496749E+01  0.12923917135E+02  0.23015200080E+02  0.51100000000E-03 0. -1.
        -11    1    3    3    0    0 -0.74841555341E+00 -0.36628383922E+01  0.46233954979E+01  0.59457797738E+01  0.51100000000E-03 0.  1.
        -12    1    3    3    0    0 -0.32283600851E+02  0.49315277318E+01 -0.28735834274E+02  0.43500563457E+02  0.00000000000E+00 0.  1.
</event>
<event>
 7    1  0.3050261E-013  0.7246158E+02  0.7816164E-02  0.1226708E+00
        -11   -1    0    0    0    0  0.00000000000E+00  0.00000000000E+00  0.45593999997E+02  0.45594000000E+02  0.51100000000E-03 0. -1.
         11   -1    0    0    0    0 -0.00000000000E+00 -0.00000000000E+00 -0.45593999997E+02  0.45594000000E+02  0.51100000000E-03 0.  1.
    9900012    2    1    2    0    0  0.56580524056E+00  0.32469216612E+01 -0.18434103012E+02  0.72461580435E+02  0.70000013210E+02 0.  0.
         12    1    1    2    0    0 -0.56580524056E+00 -0.32469216612E+01  0.18434103012E+02  0.18726419565E+02  0.00000000000E+00 0. -1.
         11    1    3    3    0    0 -0.11588017408E+01  0.75509025073E+00  0.13035136187E+02  0.13108308756E+02  0.51100000000E-03 0. -1.
        -11    1    3    3    0    0  0.25641064560E+02  0.52336205080E+01 -0.14706528163E+02  0.30018943123E+02  0.51100000000E-03 0.  1.
        -12    1    3    3    0    0 -0.23916457578E+02 -0.27417890975E+01 -0.16762711037E+02  0.29334328556E+02  0.00000000000E+00 0.  1.
</event>
<event>
 7    1  0.3050261E-013  0.7246157E+02  0.7816164E-02  0.1226708E+00
        -11   -1    0    0    0    0  0.00000000000E+00  0.00000000000E+00  0.45593999997E+02  0.45594000000E+02  0.51100000000E-03 0.  1.
         11   -1    0    0    0    0 -0.00000000000E+00 -0.00000000000E+00 -0.45593999997E+02  0.45594000000E+02  0.51100000000E-03 0. -1.
    9900012    2    1    2    0    0 -0.13588499366E+02  0.12620890858E+02 -0.25970759202E+01  0.72461574703E+02  0.70000005743E+02 0.  0.
         12    1    1    2    0    0  0.13588499366E+02 -0.12620890858E+02  0.25970759202E+01  0.18726425297E+02  0.00000000000E+00 0. -1.
         11    1    3    3    0    0  0.24545555813E+02  0.80848307498E+01 -0.11083426513E+02  0.28119230821E+02  0.51100000000E-03 0. -1.
        -11    1    3    3    0    0 -0.88319413770E+00  0.60951901129E+01  0.27291523622E+00  0.61648890813E+01  0.51100000000E-03 0.  1.
        -12    1    3    3    0    0 -0.37250861041E+02 -0.15591300042E+01  0.82134353567E+01  0.38177454801E+02  0.00000000000E+00 0.  1.
</event>
<event>
 7    1  0.3050261E-013  0.7246147E+02  0.7816164E-02  0.1226708E+00
        -11   -1    0    0    0    0  0.00000000000E+00  0.00000000000E+00  0.45593999997E+02  0.45594000000E+02  0.51100000000E-03 0. -1.
         11   -1    0    0    0    0 -0.00000000000E+00 -0.00000000000E+00 -0.45593999997E+02  0.45594000000E+02  0.51100000000E-03 0.  1.
    9900012    2    1    2    0    0 -0.71256119752E+01  0.16020824821E+02 -0.65758428748E+01  0.72461471131E+02  0.69999870821E+02 0.  0.
         12    1    1    2    0    0  0.71256119752E+01 -0.16020824821E+02  0.65758428748E+01  0.18726528869E+02  0.00000000000E+00 0. -1.
         11    1    3    3    0    0  0.42127732905E+01  0.71262321847E+01  0.95732707557E+01  0.12656150962E+02  0.51100000000E-03 0. -1.
        -11    1    3    3    0    0  0.44579849619E+01 -0.13800805508E+02  0.13108021523E+02  0.19548813035E+02  0.51100000000E-03 0.  1.
        -12    1    3    3    0    0 -0.15796370228E+02  0.22695398144E+02 -0.29257135153E+02  0.40256507134E+02  0.00000000000E+00 0.  1.
</event>
<event>
 7    1  0.3050261E-013  0.7246155E+02  0.7816164E-02  0.1226708E+00
        -11   -1    0    0    0    0  0.00000000000E+00  0.00000000000E+00  0.45593999997E+02  0.45594000000E+02  0.51100000000E-03 0. -1.
         11   -1    0    0    0    0 -0.00000000000E+00 -0.00000000000E+00 -0.45593999997E+02  0.45594000000E+02  0.51100000000E-03 0.  1.
    9900012    2    1    2    0    0 -0.16658113792E+02  0.58373674763E+01 -0.62539842130E+01  0.72461549917E+02  0.69999973455E+02 0.  0.
         12    1    1    2    0    0  0.16658113792E+02 -0.58373674763E+01  0.62539842130E+01  0.18726450083E+02  0.00000000000E+00 0. -1.
         11    1    3    3    0    0 -0.14267988272E+01 -0.34988541279E+01 -0.59026775806E+00  0.38244151695E+01  0.51100000000E-03 0. -1.
        -11    1    3    3    0    0 -0.19847593685E+01 -0.62268515326E+01 -0.33484570959E+02  0.34116410162E+02  0.51100000000E-03 0.  1.
         12    1    3    3    0    0 -0.13246555596E+02  0.15563073137E+02  0.27820854504E+02  0.34520724586E+02  0.00000000000E+00 0. -1.
</event>
<event>
 7    1  0.3050261E-013  0.7246162E+02  0.7816164E-02  0.1226708E+00
        -11   -1    0    0    0    0  0.00000000000E+00  0.00000000000E+00  0.45593999997E+02  0.45594000000E+02  0.51100000000E-03 0.  1.
         11   -1    0    0    0    0 -0.00000000000E+00 -0.00000000000E+00 -0.45593999997E+02  0.45594000000E+02  0.51100000000E-03 0. -1.
    9900012    2    1    2    0    0 -0.13759073071E+01  0.16657084528E+01  0.18601332755E+02  0.72461620589E+02  0.70000065519E+02 0.  0.
         12    1    1    2    0    0  0.13759073071E+01 -0.16657084528E+01 -0.18601332755E+02  0.18726379411E+02  0.00000000000E+00 0. -1.
         11    1    3    3    0    0  0.14779786241E+02  0.10272848977E+02 -0.13191739361E+02  0.22315812669E+02  0.51100000000E-03 0. -1.
        -11    1    3    3    0    0  0.10522342367E+02 -0.35460558072E+01  0.56758986230E+01  0.12470365918E+02  0.51100000000E-03 0.  1.
        -12    1    3    3    0    0 -0.26678035916E+02 -0.50610847172E+01  0.26117173493E+02  0.37675442003E+02  0.00000000000E+00 0.  1.
</event>
<event>
 7    1  0.3050261E-013  0.7246152E+02  0.7816164E-02  0.1226708E+00
        -11   -1    0    0    0    0  0.00000000000E+00  0.00000000000E+00  0.45593999997E+02  0.45594000000E+02  0.51100000000E-03 0.  1.
         11   -1    0    0    0    0 -0.00000000000E+00 -0.00000000000E+00 -0.45593999997E+02  0.45594000000E+02  0.51100000000E-03 0. -1.
    9900012    2    1    2    0    0  0.11592374651E+02  0.14706079950E+02  0.17105212027E+00  0.72461516177E+02  0.69999929502E+02 0.  0.
         12    1    1    2    0    0 -0.11592374651E+02 -0.14706079950E+02 -0.17105212027E+00  0.18726483823E+02  0.00000000000E+00 0. -1.
         11    1    3    3    0    0  0.61752046233E+00 -0.37247412668E+00 -0.11341170720E+01  0.13439829949E+01  0.51100000000E-03 0. -1.
        -11    1    3    3    0    0  0.32241357297E+01 -0.11171769619E+02  0.29568907102E+02  0.31773003558E+02  0.51100000000E-03 0.  1.
         12    1    3    3    0    0  0.77507184587E+01  0.26250323695E+02 -0.28263737910E+02  0.39344529624E+02  0.00000000000E+00 0. -1.
</event>
<event>
 7    1  0.3050261E-013  0.7246173E+02  0.7816164E-02  0.1226708E+00
        -11   -1    0    0    0    0  0.00000000000E+00  0.00000000000E+00  0.45593999997E+02  0.45594000000E+02  0.51100000000E-03 0.  1.
         11   -1    0    0    0    0 -0.00000000000E+00 -0.00000000000E+00 -0.45593999997E+02  0.45594000000E+02  0.51100000000E-03 0. -1.
    9900012    2    1    2    0    0 -0.18386796312E+02 -0.26701460893E+01  0.23386032081E+01  0.72461734389E+02  0.70000213764E+02 0.  0.
         12    1    1    2    0    0  0.18386796312E+02  0.26701460893E+01 -0.23386032081E+01  0.18726265611E+02  0.00000000000E+00 0. -1.
         11    1    3    3    0    0 -0.61041109141E+01 -0.21261087264E+02 -0.19357396935E+02  0.29393924850E+02  0.51100000000E-03 0. -1.
        -11    1    3    3    0    0 -0.19021892396E+02  0.48894245348E+01  0.46503826563E+01  0.20183283224E+02  0.51100000000E-03 0.  1.
        -12    1    3    3    0    0  0.67392069980E+01  0.13701516640E+02  0.17045617486E+02  0.22884526316E+02  0.00000000000E+00 0.  1.
</event>
<event>
 7    1  0.3050261E-013  0.7246160E+02  0.7816164E-02  0.1226708E+00
        -11   -1    0    0    0    0  0.00000000000E+00  0.00000000000E+00  0.45593999997E+02  0.45594000000E+02  0.51100000000E-03 0.  1.
         11   -1    0    0    0    0 -0.00000000000E+00 -0.00000000000E+00 -0.45593999997E+02  0.45594000000E+02  0.51100000000E-03 0. -1.
    9900012    2    1    2    0    0  0.11516309760E+01 -0.13791785029E+02  0.12615016274E+02  0.72461595546E+02  0.70000032895E+02 0.  0.
         12    1    1    2    0    0 -0.11516309760E+01  0.13791785029E+02 -0.12615016274E+02  0.18726404454E+02  0.00000000000E+00 0. -1.
         11    1    3    3    0    0  0.16859602854E+02 -0.19478517599E+02 -0.12232887628E+02  0.28518457115E+02  0.51100000000E-03 0. -1.
        -11    1    3    3    0    0 -0.13719477792E+02  0.40895256744E+01 -0.40933456778E+01  0.14889720287E+02  0.51100000000E-03 0.  1.
         12    1    3    3    0    0 -0.19884940856E+01  0.15972068961E+01  0.28941249580E+02  0.29053418144E+02  0.00000000000E+00 0. -1.
</event>
<event>
 7    1  0.3050261E-013  0.7246159E+02  0.7816164E-02  0.1226708E+00
        -11   -1    0    0    0    0  0.00000000000E+00  0.00000000000E+00  0.45593999997E+02  0.45594000000E+02  0.51100000000E-03 0. -1.
         11   -1    0    0    0    0 -0.00000000000E+00 -0.00000000000E+00 -0.45593999997E+02  0.45594000000E+02  0.51100000000E-03 0.  1.
    9900012    2    1    2    0    0 -0.12807854890E+02  0.10970122284E+02 -0.81420940003E+01  0.72461590186E+02  0.70000025912E+02 0.  0.
         12    1    1    2    0    0  0.12807854890E+02 -0.10970122284E+02  0.81420940003E+01  0.18726409814E+02  0.00000000000E+00 0. -1.
         11    1    3    3    0    0 -0.56627072236E+01 -0.22529882346E+02 -0.10856778846E+02  0.25642377011E+02  0.51100000000E-03 0. -1.
        -11    1    3    3    0    0  0.57320483220E+01 -0.40251978186E+01  0.12792752240E+01  0.71200520227E+01  0.51100000000E-03 0.  1.
        -12    1    3    3    0    0 -0.12877195989E+02  0.37525202449E+02  0.14354096213E+01  0.39699161152E+02  0.00000000000E+00 0.  1.
</event>
<event>
 7    1  0.3050261E-013  0.7246159E+02  0.7816164E-02  0.1226708E+00
        -11   -1    0    0    0    0  0.00000000000E+00  0.00000000000E+00  0.45593999997E+02  0.45594000000E+02  0.51100000000E-03 0. -1.
         11   -1    0    0    0    0 -0.00000000000E+00 -0.00000000000E+00 -0.45593999997E+02  0.45594000000E+02  0.51100000000E-03 0.  1.
    9900012    2    1    2    0    0  0.83161533987E+00  0.66048438273E+01 -0.17503221258E+02  0.72461593498E+02  0.70000030227E+02 0.  0.
         12    1    1    2    0    0 -0.83161533987E+00 -0.66048438273E+01  0.17503221258E+02  0.18726406502E+02  0.00000000000E+00 0. -1.
         11    1    3    3    0    0 -0.88323410655E+01 -0.81694403910E+01 -0.14929397304E+02  0.19173860048E+02  0.51100000000E-03 0. -1.
        -11    1    3    3    0    0 -0.10950716531E+02  0.44569993100E+01 -0.20783361076E+02  0.23910899884E+02  0.51100000000E-03 0.  1.
         12    1    3    3    0    0  0.20614672936E+02  0.10317284908E+02  0.18209537122E+02  0.29376833566E+02  0.00000000000E+00 0. -1.
</event>
<event>
 7    1  0.3050261E-013  0.7246157E+02  0.7816164E-02  0.1226708E+00
        -11   -1    0    0    0    0  0.00000000000E+00  0.00000000000E+00  0.45593999997E+02  0.45594000000E+02  0.51100000000E-03 0. -1.
         11   -1    0    0    0    0 -0.00000000000E+00 -0.00000000000E+00 -0.45593999997E+02  0.45594000000E+02  0.51100000000E-03 0.  1.
    9900012    2    1    2    0    0 -0.66173634735E+01  0.16446300350E+02  0.60339795750E+01  0.72461569372E+02  0.69999998799E+02 0.  0.
         12    1    1    2    0    0  0.66173634735E+01 -0.16446300350E+02 -0.60339795750E+01  0.18726430628E+02  0.00000000000E+00 0. -1.
         11    1    3    3    0    0 -0.18768301517E+02  0.16858158364E+02  0.74661774096E+01  0.26309512550E+02  0.51100000000E-03 0. -1.
        -11    1    3    3    0    0 -0.15741579653E+02 -0.35017738990E+01  0.58581103467E+01  0.17157424268E+02  0.51100000000E-03 0.  1.
         12    1    3    3    0    0  0.27892517696E+02  0.30899158845E+01 -0.72903081813E+01  0.28994632555E+02  0.00000000000E+00 0. -1.
</event>
<event>
 7    1  0.3050261E-013  0.7246155E+02  0.7816164E-02  0.1226708E+00
        -11   -1    0    0    0    0  0.00000000000E+00  0.00000000000E+00  0.45593999997E+02  0.45594000000E+02  0.51100000000E-03 0.  1.
         11   -1    0    0    0    0 -0.00000000000E+00 -0.00000000000E+00 -0.45593999997E+02  0.45594000000E+02  0.51100000000E-03 0. -1.
    9900012    2    1    2    0    0  0.69340139121E+01  0.15403667760E+02  0.80824680829E+01  0.72461552935E+02  0.69999977386E+02 0.  0.
         12    1    1    2    0    0 -0.69340139121E+01 -0.15403667760E+02 -0.80824680829E+01  0.18726447065E+02  0.00000000000E+00 0. -1.
         11    1    3    3    0    0  0.11674649590E+02  0.54647208817E+01  0.16856210986E+02  0.21220095815E+02  0.51100000000E-03 0. -1.
        -11    1    3    3    0    0 -0.20265240985E+02  0.11341259536E+02  0.11299980131E+02  0.25826221390E+02  0.51100000000E-03 0.  1.
         12    1    3    3    0    0  0.15524605307E+02 -0.14023126584E+01 -0.20073723034E+02  0.25415235729E+02  0.00000000000E+00 0. -1.
</event>
<event>
 7    1  0.3050261E-013  0.7246156E+02  0.7816164E-02  0.1226708E+00
        -11   -1    0    0    0    0  0.00000000000E+00  0.00000000000E+00  0.45593999997E+02  0.45594000000E+02  0.51100000000E-03 0.  1.
         11   -1    0    0    0    0 -0.00000000000E+00 -0.00000000000E+00 -0.45593999997E+02  0.45594000000E+02  0.51100000000E-03 0. -1.
    9900012    2    1    2    0    0 -0.36705545400E+01  0.87935152683E+01  0.16120817676E+02  0.72461557627E+02  0.69999983499E+02 0.  0.
         12    1    1    2    0    0  0.36705545400E+01 -0.87935152683E+01 -0.16120817676E+02  0.18726442373E+02  0.00000000000E+00 0. -1.
         11    1    3    3    0    0 -0.82138512136E+01  0.20214638403E+02  0.83933770663E+01  0.23378360429E+02  0.51100000000E-03 0. -1.
        -11    1    3    3    0    0  0.63637336177E+01  0.16875697703E+02  0.10025607525E+02  0.20634899685E+02  0.51100000000E-03 0.  1.
        -12    1    3    3    0    0 -0.18204369441E+01 -0.28296820838E+02 -0.22981669152E+01  0.28448297513E+02  0.00000000000E+00 0.  1.
</event>
<event>
 7    1  0.3050261E-013  0.7246156E+02  0.7816164E-02  0.1226708E+00
        -11   -1    0    0    0    0  0.00000000000E+00  0.00000000000E+00  0.45593999997E+02  0.45594000000E+02  0.51100000000E-03 0.  1.
         11   -1    0    0    0    0 -0.00000000000E+00 -0.00000000000E+00 -0.45593999997E+02  0.45594000000E+02  0.51100000000E-03 0. -1.
    9900012    2    1    2    0    0  0.16320404178E+02 -0.86744826560E+01 -0.30128554174E+01  0.72461560412E+02  0.69999987126E+02 0.  0.
         12    1    1    2    0    0 -0.16320404178E+02  0.86744826560E+01  0.30128554174E+01  0.18726439588E+02  0.00000000000E+00 0. -1.
         11    1    3    3    0    0 -0.21928141382E+00  0.15781147627E+02 -0.90043547220E+01  0.18170611134E+02  0.51100000000E-03 0. -1.
        -11    1    3    3    0    0  0.99883367216E+01 -0.95942349811E+01 -0.19588728922E+02  0.23990300465E+02  0.51100000000E-03 0.  1.
        -12    1    3    3    0    0  0.65513488706E+01 -0.14861395302E+02  0.25580228227E+02  0.30300648813E+02  0.00000000000E+00 0.  1.
</event>
<event>
 7    1  0.3050261E-013  0.7246158E+02  0.7816164E-02  0.1226708E+00
        -11   -1    0    0    0    0  0.00000000000E+00  0.00000000000E+00  0.45593999997E+02  0.45594000000E+02  0.51100000000E-03 0. -1.
         11   -1    0    0    0    0 -0.00000000000E+00 -0.00000000000E+00 -0.45593999997E+02  0.45594000000E+02  0.51100000000E-03 0.  1.
    9900012    2    1    2    0    0 -0.80824917522E+01  0.48946493671E+01 -0.16167697820E+02  0.72461582346E+02  0.70000015700E+02 0.  0.
         12    1    1    2    0    0  0.80824917522E+01 -0.48946493671E+01  0.16167697820E+02  0.18726417654E+02  0.00000000000E+00 0. -1.
         11    1    3    3    0    0  0.62196611847E+01 -0.88917623143E+01  0.64308152962E+01  0.12613604082E+02  0.51100000000E-03 0. -1.
        -11    1    3    3    0    0  0.10701548211E+02 -0.49560564770E+01 -0.25867422302E+02  0.28429019799E+02  0.51100000000E-03 0.  1.
        -12    1    3    3    0    0 -0.25003701148E+02  0.18742468158E+02  0.32689091859E+01  0.31418958465E+02  0.00000000000E+00 0.  1.
</event>
<event>
 7    1  0.3050261E-013  0.7246161E+02  0.7816164E-02  0.1226708E+00
        -11   -1    0    0    0    0  0.00000000000E+00  0.00000000000E+00  0.45593999997E+02  0.45594000000E+02  0.51100000000E-03 0.  1.
         11   -1    0    0    0    0 -0.00000000000E+00 -0.00000000000E+00 -0.45593999997E+02  0.45594000000E+02  0.51100000000E-03 0. -1.
    9900012    2    1    2    0    0 -0.11151604895E+02 -0.13577186003E+02  0.64791426723E+01  0.72461613236E+02  0.70000055939E+02 0.  0.
         12    1    1    2    0    0  0.11151604895E+02  0.13577186003E+02 -0.64791426723E+01  0.18726386764E+02  0.00000000000E+00 0. -1.
         11    1    3    3    0    0 -0.12003094412E+02 -0.10742762015E+02  0.10698884715E+02  0.19337718210E+02  0.51100000000E-03 0. -1.
        -11    1    3    3    0    0 -0.60245763185E+01 -0.21854738707E+02 -0.17748484326E+02  0.28791210810E+02  0.51100000000E-03 0.  1.
         12    1    3    3    0    0  0.68760658352E+01  0.19020314719E+02  0.13528742283E+02  0.24332684216E+02  0.00000000000E+00 0. -1.
</event>
<event>
 7    1  0.3050261E-013  0.7246154E+02  0.7816164E-02  0.1226708E+00
        -11   -1    0    0    0    0  0.00000000000E+00  0.00000000000E+00  0.45593999997E+02  0.45594000000E+02  0.51100000000E-03 0. -1.
         11   -1    0    0    0    0 -0.00000000000E+00 -0.00000000000E+00 -0.45593999997E+02  0.45594000000E+02  0.51100000000E-03 0.  1.
    9900012    2    1    2    0    0 -0.11180003225E+02 -0.14215345104E+02 -0.48591933256E+01  0.72461540957E+02  0.69999961782E+02 0.  0.
         12    1    1    2    0    0  0.11180003225E+02  0.14215345104E+02  0.48591933256E+01  0.18726459043E+02  0.00000000000E+00 0. -1.
         11    1    3    3    0    0 -0.17959429073E+02  0.32253697361E+01  0.15146027616E+02  0.23713841008E+02  0.51100000000E-03 0. -1.
        -11    1    3    3    0    0  0.12443584048E+02  0.31655167154E+01  0.67493977591E+01  0.14505779896E+02  0.51100000000E-03 0.  1.
        -12    1    3    3    0    0 -0.56641581992E+01 -0.20606231555E+02 -0.26754618701E+02  0.34241920052E+02  0.00000000000E+00 0.  1.
</event>
<event>
 7    1  0.3050261E-013  0.7246140E+02  0.7816164E-02  0.1226708E+00
        -11   -1    0    0    0    0  0.00000000000E+00  0.00000000000E+00  0.45593999997E+02  0.45594000000E+02  0.51100000000E-03 0.  1.
         11   -1    0    0    0    0 -0.00000000000E+00 -0.00000000000E+00 -0.45593999997E+02  0.45594000000E+02  0.51100000000E-03 0. -1.
    9900012    2    1    2    0    0 -0.98840330477E+01  0.93179850405E+01  0.12890558765E+02  0.72461402344E+02  0.69999781213E+02 0.  0.
         12    1    1    2    0    0  0.98840330477E+01 -0.93179850405E+01 -0.12890558765E+02  0.18726597656E+02  0.00000000000E+00 0. -1.
         11    1    3    3    0    0  0.20034178897E+02  0.98700499030E+01 -0.47074102741E+01  0.22824239766E+02  0.51100000000E-03 0. -1.
        -11    1    3    3    0    0 -0.24885347648E+02  0.18367619035E+01 -0.57723619412E+01  0.25611996886E+02  0.51100000000E-03 0.  1.
        -12    1    3    3    0    0 -0.50328642967E+01 -0.23888267659E+01  0.23370330980E+02  0.24025165691E+02  0.00000000000E+00 0.  1.
</event>
<event>
 7    1  0.3050261E-013  0.7246153E+02  0.7816164E-02  0.1226708E+00
        -11   -1    0    0    0    0  0.00000000000E+00  0.00000000000E+00  0.45593999997E+02  0.45594000000E+02  0.51100000000E-03 0.  1.
         11   -1    0    0    0    0 -0.00000000000E+00 -0.00000000000E+00 -0.45593999997E+02  0.45594000000E+02  0.51100000000E-03 0. -1.
    9900012    2    1    2    0    0  0.80739809707E+01  0.14678095959E+02  0.83692864253E+01  0.72461531433E+02  0.69999949376E+02 0.  0.
         12    1    1    2    0    0 -0.80739809707E+01 -0.14678095959E+02 -0.83692864253E+01  0.18726468567E+02  0.00000000000E+00 0. -1.
         11    1    3    3    0    0  0.55765828152E+01  0.14462066559E+02 -0.71703601512E+01  0.17078164715E+02  0.51100000000E-03 0. -1.
        -11    1    3    3    0    0  0.26189826883E+02 -0.71089981758E+01  0.22057379804E+01  0.27227011726E+02  0.51100000000E-03 0.  1.
         12    1    3    3    0    0 -0.23692428728E+02  0.73250275759E+01  0.13333908596E+02  0.28156354992E+02  0.00000000000E+00 0. -1.
</event>
<event>
 7    1  0.3050261E-013  0.7246153E+02  0.7816164E-02  0.1226708E+00
        -11   -1    0    0    0    0  0.00000000000E+00  0.00000000000E+00  0.45593999997E+02  0.45594000000E+02  0.51100000000E-03 0. -1.
         11   -1    0    0    0    0 -0.00000000000E+00 -0.00000000000E+00 -0.45593999997E+02  0.45594000000E+02  0.51100000000E-03 0.  1.
    9900012    2    1    2    0    0  0.99896915701E+01  0.15775967769E+02  0.14161886244E+01  0.72461529779E+02  0.69999947222E+02 0.  0.
         12    1    1    2    0    0 -0.99896915701E+01 -0.15775967769E+02 -0.14161886244E+01  0.18726470221E+02  0.00000000000E+00 0. -1.
         11    1    3    3    0    0  0.21591190359E+02 -0.51279737225E+00  0.96307484298E+00  0.21618741306E+02  0.51100000000E-03 0. -1.
        -11    1    3    3    0    0 -0.54410605751E+01  0.23002038500E+02 -0.18366381377E+02  0.29933641283E+02  0.51100000000E-03 0.  1.
        -12    1    3    3    0    0 -0.61604382138E+01 -0.67132733591E+01  0.18819495158E+02  0.20909147190E+02  0.00000000000E+00 0.  1.
</event>
<event>
 7    1  0.3050261E-013  0.7246155E+02  0.7816164E-02  0.1226708E+00
        -11   -1    0    0    0    0  0.00000000000E+00  0.00000000000E+00  0.45593999997E+02  0.45594000000E+02  0.51100000000E-03 0. -1.
         11   -1    0    0    0    0 -0.00000000000E+00 -0.00000000000E+00 -0.45593999997E+02  0.45594000000E+02  0.51100000000E-03 0.  1.
    9900012    2    1    2    0    0 -0.61442879280E+01 -0.42694999926E+01 -0.17166800168E+02  0.72461549927E+02  0.69999973468E+02 0.  0.
         12    1    1    2    0    0  0.61442879280E+01  0.42694999926E+01  0.17166800168E+02  0.18726450073E+02  0.00000000000E+00 0. -1.
         11    1    3    3    0    0  0.21769018677E+02 -0.10251029029E+02 -0.14360960707E+02  0.28021615995E+02  0.51100000000E-03 0. -1.
        -11    1    3    3    0    0  0.27535503648E+01 -0.92146092069E+01 -0.34250589814E+01  0.10208922163E+02  0.51100000000E-03 0.  1.
        -12    1    3    3    0    0 -0.30666856969E+02  0.15196138243E+02  0.61921952060E+00  0.34231011768E+02  0.00000000000E+00 0.  1.
</event>
<event>
 7    1  0.3050261E-013  0.7246160E+02  0.7816164E-02  0.1226708E+00
        -11   -1    0    0    0    0  0.00000000000E+00  0.00000000000E+00  0.45593999997E+02  0.45594000000E+02  0.51100000000E-03 0. -1.
         11   -1    0    0    0    0 -0.00000000000E+00 -0.00000000000E+00 -0.45593999997E+02  0.45594000000E+02  0.51100000000E-03 0.  1.
    9900012    2    1    2    0    0  0.56545644817E+01 -0.12482381934E+02 -0.12762989960E+02  0.72461604967E+02  0.70000045168E+02 0.  0.
         12    1    1    2    0    0 -0.56545644817E+01  0.12482381934E+02  0.12762989960E+02  0.18726395033E+02  0.00000000000E+00 0. -1.
         11    1    3    3    0    0  0.61176591123E+01  0.95603743278E+01  0.34700509891E+01  0.11868772659E+02  0.51100000000E-03 0. -1.
        -11    1    3    3    0    0 -0.21113124358E+02 -0.47541859983E+00  0.75416186632E+01  0.22424675145E+02  0.51100000000E-03 0.  1.
        -12    1    3    3    0    0  0.20650029728E+02 -0.21567337662E+02 -0.23774659612E+02  0.38168157163E+02  0.00000000000E+00 0.  1.
</event>
<event>
 7    1  0.3050261E-013  0.7246164E+02  0.7816164E-02  0.1226708E+00
        -11   -1    0    0    0    0  0.00000000000E+00  0.00000000000E+00  0.45593999997E+02  0.45594000000E+02  0.51100000000E-03 0. -1.
         11   -1    0    0    0    0 -0.00000000000E+00 -0.00000000000E+00 -0.45593999997E+02  0.45594000000E+02  0.51100000000E-03 0.  1.
    9900012    2    1    2    0    0 -0.14599384524E+02 -0.70184650504E+01 -0.93955177255E+01  0.72461638007E+02  0.70000088209E+02 0.  0.
         12    1    1    2    0    0  0.14599384524E+02  0.70184650504E+01  0.93955177255E+01  0.18726361993E+02  0.00000000000E+00 0. -1.
         11    1    3    3    0    0  0.58595888371E+01  0.18589856122E+01  0.21272496424E+02  0.22142938225E+02  0.51100000000E-03 0. -1.
        -11    1    3    3    0    0 -0.10723611521E+02  0.12364341001E+02 -0.14867949741E+02  0.22111732230E+02  0.51100000000E-03 0.  1.
        -12    1    3    3    0    0 -0.97353618397E+01 -0.21241791663E+02 -0.15800064409E+02  0.28206967553E+02  0.00000000000E+00 0.  1.
</event>
<event>
 7    1  0.3050261E-013  0.7246160E+02  0.7816164E-02  0.1226708E+00
        -11   -1    0    0    0    0  0.00000000000E+00  0.00000000000E+00  0.45593999997E+02  0.45594000000E+02  0.51100000000E-03 0. -1.
         11   -1    0    0    0    0 -0.00000000000E+00 -0.00000000000E+00 -0.45593999997E+02  0.45594000000E+02  0.51100000000E-03 0.  1.
    9900012    2    1    2    0    0  0.10351239515E+02  0.15244372455E+02  0.33374939937E+01  0.72461603731E+02  0.70000043558E+02 0.  0.
         12    1    1    2    0    0 -0.10351239515E+02 -0.15244372455E+02 -0.33374939937E+01  0.18726396269E+02  0.00000000000E+00 0. -1.
         11    1    3    3    0    0  0.10804925162E+02  0.53158256668E+01  0.22488116762E+02  0.25509210219E+02  0.51100000000E-03 0. -1.
        -11    1    3    3    0    0 -0.16321774389E+02  0.73386882823E+01  0.44076743954E+01  0.18430525189E+02  0.51100000000E-03 0.  1.
        -12    1    3    3    0    0  0.15868088742E+02  0.25898585059E+01 -0.23558297163E+02  0.28521868323E+02  0.00000000000E+00 0.  1.
</event>
<event>
 7    1  0.3050261E-013  0.7246157E+02  0.7816164E-02  0.1226708E+00
        -11   -1    0    0    0    0  0.00000000000E+00  0.00000000000E+00  0.45593999997E+02  0.45594000000E+02  0.51100000000E-03 0. -1.
         11   -1    0    0    0    0 -0.00000000000E+00 -0.00000000000E+00 -0.45593999997E+02  0.45594000000E+02  0.51100000000E-03 0.  1.
    9900012    2    1    2    0    0  0.78644260689E+01 -0.11557926291E+02 -0.12459700843E+02  0.72461574750E+02  0.70000005804E+02 0.  0.
         12    1    1    2    0    0 -0.78644260689E+01  0.11557926291E+02  0.12459700843E+02  0.18726425250E+02  0.00000000000E+00 0. -1.
         11    1    3    3    0    0  0.23649437235E+02 -0.18107998432E+02 -0.36420589990E+01  0.30007667066E+02  0.51100000000E-03 0. -1.
        -11    1    3    3    0    0 -0.41182507276E+01 -0.14172947864E+02 -0.11236600882E+02  0.18549761180E+02  0.51100000000E-03 0.  1.
        -12    1    3    3    0    0 -0.11666760438E+02  0.20723020005E+02  0.24189590377E+01  0.23904146504E+02  0.00000000000E+00 0.  1.
</event>
<event>
 7    1  0.3050261E-013  0.7246165E+02  0.7816164E-02  0.1226708E+00
        -11   -1    0    0    0    0  0.00000000000E+00  0.00000000000E+00  0.45593999997E+02  0.45594000000E+02  0.51100000000E-03 0.  1.
         11   -1    0    0    0    0 -0.00000000000E+00 -0.00000000000E+00 -0.45593999997E+02  0.45594000000E+02  0.51100000000E-03 0. -1.
    9900012    2    1    2    0    0  0.37482295638E+01  0.29154230595E+01  0.18114283676E+02  0.72461649860E+02  0.70000103649E+02 0.  0.
         12    1    1    2    0    0 -0.37482295638E+01 -0.29154230595E+01 -0.18114283676E+02  0.18726350140E+02  0.00000000000E+00 0. -1.
         11    1    3    3    0    0  0.35224436968E+01 -0.11685405928E+02  0.16442951260E+02  0.20477474642E+02  0.51100000000E-03 0. -1.
        -11    1    3    3    0    0 -0.10074446533E+02 -0.16314859126E+02 -0.15593561703E+01  0.19238001278E+02  0.51100000000E-03 0.  1.
        -12    1    3    3    0    0  0.10300232400E+02  0.30915688113E+02  0.32306885861E+01  0.32746173941E+02  0.00000000000E+00 0.  1.
</event>
<event>
 7    1  0.3050261E-013  0.7246155E+02  0.7816164E-02  0.1226708E+00
        -11   -1    0    0    0    0  0.00000000000E+00  0.00000000000E+00  0.45593999997E+02  0.45594000000E+02  0.51100000000E-03 0.  1.
         11   -1    0    0    0    0 -0.00000000000E+00 -0.00000000000E+00 -0.45593999997E+02  0.45594000000E+02  0.51100000000E-03 0. -1.
    9900012    2    1    2    0    0  0.76530006215E+01 -0.17084703757E+02  0.47362539847E+00  0.72461552339E+02  0.69999976610E+02 0.  0.
         12    1    1    2    0    0 -0.76530006215E+01  0.17084703757E+02 -0.47362539847E+00  0.18726447661E+02  0.00000000000E+00 0. -1.
         11    1    3    3    0    0  0.19630837231E+02  0.65593063227E+01  0.11050313518E+02  0.23462815239E+02  0.51100000000E-03 0. -1.
        -11    1    3    3    0    0  0.50006430536E+01  0.36253203842E+01  0.93436017935E+01  0.11200547914E+02  0.51100000000E-03 0.  1.
         12    1    3    3    0    0 -0.16978479663E+02 -0.27269330464E+02 -0.19920289913E+02  0.37798189187E+02  0.00000000000E+00 0. -1.
</event>
<event>
 7    1  0.3050261E-013  0.7246154E+02  0.7816164E-02  0.1226708E+00
        -11   -1    0    0    0    0  0.00000000000E+00  0.00000000000E+00  0.45593999997E+02  0.45594000000E+02  0.51100000000E-03 0.  1.
         11   -1    0    0    0    0 -0.00000000000E+00 -0.00000000000E+00 -0.45593999997E+02  0.45594000000E+02  0.51100000000E-03 0. -1.
    9900012    2    1    2    0    0  0.77918318025E+01 -0.50051925922E+01  0.16276233200E+02  0.72461538431E+02  0.69999958492E+02 0.  0.
         12    1    1    2    0    0 -0.77918318025E+01  0.50051925922E+01 -0.16276233200E+02  0.18726461569E+02  0.00000000000E+00 0. -1.
         11    1    3    3    0    0  0.56010596157E+01  0.37120225260E+01 -0.80104319202E+01  0.10455524849E+02  0.51100000000E-03 0. -1.
        -11    1    3    3    0    0  0.21381552315E+02  0.15310204281E+02  0.10861801111E+02  0.28452624803E+02  0.51100000000E-03 0.  1.
         12    1    3    3    0    0 -0.19190780129E+02 -0.24027419399E+02  0.13424864009E+02  0.33553388779E+02  0.00000000000E+00 0. -1.
</event>
<event>
 7    1  0.3050261E-013  0.7246129E+02  0.7816164E-02  0.1226709E+00
        -11   -1    0    0    0    0  0.00000000000E+00  0.00000000000E+00  0.45593999997E+02  0.45594000000E+02  0.51100000000E-03 0.  1.
         11   -1    0    0    0    0 -0.00000000000E+00 -0.00000000000E+00 -0.45593999997E+02  0.45594000000E+02  0.51100000000E-03 0. -1.
    9900012    2    1    2    0    0 -0.17979621227E+02  0.51223788212E+01 -0.10881159578E+01  0.72461293387E+02  0.69999639275E+02 0.  0.
         12    1    1    2    0    0  0.17979621227E+02 -0.51223788212E+01  0.10881159578E+01  0.18726706613E+02  0.00000000000E+00 0. -1.
         11    1    3    3    0    0 -0.10035094859E+02 -0.20774514897E+02 -0.20430035769E+02  0.30816715591E+02  0.51100000000E-03 0. -1.
        -11    1    3    3    0    0  0.83029904579E+01  0.31362721730E+01  0.38409089223E+01  0.96710100454E+01  0.51100000000E-03 0.  1.
        -12    1    3    3    0    0 -0.16247516825E+02  0.22760621545E+02  0.15501010889E+02  0.31973567750E+02  0.00000000000E+00 0.  1.
</event>
<event>
 7    1  0.3050261E-013  0.7246159E+02  0.7816164E-02  0.1226708E+00
        -11   -1    0    0    0    0  0.00000000000E+00  0.00000000000E+00  0.45593999997E+02  0.45594000000E+02  0.51100000000E-03 0.  1.
         11   -1    0    0    0    0 -0.00000000000E+00 -0.00000000000E+00 -0.45593999997E+02  0.45594000000E+02  0.51100000000E-03 0. -1.
    9900012    2    1    2    0    0  0.13666188372E+02 -0.54792233431E+01 -0.11571158546E+02  0.72461593426E+02  0.70000030134E+02 0.  0.
         12    1    1    2    0    0 -0.13666188372E+02  0.54792233431E+01  0.11571158546E+02  0.18726406574E+02  0.00000000000E+00 0. -1.
         11    1    3    3    0    0  0.21594658250E+02 -0.18427666961E+02 -0.17704082469E+02  0.33456579486E+02  0.51100000000E-03 0. -1.
        -11    1    3    3    0    0  0.55584416128E+01 -0.24367385667E+01  0.15393769693E+02  0.16546966901E+02  0.51100000000E-03 0.  1.
         12    1    3    3    0    0 -0.13486911491E+02  0.15385182185E+02 -0.92608457700E+01  0.22458047039E+02  0.00000000000E+00 0. -1.
</event>
<event>
 7    1  0.3115860E-013  0.7246161E+02  0.7816164E-02  0.1226708E+00
        -11   -1    0    0    0    0  0.00000000000E+00  0.00000000000E+00  0.45593999997E+02  0.45594000000E+02  0.51100000000E-03 0. -1.
         11   -1    0    0    0    0 -0.00000000000E+00 -0.00000000000E+00 -0.45593999997E+02  0.45594000000E+02  0.51100000000E-03 0.  1.
    9900012    2    1    2    0    0  0.58775883790E+01  0.17225278638E+02 -0.44069525619E+01  0.72461614866E+02  0.70000058062E+02 0.  0.
         12    1    1    2    0    0 -0.58775883790E+01 -0.17225278638E+02  0.44069525619E+01  0.18726385134E+02  0.00000000000E+00 0. -1.
         11    1    3    3    0    0 -0.84410421211E+01 -0.31059618074E+01 -0.10111567420E+02  0.13532996224E+02  0.51100000000E-03 0. -1.
        -11    1    3    3    0    0  0.13926938002E+02  0.10864590652E+02 -0.22828142068E+02  0.28863870196E+02  0.51100000000E-03 0.  1.
         12    1    3    3    0    0  0.39169249788E+00  0.94666497940E+01  0.28532756926E+02  0.30064748446E+02  0.00000000000E+00 0. -1.
</event>
<event>
 7    1  0.3050261E-013  0.7246154E+02  0.7816164E-02  0.1226708E+00
        -11   -1    0    0    0    0  0.00000000000E+00  0.00000000000E+00  0.45593999997E+02  0.45594000000E+02  0.51100000000E-03 0.  1.
         11   -1    0    0    0    0 -0.00000000000E+00 -0.00000000000E+00 -0.45593999997E+02  0.45594000000E+02  0.51100000000E-03 0. -1.
    9900012    2    1    2    0    0 -0.34760017360E+00  0.13234852791E+02  0.13243801852E+02  0.72461536325E+02  0.69999955748E+02 0.  0.
         12    1    1    2    0    0  0.34760017360E+00 -0.13234852791E+02 -0.13243801852E+02  0.18726463675E+02  0.00000000000E+00 0. -1.
         11    1    3    3    0    0 -0.10981040226E+02  0.36520864570E+02 -0.15683881874E+01  0.38168267385E+02  0.51100000000E-03 0. -1.
        -11    1    3    3    0    0 -0.25129205680E+01 -0.25951370561E+01  0.81121089240E+01  0.88800798181E+01  0.51100000000E-03 0.  1.
        -12    1    3    3    0    0  0.13146360621E+02 -0.20690874723E+02  0.67000811154E+01  0.25413189121E+02  0.00000000000E+00 0.  1.
</event>
<event>
 7    1  0.3050261E-013  0.7246203E+02  0.7816164E-02  0.1226707E+00
        -11   -1    0    0    0    0  0.00000000000E+00  0.00000000000E+00  0.45593999997E+02  0.45594000000E+02  0.51100000000E-03 0.  1.
         11   -1    0    0    0    0 -0.00000000000E+00 -0.00000000000E+00 -0.45593999997E+02  0.45594000000E+02  0.51100000000E-03 0. -1.
    9900012    2    1    2    0    0  0.15680546401E+02 -0.95313914377E+01  0.37329619004E+01  0.72462029726E+02  0.70000598492E+02 0.  0.
         12    1    1    2    0    0 -0.15680546401E+02  0.95313914377E+01 -0.37329619004E+01  0.18725970274E+02  0.00000000000E+00 0. -1.
         11    1    3    3    0    0  0.13518224865E+02 -0.26767257743E+02 -0.18993157777E+02  0.35496035457E+02  0.51100000000E-03 0. -1.
        -11    1    3    3    0    0 -0.10282417700E+02  0.86263559473E+01  0.69840914307E+01  0.15130091344E+02  0.51100000000E-03 0.  1.
        -12    1    3    3    0    0  0.12444739236E+02  0.86095103576E+01  0.15742028246E+02  0.21835902925E+02  0.00000000000E+00 0.  1.
</event>
<event>
 7    1  0.3050261E-013  0.7246152E+02  0.7816164E-02  0.1226708E+00
        -11   -1    0    0    0    0  0.00000000000E+00  0.00000000000E+00  0.45593999997E+02  0.45594000000E+02  0.51100000000E-03 0. -1.
         11   -1    0    0    0    0 -0.00000000000E+00 -0.00000000000E+00 -0.45593999997E+02  0.45594000000E+02  0.51100000000E-03 0.  1.
    9900012    2    1    2    0    0  0.10890019763E+02 -0.13235827804E+02 -0.75433091426E+01  0.72461516590E+02  0.69999930040E+02 0.  0.
         12    1    1    2    0    0 -0.10890019763E+02  0.13235827804E+02  0.75433091426E+01  0.18726483410E+02  0.00000000000E+00 0. -1.
         11    1    3    3    0    0  0.21997825707E+02  0.17973068882E+01  0.18437079428E+02  0.28758660365E+02  0.51100000000E-03 0. -1.
        -11    1    3    3    0    0  0.85079952439E+01  0.17323856873E+01 -0.31117682359E+01  0.92233532436E+01  0.51100000000E-03 0.  1.
        -12    1    3    3    0    0 -0.19615801188E+02 -0.16765520379E+02 -0.22868620335E+02  0.34479502982E+02  0.00000000000E+00 0.  1.
</event>
<event>
 7    1  0.3050261E-013  0.7246157E+02  0.7816164E-02  0.1226708E+00
        -11   -1    0    0    0    0  0.00000000000E+00  0.00000000000E+00  0.45593999997E+02  0.45594000000E+02  0.51100000000E-03 0. -1.
         11   -1    0    0    0    0 -0.00000000000E+00 -0.00000000000E+00 -0.45593999997E+02  0.45594000000E+02  0.51100000000E-03 0.  1.
    9900012    2    1    2    0    0 -0.18617807226E+02 -0.17632199076E+01  0.97336586771E+00  0.72461571311E+02  0.70000001324E+02 0.  0.
         12    1    1    2    0    0  0.18617807226E+02  0.17632199076E+01 -0.97336586771E+00  0.18726428689E+02  0.00000000000E+00 0. -1.
         11    1    3    3    0    0  0.28102153279E+01  0.34787276565E+00 -0.20249090248E+01  0.34811754437E+01  0.51100000000E-03 0. -1.
        -11    1    3    3    0    0 -0.51811627450E+01 -0.15964317887E+02 -0.27220930067E+02  0.31979414112E+02  0.51100000000E-03 0.  1.
         12    1    3    3    0    0 -0.16246859809E+02  0.13853225213E+02  0.30219204959E+02  0.37000981755E+02  0.00000000000E+00 0. -1.
</event>
<event>
 7    1  0.3050261E-013  0.7246158E+02  0.7816164E-02  0.1226708E+00
        -11   -1    0    0    0    0  0.00000000000E+00  0.00000000000E+00  0.45593999997E+02  0.45594000000E+02  0.51100000000E-03 0. -1.
         11   -1    0    0    0    0 -0.00000000000E+00 -0.00000000000E+00 -0.45593999997E+02  0.45594000000E+02  0.51100000000E-03 0.  1.
    9900012    2    1    2    0    0  0.24182722826E+00 -0.11410278246E+02 -0.14846744830E+02  0.72461581172E+02  0.70000014170E+02 0.  0.
         12    1    1    2    0    0 -0.24182722826E+00  0.11410278246E+02  0.14846744830E+02  0.18726418828E+02  0.00000000000E+00 0. -1.
         11    1    3    3    0    0 -0.69331218734E+01  0.13938006444E+02  0.17571768452E+02  0.23475588371E+02  0.51100000000E-03 0. -1.
        -11    1    3    3    0    0  0.47619028604E+01  0.46331362862E+01 -0.60590643098E+01  0.89918814088E+01  0.51100000000E-03 0.  1.
        -12    1    3    3    0    0  0.24130462413E+01 -0.29981420976E+02 -0.26359448973E+02  0.39994111393E+02  0.00000000000E+00 0.  1.
</event>
<event>
 7    1  0.7623027E-013  0.7246211E+02  0.7816164E-02  0.1226707E+00
        -11   -1    0    0    0    0  0.00000000000E+00  0.00000000000E+00  0.45593999997E+02  0.45594000000E+02  0.51100000000E-03 0.  1.
         11   -1    0    0    0    0 -0.00000000000E+00 -0.00000000000E+00 -0.45593999997E+02  0.45594000000E+02  0.51100000000E-03 0. -1.
    9900012    2    1    2    0    0 -0.60112448711E+01 -0.16500859430E+02  0.64996654950E+01  0.72462106740E+02  0.70000698817E+02 0.  0.
         12    1    1    2    0    0  0.60112448711E+01  0.16500859430E+02 -0.64996654950E+01  0.18725893260E+02  0.00000000000E+00 0. -1.
         11    1    3    3    0    0 -0.14975731546E+01 -0.45872708556E+00  0.28486203757E+00  0.15919492875E+01  0.51100000000E-03 0. -1.
        -11    1    3    3    0    0 -0.48273835200E+01  0.24306093030E+02  0.15811122006E+02  0.29395261002E+02  0.51100000000E-03 0.  1.
         12    1    3    3    0    0  0.31371180358E+00 -0.40348225374E+02 -0.95963185482E+01  0.41474896451E+02  0.00000000000E+00 0. -1.
</event>
<event>
 7    1  0.3050261E-013  0.7246159E+02  0.7816164E-02  0.1226708E+00
        -11   -1    0    0    0    0  0.00000000000E+00  0.00000000000E+00  0.45593999997E+02  0.45594000000E+02  0.51100000000E-03 0.  1.
         11   -1    0    0    0    0 -0.00000000000E+00 -0.00000000000E+00 -0.45593999997E+02  0.45594000000E+02  0.51100000000E-03 0. -1.
    9900012    2    1    2    0    0 -0.23379035435E+01  0.11631813102E+02  0.14488393466E+02  0.72461590461E+02  0.70000026270E+02 0.  0.
         12    1    1    2    0    0  0.23379035435E+01 -0.11631813102E+02 -0.14488393466E+02  0.18726409539E+02  0.00000000000E+00 0. -1.
         11    1    3    3    0    0 -0.21865028963E+01 -0.46391472271E+01 -0.12142897816E+02  0.13181519243E+02  0.51100000000E-03 0. -1.
        -11    1    3    3    0    0 -0.18308432203E+02  0.10656883628E+02 -0.55560753198E+01  0.21900635416E+02  0.51100000000E-03 0.  1.
         12    1    3    3    0    0  0.18157031556E+02  0.56140767009E+01  0.32187366602E+02  0.37379435802E+02  0.00000000000E+00 0. -1.
</event>
<event>
 7    1  0.3050261E-013  0.7246155E+02  0.7816164E-02  0.1226708E+00
        -11   -1    0    0    0    0  0.00000000000E+00  0.00000000000E+00  0.45593999997E+02  0.45594000000E+02  0.51100000000E-03 0.  1.
         11   -1    0    0    0    0 -0.00000000000E+00 -0.00000000000E+00 -0.45593999997E+02  0.45594000000E+02  0.51100000000E-03 0. -1.
    9900012    2    1    2    0    0  0.71226946801E+01  0.56637750024E+00  0.17309719903E+02  0.72461549026E+02  0.69999972293E+02 0.  0.
         12    1    1    2    0    0 -0.71226946801E+01 -0.56637750024E+00 -0.17309719903E+02  0.18726450974E+02  0.00000000000E+00 0. -1.
         11    1    3    3    0    0 -0.91636786661E+01  0.55111279782E+01 -0.14172264991E+02  0.17753834333E+02  0.51100000000E-03 0. -1.
        -11    1    3    3    0    0  0.19296209802E+02  0.13236406049E+02  0.77268462981E+01  0.24642449387E+02  0.51100000000E-03 0.  1.
        -12    1    3    3    0    0 -0.30098364558E+01 -0.18181156527E+02  0.23755138596E+02  0.30065265305E+02  0.00000000000E+00 0.  1.
</event>
<event>
 7    1  0.3050261E-013  0.7246157E+02  0.7816164E-02  0.1226708E+00
        -11   -1    0    0    0    0  0.00000000000E+00  0.00000000000E+00  0.45593999997E+02  0.45594000000E+02  0.51100000000E-03 0.  1.
         11   -1    0    0    0    0 -0.00000000000E+00 -0.00000000000E+00 -0.45593999997E+02  0.45594000000E+02  0.51100000000E-03 0. -1.
    9900012    2    1    2    0    0 -0.13317772384E+02 -0.71522185203E+01  0.11052690232E+02  0.72461568081E+02  0.69999997117E+02 0.  0.
         12    1    1    2    0    0  0.13317772384E+02  0.71522185203E+01 -0.11052690232E+02  0.18726431919E+02  0.00000000000E+00 0. -1.
         11    1    3    3    0    0 -0.20082262821E+02 -0.54746792639E+01  0.14425308602E+02  0.25325065086E+02  0.51100000000E-03 0. -1.
        -11    1    3    3    0    0 -0.18773681103E+02 -0.84493200547E+01 -0.18957098270E+01  0.20674521217E+02  0.51100000000E-03 0.  1.
         12    1    3    3    0    0  0.25538171540E+02  0.67717807984E+01 -0.14769085423E+01  0.26461981779E+02  0.00000000000E+00 0. -1.
</event>
<event>
 7    1  0.3050261E-013  0.7246160E+02  0.7816164E-02  0.1226708E+00
        -11   -1    0    0    0    0  0.00000000000E+00  0.00000000000E+00  0.45593999997E+02  0.45594000000E+02  0.51100000000E-03 0.  1.
         11   -1    0    0    0    0 -0.00000000000E+00 -0.00000000000E+00 -0.45593999997E+02  0.45594000000E+02  0.51100000000E-03 0. -1.
    9900012    2    1    2    0    0 -0.13206542579E+02 -0.48225251914E+00  0.13267728543E+02  0.72461602721E+02  0.70000042241E+02 0.  0.
         12    1    1    2    0    0  0.13206542579E+02  0.48225251914E+00 -0.13267728543E+02  0.18726397279E+02  0.00000000000E+00 0. -1.
         11    1    3    3    0    0  0.99072634022E+01  0.11953816405E+02  0.39616089784E+01  0.16023168873E+02  0.51100000000E-03 0. -1.
        -11    1    3    3    0    0 -0.32356300471E+01 -0.13411737142E+02  0.26669448656E+02  0.30026712888E+02  0.51100000000E-03 0.  1.
         12    1    3    3    0    0 -0.19878175934E+02  0.97566821787E+00 -0.17363329092E+02  0.26411720960E+02  0.00000000000E+00 0. -1.
</event>
<event>
 7    1  0.3050261E-013  0.7246157E+02  0.7816164E-02  0.1226708E+00
        -11   -1    0    0    0    0  0.00000000000E+00  0.00000000000E+00  0.45593999997E+02  0.45594000000E+02  0.51100000000E-03 0. -1.
         11   -1    0    0    0    0 -0.00000000000E+00 -0.00000000000E+00 -0.45593999997E+02  0.45594000000E+02  0.51100000000E-03 0.  1.
    9900012    2    1    2    0    0  0.12889438374E+01  0.14420706332E+02 -0.11876914166E+02  0.72461568481E+02  0.69999997638E+02 0.  0.
         12    1    1    2    0    0 -0.12889438374E+01 -0.14420706332E+02  0.11876914166E+02  0.18726431519E+02  0.00000000000E+00 0. -1.
         11    1    3    3    0    0  0.15376737045E+02 -0.11002560744E+02  0.41105207994E+01  0.19349335042E+02  0.51100000000E-03 0. -1.
        -11    1    3    3    0    0 -0.58316238431E+01  0.12915168774E+02  0.13791778603E+02  0.19774290845E+02  0.51100000000E-03 0.  1.
        -12    1    3    3    0    0 -0.82561693646E+01  0.12508098301E+02 -0.29779213568E+02  0.33337942594E+02  0.00000000000E+00 0.  1.
</event>
<event>
 7    1  0.3050261E-013  0.7246149E+02  0.7816164E-02  0.1226708E+00
        -11   -1    0    0    0    0  0.00000000000E+00  0.00000000000E+00  0.45593999997E+02  0.45594000000E+02  0.51100000000E-03 0.  1.
         11   -1    0    0    0    0 -0.00000000000E+00 -0.00000000000E+00 -0.45593999997E+02  0.45594000000E+02  0.51100000000E-03 0. -1.
    9900012    2    1    2    0    0  0.17181788543E+02  0.30648544629E+01  0.67878435152E+01  0.72461494453E+02  0.69999901203E+02 0.  0.
         12    1    1    2    0    0 -0.17181788543E+02 -0.30648544629E+01 -0.67878435152E+01  0.18726505547E+02  0.00000000000E+00 0. -1.
         11    1    3    3    0    0  0.49120684153E+01 -0.73077402379E+01  0.18579052114E+02  0.20559977170E+02  0.51100000000E-03 0. -1.
        -11    1    3    3    0    0  0.25924397593E+01  0.14786071350E+02  0.16123046316E+02  0.22029554527E+02  0.51100000000E-03 0.  1.
         12    1    3    3    0    0  0.96772803679E+01 -0.44134766492E+01 -0.27914254915E+02  0.29871962757E+02  0.00000000000E+00 0. -1.
</event>
<event>
 7    1  0.3050261E-013  0.7246158E+02  0.7816164E-02  0.1226708E+00
        -11   -1    0    0    0    0  0.00000000000E+00  0.00000000000E+00  0.45593999997E+02  0.45594000000E+02  0.51100000000E-03 0.  1.
         11   -1    0    0    0    0 -0.00000000000E+00 -0.00000000000E+00 -0.45593999997E+02  0.45594000000E+02  0.51100000000E-03 0. -1.
    9900012    2    1    2    0    0  0.91211556346E+01  0.94359253636E+01 -0.13358392957E+02  0.72461579360E+02  0.70000011810E+02 0.  0.
         12    1    1    2    0    0 -0.91211556346E+01 -0.94359253636E+01  0.13358392957E+02  0.18726420640E+02  0.00000000000E+00 0. -1.
         11    1    3    3    0    0  0.12302600395E+02  0.20903028233E+02 -0.29188007804E+02  0.37950367135E+02  0.51100000000E-03 0. -1.
        -11    1    3    3    0    0 -0.13237878954E+00 -0.59238010528E+01 -0.79438858891E+01  0.99103111121E+01  0.51100000000E-03 0.  1.
        -12    1    3    3    0    0 -0.30490659713E+01 -0.55433018170E+01  0.23773500736E+02  0.24600901113E+02  0.00000000000E+00 0.  1.
</event>
<event>
 7    1  0.3050261E-013  0.7246157E+02  0.7816164E-02  0.1226708E+00
        -11   -1    0    0    0    0  0.00000000000E+00  0.00000000000E+00  0.45593999997E+02  0.45594000000E+02  0.51100000000E-03 0. -1.
         11   -1    0    0    0    0 -0.00000000000E+00 -0.00000000000E+00 -0.45593999997E+02  0.45594000000E+02  0.51100000000E-03 0.  1.
    9900012    2    1    2    0    0 -0.12535800786E+02 -0.54856506354E+01 -0.12784391691E+02  0.72461565872E+02  0.69999994239E+02 0.  0.
         12    1    1    2    0    0  0.12535800786E+02  0.54856506354E+01  0.12784391691E+02  0.18726434128E+02  0.00000000000E+00 0. -1.
         11    1    3    3    0    0 -0.10990973333E+02  0.10740078125E+02 -0.11114650874E+02  0.18965395784E+02  0.51100000000E-03 0. -1.
        -11    1    3    3    0    0  0.57272049385E+01  0.84272367433E+01 -0.19645695416E+02  0.22130805321E+02  0.51100000000E-03 0.  1.
         12    1    3    3    0    0 -0.72720323913E+01 -0.24652965503E+02  0.17975954599E+02  0.31365364766E+02  0.00000000000E+00 0. -1.
</event>
<event>
 7    1  0.3050261E-013  0.7246159E+02  0.7816164E-02  0.1226708E+00
        -11   -1    0    0    0    0  0.00000000000E+00  0.00000000000E+00  0.45593999997E+02  0.45594000000E+02  0.51100000000E-03 0.  1.
         11   -1    0    0    0    0 -0.00000000000E+00 -0.00000000000E+00 -0.45593999997E+02  0.45594000000E+02  0.51100000000E-03 0. -1.
    9900012    2    1    2    0    0  0.44759208329E+01 -0.16626581427E+02  0.73621561070E+01  0.72461590312E+02  0.70000026077E+02 0.  0.
         12    1    1    2    0    0 -0.44759208329E+01  0.16626581427E+02 -0.73621561070E+01  0.18726409688E+02  0.00000000000E+00 0. -1.
         11    1    3    3    0    0 -0.11881061234E+02 -0.14210958563E+02 -0.23585210204E+00  0.18524756025E+02  0.51100000000E-03 0. -1.
        -11    1    3    3    0    0 -0.10586311597E+02 -0.61959671819E+01 -0.14423681375E+02  0.18934164550E+02  0.51100000000E-03 0.  1.
        -12    1    3    3    0    0  0.26943293663E+02  0.37803443180E+01  0.22021689584E+02  0.35002669737E+02  0.00000000000E+00 0.  1.
</event>
<event>
 7    1  0.3050261E-013  0.7246158E+02  0.7816164E-02  0.1226708E+00
        -11   -1    0    0    0    0  0.00000000000E+00  0.00000000000E+00  0.45593999997E+02  0.45594000000E+02  0.51100000000E-03 0. -1.
         11   -1    0    0    0    0 -0.00000000000E+00 -0.00000000000E+00 -0.45593999997E+02  0.45594000000E+02  0.51100000000E-03 0.  1.
    9900012    2    1    2    0    0 -0.15535410077E+02  0.64677003026E+01 -0.82157660424E+01  0.72461576820E+02  0.70000008501E+02 0.  0.
         12    1    1    2    0    0  0.15535410077E+02 -0.64677003026E+01  0.82157660424E+01  0.18726423180E+02  0.00000000000E+00 0. -1.
         11    1    3    3    0    0 -0.92997749822E+01 -0.70751851404E+01 -0.11582279704E+02  0.16452758519E+02  0.51100000000E-03 0. -1.
        -11    1    3    3    0    0  0.16385142397E+02  0.14181923023E+02 -0.15420568546E+02  0.26596875127E+02  0.51100000000E-03 0.  1.
         12    1    3    3    0    0 -0.22620777491E+02 -0.63903757989E+00  0.18787082208E+02  0.29411943173E+02  0.00000000000E+00 0. -1.
</event>
<event>
 7    1  0.3050261E-013  0.7246155E+02  0.7816164E-02  0.1226708E+00
        -11   -1    0    0    0    0  0.00000000000E+00  0.00000000000E+00  0.45593999997E+02  0.45594000000E+02  0.51100000000E-03 0. -1.
         11   -1    0    0    0    0 -0.00000000000E+00 -0.00000000000E+00 -0.45593999997E+02  0.45594000000E+02  0.51100000000E-03 0.  1.
    9900012    2    1    2    0    0 -0.11271442093E+02  0.12828512667E+02  0.76852978974E+01  0.72461549513E+02  0.69999972928E+02 0.  0.
         12    1    1    2    0    0  0.11271442093E+02 -0.12828512667E+02 -0.76852978974E+01  0.18726450487E+02  0.00000000000E+00 0. -1.
         11    1    3    3    0    0 -0.90566635164E+01 -0.44240972069E+01  0.43584101889E+01  0.10981417476E+02  0.51100000000E-03 0.  1.
        -11    1    3    3    0    0  0.28023852593E+02  0.81326547531E+01 -0.27763778639E+01  0.29311851899E+02  0.51100000000E-03 0. -1.
         12    1    3    3    0    0 -0.30238631169E+02  0.91199551202E+01  0.61032655724E+01  0.32168280137E+02  0.00000000000E+00 0. -1.
</event>
<event>
 7    1  0.3050261E-013  0.7246160E+02  0.7816164E-02  0.1226708E+00
        -11   -1    0    0    0    0  0.00000000000E+00  0.00000000000E+00  0.45593999997E+02  0.45594000000E+02  0.51100000000E-03 0. -1.
         11   -1    0    0    0    0 -0.00000000000E+00 -0.00000000000E+00 -0.45593999997E+02  0.45594000000E+02  0.51100000000E-03 0.  1.
    9900012    2    1    2    0    0 -0.13437510845E+02 -0.69986946841E+01 -0.11005898588E+02  0.72461595414E+02  0.70000032723E+02 0.  0.
         12    1    1    2    0    0  0.13437510845E+02  0.69986946841E+01  0.11005898588E+02  0.18726404586E+02  0.00000000000E+00 0. -1.
         11    1    3    3    0    0  0.24853078377E+01  0.96796197916E+01 -0.80794230744E+01  0.12851026100E+02  0.51100000000E-03 0. -1.
        -11    1    3    3    0    0  0.10050180556E+02 -0.12800629680E+02 -0.21847810089E+02  0.27243146943E+02  0.51100000000E-03 0.  1.
        -12    1    3    3    0    0 -0.25972999239E+02 -0.38776847958E+01  0.18921334575E+02  0.32367422371E+02  0.00000000000E+00 0.  1.
</event>
<event>
 7    1  0.3050261E-013  0.7246098E+02  0.7816164E-02  0.1226710E+00
        -11   -1    0    0    0    0  0.00000000000E+00  0.00000000000E+00  0.45593999997E+02  0.45594000000E+02  0.51100000000E-03 0.  1.
         11   -1    0    0    0    0 -0.00000000000E+00 -0.00000000000E+00 -0.45593999997E+02  0.45594000000E+02  0.51100000000E-03 0. -1.
    9900012    2    1    2    0    0  0.16816804451E+02  0.82386229261E+01 -0.14704325489E+00  0.72460975640E+02  0.69999225349E+02 0.  0.
         12    1    1    2    0    0 -0.16816804451E+02 -0.82386229261E+01  0.14704325489E+00  0.18727024360E+02  0.00000000000E+00 0. -1.
         11    1    3    3    0    0 -0.31689400269E+01 -0.13039253863E+02 -0.31052041860E+01  0.13773402466E+02  0.51100000000E-03 0. -1.
        -11    1    3    3    0    0  0.23723140755E+02 -0.10124420070E+02 -0.45329083308E+01  0.26188519379E+02  0.51100000000E-03 0.  1.
        -12    1    3    3    0    0 -0.37373962778E+01  0.31402296859E+02  0.74910692619E+01  0.32499053796E+02  0.00000000000E+00 0.  1.
</event>
<event>
 7    1  0.3050261E-013  0.7246163E+02  0.7816164E-02  0.1226708E+00
        -11   -1    0    0    0    0  0.00000000000E+00  0.00000000000E+00  0.45593999997E+02  0.45594000000E+02  0.51100000000E-03 0.  1.
         11   -1    0    0    0    0 -0.00000000000E+00 -0.00000000000E+00 -0.45593999997E+02  0.45594000000E+02  0.51100000000E-03 0. -1.
    9900012    2    1    2    0    0 -0.12750404009E+02  0.96176414734E+00  0.13681339749E+02  0.72461632226E+02  0.70000080678E+02 0.  0.
         12    1    1    2    0    0  0.12750404009E+02 -0.96176414734E+00 -0.13681339749E+02  0.18726367774E+02  0.00000000000E+00 0. -1.
         11    1    3    3    0    0 -0.77280405684E+01  0.89763140528E+01 -0.12142548807E+02  0.16962851081E+02  0.51100000000E-03 0. -1.
        -11    1    3    3    0    0 -0.14493325475E+02 -0.70993277249E+01 -0.96278457451E+01  0.18792348215E+02  0.51100000000E-03 0.  1.
        -12    1    3    3    0    0  0.94709620346E+01 -0.91522218055E+00  0.35451734301E+02  0.36706432930E+02  0.00000000000E+00 0.  1.
</event>
<event>
 7    1  0.3050261E-013  0.7246160E+02  0.7816164E-02  0.1226708E+00
        -11   -1    0    0    0    0  0.00000000000E+00  0.00000000000E+00  0.45593999997E+02  0.45594000000E+02  0.51100000000E-03 0.  1.
         11   -1    0    0    0    0 -0.00000000000E+00 -0.00000000000E+00 -0.45593999997E+02  0.45594000000E+02  0.51100000000E-03 0. -1.
    9900012    2    1    2    0    0 -0.14322880837E+02 -0.81726903560E+00  0.12035993040E+02  0.72461602252E+02  0.70000041631E+02 0.  0.
         12    1    1    2    0    0  0.14322880837E+02  0.81726903560E+00 -0.12035993040E+02  0.18726397748E+02  0.00000000000E+00 0. -1.
         11    1    3    3    0    0 -0.81097607938E+01 -0.10803971022E+01  0.45753806440E+01  0.93738778704E+01  0.51100000000E-03 0. -1.
        -11    1    3    3    0    0 -0.33258451583E+02 -0.64601397891E+01  0.93760442887E+01  0.35153495055E+02  0.51100000000E-03 0.  1.
         12    1    3    3    0    0  0.27045331540E+02  0.67232678557E+01 -0.19154318924E+01  0.27934229327E+02  0.00000000000E+00 0. -1.
</event>
<event>
 7    1  0.3050261E-013  0.7246158E+02  0.7816164E-02  0.1226708E+00
        -11   -1    0    0    0    0  0.00000000000E+00  0.00000000000E+00  0.45593999997E+02  0.45594000000E+02  0.51100000000E-03 0.  1.
         11   -1    0    0    0    0 -0.00000000000E+00 -0.00000000000E+00 -0.45593999997E+02  0.45594000000E+02  0.51100000000E-03 0. -1.
    9900012    2    1    2    0    0 -0.93535240507E+01  0.15186624245E+02 -0.57058710995E+01  0.72461576606E+02  0.70000008223E+02 0.  0.
         12    1    1    2    0    0  0.93535240507E+01 -0.15186624245E+02  0.57058710995E+01  0.18726423394E+02  0.00000000000E+00 0. -1.
         11    1    3    3    0    0  0.13028609768E+02  0.22055835702E+02 -0.71305493259E+01  0.26590398548E+02  0.51100000000E-03 0. -1.
        -11    1    3    3    0    0  0.54715903667E+00  0.10474331663E+02 -0.10412912921E+02  0.14779707797E+02  0.51100000000E-03 0.  1.
        -12    1    3    3    0    0 -0.22929292855E+02 -0.17343543120E+02  0.11837591148E+02  0.31091470261E+02  0.00000000000E+00 0.  1.
</event>
<event>
 7    1  0.3050261E-013  0.7246155E+02  0.7816164E-02  0.1226708E+00
        -11   -1    0    0    0    0  0.00000000000E+00  0.00000000000E+00  0.45593999997E+02  0.45594000000E+02  0.51100000000E-03 0. -1.
         11   -1    0    0    0    0 -0.00000000000E+00 -0.00000000000E+00 -0.45593999997E+02  0.45594000000E+02  0.51100000000E-03 0.  1.
    9900012    2    1    2    0    0 -0.71298354723E+01 -0.17296246704E+02 -0.82783937656E+00  0.72461547535E+02  0.69999970351E+02 0.  0.
         12    1    1    2    0    0  0.71298354723E+01  0.17296246704E+02  0.82783937656E+00  0.18726452465E+02  0.00000000000E+00 0. -1.
         11    1    3    3    0    0 -0.10101669955E+02  0.10548238689E+02  0.11227386563E+02  0.18421815453E+02  0.51100000000E-03 0. -1.
        -11    1    3    3    0    0 -0.13879581818E+02 -0.94853346785E+01  0.11000019581E+02  0.20090166660E+02  0.51100000000E-03 0.  1.
        -12    1    3    3    0    0  0.16851416300E+02 -0.18359150714E+02 -0.23055245520E+02  0.33949565421E+02  0.00000000000E+00 0.  1.
</event>
<event>
 7    1  0.3050261E-013  0.7246160E+02  0.7816164E-02  0.1226708E+00
        -11   -1    0    0    0    0  0.00000000000E+00  0.00000000000E+00  0.45593999997E+02  0.45594000000E+02  0.51100000000E-03 0.  1.
         11   -1    0    0    0    0 -0.00000000000E+00 -0.00000000000E+00 -0.45593999997E+02  0.45594000000E+02  0.51100000000E-03 0. -1.
    9900012    2    1    2    0    0  0.14591774339E+02  0.10644595978E+02  0.49447777869E+01  0.72461598069E+02  0.70000036182E+02 0.  0.
         12    1    1    2    0    0 -0.14591774339E+02 -0.10644595978E+02 -0.49447777869E+01  0.18726401931E+02  0.00000000000E+00 0. -1.
         11    1    3    3    0    0 -0.30254450657E+01 -0.11478452791E+02 -0.30161859161E+01  0.12247676272E+02  0.51100000000E-03 0. -1.
        -11    1    3    3    0    0  0.75004151465E+01 -0.14135002986E+02 -0.96167199191E+01  0.18669114576E+02  0.51100000000E-03 0.  1.
         12    1    3    3    0    0  0.10116804259E+02  0.36258051756E+02  0.17577683622E+02  0.41544807221E+02  0.00000000000E+00 0. -1.
</event>
<event>
 7    1  0.3050261E-013  0.7246157E+02  0.7816164E-02  0.1226708E+00
        -11   -1    0    0    0    0  0.00000000000E+00  0.00000000000E+00  0.45593999997E+02  0.45594000000E+02  0.51100000000E-03 0.  1.
         11   -1    0    0    0    0 -0.00000000000E+00 -0.00000000000E+00 -0.45593999997E+02  0.45594000000E+02  0.51100000000E-03 0. -1.
    9900012    2    1    2    0    0  0.18418312710E+02  0.21042550105E+01  0.26489957724E+01  0.72461566521E+02  0.69999995084E+02 0.  0.
         12    1    1    2    0    0 -0.18418312710E+02 -0.21042550105E+01 -0.26489957724E+01  0.18726433479E+02  0.00000000000E+00 0. -1.
         11    1    3    3    0    0 -0.39550320781E+00 -0.25709066939E+02 -0.15388106653E+02  0.29965085888E+02  0.51100000000E-03 0. -1.
        -11    1    3    3    0    0 -0.10339346739E+01  0.10935832931E+02  0.31921686740E+00  0.10989238485E+02  0.51100000000E-03 0.  1.
        -12    1    3    3    0    0  0.19847750592E+02  0.16877489018E+02  0.17717885558E+02  0.31507242148E+02  0.00000000000E+00 0.  1.
</event>
<event>
 7    1  0.3050261E-013  0.7246160E+02  0.7816164E-02  0.1226708E+00
        -11   -1    0    0    0    0  0.00000000000E+00  0.00000000000E+00  0.45593999997E+02  0.45594000000E+02  0.51100000000E-03 0.  1.
         11   -1    0    0    0    0 -0.00000000000E+00 -0.00000000000E+00 -0.45593999997E+02  0.45594000000E+02  0.51100000000E-03 0. -1.
    9900012    2    1    2    0    0 -0.79627401722E+01 -0.58649443803E+01  0.15902056614E+02  0.72461595962E+02  0.70000033437E+02 0.  0.
         12    1    1    2    0    0  0.79627401722E+01  0.58649443803E+01 -0.15902056614E+02  0.18726404038E+02  0.00000000000E+00 0. -1.
         11    1    3    3    0    0 -0.11504277231E+02 -0.82954829574E+01 -0.26679277715E+00  0.14185718549E+02  0.51100000000E-03 0.  1.
        -11    1    3    3    0    0 -0.22634884885E+02 -0.15640264476E+01 -0.63010227561E+01  0.23547549353E+02  0.51100000000E-03 0. -1.
        -12    1    3    3    0    0  0.26176421944E+02  0.39945650247E+01  0.22469872147E+02  0.34728328060E+02  0.00000000000E+00 0.  1.
</event>
<event>
 7    1  0.3050261E-013  0.7246164E+02  0.7816164E-02  0.1226708E+00
        -11   -1    0    0    0    0  0.00000000000E+00  0.00000000000E+00  0.45593999997E+02  0.45594000000E+02  0.51100000000E-03 0. -1.
         11   -1    0    0    0    0 -0.00000000000E+00 -0.00000000000E+00 -0.45593999997E+02  0.45594000000E+02  0.51100000000E-03 0.  1.
    9900012    2    1    2    0    0 -0.18476474635E+02 -0.16928635209E+01  0.25358609484E+01  0.72461641770E+02  0.70000093110E+02 0.  0.
         12    1    1    2    0    0  0.18476474635E+02  0.16928635209E+01 -0.25358609484E+01  0.18726358230E+02  0.00000000000E+00 0. -1.
         11    1    3    3    0    0  0.71408614417E+00 -0.19977259967E+02 -0.71872780992E+01  0.21242829415E+02  0.51100000000E-03 0. -1.
        -11    1    3    3    0    0 -0.72979578192E+01  0.76714142310E+00 -0.16178317730E+02  0.17764758910E+02  0.51100000000E-03 0.  1.
        -12    1    3    3    0    0 -0.11892602960E+02  0.17517255023E+02  0.25901456778E+02  0.33454053445E+02  0.00000000000E+00 0.  1.
</event>
<event>
 7    1  0.3050261E-013  0.7246158E+02  0.7816164E-02  0.1226708E+00
        -11   -1    0    0    0    0  0.00000000000E+00  0.00000000000E+00  0.45593999997E+02  0.45594000000E+02  0.51100000000E-03 0.  1.
         11   -1    0    0    0    0 -0.00000000000E+00 -0.00000000000E+00 -0.45593999997E+02  0.45594000000E+02  0.51100000000E-03 0. -1.
    9900012    2    1    2    0    0  0.83165678654E+01 -0.11186140075E+02  0.12505353203E+02  0.72461577769E+02  0.70000009738E+02 0.  0.
         12    1    1    2    0    0 -0.83165678654E+01  0.11186140075E+02 -0.12505353203E+02  0.18726422231E+02  0.00000000000E+00 0. -1.
         11    1    3    3    0    0  0.55511327455E+01 -0.90059864050E+01  0.79848314367E+01  0.13254448280E+02  0.51100000000E-03 0. -1.
        -11    1    3    3    0    0  0.23422791560E+02 -0.20698425671E+02  0.33954527371E+01  0.31441709389E+02  0.51100000000E-03 0.  1.
         12    1    3    3    0    0 -0.20657356440E+02  0.18518272001E+02  0.11250690291E+01  0.27765420100E+02  0.00000000000E+00 0. -1.
</event>
<event>
 7    1  0.3050261E-013  0.7246154E+02  0.7816164E-02  0.1226708E+00
        -11   -1    0    0    0    0  0.00000000000E+00  0.00000000000E+00  0.45593999997E+02  0.45594000000E+02  0.51100000000E-03 0.  1.
         11   -1    0    0    0    0 -0.00000000000E+00 -0.00000000000E+00 -0.45593999997E+02  0.45594000000E+02  0.51100000000E-03 0. -1.
    9900012    2    1    2    0    0  0.54325346694E+01 -0.82823632494E+01  0.15892463002E+02  0.72461538663E+02  0.69999958794E+02 0.  0.
         12    1    1    2    0    0 -0.54325346694E+01  0.82823632494E+01 -0.15892463002E+02  0.18726461337E+02  0.00000000000E+00 0. -1.
         11    1    3    3    0    0 -0.51118377057E+01 -0.20596614655E+02  0.18415642548E+02  0.28097816831E+02  0.51100000000E-03 0. -1.
        -11    1    3    3    0    0  0.19991674881E+01  0.39189437140E+01  0.19123737242E+02  0.19623254491E+02  0.51100000000E-03 0.  1.
         12    1    3    3    0    0  0.85452048870E+01  0.83953076915E+01 -0.21646916788E+02  0.24740467340E+02  0.00000000000E+00 0. -1.
</event>
<event>
 7    1  0.3050261E-013  0.7246156E+02  0.7816164E-02  0.1226708E+00
        -11   -1    0    0    0    0  0.00000000000E+00  0.00000000000E+00  0.45593999997E+02  0.45594000000E+02  0.51100000000E-03 0.  1.
         11   -1    0    0    0    0 -0.00000000000E+00 -0.00000000000E+00 -0.45593999997E+02  0.45594000000E+02  0.51100000000E-03 0. -1.
    9900012    2    1    2    0    0 -0.15759343941E+02  0.55736374417E+01  0.84413994174E+01  0.72461559337E+02  0.69999985726E+02 0.  0.
         12    1    1    2    0    0  0.15759343941E+02 -0.55736374417E+01 -0.84413994174E+01  0.18726440663E+02  0.00000000000E+00 0. -1.
         11    1    3    3    0    0  0.31227821222E+01 -0.24253888708E+02  0.69855189927E+01  0.25432270081E+02  0.51100000000E-03 0. -1.
        -11    1    3    3    0    0  0.72746677137E+01  0.11555516697E+01 -0.30211087624E+01  0.79613559411E+01  0.51100000000E-03 0.  1.
        -12    1    3    3    0    0 -0.26156793777E+02  0.28671974480E+02  0.44769891870E+01  0.39067933314E+02  0.00000000000E+00 0.  1.
</event>
<event>
 7    1  0.3050261E-013  0.7246165E+02  0.7816164E-02  0.1226708E+00
        -11   -1    0    0    0    0  0.00000000000E+00  0.00000000000E+00  0.45593999997E+02  0.45594000000E+02  0.51100000000E-03 0. -1.
         11   -1    0    0    0    0 -0.00000000000E+00 -0.00000000000E+00 -0.45593999997E+02  0.45594000000E+02  0.51100000000E-03 0.  1.
    9900012    2    1    2    0    0  0.12398869835E+01 -0.18672131201E+02 -0.70034313984E+00  0.72461647343E+02  0.70000100371E+02 0.  0.
         12    1    1    2    0    0 -0.12398869835E+01  0.18672131201E+02  0.70034313984E+00  0.18726352657E+02  0.00000000000E+00 0. -1.
         11    1    3    3    0    0 -0.79836718904E+00 -0.79785706687E+01 -0.31796163053E+01  0.86258298264E+01  0.51100000000E-03 0. -1.
        -11    1    3    3    0    0  0.42414517736E+01 -0.35802119897E+02 -0.73285454603E+01  0.36789798600E+02  0.51100000000E-03 0.  1.
         12    1    3    3    0    0 -0.22031976010E+01  0.25108559365E+02  0.98078186257E+01  0.27046018917E+02  0.00000000000E+00 0. -1.
</event>
<event>
 7    1  0.3050261E-013  0.7246163E+02  0.7816164E-02  0.1226708E+00
        -11   -1    0    0    0    0  0.00000000000E+00  0.00000000000E+00  0.45593999997E+02  0.45594000000E+02  0.51100000000E-03 0.  1.
         11   -1    0    0    0    0 -0.00000000000E+00 -0.00000000000E+00 -0.45593999997E+02  0.45594000000E+02  0.51100000000E-03 0. -1.
    9900012    2    1    2    0    0 -0.87832631891E+01  0.66997350299E+01  0.15121006363E+02  0.72461628350E+02  0.70000075629E+02 0.  0.
         12    1    1    2    0    0  0.87832631891E+01 -0.66997350299E+01 -0.15121006363E+02  0.18726371650E+02  0.00000000000E+00 0. -1.
         11    1    3    3    0    0  0.18995725780E+01  0.27200425701E+02  0.34813561339E+01  0.27488022393E+02  0.51100000000E-03 0. -1.
        -11    1    3    3    0    0  0.84703435682E+01  0.21312217907E+01 -0.58859014469E+01  0.10532457576E+02  0.51100000000E-03 0.  1.
        -12    1    3    3    0    0 -0.19153179335E+02 -0.22631912461E+02  0.17525551676E+02  0.34441148382E+02  0.00000000000E+00 0.  1.
</event>
<event>
 7    1  0.3050261E-013  0.7246157E+02  0.7816164E-02  0.1226708E+00
        -11   -1    0    0    0    0  0.00000000000E+00  0.00000000000E+00  0.45593999997E+02  0.45594000000E+02  0.51100000000E-03 0. -1.
         11   -1    0    0    0    0 -0.00000000000E+00 -0.00000000000E+00 -0.45593999997E+02  0.45594000000E+02  0.51100000000E-03 0.  1.
    9900012    2    1    2    0    0  0.14936758202E+01 -0.13338383099E+01 -0.18619048224E+02  0.72461570846E+02  0.70000000719E+02 0.  0.
         12    1    1    2    0    0 -0.14936758202E+01  0.13338383099E+01  0.18619048224E+02  0.18726429154E+02  0.00000000000E+00 0. -1.
         11    1    3    3    0    0  0.28348862823E+01 -0.11332589503E+02 -0.35618864953E+01  0.12212747469E+02  0.51100000000E-03 0. -1.
        -11    1    3    3    0    0  0.57641726898E+01 -0.23383080081E+02 -0.81705535409E+01  0.25431320577E+02  0.51100000000E-03 0.  1.
         12    1    3    3    0    0 -0.71053831519E+01  0.33381831274E+02 -0.68866081874E+01  0.34817502800E+02  0.00000000000E+00 0. -1.
</event>
<event>
 7    1  0.3050261E-013  0.7246099E+02  0.7816164E-02  0.1226710E+00
        -11   -1    0    0    0    0  0.00000000000E+00  0.00000000000E+00  0.45593999997E+02  0.45594000000E+02  0.51100000000E-03 0.  1.
         11   -1    0    0    0    0 -0.00000000000E+00 -0.00000000000E+00 -0.45593999997E+02  0.45594000000E+02  0.51100000000E-03 0. -1.
    9900012    2    1    2    0    0  0.10796832025E+02 -0.29413631410E+01  0.15015917586E+02  0.72460987962E+02  0.69999241400E+02 0.  0.
         12    1    1    2    0    0 -0.10796832025E+02  0.29413631410E+01 -0.15015917586E+02  0.18727012038E+02  0.00000000000E+00 0. -1.
         11    1    3    3    0    0  0.24789429387E+02 -0.83299580208E+01 -0.95445562869E+01  0.27838867881E+02  0.51100000000E-03 0. -1.
        -11    1    3    3    0    0 -0.11514598880E+01  0.10766105307E+02 -0.50160234474E+01  0.11932953316E+02  0.51100000000E-03 0.  1.
        -12    1    3    3    0    0 -0.12841137474E+02 -0.53775104275E+01  0.29576497321E+02  0.32689166765E+02  0.00000000000E+00 0.  1.
</event>
<event>
 7    1  0.3050261E-013  0.7246156E+02  0.7816164E-02  0.1226708E+00
        -11   -1    0    0    0    0  0.00000000000E+00  0.00000000000E+00  0.45593999997E+02  0.45594000000E+02  0.51100000000E-03 0.  1.
         11   -1    0    0    0    0 -0.00000000000E+00 -0.00000000000E+00 -0.45593999997E+02  0.45594000000E+02  0.51100000000E-03 0. -1.
    9900012    2    1    2    0    0 -0.17061430245E+02 -0.60105811763E+01 -0.48435586034E+01  0.72461560188E+02  0.69999986835E+02 0.  0.
         12    1    1    2    0    0  0.17061430245E+02  0.60105811763E+01  0.48435586034E+01  0.18726439812E+02  0.00000000000E+00 0. -1.
         11    1    3    3    0    0 -0.11859265575E+02  0.48641827382E+01 -0.11413336783E+01  0.12868764374E+02  0.51100000000E-03 0. -1.
        -11    1    3    3    0    0 -0.26443024376E+02 -0.21487676516E+02  0.47212065175E+01  0.34398307683E+02  0.51100000000E-03 0.  1.
         12    1    3    3    0    0  0.21240859706E+02  0.10612912601E+02 -0.84234314426E+01  0.25194488131E+02  0.00000000000E+00 0. -1.
</event>
<event>
 7    1  0.3050261E-013  0.7246158E+02  0.7816164E-02  0.1226708E+00
        -11   -1    0    0    0    0  0.00000000000E+00  0.00000000000E+00  0.45593999997E+02  0.45594000000E+02  0.51100000000E-03 0.  1.
         11   -1    0    0    0    0 -0.00000000000E+00 -0.00000000000E+00 -0.45593999997E+02  0.45594000000E+02  0.51100000000E-03 0. -1.
    9900012    2    1    2    0    0  0.16778680440E+02  0.30892414706E+01  0.77208232422E+01  0.72461584387E+02  0.70000018358E+02 0.  0.
         12    1    1    2    0    0 -0.16778680440E+02 -0.30892414706E+01 -0.77208232422E+01  0.18726415613E+02  0.00000000000E+00 0. -1.
         11    1    3    3    0    0 -0.35527294712E+01  0.16765897302E+02 -0.58950811358E+01  0.18123718738E+02  0.51100000000E-03 0. -1.
        -11    1    3    3    0    0  0.53368379380E+01  0.33724345922E+01 -0.15895367047E+02  0.17103153161E+02  0.51100000000E-03 0.  1.
        -12    1    3    3    0    0  0.14994571974E+02 -0.17049090423E+02  0.29511271425E+02  0.37234712488E+02  0.00000000000E+00 0.  1.
</event>
<event>
 7    1  0.3050261E-013  0.7246160E+02  0.7816164E-02  0.1226708E+00
        -11   -1    0    0    0    0  0.00000000000E+00  0.00000000000E+00  0.45593999997E+02  0.45594000000E+02  0.51100000000E-03 0. -1.
         11   -1    0    0    0    0 -0.00000000000E+00 -0.00000000000E+00 -0.45593999997E+02  0.45594000000E+02  0.51100000000E-03 0.  1.
    9900012    2    1    2    0    0 -0.97932188079E+01 -0.76739572449E+01 -0.13995754682E+02  0.72461604097E+02  0.70000044034E+02 0.  0.
         12    1    1    2    0    0  0.97932188079E+01  0.76739572449E+01  0.13995754682E+02  0.18726395903E+02  0.00000000000E+00 0. -1.
         11    1    3    3    0    0  0.20331536205E+02  0.51138903749E+01  0.20396425346E+01  0.21063793133E+02  0.51100000000E-03 0. -1.
        -11    1    3    3    0    0  0.54504231532E+01 -0.55796746309E+01  0.51715862587E+01  0.93586957547E+01  0.51100000000E-03 0.  1.
         12    1    3    3    0    0 -0.35575178166E+02 -0.72081729888E+01 -0.21206983475E+02  0.42039115209E+02  0.00000000000E+00 0. -1.
</event>
<event>
 7    1  0.3050261E-013  0.7246159E+02  0.7816164E-02  0.1226708E+00
        -11   -1    0    0    0    0  0.00000000000E+00  0.00000000000E+00  0.45593999997E+02  0.45594000000E+02  0.51100000000E-03 0.  1.
         11   -1    0    0    0    0 -0.00000000000E+00 -0.00000000000E+00 -0.45593999997E+02  0.45594000000E+02  0.51100000000E-03 0. -1.
    9900012    2    1    2    0    0  0.79361220505E+01 -0.11777099324E+02  0.12206412328E+02  0.72461585404E+02  0.70000019683E+02 0.  0.
         12    1    1    2    0    0 -0.79361220505E+01  0.11777099324E+02 -0.12206412328E+02  0.18726414596E+02  0.00000000000E+00 0. -1.
         11    1    3    3    0    0 -0.13763815718E+02  0.22772855032E+02  0.14271761670E+01  0.26647371005E+02  0.51100000000E-03 0. -1.
        -11    1    3    3    0    0  0.33439315046E+01  0.11780735950E+01 -0.14437439013E+01  0.38280715793E+01  0.51100000000E-03 0.  1.
        -12    1    3    3    0    0  0.18356006264E+02 -0.35728027951E+02  0.12222980062E+02  0.41986142819E+02  0.00000000000E+00 0.  1.
</event>
<event>
 7    1  0.3050261E-013  0.7246155E+02  0.7816164E-02  0.1226708E+00
        -11   -1    0    0    0    0  0.00000000000E+00  0.00000000000E+00  0.45593999997E+02  0.45594000000E+02  0.51100000000E-03 0. -1.
         11   -1    0    0    0    0 -0.00000000000E+00 -0.00000000000E+00 -0.45593999997E+02  0.45594000000E+02  0.51100000000E-03 0.  1.
    9900012    2    1    2    0    0  0.11390316813E+02 -0.14293351172E+02  0.40792951075E+01  0.72461552035E+02  0.69999976213E+02 0.  0.
         12    1    1    2    0    0 -0.11390316813E+02  0.14293351172E+02 -0.40792951075E+01  0.18726447965E+02  0.00000000000E+00 0. -1.
         11    1    3    3    0    0  0.89962292734E+01  0.84686275332E+00  0.11108138708E+02  0.14319220073E+02  0.51100000000E-03 0. -1.
        -11    1    3    3    0    0 -0.69187767712E+00 -0.23424605651E+02 -0.27328894317E+02  0.36000823733E+02  0.51100000000E-03 0.  1.
         12    1    3    3    0    0  0.30859652165E+01  0.82843917258E+01  0.20300050716E+02  0.22141508229E+02  0.00000000000E+00 0. -1.
</event>
<event>
 7    1  0.3050261E-013  0.7246120E+02  0.7816164E-02  0.1226709E+00
        -11   -1    0    0    0    0  0.00000000000E+00  0.00000000000E+00  0.45593999997E+02  0.45594000000E+02  0.51100000000E-03 0. -1.
         11   -1    0    0    0    0 -0.00000000000E+00 -0.00000000000E+00 -0.45593999997E+02  0.45594000000E+02  0.51100000000E-03 0.  1.
    9900012    2    1    2    0    0  0.86061133685E+01 -0.51447878156E+01 -0.15816420023E+02  0.72461196446E+02  0.69999512992E+02 0.  0.
         12    1    1    2    0    0 -0.86061133685E+01  0.51447878156E+01  0.15816420023E+02  0.18726803554E+02  0.00000000000E+00 0. -1.
         11    1    3    3    0    0 -0.13792182272E+02 -0.77475913191E+01  0.42948982813E+01  0.16391937487E+02  0.51100000000E-03 0. -1.
        -11    1    3    3    0    0 -0.67812877321E+01 -0.16240372146E+02 -0.70946073452E+01  0.18975484299E+02  0.51100000000E-03 0.  1.
         12    1    3    3    0    0  0.29179583373E+02  0.18843175649E+02 -0.13016710959E+02  0.37093774660E+02  0.00000000000E+00 0. -1.
</event>
<event>
 7    1  0.3050261E-013  0.7246159E+02  0.7816164E-02  0.1226708E+00
        -11   -1    0    0    0    0  0.00000000000E+00  0.00000000000E+00  0.45593999997E+02  0.45594000000E+02  0.51100000000E-03 0. -1.
         11   -1    0    0    0    0 -0.00000000000E+00 -0.00000000000E+00 -0.45593999997E+02  0.45594000000E+02  0.51100000000E-03 0.  1.
    9900012    2    1    2    0    0  0.10270419087E+02  0.18177753368E+01 -0.15552893980E+02  0.72461592802E+02  0.70000029321E+02 0.  0.
         12    1    1    2    0    0 -0.10270419087E+02 -0.18177753368E+01  0.15552893980E+02  0.18726407198E+02  0.00000000000E+00 0. -1.
         11    1    3    3    0    0 -0.13206165007E+02  0.12410548525E+02 -0.23297668206E+00  0.18123983758E+02  0.51100000000E-03 0. -1.
        -11    1    3    3    0    0  0.12893401832E+02 -0.28971748834E+01  0.15788532350E+02  0.20589103602E+02  0.51100000000E-03 0.  1.
        -12    1    3    3    0    0  0.10583182261E+02 -0.76955983050E+01 -0.31108449648E+02  0.33748505442E+02  0.00000000000E+00 0.  1.
</event>
<event>
 7    1  0.3050261E-013  0.7246157E+02  0.7816164E-02  0.1226708E+00
        -11   -1    0    0    0    0  0.00000000000E+00  0.00000000000E+00  0.45593999997E+02  0.45594000000E+02  0.51100000000E-03 0. -1.
         11   -1    0    0    0    0 -0.00000000000E+00 -0.00000000000E+00 -0.45593999997E+02  0.45594000000E+02  0.51100000000E-03 0.  1.
    9900012    2    1    2    0    0  0.93341416192E+01 -0.15828659019E+02  0.36064733880E+01  0.72461566907E+02  0.69999995587E+02 0.  0.
         12    1    1    2    0    0 -0.93341416192E+01  0.15828659019E+02 -0.36064733880E+01  0.18726433093E+02  0.00000000000E+00 0. -1.
         11    1    3    3    0    0 -0.13326453808E+01  0.20308252674E+02  0.13358937283E+02  0.24344656004E+02  0.51100000000E-03 0. -1.
        -11    1    3    3    0    0 -0.49881810054E+01  0.22548473653E+01  0.20161085963E+00  0.54778584852E+01  0.51100000000E-03 0.  1.
        -12    1    3    3    0    0  0.15654968005E+02 -0.38391759058E+02 -0.99540747545E+01  0.42639052417E+02  0.00000000000E+00 0.  1.
</event>
<event>
 7    1  0.3050261E-013  0.7246140E+02  0.7816164E-02  0.1226708E+00
        -11   -1    0    0    0    0  0.00000000000E+00  0.00000000000E+00  0.45593999997E+02  0.45594000000E+02  0.51100000000E-03 0.  1.
         11   -1    0    0    0    0 -0.00000000000E+00 -0.00000000000E+00 -0.45593999997E+02  0.45594000000E+02  0.51100000000E-03 0. -1.
    9900012    2    1    2    0    0  0.12090670395E+01  0.18497654674E+02  0.26571620358E+01  0.72461399090E+02  0.69999776975E+02 0.  0.
         12    1    1    2    0    0 -0.12090670395E+01 -0.18497654674E+02 -0.26571620358E+01  0.18726600910E+02  0.00000000000E+00 0. -1.
         11    1    3    3    0    0 -0.93278266387E+01 -0.18962506442E+02 -0.79765770778E+01  0.22587845902E+02  0.51100000000E-03 0. -1.
        -11    1    3    3    0    0 -0.27329162848E+01  0.19367811261E+02 -0.75773062698E+01  0.20976093894E+02  0.51100000000E-03 0.  1.
        -12    1    3    3    0    0  0.13269809963E+02  0.18092349855E+02  0.18211045383E+02  0.28897459294E+02  0.00000000000E+00 0.  1.
</event>
<event>
 7    1  0.3050261E-013  0.7246114E+02  0.7816164E-02  0.1226709E+00
        -11   -1    0    0    0    0  0.00000000000E+00  0.00000000000E+00  0.45593999997E+02  0.45594000000E+02  0.51100000000E-03 0. -1.
         11   -1    0    0    0    0 -0.00000000000E+00 -0.00000000000E+00 -0.45593999997E+02  0.45594000000E+02  0.51100000000E-03 0.  1.
    9900012    2    1    2    0    0 -0.15604885412E+02 -0.45542834118E+01 -0.92973876126E+01  0.72461137942E+02  0.69999436779E+02 0.  0.
         12    1    1    2    0    0  0.15604885412E+02  0.45542834118E+01  0.92973876126E+01  0.18726862058E+02  0.00000000000E+00 0. -1.
         11    1    3    3    0    0  0.45040182999E+01  0.22822840048E+02 -0.27524296635E+01  0.23425287150E+02  0.51100000000E-03 0. -1.
        -11    1    3    3    0    0  0.67370228730E+00 -0.23327508958E+01  0.11547803591E+02  0.11800312265E+02  0.51100000000E-03 0.  1.
        -12    1    3    3    0    0 -0.20782605999E+02 -0.25044372564E+02 -0.18092761540E+02  0.37235538527E+02  0.00000000000E+00 0.  1.
</event>
<event>
 7    1  0.3050261E-013  0.7246163E+02  0.7816164E-02  0.1226708E+00
        -11   -1    0    0    0    0  0.00000000000E+00  0.00000000000E+00  0.45593999997E+02  0.45594000000E+02  0.51100000000E-03 0.  1.
         11   -1    0    0    0    0 -0.00000000000E+00 -0.00000000000E+00 -0.45593999997E+02  0.45594000000E+02  0.51100000000E-03 0. -1.
    9900012    2    1    2    0    0  0.69970200840E+01  0.10754295817E+02  0.13640516864E+02  0.72461631722E+02  0.70000080020E+02 0.  0.
         12    1    1    2    0    0 -0.69970200840E+01 -0.10754295817E+02 -0.13640516864E+02  0.18726368278E+02  0.00000000000E+00 0. -1.
         11    1    3    3    0    0 -0.78484543336E+01 -0.95518774434E+01 -0.46994165668E+01  0.13225774626E+02  0.51100000000E-03 0. -1.
        -11    1    3    3    0    0  0.22816949893E+01 -0.81642855209E+01  0.25865704301E+02  0.27219411260E+02  0.51100000000E-03 0.  1.
        -12    1    3    3    0    0  0.12563779428E+02  0.28470458781E+02 -0.75257708704E+01  0.32016445835E+02  0.00000000000E+00 0.  1.
</event>
<event>
 7    1  0.3050261E-013  0.7246160E+02  0.7816164E-02  0.1226708E+00
        -11   -1    0    0    0    0  0.00000000000E+00  0.00000000000E+00  0.45593999997E+02  0.45594000000E+02  0.51100000000E-03 0.  1.
         11   -1    0    0    0    0 -0.00000000000E+00 -0.00000000000E+00 -0.45593999997E+02  0.45594000000E+02  0.51100000000E-03 0. -1.
    9900012    2    1    2    0    0 -0.86843482243E+01 -0.13906835764E+02  0.90476509303E+01  0.72461602258E+02  0.70000041638E+02 0.  0.
         12    1    1    2    0    0  0.86843482243E+01  0.13906835764E+02 -0.90476509303E+01  0.18726397742E+02  0.00000000000E+00 0. -1.
         11    1    3    3    0    0 -0.13446488274E+02 -0.11998487462E+02  0.32717901724E+01  0.18316013744E+02  0.51100000000E-03 0. -1.
        -11    1    3    3    0    0  0.15649817489E+02 -0.10788054754E+02 -0.18225972660E+02  0.26334103222E+02  0.51100000000E-03 0.  1.
         12    1    3    3    0    0 -0.10887677440E+02  0.88797064517E+01  0.24001833418E+02  0.27811485292E+02  0.00000000000E+00 0. -1.
</event>
<event>
 7    1  0.3050261E-013  0.7246155E+02  0.7816164E-02  0.1226708E+00
        -11   -1    0    0    0    0  0.00000000000E+00  0.00000000000E+00  0.45593999997E+02  0.45594000000E+02  0.51100000000E-03 0.  1.
         11   -1    0    0    0    0 -0.00000000000E+00 -0.00000000000E+00 -0.45593999997E+02  0.45594000000E+02  0.51100000000E-03 0. -1.
    9900012    2    1    2    0    0 -0.14677517042E+02  0.37976389902E+01  0.10992194373E+02  0.72461550643E+02  0.69999974400E+02 0.  0.
         12    1    1    2    0    0  0.14677517042E+02 -0.37976389902E+01 -0.10992194373E+02  0.18726449357E+02  0.00000000000E+00 0. -1.
         11    1    3    3    0    0 -0.19783320082E+02  0.14681950882E+02  0.83697203295E+01  0.26019063277E+02  0.51100000000E-03 0. -1.
        -11    1    3    3    0    0 -0.16759945268E+02  0.21136137602E+01 -0.82252056531E+01  0.18788750273E+02  0.51100000000E-03 0.  1.
         12    1    3    3    0    0  0.21865748309E+02 -0.12997925652E+02  0.10847679696E+02  0.27653737092E+02  0.00000000000E+00 0. -1.
</event>
<event>
 7    1  0.3050261E-013  0.7246158E+02  0.7816164E-02  0.1226708E+00
        -11   -1    0    0    0    0  0.00000000000E+00  0.00000000000E+00  0.45593999997E+02  0.45594000000E+02  0.51100000000E-03 0.  1.
         11   -1    0    0    0    0 -0.00000000000E+00 -0.00000000000E+00 -0.45593999997E+02  0.45594000000E+02  0.51100000000E-03 0. -1.
    9900012    2    1    2    0    0 -0.17803742396E+02 -0.44873372193E+01  0.36836603406E+01  0.72461580371E+02  0.70000013127E+02 0.  0.
         12    1    1    2    0    0  0.17803742396E+02  0.44873372193E+01 -0.36836603406E+01  0.18726419629E+02  0.00000000000E+00 0. -1.
         11    1    3    3    0    0 -0.16405244737E+02  0.15346040337E+02 -0.16699022173E+02  0.27990897640E+02  0.51100000000E-03 0. -1.
        -11    1    3    3    0    0  0.60409819675E+01  0.44160730663E-01 -0.73719079015E+01  0.95310251112E+01  0.51100000000E-03 0.  1.
        -12    1    3    3    0    0 -0.74394796264E+01 -0.19877538287E+02  0.27754590416E+02  0.34939657620E+02  0.00000000000E+00 0.  1.
</event>
<event>
 7    1  0.3050261E-013  0.7246159E+02  0.7816164E-02  0.1226708E+00
        -11   -1    0    0    0    0  0.00000000000E+00  0.00000000000E+00  0.45593999997E+02  0.45594000000E+02  0.51100000000E-03 0. -1.
         11   -1    0    0    0    0 -0.00000000000E+00 -0.00000000000E+00 -0.45593999997E+02  0.45594000000E+02  0.51100000000E-03 0.  1.
    9900012    2    1    2    0    0  0.39654600004E+01  0.15930148800E+02 -0.90102212627E+01  0.72461585473E+02  0.70000019774E+02 0.  0.
         12    1    1    2    0    0 -0.39654600004E+01 -0.15930148800E+02  0.90102212627E+01  0.18726414527E+02  0.00000000000E+00 0. -1.
         11    1    3    3    0    0  0.19060151702E+02  0.53708545490E+01  0.15640588140E+02  0.25234172447E+02  0.51100000000E-03 0. -1.
        -11    1    3    3    0    0  0.53778949758E+01 -0.96205007284E+01 -0.10353651814E+02  0.15121967292E+02  0.51100000000E-03 0.  1.
        -12    1    3    3    0    0 -0.20472586677E+02  0.20179794980E+02 -0.14297157589E+02  0.32105445734E+02  0.00000000000E+00 0.  1.
</event>
<event>
 7    1  0.3050261E-013  0.7246153E+02  0.7816164E-02  0.1226708E+00
        -11   -1    0    0    0    0  0.00000000000E+00  0.00000000000E+00  0.45593999997E+02  0.45594000000E+02  0.51100000000E-03 0.  1.
         11   -1    0    0    0    0 -0.00000000000E+00 -0.00000000000E+00 -0.45593999997E+02  0.45594000000E+02  0.51100000000E-03 0. -1.
    9900012    2    1    2    0    0  0.12504610710E+02  0.13929569814E+02 -0.53143353401E+00  0.72461531411E+02  0.69999949347E+02 0.  0.
         12    1    1    2    0    0 -0.12504610710E+02 -0.13929569814E+02  0.53143353401E+00  0.18726468589E+02  0.00000000000E+00 0. -1.
         11    1    3    3    0    0  0.25921422278E+02 -0.11523671005E+02 -0.59609364983E+01  0.28987029695E+02  0.51100000000E-03 0. -1.
        -11    1    3    3    0    0 -0.42664330257E+01 -0.40732416663E+01 -0.78598654073E+01  0.98270663434E+01  0.51100000000E-03 0.  1.
        -12    1    3    3    0    0 -0.91503785422E+01  0.29526482485E+02  0.13289368372E+02  0.33647435372E+02  0.00000000000E+00 0.  1.
</event>
<event>
 7    1  0.3050261E-013  0.7246230E+02  0.7816164E-02  0.1226706E+00
        -11   -1    0    0    0    0  0.00000000000E+00  0.00000000000E+00  0.45593999997E+02  0.45594000000E+02  0.51100000000E-03 0. -1.
         11   -1    0    0    0    0 -0.00000000000E+00 -0.00000000000E+00 -0.45593999997E+02  0.45594000000E+02  0.51100000000E-03 0.  1.
    9900012    2    1    2    0    0  0.16210190900E+02 -0.92746812292E+01 -0.13644269299E+01  0.72462304772E+02  0.70000956787E+02 0.  0.
         12    1    1    2    0    0 -0.16210190900E+02  0.92746812292E+01  0.13644269299E+01  0.18725695228E+02  0.00000000000E+00 0. -1.
         11    1    3    3    0    0  0.20741135524E+02 -0.12108563130E+02 -0.46716630909E+00  0.24021453922E+02  0.51100000000E-03 0.  1.
        -11    1    3    3    0    0  0.19947284205E+01  0.84237599210E+01  0.22183406979E+02  0.23812648280E+02  0.51100000000E-03 0. -1.
         12    1    3    3    0    0 -0.65256730444E+01 -0.55898780201E+01 -0.23080667599E+02  0.24628202569E+02  0.00000000000E+00 0. -1.
</event>
<event>
 7    1  0.3050261E-013  0.7246148E+02  0.7816164E-02  0.1226708E+00
        -11   -1    0    0    0    0  0.00000000000E+00  0.00000000000E+00  0.45593999997E+02  0.45594000000E+02  0.51100000000E-03 0. -1.
         11   -1    0    0    0    0 -0.00000000000E+00 -0.00000000000E+00 -0.45593999997E+02  0.45594000000E+02  0.51100000000E-03 0.  1.
    9900012    2    1    2    0    0  0.17041015084E+02  0.58009135413E+01  0.51609893330E+01  0.72461478596E+02  0.69999880545E+02 0.  0.
         12    1    1    2    0    0 -0.17041015084E+02 -0.58009135413E+01 -0.51609893330E+01  0.18726521404E+02  0.00000000000E+00 0. -1.
         11    1    3    3    0    0  0.17157871821E+02  0.12757542892E+02  0.23698166843E+02  0.31917872393E+02  0.51100000000E-03 0. -1.
        -11    1    3    3    0    0  0.35925440622E+01  0.12003032285E+02 -0.17062118096E+02  0.21168255267E+02  0.51100000000E-03 0.  1.
        -12    1    3    3    0    0 -0.37094007995E+01 -0.18959661635E+02 -0.14750594143E+01  0.19375350936E+02  0.00000000000E+00 0.  1.
</event>
<event>
 7    1  0.3050261E-013  0.7246156E+02  0.7816164E-02  0.1226708E+00
        -11   -1    0    0    0    0  0.00000000000E+00  0.00000000000E+00  0.45593999997E+02  0.45594000000E+02  0.51100000000E-03 0.  1.
         11   -1    0    0    0    0 -0.00000000000E+00 -0.00000000000E+00 -0.45593999997E+02  0.45594000000E+02  0.51100000000E-03 0. -1.
    9900012    2    1    2    0    0  0.98383671518E+01  0.51517263826E+01 -0.15077994631E+02  0.72461556797E+02  0.69999982417E+02 0.  0.
         12    1    1    2    0    0 -0.98383671518E+01 -0.51517263826E+01  0.15077994631E+02  0.18726443203E+02  0.00000000000E+00 0. -1.
         11    1    3    3    0    0 -0.19495961011E+01 -0.99528315247E+01  0.14393650094E+01  0.10243610311E+02  0.51100000000E-03 0. -1.
        -11    1    3    3    0    0  0.27325867051E+02 -0.96084583074E+01 -0.60785081312E+00  0.28972313750E+02  0.51100000000E-03 0.  1.
        -12    1    3    3    0    0 -0.15537903798E+02  0.24713016215E+02 -0.15909508828E+02  0.33245632736E+02  0.00000000000E+00 0.  1.
</event>
<event>
 7    1  0.3050261E-013  0.7246195E+02  0.7816164E-02  0.1226707E+00
        -11   -1    0    0    0    0  0.00000000000E+00  0.00000000000E+00  0.45593999997E+02  0.45594000000E+02  0.51100000000E-03 0.  1.
         11   -1    0    0    0    0 -0.00000000000E+00 -0.00000000000E+00 -0.45593999997E+02  0.45594000000E+02  0.51100000000E-03 0. -1.
    9900012    2    1    2    0    0 -0.15046828637E+02 -0.41083004263E+01  0.10362427234E+02  0.72461946423E+02  0.70000489975E+02 0.  0.
         12    1    1    2    0    0  0.15046828637E+02  0.41083004263E+01 -0.10362427234E+02  0.18726053577E+02  0.00000000000E+00 0. -1.
         11    1    3    3    0    0 -0.12304227983E+02  0.10618023771E+01  0.58083837218E+01  0.13647665451E+02  0.51100000000E-03 0. -1.
        -11    1    3    3    0    0 -0.11864721755E+02  0.54098290769E+01  0.28358893253E+02  0.31213213544E+02  0.51100000000E-03 0.  1.
         12    1    3    3    0    0  0.91221211009E+01 -0.10579931880E+02 -0.23804849741E+02  0.27601067428E+02  0.00000000000E+00 0. -1.
</event>
<event>
 7    1  0.3050261E-013  0.7246168E+02  0.7816164E-02  0.1226708E+00
        -11   -1    0    0    0    0  0.00000000000E+00  0.00000000000E+00  0.45593999997E+02  0.45594000000E+02  0.51100000000E-03 0.  1.
         11   -1    0    0    0    0 -0.00000000000E+00 -0.00000000000E+00 -0.45593999997E+02  0.45594000000E+02  0.51100000000E-03 0. -1.
    9900012    2    1    2    0    0 -0.39418782848E+00  0.53722565668E+01  0.17934840225E+02  0.72461681127E+02  0.70000144380E+02 0.  0.
         12    1    1    2    0    0  0.39418782848E+00 -0.53722565668E+01 -0.17934840225E+02  0.18726318873E+02  0.00000000000E+00 0. -1.
         11    1    3    3    0    0 -0.57687179702E+01 -0.61050121458E+01 -0.82133859140E+01  0.11747722705E+02  0.51100000000E-03 0. -1.
        -11    1    3    3    0    0 -0.22463804442E+02 -0.14115651922E+01  0.39606861231E+01  0.22853928789E+02  0.51100000000E-03 0.  1.
         12    1    3    3    0    0  0.27838334583E+02  0.12888833905E+02  0.22187540016E+02  0.37860029632E+02  0.00000000000E+00 0. -1.
</event>
<event>
 7    1  0.3050261E-013  0.7246141E+02  0.7816164E-02  0.1226708E+00
        -11   -1    0    0    0    0  0.00000000000E+00  0.00000000000E+00  0.45593999997E+02  0.45594000000E+02  0.51100000000E-03 0.  1.
         11   -1    0    0    0    0 -0.00000000000E+00 -0.00000000000E+00 -0.45593999997E+02  0.45594000000E+02  0.51100000000E-03 0. -1.
    9900012    2    1    2    0    0 -0.13220669309E+02  0.86400967046E+01  0.10062198492E+02  0.72461409106E+02  0.69999790021E+02 0.  0.
         12    1    1    2    0    0  0.13220669309E+02 -0.86400967046E+01 -0.10062198492E+02  0.18726590894E+02  0.00000000000E+00 0. -1.
         11    1    3    3    0    0 -0.37440756774E+01 -0.23027804412E+02  0.19987004450E+02  0.30720973713E+02  0.51100000000E-03 0. -1.
        -11    1    3    3    0    0 -0.81986187732E+01  0.62049380921E+00 -0.64951520059E+01  0.10478041907E+02  0.51100000000E-03 0.  1.
        -12    1    3    3    0    0 -0.12779748585E+01  0.31047407308E+02 -0.34296539521E+01  0.31262393486E+02  0.00000000000E+00 0.  1.
</event>
<event>
 7    1  0.3050261E-013  0.7246154E+02  0.7816164E-02  0.1226708E+00
        -11   -1    0    0    0    0  0.00000000000E+00  0.00000000000E+00  0.45593999997E+02  0.45594000000E+02  0.51100000000E-03 0. -1.
         11   -1    0    0    0    0 -0.00000000000E+00 -0.00000000000E+00 -0.45593999997E+02  0.45594000000E+02  0.51100000000E-03 0.  1.
    9900012    2    1    2    0    0 -0.15419586150E+02  0.10282813918E+02 -0.26796514364E+01  0.72461536614E+02  0.69999956125E+02 0.  0.
         12    1    1    2    0    0  0.15419586150E+02 -0.10282813918E+02  0.26796514364E+01  0.18726463386E+02  0.00000000000E+00 0. -1.
         11    1    3    3    0    0 -0.21324246173E+01 -0.89785200727E+01  0.42892472508E+01  0.10176379498E+02  0.51100000000E-03 0. -1.
        -11    1    3    3    0    0 -0.17081009382E+02 -0.95055784729E+01  0.16013904347E+02  0.25269785046E+02  0.51100000000E-03 0.  1.
        -12    1    3    3    0    0  0.37938478485E+01  0.28766912464E+02 -0.22982803034E+02  0.37015372070E+02  0.00000000000E+00 0.  1.
</event>
<event>
 7    1  0.3050261E-013  0.7246155E+02  0.7816164E-02  0.1226708E+00
        -11   -1    0    0    0    0  0.00000000000E+00  0.00000000000E+00  0.45593999997E+02  0.45594000000E+02  0.51100000000E-03 0.  1.
         11   -1    0    0    0    0 -0.00000000000E+00 -0.00000000000E+00 -0.45593999997E+02  0.45594000000E+02  0.51100000000E-03 0. -1.
    9900012    2    1    2    0    0 -0.11597353126E+02  0.14347063822E+02  0.32160474609E+01  0.72461553430E+02  0.69999978031E+02 0.  0.
         12    1    1    2    0    0  0.11597353126E+02 -0.14347063822E+02 -0.32160474609E+01  0.18726446570E+02  0.00000000000E+00 0. -1.
         11    1    3    3    0    0 -0.51400681536E+01  0.23664179235E+02  0.10402701058E+02  0.26355831784E+02  0.51100000000E-03 0. -1.
        -11    1    3    3    0    0 -0.87184956731E+01 -0.19366714736E+02  0.11952245148E+02  0.24370842636E+02  0.51100000000E-03 0.  1.
         12    1    3    3    0    0  0.22612107004E+01  0.10049599323E+02 -0.19138898745E+02  0.21734879010E+02  0.00000000000E+00 0. -1.
</event>
<event>
 7    1  0.3050261E-013  0.7246157E+02  0.7816164E-02  0.1226708E+00
        -11   -1    0    0    0    0  0.00000000000E+00  0.00000000000E+00  0.45593999997E+02  0.45594000000E+02  0.51100000000E-03 0. -1.
         11   -1    0    0    0    0 -0.00000000000E+00 -0.00000000000E+00 -0.45593999997E+02  0.45594000000E+02  0.51100000000E-03 0.  1.
    9900012    2    1    2    0    0  0.17023026131E+02 -0.58239711730E+01 -0.51939651093E+01  0.72461565944E+02  0.69999994333E+02 0.  0.
         12    1    1    2    0    0 -0.17023026131E+02  0.58239711730E+01  0.51939651093E+01  0.18726434056E+02  0.00000000000E+00 0. -1.
         11    1    3    3    0    0 -0.26919190090E+01  0.37665696454E+01  0.11834647536E+01  0.47785001757E+01  0.51100000000E-03 0. -1.
        -11    1    3    3    0    0 -0.21514595328E+02 -0.97364191564E+01  0.64922820344E+01  0.24491333087E+02  0.51100000000E-03 0.  1.
         12    1    3    3    0    0  0.41229540468E+02  0.14587833797E+00 -0.12869711897E+02  0.43191732681E+02  0.00000000000E+00 0. -1.
</event>
<event>
 7    1  0.3050261E-013  0.7246138E+02  0.7816164E-02  0.1226709E+00
        -11   -1    0    0    0    0  0.00000000000E+00  0.00000000000E+00  0.45593999997E+02  0.45594000000E+02  0.51100000000E-03 0.  1.
         11   -1    0    0    0    0 -0.00000000000E+00 -0.00000000000E+00 -0.45593999997E+02  0.45594000000E+02  0.51100000000E-03 0. -1.
    9900012    2    1    2    0    0  0.14069266835E+02  0.22257471101E+01  0.12156819224E+02  0.72461375288E+02  0.69999745967E+02 0.  0.
         12    1    1    2    0    0 -0.14069266835E+02 -0.22257471101E+01 -0.12156819224E+02  0.18726624712E+02  0.00000000000E+00 0. -1.
         11    1    3    3    0    0  0.12951806883E+02 -0.48310168242E+01 -0.16277836149E+02  0.21355467100E+02  0.51100000000E-03 0. -1.
        -11    1    3    3    0    0  0.17312301612E+02 -0.48678014097E+01  0.23019547587E+01  0.18130368822E+02  0.51100000000E-03 0.  1.
        -12    1    3    3    0    0 -0.16194841660E+02  0.11924565344E+02  0.26132700615E+02  0.32975539366E+02  0.00000000000E+00 0.  1.
</event>
<event>
 7    1  0.3050261E-013  0.7246157E+02  0.7816164E-02  0.1226708E+00
        -11   -1    0    0    0    0  0.00000000000E+00  0.00000000000E+00  0.45593999997E+02  0.45594000000E+02  0.51100000000E-03 0.  1.
         11   -1    0    0    0    0 -0.00000000000E+00 -0.00000000000E+00 -0.45593999997E+02  0.45594000000E+02  0.51100000000E-03 0. -1.
    9900012    2    1    2    0    0  0.39047409020E+01 -0.82430541267E+00  0.18296247740E+02  0.72461570487E+02  0.70000000251E+02 0.  0.
         12    1    1    2    0    0 -0.39047409020E+01  0.82430541267E+00 -0.18296247740E+02  0.18726429513E+02  0.00000000000E+00 0. -1.
         11    1    3    3    0    0  0.20963195513E+02  0.10744862715E+01 -0.39601334276E+01  0.21361009899E+02  0.51100000000E-03 0. -1.
        -11    1    3    3    0    0 -0.17576043933E+02  0.16754283634E+02  0.33079892941E+01  0.24506450862E+02  0.51100000000E-03 0.  1.
        -12    1    3    3    0    0  0.51758932223E+00 -0.18653075318E+02  0.18948391874E+02  0.26594109726E+02  0.00000000000E+00 0.  1.
</event>
<event>
 7    1  0.3050261E-013  0.7246155E+02  0.7816164E-02  0.1226708E+00
        -11   -1    0    0    0    0  0.00000000000E+00  0.00000000000E+00  0.45593999997E+02  0.45594000000E+02  0.51100000000E-03 0. -1.
         11   -1    0    0    0    0 -0.00000000000E+00 -0.00000000000E+00 -0.45593999997E+02  0.45594000000E+02  0.51100000000E-03 0.  1.
    9900012    2    1    2    0    0 -0.52663092509E+01 -0.60059288904E+01 -0.16937374219E+02  0.72461552381E+02  0.69999976665E+02 0.  0.
         12    1    1    2    0    0  0.52663092509E+01  0.60059288904E+01  0.16937374219E+02  0.18726447619E+02  0.00000000000E+00 0. -1.
         11    1    3    3    0    0 -0.16253972447E+02 -0.15992619361E+02  0.88801733950E+01  0.24470655367E+02  0.51100000000E-03 0. -1.
        -11    1    3    3    0    0 -0.89231827477E+01  0.17038404886E+00  0.48301432438E+01  0.10148029616E+02  0.51100000000E-03 0.  1.
        -12    1    3    3    0    0  0.19910845943E+02  0.98163064219E+01 -0.30647690858E+02  0.37842867398E+02  0.00000000000E+00 0.  1.
</event>
<event>
 7    1  0.3050261E-013  0.7246156E+02  0.7816164E-02  0.1226708E+00
        -11   -1    0    0    0    0  0.00000000000E+00  0.00000000000E+00  0.45593999997E+02  0.45594000000E+02  0.51100000000E-03 0.  1.
         11   -1    0    0    0    0 -0.00000000000E+00 -0.00000000000E+00 -0.45593999997E+02  0.45594000000E+02  0.51100000000E-03 0. -1.
    9900012    2    1    2    0    0 -0.30230313771E+01  0.13276885044E+02  0.12855554783E+02  0.72461556559E+02  0.69999982107E+02 0.  0.
         12    1    1    2    0    0  0.30230313771E+01 -0.13276885044E+02 -0.12855554783E+02  0.18726443441E+02  0.00000000000E+00 0. -1.
         11    1    3    3    0    0  0.20027537499E+02  0.18128124358E+02  0.81541907476E+00  0.27025840589E+02  0.51100000000E-03 0. -1.
        -11    1    3    3    0    0 -0.10816314883E+02  0.14708789534E+02  0.12889524140E+02  0.22349071346E+02  0.51100000000E-03 0.  1.
         12    1    3    3    0    0 -0.12234253993E+02 -0.19560028848E+02 -0.84938843142E+00  0.23086644624E+02  0.00000000000E+00 0. -1.
</event>
<event>
 7    1  0.3050261E-013  0.7246156E+02  0.7816164E-02  0.1226708E+00
        -11   -1    0    0    0    0  0.00000000000E+00  0.00000000000E+00  0.45593999997E+02  0.45594000000E+02  0.51100000000E-03 0.  1.
         11   -1    0    0    0    0 -0.00000000000E+00 -0.00000000000E+00 -0.45593999997E+02  0.45594000000E+02  0.51100000000E-03 0. -1.
    9900012    2    1    2    0    0 -0.17300322704E+01  0.22838772857E+01  0.18505962093E+02  0.72461555060E+02  0.69999980154E+02 0.  0.
         12    1    1    2    0    0  0.17300322704E+01 -0.22838772857E+01 -0.18505962093E+02  0.18726444940E+02  0.00000000000E+00 0. -1.
         11    1    3    3    0    0  0.80323040060E+01  0.70833738329E+01  0.99663068125E+00  0.10755713155E+02  0.51100000000E-03 0. -1.
        -11    1    3    3    0    0 -0.29325494000E+01  0.23258038922E+02  0.22393112225E+02  0.32418940388E+02  0.51100000000E-03 0.  1.
         12    1    3    3    0    0 -0.68297868764E+01 -0.28057535470E+02 -0.48837808133E+01  0.29286901517E+02  0.00000000000E+00 0. -1.
</event>
<event>
 7    1  0.3050261E-013  0.7246158E+02  0.7816164E-02  0.1226708E+00
        -11   -1    0    0    0    0  0.00000000000E+00  0.00000000000E+00  0.45593999997E+02  0.45594000000E+02  0.51100000000E-03 0. -1.
         11   -1    0    0    0    0 -0.00000000000E+00 -0.00000000000E+00 -0.45593999997E+02  0.45594000000E+02  0.51100000000E-03 0.  1.
    9900012    2    1    2    0    0 -0.25214007425E+01  0.78140281244E+00 -0.18539437243E+02  0.72461580552E+02  0.70000013362E+02 0.  0.
         12    1    1    2    0    0  0.25214007425E+01 -0.78140281244E+00  0.18539437243E+02  0.18726419448E+02  0.00000000000E+00 0. -1.
         11    1    3    3    0    0 -0.70827965129E+00 -0.81435414939E+00 -0.15855644447E+02  0.15892334436E+02  0.51100000000E-03 0. -1.
        -11    1    3    3    0    0 -0.26826681375E+02 -0.10386179711E+02 -0.16684821006E+01  0.28815402051E+02  0.51100000000E-03 0.  1.
         12    1    3    3    0    0  0.25013560284E+02  0.11981936673E+02 -0.10153106954E+01  0.27753844064E+02  0.00000000000E+00 0. -1.
</event>
<event>
 7    1  0.3050261E-013  0.7246158E+02  0.7816164E-02  0.1226708E+00
        -11   -1    0    0    0    0  0.00000000000E+00  0.00000000000E+00  0.45593999997E+02  0.45594000000E+02  0.51100000000E-03 0.  1.
         11   -1    0    0    0    0 -0.00000000000E+00 -0.00000000000E+00 -0.45593999997E+02  0.45594000000E+02  0.51100000000E-03 0. -1.
    9900012    2    1    2    0    0 -0.14111040478E+02 -0.77393012260E+01  0.95739615950E+01  0.72461575156E+02  0.70000006333E+02 0.  0.
         12    1    1    2    0    0  0.14111040478E+02  0.77393012260E+01 -0.95739615950E+01  0.18726424844E+02  0.00000000000E+00 0. -1.
         11    1    3    3    0    0 -0.27009923122E+02  0.38843436029E+01 -0.12431039309E+02  0.29985910205E+02  0.51100000000E-03 0. -1.
        -11    1    3    3    0    0  0.67948820900E+00 -0.15044274593E+02 -0.21287716592E+01  0.15209325143E+02  0.51100000000E-03 0.  1.
        -12    1    3    3    0    0  0.12219394435E+02  0.34206297645E+01  0.24133772564E+02  0.27266339807E+02  0.00000000000E+00 0.  1.
</event>
<event>
 7    1  0.3050261E-013  0.7246141E+02  0.7816164E-02  0.1226708E+00
        -11   -1    0    0    0    0  0.00000000000E+00  0.00000000000E+00  0.45593999997E+02  0.45594000000E+02  0.51100000000E-03 0. -1.
         11   -1    0    0    0    0 -0.00000000000E+00 -0.00000000000E+00 -0.45593999997E+02  0.45594000000E+02  0.51100000000E-03 0.  1.
    9900012    2    1    2    0    0  0.98138956432E+01 -0.28712674393E+01 -0.15688476255E+02  0.72461414310E+02  0.69999796801E+02 0.  0.
         12    1    1    2    0    0 -0.98138956432E+01  0.28712674393E+01  0.15688476255E+02  0.18726585690E+02  0.00000000000E+00 0. -1.
         11    1    3    3    0    0 -0.72500383956E+01  0.55379942087E+01  0.54125175553E+01  0.10607911347E+02  0.51100000000E-03 0. -1.
        -11    1    3    3    0    0 -0.79426820776E+01 -0.13701607820E+02  0.12116030784E+02  0.19940372556E+02  0.51100000000E-03 0.  1.
         12    1    3    3    0    0  0.25006616116E+02  0.52923461718E+01 -0.33217024595E+02  0.41913130407E+02  0.00000000000E+00 0. -1.
</event>
<event>
 7    1  0.3050261E-013  0.7246167E+02  0.7816164E-02  0.1226708E+00
        -11   -1    0    0    0    0  0.00000000000E+00  0.00000000000E+00  0.45593999997E+02  0.45594000000E+02  0.51100000000E-03 0.  1.
         11   -1    0    0    0    0 -0.00000000000E+00 -0.00000000000E+00 -0.45593999997E+02  0.45594000000E+02  0.51100000000E-03 0. -1.
    9900012    2    1    2    0    0 -0.17723986936E+02 -0.41799705830E+01  0.43661709288E+01  0.72461673197E+02  0.70000134049E+02 0.  0.
         12    1    1    2    0    0  0.17723986936E+02  0.41799705830E+01 -0.43661709288E+01  0.18726326803E+02  0.00000000000E+00 0. -1.
         11    1    3    3    0    0 -0.29231864880E+02  0.23759633942E+02  0.96139755213E+00  0.37682176356E+02  0.51100000000E-03 0. -1.
        -11    1    3    3    0    0  0.46270137152E+01  0.46999465744E+00 -0.19833119376E+01  0.50560535402E+01  0.51100000000E-03 0.  1.
        -12    1    3    3    0    0  0.68808642288E+01 -0.28409599183E+02  0.53880853143E+01  0.29723443300E+02  0.00000000000E+00 0.  1.
</event>
<event>
 7    1  0.3050261E-013  0.7246158E+02  0.7816164E-02  0.1226708E+00
        -11   -1    0    0    0    0  0.00000000000E+00  0.00000000000E+00  0.45593999997E+02  0.45594000000E+02  0.51100000000E-03 0.  1.
         11   -1    0    0    0    0 -0.00000000000E+00 -0.00000000000E+00 -0.45593999997E+02  0.45594000000E+02  0.51100000000E-03 0. -1.
    9900012    2    1    2    0    0  0.13153600709E+02  0.74911270379E+01  0.11024735578E+02  0.72461575075E+02  0.70000006228E+02 0.  0.
         12    1    1    2    0    0 -0.13153600709E+02 -0.74911270379E+01 -0.11024735578E+02  0.18726424925E+02  0.00000000000E+00 0. -1.
         11    1    3    3    0    0 -0.79891325850E+01 -0.11023665115E+02 -0.82896651172E+01  0.15939447294E+02  0.51100000000E-03 0. -1.
        -11    1    3    3    0    0  0.96985218701E+01 -0.63878032844E+00  0.30178914263E+02  0.31705460620E+02  0.51100000000E-03 0.  1.
         12    1    3    3    0    0  0.11444211424E+02  0.19153572481E+02 -0.10864513568E+02  0.24816667161E+02  0.00000000000E+00 0. -1.
</event>
<event>
 7    1  0.3050261E-013  0.7246153E+02  0.7816164E-02  0.1226708E+00
        -11   -1    0    0    0    0  0.00000000000E+00  0.00000000000E+00  0.45593999997E+02  0.45594000000E+02  0.51100000000E-03 0.  1.
         11   -1    0    0    0    0 -0.00000000000E+00 -0.00000000000E+00 -0.45593999997E+02  0.45594000000E+02  0.51100000000E-03 0. -1.
    9900012    2    1    2    0    0  0.14345480257E+02  0.10654602097E+02  0.56006667982E+01  0.72461526273E+02  0.69999942654E+02 0.  0.
         12    1    1    2    0    0 -0.14345480257E+02 -0.10654602097E+02 -0.56006667982E+01  0.18726473727E+02  0.00000000000E+00 0. -1.
         11    1    3    3    0    0 -0.24269385112E+02  0.17378999088E+01 -0.63722794929E+01  0.25152123091E+02  0.51100000000E-03 0. -1.
        -11    1    3    3    0    0  0.42306522537E+01 -0.98160642902E+00  0.10653223176E+02  0.11504483212E+02  0.51100000000E-03 0.  1.
        -12    1    3    3    0    0  0.34384213115E+02  0.98983086176E+01  0.13197231150E+01  0.35804919971E+02  0.00000000000E+00 0.  1.
</event>
<event>
 7    1  0.3050261E-013  0.7246144E+02  0.7816164E-02  0.1226708E+00
        -11   -1    0    0    0    0  0.00000000000E+00  0.00000000000E+00  0.45593999997E+02  0.45594000000E+02  0.51100000000E-03 0.  1.
         11   -1    0    0    0    0 -0.00000000000E+00 -0.00000000000E+00 -0.45593999997E+02  0.45594000000E+02  0.51100000000E-03 0. -1.
    9900012    2    1    2    0    0  0.89315528399E+01  0.14915774521E+02  0.69592482048E+01  0.72461438616E+02  0.69999828464E+02 0.  0.
         12    1    1    2    0    0 -0.89315528399E+01 -0.14915774521E+02 -0.69592482048E+01  0.18726561384E+02  0.00000000000E+00 0. -1.
         11    1    3    3    0    0 -0.13856535346E+02  0.85202795607E+01  0.43350726732E+01  0.16834238650E+02  0.51100000000E-03 0. -1.
        -11    1    3    3    0    0  0.24772176838E+01  0.25889711131E+02  0.74730442418E+01  0.27060305623E+02  0.51100000000E-03 0.  1.
         12    1    3    3    0    0  0.20310870502E+02 -0.19494216170E+02 -0.48488687103E+01  0.28566894343E+02  0.00000000000E+00 0. -1.
</event>
<event>
 7    1  0.3050261E-013  0.7246156E+02  0.7816164E-02  0.1226708E+00
        -11   -1    0    0    0    0  0.00000000000E+00  0.00000000000E+00  0.45593999997E+02  0.45594000000E+02  0.51100000000E-03 0. -1.
         11   -1    0    0    0    0 -0.00000000000E+00 -0.00000000000E+00 -0.45593999997E+02  0.45594000000E+02  0.51100000000E-03 0.  1.
    9900012    2    1    2    0    0  0.88145293224E+01 -0.14500583956E+02 -0.79193905591E+01  0.72461558559E+02  0.69999984712E+02 0.  0.
         12    1    1    2    0    0 -0.88145293224E+01  0.14500583956E+02  0.79193905591E+01  0.18726441441E+02  0.00000000000E+00 0. -1.
         11    1    3    3    0    0  0.17402564519E+02 -0.48552704494E+00 -0.47855337037E+01  0.18055091289E+02  0.51100000000E-03 0. -1.
        -11    1    3    3    0    0 -0.15653612446E+02 -0.15432688648E+02 -0.23872463371E+02  0.32451470986E+02  0.51100000000E-03 0.  1.
         12    1    3    3    0    0  0.70655772488E+01  0.14176317376E+01  0.20738606516E+02  0.21954996284E+02  0.00000000000E+00 0. -1.
</event>
<event>
 7    1  0.3050261E-013  0.7246156E+02  0.7816164E-02  0.1226708E+00
        -11   -1    0    0    0    0  0.00000000000E+00  0.00000000000E+00  0.45593999997E+02  0.45594000000E+02  0.51100000000E-03 0.  1.
         11   -1    0    0    0    0 -0.00000000000E+00 -0.00000000000E+00 -0.45593999997E+02  0.45594000000E+02  0.51100000000E-03 0. -1.
    9900012    2    1    2    0    0  0.92885214134E+01  0.79526404784E+01  0.14183032520E+02  0.72461560614E+02  0.69999987390E+02 0.  0.
         12    1    1    2    0    0 -0.92885214134E+01 -0.79526404784E+01 -0.14183032520E+02  0.18726439386E+02  0.00000000000E+00 0. -1.
         11    1    3    3    0    0  0.77289614994E+01 -0.66104007396E+01  0.12476009612E+02  0.16096119405E+02  0.51100000000E-03 0. -1.
        -11    1    3    3    0    0  0.48865569449E+01 -0.19664803082E+02  0.72733767600E+01  0.21528700118E+02  0.51100000000E-03 0.  1.
         12    1    3    3    0    0 -0.33269970309E+01  0.34227844300E+02 -0.55663538523E+01  0.34836741091E+02  0.00000000000E+00 0. -1.
</event>
<event>
 7    1  0.3050261E-013  0.7246158E+02  0.7816164E-02  0.1226708E+00
        -11   -1    0    0    0    0  0.00000000000E+00  0.00000000000E+00  0.45593999997E+02  0.45594000000E+02  0.51100000000E-03 0.  1.
         11   -1    0    0    0    0 -0.00000000000E+00 -0.00000000000E+00 -0.45593999997E+02  0.45594000000E+02  0.51100000000E-03 0. -1.
    9900012    2    1    2    0    0  0.22067009843E+01 -0.11461048339E+02 -0.14644238872E+02  0.72461577747E+02  0.70000009708E+02 0.  0.
         12    1    1    2    0    0 -0.22067009843E+01  0.11461048339E+02  0.14644238872E+02  0.18726422253E+02  0.00000000000E+00 0. -1.
         11    1    3    3    0    0 -0.19656621911E+01 -0.39309940088E+01 -0.21878082445E+02  0.22315174959E+02  0.51100000000E-03 0. -1.
        -11    1    3    3    0    0 -0.16132362553E+02  0.11925194865E+02 -0.28692198071E+01  0.20265631415E+02  0.51100000000E-03 0.  1.
        -12    1    3    3    0    0  0.20304725728E+02 -0.19455249195E+02  0.10103063380E+02  0.29880771372E+02  0.00000000000E+00 0.  1.
</event>
<event>
 7    1  0.3050261E-013  0.7246157E+02  0.7816164E-02  0.1226708E+00
        -11   -1    0    0    0    0  0.00000000000E+00  0.00000000000E+00  0.45593999997E+02  0.45594000000E+02  0.51100000000E-03 0.  1.
         11   -1    0    0    0    0 -0.00000000000E+00 -0.00000000000E+00 -0.45593999997E+02  0.45594000000E+02  0.51100000000E-03 0. -1.
    9900012    2    1    2    0    0 -0.21203892137E+01 -0.11296152662E+02  0.14784459405E+02  0.72461565335E+02  0.69999993539E+02 0.  0.
         12    1    1    2    0    0  0.21203892137E+01  0.11296152662E+02 -0.14784459405E+02  0.18726434665E+02  0.00000000000E+00 0. -1.
         11    1    3    3    0    0  0.19622723325E+01  0.18914136645E+02  0.15751499722E+02  0.24692201633E+02  0.51100000000E-03 0. -1.
        -11    1    3    3    0    0  0.44683623794E+01 -0.24243691980E+01  0.14126081754E+02  0.15012994849E+02  0.51100000000E-03 0.  1.
         12    1    3    3    0    0 -0.85510239256E+01 -0.27785920109E+02 -0.15093122071E+02  0.32756368852E+02  0.00000000000E+00 0. -1.
</event>
<event>
 7    1  0.3050261E-013  0.7246144E+02  0.7816164E-02  0.1226708E+00
        -11   -1    0    0    0    0  0.00000000000E+00  0.00000000000E+00  0.45593999997E+02  0.45594000000E+02  0.51100000000E-03 0.  1.
         11   -1    0    0    0    0 -0.00000000000E+00 -0.00000000000E+00 -0.45593999997E+02  0.45594000000E+02  0.51100000000E-03 0. -1.
    9900012    2    1    2    0    0  0.16156009008E+02  0.79210169338E+01 -0.51889106004E+01  0.72461443201E+02  0.69999834437E+02 0.  0.
         12    1    1    2    0    0 -0.16156009008E+02 -0.79210169338E+01  0.51889106004E+01  0.18726556799E+02  0.00000000000E+00 0. -1.
         11    1    3    3    0    0 -0.12718454269E+02  0.86687890482E+01 -0.26186498763E+02  0.30374984778E+02  0.51100000000E-03 0. -1.
        -11    1    3    3    0    0  0.27412205110E+01  0.82067858862E+01  0.32021104181E+01  0.92260032443E+01  0.51100000000E-03 0.  1.
        -12    1    3    3    0    0  0.26133242765E+02 -0.89545580006E+01  0.17795477744E+02  0.32860455179E+02  0.00000000000E+00 0.  1.
</event>
<event>
 7    1  0.3050261E-013  0.7246162E+02  0.7816164E-02  0.1226708E+00
        -11   -1    0    0    0    0  0.00000000000E+00  0.00000000000E+00  0.45593999997E+02  0.45594000000E+02  0.51100000000E-03 0.  1.
         11   -1    0    0    0    0 -0.00000000000E+00 -0.00000000000E+00 -0.45593999997E+02  0.45594000000E+02  0.51100000000E-03 0. -1.
    9900012    2    1    2    0    0 -0.32954233820E+01  0.54283515211E+01  0.17616765878E+02  0.72461621399E+02  0.70000066573E+02 0.  0.
         12    1    1    2    0    0  0.32954233820E+01 -0.54283515211E+01 -0.17616765878E+02  0.18726378601E+02  0.00000000000E+00 0. -1.
         11    1    3    3    0    0 -0.57058903750E+01  0.15523526024E+02  0.16770298612E+01  0.16623762349E+02  0.51100000000E-03 0. -1.
        -11    1    3    3    0    0  0.21105136212E+02  0.12231950027E+02  0.71430487262E+01  0.25417917329E+02  0.51100000000E-03 0.  1.
        -12    1    3    3    0    0 -0.18694669219E+02 -0.22327124531E+02  0.87966872910E+01  0.30419941721E+02  0.00000000000E+00 0.  1.
</event>
<event>
 7    1  0.3050261E-013  0.7246166E+02  0.7816164E-02  0.1226708E+00
        -11   -1    0    0    0    0  0.00000000000E+00  0.00000000000E+00  0.45593999997E+02  0.45594000000E+02  0.51100000000E-03 0.  1.
         11   -1    0    0    0    0 -0.00000000000E+00 -0.00000000000E+00 -0.45593999997E+02  0.45594000000E+02  0.51100000000E-03 0. -1.
    9900012    2    1    2    0    0  0.57380829549E+01 -0.43921236835E+01  0.17275983043E+02  0.72461656616E+02  0.70000112450E+02 0.  0.
         12    1    1    2    0    0 -0.57380829549E+01  0.43921236835E+01 -0.17275983043E+02  0.18726343384E+02  0.00000000000E+00 0. -1.
         11    1    3    3    0    0 -0.15519238815E+01 -0.58127962507E+00 -0.65132969652E+01  0.67208177594E+01  0.51100000000E-03 0. -1.
        -11    1    3    3    0    0  0.26164851469E+02  0.11425846640E+02 -0.40269328683E+01  0.28833411391E+02  0.51100000000E-03 0.  1.
        -12    1    3    3    0    0 -0.18874844633E+02 -0.15236690699E+02  0.27816212876E+02  0.36907427466E+02  0.00000000000E+00 0.  1.
</event>
<event>
 7    1  0.3050261E-013  0.7246158E+02  0.7816164E-02  0.1226708E+00
        -11   -1    0    0    0    0  0.00000000000E+00  0.00000000000E+00  0.45593999997E+02  0.45594000000E+02  0.51100000000E-03 0.  1.
         11   -1    0    0    0    0 -0.00000000000E+00 -0.00000000000E+00 -0.45593999997E+02  0.45594000000E+02  0.51100000000E-03 0. -1.
    9900012    2    1    2    0    0 -0.23665702853E+01 -0.18430770138E+02  0.23205105786E+01  0.72461582506E+02  0.70000015908E+02 0.  0.
         12    1    1    2    0    0  0.23665702853E+01  0.18430770138E+02 -0.23205105786E+01  0.18726417494E+02  0.00000000000E+00 0. -1.
         11    1    3    3    0    0  0.10783423327E+02 -0.10459869115E+02 -0.36710089821E+01  0.15465037593E+02  0.51100000000E-03 0. -1.
        -11    1    3    3    0    0 -0.21129873863E+02 -0.22010430516E+02 -0.12030925631E+02  0.32797466255E+02  0.51100000000E-03 0.  1.
        -12    1    3    3    0    0  0.79798802504E+01  0.14039529493E+02  0.18022445192E+02  0.24199078658E+02  0.00000000000E+00 0.  1.
</event>
<event>
 7    1  0.3517988E-013  0.7246163E+02  0.7816164E-02  0.1226708E+00
        -11   -1    0    0    0    0  0.00000000000E+00  0.00000000000E+00  0.45593999997E+02  0.45594000000E+02  0.51100000000E-03 0. -1.
         11   -1    0    0    0    0 -0.00000000000E+00 -0.00000000000E+00 -0.45593999997E+02  0.45594000000E+02  0.51100000000E-03 0.  1.
    9900012    2    1    2    0    0  0.13483566900E+02  0.21184734057E+00 -0.12993286924E+02  0.72461629270E+02  0.70000076826E+02 0.  0.
         12    1    1    2    0    0 -0.13483566900E+02 -0.21184734057E+00  0.12993286924E+02  0.18726370730E+02  0.00000000000E+00 0. -1.
         11    1    3    3    0    0  0.20653800540E+02 -0.12877226138E+01 -0.26275975744E+01  0.20860056941E+02  0.51100000000E-03 0. -1.
        -11    1    3    3    0    0  0.15713026722E+02  0.70005694265E+01 -0.19815202797E+02  0.26240225670E+02  0.51100000000E-03 0.  1.
         12    1    3    3    0    0 -0.22883260362E+02 -0.55009994721E+01  0.94495134478E+01  0.25361346659E+02  0.00000000000E+00 0. -1.
</event>
<event>
 7    1  0.3050261E-013  0.7246154E+02  0.7816164E-02  0.1226708E+00
        -11   -1    0    0    0    0  0.00000000000E+00  0.00000000000E+00  0.45593999997E+02  0.45594000000E+02  0.51100000000E-03 0.  1.
         11   -1    0    0    0    0 -0.00000000000E+00 -0.00000000000E+00 -0.45593999997E+02  0.45594000000E+02  0.51100000000E-03 0. -1.
    9900012    2    1    2    0    0 -0.10604224525E+02 -0.75901851088E+01  0.13439491669E+02  0.72461536797E+02  0.69999956364E+02 0.  0.
         12    1    1    2    0    0  0.10604224525E+02  0.75901851088E+01 -0.13439491669E+02  0.18726463203E+02  0.00000000000E+00 0. -1.
         11    1    3    3    0    0  0.13991043047E+01  0.97114161353E+01  0.82929925213E+01  0.12846899292E+02  0.51100000000E-03 0. -1.
        -11    1    3    3    0    0 -0.12431084147E+02  0.43221060831E+01  0.26270189818E+02  0.29382568427E+02  0.51100000000E-03 0.  1.
        -12    1    3    3    0    0  0.42775531736E+00 -0.21623707327E+02 -0.21123690670E+02  0.30232069078E+02  0.00000000000E+00 0.  1.
</event>
<event>
 7    1  0.3050261E-013  0.7246161E+02  0.7816164E-02  0.1226708E+00
        -11   -1    0    0    0    0  0.00000000000E+00  0.00000000000E+00  0.45593999997E+02  0.45594000000E+02  0.51100000000E-03 0. -1.
         11   -1    0    0    0    0 -0.00000000000E+00 -0.00000000000E+00 -0.45593999997E+02  0.45594000000E+02  0.51100000000E-03 0.  1.
    9900012    2    1    2    0    0 -0.55118263882E+01 -0.53143461762E+01 -0.17089623893E+02  0.72461608190E+02  0.70000049366E+02 0.  0.
         12    1    1    2    0    0  0.55118263882E+01  0.53143461762E+01  0.17089623893E+02  0.18726391810E+02  0.00000000000E+00 0. -1.
         11    1    3    3    0    0  0.15223919162E+02 -0.74895560211E+01  0.15385993631E+01  0.17036092636E+02  0.51100000000E-03 0. -1.
        -11    1    3    3    0    0  0.89871751634E+01  0.12641406657E+02 -0.18197548098E+02  0.23910776582E+02  0.51100000000E-03 0.  1.
         12    1    3    3    0    0 -0.29722920713E+02 -0.10466196812E+02 -0.43067515751E+00  0.31514738973E+02  0.00000000000E+00 0. -1.
</event>
<event>
 7    1  0.3050261E-013  0.7246159E+02  0.7816164E-02  0.1226708E+00
        -11   -1    0    0    0    0  0.00000000000E+00  0.00000000000E+00  0.45593999997E+02  0.45594000000E+02  0.51100000000E-03 0. -1.
         11   -1    0    0    0    0 -0.00000000000E+00 -0.00000000000E+00 -0.45593999997E+02  0.45594000000E+02  0.51100000000E-03 0.  1.
    9900012    2    1    2    0    0  0.11275485767E+02  0.11763701841E+02 -0.92280681837E+01  0.72461588099E+02  0.70000023194E+02 0.  0.
         12    1    1    2    0    0 -0.11275485767E+02 -0.11763701841E+02  0.92280681837E+01  0.18726411901E+02  0.00000000000E+00 0. -1.
         11    1    3    3    0    0 -0.87810554072E+00  0.22210171952E+01 -0.70927715534E+00  0.24913974123E+01  0.51100000000E-03 0. -1.
        -11    1    3    3    0    0  0.34561970003E+02  0.21217535708E+02 -0.16032879663E+02  0.43609251571E+02  0.51100000000E-03 0.  1.
         12    1    3    3    0    0 -0.22408378695E+02 -0.11674851063E+02  0.75140886351E+01  0.26360939116E+02  0.00000000000E+00 0. -1.
</event>
<event>
 7    1  0.3050261E-013  0.7246157E+02  0.7816164E-02  0.1226708E+00
        -11   -1    0    0    0    0  0.00000000000E+00  0.00000000000E+00  0.45593999997E+02  0.45594000000E+02  0.51100000000E-03 0. -1.
         11   -1    0    0    0    0 -0.00000000000E+00 -0.00000000000E+00 -0.45593999997E+02  0.45594000000E+02  0.51100000000E-03 0.  1.
    9900012    2    1    2    0    0 -0.70060543348E+01  0.10530259024E+01 -0.17334515680E+02  0.72461572291E+02  0.70000002601E+02 0.  0.
         12    1    1    2    0    0  0.70060543348E+01 -0.10530259024E+01  0.17334515680E+02  0.18726427709E+02  0.00000000000E+00 0. -1.
         11    1    3    3    0    0 -0.17898153541E+02  0.15005828516E+02  0.13984557232E+02  0.27222906363E+02  0.51100000000E-03 0. -1.
        -11    1    3    3    0    0 -0.53114739513E+01 -0.13968124410E+02 -0.83171609162E+01  0.17102497509E+02  0.51100000000E-03 0.  1.
        -12    1    3    3    0    0  0.16203573158E+02  0.15321796841E-01 -0.23001911995E+02  0.28136168419E+02  0.00000000000E+00 0.  1.
</event>
<event>
 7    1  0.3050261E-013  0.7246151E+02  0.7816164E-02  0.1226708E+00
        -11   -1    0    0    0    0  0.00000000000E+00  0.00000000000E+00  0.45593999997E+02  0.45594000000E+02  0.51100000000E-03 0. -1.
         11   -1    0    0    0    0 -0.00000000000E+00 -0.00000000000E+00 -0.45593999997E+02  0.45594000000E+02  0.51100000000E-03 0.  1.
    9900012    2    1    2    0    0 -0.15601835389E+02 -0.80496758248E+01  0.65166476107E+01  0.72461514893E+02  0.69999927829E+02 0.  0.
         12    1    1    2    0    0  0.15601835389E+02  0.80496758248E+01 -0.65166476107E+01  0.18726485107E+02  0.00000000000E+00 0. -1.
         11    1    3    3    0    0  0.83649272915E+01  0.12044435494E+02 -0.31548355810E+01  0.14999780757E+02  0.51100000000E-03 0. -1.
        -11    1    3    3    0    0 -0.19860628875E+01  0.15035167263E+02  0.16757862113E+01  0.15258078520E+02  0.51100000000E-03 0.  1.
         12    1    3    3    0    0 -0.21980699793E+02 -0.35129278583E+02  0.79956969804E+01  0.42203655616E+02  0.00000000000E+00 0. -1.
</event>
<event>
 7    1  0.3050261E-013  0.7246160E+02  0.7816164E-02  0.1226708E+00
        -11   -1    0    0    0    0  0.00000000000E+00  0.00000000000E+00  0.45593999997E+02  0.45594000000E+02  0.51100000000E-03 0.  1.
         11   -1    0    0    0    0 -0.00000000000E+00 -0.00000000000E+00 -0.45593999997E+02  0.45594000000E+02  0.51100000000E-03 0. -1.
    9900012    2    1    2    0    0  0.13998730401E+01 -0.76083133666E+01  0.17053792841E+02  0.72461603468E+02  0.70000043215E+02 0.  0.
         12    1    1    2    0    0 -0.13998730401E+01  0.76083133666E+01 -0.17053792841E+02  0.18726396532E+02  0.00000000000E+00 0. -1.
         11    1    3    3    0    0  0.26473005211E+01 -0.36600450578E+01 -0.36115302632E+01  0.57833624283E+01  0.51100000000E-03 0. -1.
        -11    1    3    3    0    0 -0.63963800172E+01  0.26813693602E+02  0.22283590404E+02  0.35446385478E+02  0.51100000000E-03 0.  1.
         12    1    3    3    0    0  0.51489525362E+01 -0.30761961910E+02 -0.16182672999E+01  0.31231855562E+02  0.00000000000E+00 0. -1.
</event>
<event>
 7    1  0.3050261E-013  0.7246152E+02  0.7816164E-02  0.1226708E+00
        -11   -1    0    0    0    0  0.00000000000E+00  0.00000000000E+00  0.45593999997E+02  0.45594000000E+02  0.51100000000E-03 0.  1.
         11   -1    0    0    0    0 -0.00000000000E+00 -0.00000000000E+00 -0.45593999997E+02  0.45594000000E+02  0.51100000000E-03 0. -1.
    9900012    2    1    2    0    0 -0.16898776519E+02  0.17785740184E+01  0.78707739469E+01  0.72461519928E+02  0.69999934388E+02 0.  0.
         12    1    1    2    0    0  0.16898776519E+02 -0.17785740184E+01 -0.78707739469E+01  0.18726480072E+02  0.00000000000E+00 0. -1.
         11    1    3    3    0    0 -0.10488598844E+02 -0.16889371039E+02 -0.12634683195E+02  0.23556247144E+02  0.51100000000E-03 0. -1.
        -11    1    3    3    0    0 -0.15962110254E+02  0.16319787869E+02 -0.33769335919E+01  0.23076570816E+02  0.51100000000E-03 0.  1.
         12    1    3    3    0    0  0.95519325791E+01  0.23481571879E+01  0.23882390734E+02  0.25828701968E+02  0.00000000000E+00 0. -1.
</event>
<event>
 7    1  0.3050261E-013  0.7246171E+02  0.7816164E-02  0.1226708E+00
        -11   -1    0    0    0    0  0.00000000000E+00  0.00000000000E+00  0.45593999997E+02  0.45594000000E+02  0.51100000000E-03 0.  1.
         11   -1    0    0    0    0 -0.00000000000E+00 -0.00000000000E+00 -0.45593999997E+02  0.45594000000E+02  0.51100000000E-03 0. -1.
    9900012    2    1    2    0    0 -0.12229344466E+02 -0.60473787428E+01 -0.12827558692E+02  0.72461710519E+02  0.70000182668E+02 0.  0.
         12    1    1    2    0    0  0.12229344466E+02  0.60473787428E+01  0.12827558692E+02  0.18726289481E+02  0.00000000000E+00 0. -1.
         11    1    3    3    0    0 -0.17954225378E+02 -0.20353359474E+02 -0.15544637543E+02  0.31276975675E+02  0.51100000000E-03 0. -1.
        -11    1    3    3    0    0  0.18293396778E+02  0.38985218456E+01 -0.93293450526E+01  0.20901758721E+02  0.51100000000E-03 0.  1.
        -12    1    3    3    0    0 -0.12568515866E+02  0.10407458885E+02  0.12046423903E+02  0.20282976123E+02  0.00000000000E+00 0.  1.
</event>
<event>
 7    1  0.3050261E-013  0.7246156E+02  0.7816164E-02  0.1226708E+00
        -11   -1    0    0    0    0  0.00000000000E+00  0.00000000000E+00  0.45593999997E+02  0.45594000000E+02  0.51100000000E-03 0.  1.
         11   -1    0    0    0    0 -0.00000000000E+00 -0.00000000000E+00 -0.45593999997E+02  0.45594000000E+02  0.51100000000E-03 0. -1.
    9900012    2    1    2    0    0  0.15568854354E+02 -0.95509271612E+01  0.41316118829E+01  0.72461557405E+02  0.69999983209E+02 0.  0.
         12    1    1    2    0    0 -0.15568854354E+02  0.95509271612E+01 -0.41316118829E+01  0.18726442595E+02  0.00000000000E+00 0. -1.
         11    1    3    3    0    0 -0.90608126051E+01 -0.20090527339E+02  0.54762113334E+01  0.22709392433E+02  0.51100000000E-03 0. -1.
        -11    1    3    3    0    0  0.88784451765E+01 -0.84022061538E+01  0.15624623047E+02  0.19838162784E+02  0.51100000000E-03 0.  1.
        -12    1    3    3    0    0  0.15751221782E+02  0.18941806332E+02 -0.16969222498E+02  0.29914002188E+02  0.00000000000E+00 0.  1.
</event>
<event>
 7    1  0.3050261E-013  0.7246158E+02  0.7816164E-02  0.1226708E+00
        -11   -1    0    0    0    0  0.00000000000E+00  0.00000000000E+00  0.45593999997E+02  0.45594000000E+02  0.51100000000E-03 0.  1.
         11   -1    0    0    0    0 -0.00000000000E+00 -0.00000000000E+00 -0.45593999997E+02  0.45594000000E+02  0.51100000000E-03 0. -1.
    9900012    2    1    2    0    0 -0.57812380035E+01 -0.10745211561E+02  0.14205506179E+02  0.72461583094E+02  0.70000016674E+02 0.  0.
         12    1    1    2    0    0  0.57812380035E+01  0.10745211561E+02 -0.14205506179E+02  0.18726416906E+02  0.00000000000E+00 0. -1.
         11    1    3    3    0    0 -0.22271989993E+02 -0.19790013601E+02  0.30944693108E+02  0.42956492040E+02  0.51100000000E-03 0. -1.
        -11    1    3    3    0    0  0.13535258982E+01 -0.23808754067E+00  0.27899761706E+01  0.31100941027E+01  0.51100000000E-03 0.  1.
         12    1    3    3    0    0  0.15137226091E+02  0.92828895807E+01 -0.19529163099E+02  0.26394996951E+02  0.00000000000E+00 0. -1.
</event>
<event>
 7    1  0.3050261E-013  0.7246158E+02  0.7816164E-02  0.1226708E+00
        -11   -1    0    0    0    0  0.00000000000E+00  0.00000000000E+00  0.45593999997E+02  0.45594000000E+02  0.51100000000E-03 0.  1.
         11   -1    0    0    0    0 -0.00000000000E+00 -0.00000000000E+00 -0.45593999997E+02  0.45594000000E+02  0.51100000000E-03 0. -1.
    9900012    2    1    2    0    0 -0.13151844459E+01  0.86140077866E+01  0.16575521917E+02  0.72461581039E+02  0.70000013997E+02 0.  0.
         12    1    1    2    0    0  0.13151844459E+01 -0.86140077866E+01 -0.16575521917E+02  0.18726418961E+02  0.00000000000E+00 0. -1.
         11    1    3    3    0    0  0.78704714982E+01  0.97007176828E+01  0.19463529768E+02  0.23127413094E+02  0.51100000000E-03 0. -1.
        -11    1    3    3    0    0 -0.25251773688E+01 -0.40856145061E+01  0.22453231559E+02  0.22961192790E+02  0.51100000000E-03 0.  1.
         12    1    3    3    0    0 -0.66604785753E+01  0.29989046099E+01 -0.25341239410E+02  0.26372975155E+02  0.00000000000E+00 0. -1.
</event>
<event>
 7    1  0.3050261E-013  0.7246158E+02  0.7816164E-02  0.1226708E+00
        -11   -1    0    0    0    0  0.00000000000E+00  0.00000000000E+00  0.45593999997E+02  0.45594000000E+02  0.51100000000E-03 0.  1.
         11   -1    0    0    0    0 -0.00000000000E+00 -0.00000000000E+00 -0.45593999997E+02  0.45594000000E+02  0.51100000000E-03 0. -1.
    9900012    2    1    2    0    0  0.14198485398E+02  0.11941153661E+02 -0.25477021004E+01  0.72461576840E+02  0.70000008527E+02 0.  0.
         12    1    1    2    0    0 -0.14198485398E+02 -0.11941153661E+02  0.25477021004E+01  0.18726423160E+02  0.00000000000E+00 0. -1.
         11    1    3    3    0    0  0.31887817408E+02 -0.14263067398E+02  0.30184211903E+01  0.35062499303E+02  0.51100000000E-03 0. -1.
        -11    1    3    3    0    0  0.15016608999E+01  0.40763167399E+01 -0.68150852700E+01  0.80818767079E+01  0.51100000000E-03 0.  1.
        -12    1    3    3    0    0 -0.19190992910E+02  0.22127904320E+02  0.12489619794E+01  0.29317200829E+02  0.00000000000E+00 0.  1.
</event>
<event>
 7    1  0.3050261E-013  0.7246163E+02  0.7816164E-02  0.1226708E+00
        -11   -1    0    0    0    0  0.00000000000E+00  0.00000000000E+00  0.45593999997E+02  0.45594000000E+02  0.51100000000E-03 0. -1.
         11   -1    0    0    0    0 -0.00000000000E+00 -0.00000000000E+00 -0.45593999997E+02  0.45594000000E+02  0.51100000000E-03 0.  1.
    9900012    2    1    2    0    0 -0.11403714714E+01  0.15907178239E+02 -0.98152058987E+01  0.72461627328E+02  0.70000074297E+02 0.  0.
         12    1    1    2    0    0  0.11403714714E+01 -0.15907178239E+02  0.98152058987E+01  0.18726372672E+02  0.00000000000E+00 0. -1.
         11    1    3    3    0    0  0.21412354117E+02  0.32629502612E+02 -0.13152594199E+02  0.41184512671E+02  0.51100000000E-03 0. -1.
        -11    1    3    3    0    0 -0.16408938752E+01  0.17092669017E+01  0.24199701485E+01  0.33867952155E+01  0.51100000000E-03 0.  1.
        -12    1    3    3    0    0 -0.20911831713E+02 -0.18431591275E+02  0.91741815224E+00  0.27890319442E+02  0.00000000000E+00 0.  1.
</event>
<event>
 7    1  0.3050261E-013  0.7246156E+02  0.7816164E-02  0.1226708E+00
        -11   -1    0    0    0    0  0.00000000000E+00  0.00000000000E+00  0.45593999997E+02  0.45594000000E+02  0.51100000000E-03 0. -1.
         11   -1    0    0    0    0 -0.00000000000E+00 -0.00000000000E+00 -0.45593999997E+02  0.45594000000E+02  0.51100000000E-03 0.  1.
    9900012    2    1    2    0    0  0.16743099551E+01 -0.12783991019E+02  0.13581089469E+02  0.72461555293E+02  0.69999980458E+02 0.  0.
         12    1    1    2    0    0 -0.16743099551E+01  0.12783991019E+02 -0.13581089469E+02  0.18726444707E+02  0.00000000000E+00 0. -1.
         11    1    3    3    0    0  0.16419902666E+01 -0.13249211360E+02  0.43117405565E+01  0.14029570221E+02  0.51100000000E-03 0. -1.
        -11    1    3    3    0    0  0.49350827328E+01 -0.15806694131E+02 -0.19151482230E+02  0.25317699200E+02  0.51100000000E-03 0.  1.
         12    1    3    3    0    0 -0.49027630443E+01  0.16271914472E+02  0.28420831142E+02  0.33114285872E+02  0.00000000000E+00 0. -1.
</event>
<event>
 7    1  0.3050261E-013  0.7246158E+02  0.7816164E-02  0.1226708E+00
        -11   -1    0    0    0    0  0.00000000000E+00  0.00000000000E+00  0.45593999997E+02  0.45594000000E+02  0.51100000000E-03 0. -1.
         11   -1    0    0    0    0 -0.00000000000E+00 -0.00000000000E+00 -0.45593999997E+02  0.45594000000E+02  0.51100000000E-03 0.  1.
    9900012    2    1    2    0    0 -0.47459109794E+01 -0.13610364728E+02 -0.11954629602E+02  0.72461578346E+02  0.70000010489E+02 0.  0.
         12    1    1    2    0    0  0.47459109794E+01  0.13610364728E+02  0.11954629602E+02  0.18726421654E+02  0.00000000000E+00 0. -1.
         11    1    3    3    0    0 -0.22315444345E+01 -0.25051718201E+02 -0.11765673132E+02  0.27766876668E+02  0.51100000000E-03 0. -1.
        -11    1    3    3    0    0 -0.18407251363E+02 -0.65610029710E+01  0.49020530709E+01  0.20147054060E+02  0.51100000000E-03 0.  1.
         12    1    3    3    0    0  0.15892884818E+02  0.18002356445E+02 -0.50910095411E+01  0.24547647618E+02  0.00000000000E+00 0. -1.
</event>
<event>
 7    1  0.3050261E-013  0.7246159E+02  0.7816164E-02  0.1226708E+00
        -11   -1    0    0    0    0  0.00000000000E+00  0.00000000000E+00  0.45593999997E+02  0.45594000000E+02  0.51100000000E-03 0.  1.
         11   -1    0    0    0    0 -0.00000000000E+00 -0.00000000000E+00 -0.45593999997E+02  0.45594000000E+02  0.51100000000E-03 0. -1.
    9900012    2    1    2    0    0 -0.17208348464E+01  0.13740610837E+02  0.12606057414E+02  0.72461592382E+02  0.70000028773E+02 0.  0.
         12    1    1    2    0    0  0.17208348464E+01 -0.13740610837E+02 -0.12606057414E+02  0.18726407618E+02  0.00000000000E+00 0. -1.
         11    1    3    3    0    0 -0.28891530790E+02  0.78887447422E+01  0.15565669096E+01  0.29989593959E+02  0.51100000000E-03 0. -1.
        -11    1    3    3    0    0 -0.22065483594E+00 -0.95146923753E+01  0.37372793109E+01  0.10224740410E+02  0.51100000000E-03 0.  1.
        -12    1    3    3    0    0  0.27391350780E+02  0.15366558470E+02  0.73122111937E+01  0.32247258012E+02  0.00000000000E+00 0.  1.
</event>
<event>
 7    1  0.3050261E-013  0.7246167E+02  0.7816164E-02  0.1226708E+00
        -11   -1    0    0    0    0  0.00000000000E+00  0.00000000000E+00  0.45593999997E+02  0.45594000000E+02  0.51100000000E-03 0. -1.
         11   -1    0    0    0    0 -0.00000000000E+00 -0.00000000000E+00 -0.45593999997E+02  0.45594000000E+02  0.51100000000E-03 0.  1.
    9900012    2    1    2    0    0  0.16013651023E+02 -0.81770025952E+01  0.52321343591E+01  0.72461665054E+02  0.70000123443E+02 0.  0.
         12    1    1    2    0    0 -0.16013651023E+02  0.81770025952E+01 -0.52321343591E+01  0.18726334946E+02  0.00000000000E+00 0. -1.
         11    1    3    3    0    0  0.26722097669E+02  0.23770041393E+02  0.62031531028E+01  0.36298271038E+02  0.51100000000E-03 0. -1.
        -11    1    3    3    0    0  0.15924256558E+01 -0.17993419296E+01 -0.26276737781E+01  0.35606348583E+01  0.51100000000E-03 0.  1.
        -12    1    3    3    0    0 -0.12300872302E+02 -0.30147702059E+02  0.16566550345E+01  0.32602759158E+02  0.00000000000E+00 0.  1.
</event>
<event>
 7    1  0.3050261E-013  0.7246157E+02  0.7816164E-02  0.1226708E+00
        -11   -1    0    0    0    0  0.00000000000E+00  0.00000000000E+00  0.45593999997E+02  0.45594000000E+02  0.51100000000E-03 0. -1.
         11   -1    0    0    0    0 -0.00000000000E+00 -0.00000000000E+00 -0.45593999997E+02  0.45594000000E+02  0.51100000000E-03 0.  1.
    9900012    2    1    2    0    0  0.17756614715E+01 -0.16642356635E+02 -0.83998843158E+01  0.72461573097E+02  0.70000003651E+02 0.  0.
         12    1    1    2    0    0 -0.17756614715E+01  0.16642356635E+02  0.83998843158E+01  0.18726426903E+02  0.00000000000E+00 0. -1.
         11    1    3    3    0    0  0.88619055941E+01 -0.10326928750E+02  0.24180327157E+02  0.27746478152E+02  0.51100000000E-03 0. -1.
        -11    1    3    3    0    0 -0.63808070858E+01 -0.98592381978E+01  0.19082732451E+00  0.11745454109E+02  0.51100000000E-03 0.  1.
        -12    1    3    3    0    0 -0.70543703683E+00  0.35438103128E+01 -0.32771038798E+02  0.32969640835E+02  0.00000000000E+00 0.  1.
</event>
<event>
 7    1  0.3050261E-013  0.7246154E+02  0.7816164E-02  0.1226708E+00
        -11   -1    0    0    0    0  0.00000000000E+00  0.00000000000E+00  0.45593999997E+02  0.45594000000E+02  0.51100000000E-03 0.  1.
         11   -1    0    0    0    0 -0.00000000000E+00 -0.00000000000E+00 -0.45593999997E+02  0.45594000000E+02  0.51100000000E-03 0. -1.
    9900012    2    1    2    0    0  0.18631838685E+02  0.18799302905E+01 -0.29600121652E-01  0.72461536724E+02  0.69999956268E+02 0.  0.
         12    1    1    2    0    0 -0.18631838685E+02 -0.18799302905E+01  0.29600121652E-01  0.18726463276E+02  0.00000000000E+00 0. -1.
         11    1    3    3    0    0  0.24945347013E+02  0.16540642339E+02  0.24774716545E+02  0.38854211698E+02  0.51100000000E-03 0. -1.
        -11    1    3    3    0    0  0.41649465827E+01 -0.31511436701E+00 -0.18157021320E+01  0.45544320825E+01  0.51100000000E-03 0.  1.
        -12    1    3    3    0    0 -0.10478454911E+02 -0.14345597682E+02 -0.22988614534E+02  0.29052892943E+02  0.00000000000E+00 0.  1.
</event>
<event>
 7    1  0.3050261E-013  0.7246153E+02  0.7816164E-02  0.1226708E+00
        -11   -1    0    0    0    0  0.00000000000E+00  0.00000000000E+00  0.45593999997E+02  0.45594000000E+02  0.51100000000E-03 0. -1.
         11   -1    0    0    0    0 -0.00000000000E+00 -0.00000000000E+00 -0.45593999997E+02  0.45594000000E+02  0.51100000000E-03 0.  1.
    9900012    2    1    2    0    0  0.38962899200E+01 -0.50222456236E+01 -0.17614666239E+02  0.72461534958E+02  0.69999953968E+02 0.  0.
         12    1    1    2    0    0 -0.38962899200E+01  0.50222456236E+01  0.17614666239E+02  0.18726465042E+02  0.00000000000E+00 0. -1.
         11    1    3    3    0    0  0.55950846664E+01  0.60599397439E+01  0.35772187411E+01  0.89902356090E+01  0.51100000000E-03 0. -1.
        -11    1    3    3    0    0  0.25777980302E+02  0.57321987189E+01 -0.32731457600E+01  0.26609694738E+02  0.51100000000E-03 0.  1.
        -12    1    3    3    0    0 -0.27476775049E+02 -0.16814384086E+02 -0.17918739220E+02  0.36861604611E+02  0.00000000000E+00 0.  1.
</event>
<event>
 7    1  0.3050261E-013  0.7246165E+02  0.7816164E-02  0.1226708E+00
        -11   -1    0    0    0    0  0.00000000000E+00  0.00000000000E+00  0.45593999997E+02  0.45594000000E+02  0.51100000000E-03 0.  1.
         11   -1    0    0    0    0 -0.00000000000E+00 -0.00000000000E+00 -0.45593999997E+02  0.45594000000E+02  0.51100000000E-03 0. -1.
    9900012    2    1    2    0    0 -0.21969562121E+01  0.78765586543E+01  0.16846641780E+02  0.72461651394E+02  0.70000105648E+02 0.  0.
         12    1    1    2    0    0  0.21969562121E+01 -0.78765586543E+01 -0.16846641780E+02  0.18726348606E+02  0.00000000000E+00 0. -1.
         11    1    3    3    0    0  0.14331693077E+01 -0.27942177920E+01  0.98992442142E+01  0.10385406280E+02  0.51100000000E-03 0. -1.
        -11    1    3    3    0    0 -0.14344270856E+02 -0.11612743080E+02  0.25277019215E+02  0.31297629445E+02  0.51100000000E-03 0.  1.
         12    1    3    3    0    0  0.10714145336E+02  0.22283519526E+02 -0.18329621649E+02  0.30778615669E+02  0.00000000000E+00 0. -1.
</event>
<event>
 7    1  0.3050261E-013  0.7246161E+02  0.7816164E-02  0.1226708E+00
        -11   -1    0    0    0    0  0.00000000000E+00  0.00000000000E+00  0.45593999997E+02  0.45594000000E+02  0.51100000000E-03 0.  1.
         11   -1    0    0    0    0 -0.00000000000E+00 -0.00000000000E+00 -0.45593999997E+02  0.45594000000E+02  0.51100000000E-03 0. -1.
    9900012    2    1    2    0    0 -0.98196063645E+01  0.14276807421E+02  0.71011088570E+01  0.72461610965E+02  0.70000052981E+02 0.  0.
         12    1    1    2    0    0  0.98196063645E+01 -0.14276807421E+02 -0.71011088570E+01  0.18726389035E+02  0.00000000000E+00 0. -1.
         11    1    3    3    0    0 -0.21335268394E+02  0.13546535618E+02  0.54065802606E+01  0.25844407810E+02  0.51100000000E-03 0. -1.
        -11    1    3    3    0    0 -0.13654443662E+02  0.18519215196E+01  0.13052796370E+02  0.18980224930E+02  0.51100000000E-03 0.  1.
         12    1    3    3    0    0  0.25170105691E+02 -0.11216497160E+01 -0.11358267773E+02  0.27636978225E+02  0.00000000000E+00 0. -1.
</event>
<event>
 7    1  0.3050261E-013  0.7246154E+02  0.7816164E-02  0.1226708E+00
        -11   -1    0    0    0    0  0.00000000000E+00  0.00000000000E+00  0.45593999997E+02  0.45594000000E+02  0.51100000000E-03 0. -1.
         11   -1    0    0    0    0 -0.00000000000E+00 -0.00000000000E+00 -0.45593999997E+02  0.45594000000E+02  0.51100000000E-03 0.  1.
    9900012    2    1    2    0    0 -0.15050177056E+02 -0.17466192493E+01 -0.11005530960E+02  0.72461542248E+02  0.69999963465E+02 0.  0.
         12    1    1    2    0    0  0.15050177056E+02  0.17466192493E+01  0.11005530960E+02  0.18726457752E+02  0.00000000000E+00 0. -1.
         11    1    3    3    0    0 -0.24788115155E+02 -0.45206491631E+00 -0.88537387247E-01  0.24792395099E+02  0.51100000000E-03 0. -1.
        -11    1    3    3    0    0 -0.10800913119E+02 -0.60323031778E+01  0.11505713773E+02  0.16894669441E+02  0.51100000000E-03 0.  1.
        -12    1    3    3    0    0  0.20538851218E+02  0.47377488448E+01 -0.22422707346E+02  0.30774477708E+02  0.00000000000E+00 0.  1.
</event>
<event>
 7    1  0.3050261E-013  0.7246158E+02  0.7816164E-02  0.1226708E+00
        -11   -1    0    0    0    0  0.00000000000E+00  0.00000000000E+00  0.45593999997E+02  0.45594000000E+02  0.51100000000E-03 0.  1.
         11   -1    0    0    0    0 -0.00000000000E+00 -0.00000000000E+00 -0.45593999997E+02  0.45594000000E+02  0.51100000000E-03 0. -1.
    9900012    2    1    2    0    0  0.89725400647E+01 -0.36002954015E+01  0.16037771245E+02  0.72461582598E+02  0.70000016028E+02 0.  0.
         12    1    1    2    0    0 -0.89725400647E+01  0.36002954015E+01 -0.16037771245E+02  0.18726417402E+02  0.00000000000E+00 0. -1.
         11    1    3    3    0    0  0.46439634201E+01 -0.20711862466E+02  0.35198918091E+01  0.21515977358E+02  0.51100000000E-03 0.  1.
        -11    1    3    3    0    0  0.51655078288E+01  0.15138837041E+02 -0.15837216923E+02  0.22509649002E+02  0.51100000000E-03 0. -1.
         12    1    3    3    0    0 -0.83693118429E+00  0.19727300242E+01  0.28355096360E+02  0.28435956237E+02  0.00000000000E+00 0. -1.
</event>
<event>
 7    1  0.3050261E-013  0.7246160E+02  0.7816164E-02  0.1226708E+00
        -11   -1    0    0    0    0  0.00000000000E+00  0.00000000000E+00  0.45593999997E+02  0.45594000000E+02  0.51100000000E-03 0.  1.
         11   -1    0    0    0    0 -0.00000000000E+00 -0.00000000000E+00 -0.45593999997E+02  0.45594000000E+02  0.51100000000E-03 0. -1.
    9900012    2    1    2    0    0  0.94946988386E+01 -0.12992833365E+02  0.95767971153E+01  0.72461599709E+02  0.70000038318E+02 0.  0.
         12    1    1    2    0    0 -0.94946988386E+01  0.12992833365E+02 -0.95767971153E+01  0.18726400291E+02  0.00000000000E+00 0. -1.
         11    1    3    3    0    0  0.83299050829E+01  0.15499074769E+02  0.44942044646E+01  0.18160575746E+02  0.51100000000E-03 0. -1.
        -11    1    3    3    0    0  0.63356665348E+01  0.10411293529E+02 -0.59105049982E+01  0.13545101438E+02  0.51100000000E-03 0.  1.
        -12    1    3    3    0    0 -0.51708727791E+01 -0.38903201663E+02  0.10993097649E+02  0.40755922525E+02  0.00000000000E+00 0.  1.
</event>
<event>
 7    1  0.3050261E-013  0.7246160E+02  0.7816164E-02  0.1226708E+00
        -11   -1    0    0    0    0  0.00000000000E+00  0.00000000000E+00  0.45593999997E+02  0.45594000000E+02  0.51100000000E-03 0.  1.
         11   -1    0    0    0    0 -0.00000000000E+00 -0.00000000000E+00 -0.45593999997E+02  0.45594000000E+02  0.51100000000E-03 0. -1.
    9900012    2    1    2    0    0 -0.17885813996E+02  0.52324793063E+01  0.18430108677E+01  0.72461604964E+02  0.70000045164E+02 0.  0.
         12    1    1    2    0    0  0.17885813996E+02 -0.52324793063E+01 -0.18430108677E+01  0.18726395036E+02  0.00000000000E+00 0. -1.
         11    1    3    3    0    0 -0.24568475995E+01  0.11837774251E+02 -0.78886457999E+01  0.14436056669E+02  0.51100000000E-03 0. -1.
        -11    1    3    3    0    0  0.11644191134E+02 -0.35776423872E+01 -0.16297883188E+02  0.20347179384E+02  0.51100000000E-03 0.  1.
        -12    1    3    3    0    0 -0.27073157530E+02 -0.30276525574E+01  0.26029539856E+02  0.37678368911E+02  0.00000000000E+00 0.  1.
</event>
<event>
 7    1  0.3050261E-013  0.7246143E+02  0.7816164E-02  0.1226708E+00
        -11   -1    0    0    0    0  0.00000000000E+00  0.00000000000E+00  0.45593999997E+02  0.45594000000E+02  0.51100000000E-03 0.  1.
         11   -1    0    0    0    0 -0.00000000000E+00 -0.00000000000E+00 -0.45593999997E+02  0.45594000000E+02  0.51100000000E-03 0. -1.
    9900012    2    1    2    0    0 -0.11059288170E+02  0.13115974430E+02  0.75065060458E+01  0.72461434028E+02  0.69999822488E+02 0.  0.
         12    1    1    2    0    0  0.11059288170E+02 -0.13115974430E+02 -0.75065060458E+01  0.18726565972E+02  0.00000000000E+00 0. -1.
         11    1    3    3    0    0 -0.12705218613E+02  0.64620189983E+01  0.64251924430E+01  0.15635324357E+02  0.51100000000E-03 0. -1.
        -11    1    3    3    0    0 -0.12890097785E+02 -0.10584296882E+02  0.20945904621E+02  0.26775228889E+02  0.51100000000E-03 0.  1.
         12    1    3    3    0    0  0.14536028229E+02  0.17238252314E+02 -0.19864591018E+02  0.30050880783E+02  0.00000000000E+00 0. -1.
</event>
<event>
 7    1  0.3050261E-013  0.7246152E+02  0.7816164E-02  0.1226708E+00
        -11   -1    0    0    0    0  0.00000000000E+00  0.00000000000E+00  0.45593999997E+02  0.45594000000E+02  0.51100000000E-03 0.  1.
         11   -1    0    0    0    0 -0.00000000000E+00 -0.00000000000E+00 -0.45593999997E+02  0.45594000000E+02  0.51100000000E-03 0. -1.
    9900012    2    1    2    0    0 -0.14649572049E+02 -0.11297285425E+02  0.29055555302E+01  0.72461524834E+02  0.69999940780E+02 0.  0.
         12    1    1    2    0    0  0.14649572049E+02  0.11297285425E+02 -0.29055555302E+01  0.18726475166E+02  0.00000000000E+00 0. -1.
         11    1    3    3    0    0 -0.45887869531E+01 -0.33658667733E+01 -0.92070215339E+01  0.10823828834E+02  0.51100000000E-03 0. -1.
        -11    1    3    3    0    0 -0.22430088090E+02 -0.17612245393E+02  0.27522751580E+02  0.39633343214E+02  0.51100000000E-03 0.  1.
         12    1    3    3    0    0  0.12369302994E+02  0.96808267412E+01 -0.15410174516E+02  0.22004352787E+02  0.00000000000E+00 0. -1.
</event>
<event>
 7    1  0.3050261E-013  0.7246157E+02  0.7816164E-02  0.1226708E+00
        -11   -1    0    0    0    0  0.00000000000E+00  0.00000000000E+00  0.45593999997E+02  0.45594000000E+02  0.51100000000E-03 0. -1.
         11   -1    0    0    0    0 -0.00000000000E+00 -0.00000000000E+00 -0.45593999997E+02  0.45594000000E+02  0.51100000000E-03 0.  1.
    9900012    2    1    2    0    0  0.71645220507E+01 -0.16320992898E+02  0.57422896302E+01  0.72461572803E+02  0.70000003268E+02 0.  0.
         12    1    1    2    0    0 -0.71645220507E+01  0.16320992898E+02 -0.57422896302E+01  0.18726427197E+02  0.00000000000E+00 0. -1.
         11    1    3    3    0    0 -0.79260819034E-01 -0.21577321879E+02  0.74878145939E+01  0.22839756334E+02  0.51100000000E-03 0. -1.
        -11    1    3    3    0    0  0.17546862221E+02  0.18093690633E+02  0.12242443222E+02  0.28020553721E+02  0.51100000000E-03 0.  1.
         12    1    3    3    0    0 -0.10303079352E+02 -0.12837361651E+02 -0.13987968186E+02  0.21601262747E+02  0.00000000000E+00 0. -1.
</event>
<event>
 7    1  0.3050261E-013  0.7246161E+02  0.7816164E-02  0.1226708E+00
        -11   -1    0    0    0    0  0.00000000000E+00  0.00000000000E+00  0.45593999997E+02  0.45594000000E+02  0.51100000000E-03 0. -1.
         11   -1    0    0    0    0 -0.00000000000E+00 -0.00000000000E+00 -0.45593999997E+02  0.45594000000E+02  0.51100000000E-03 0.  1.
    9900012    2    1    2    0    0 -0.69868340961E+01  0.12459783169E+02 -0.12108498232E+02  0.72461607482E+02  0.70000048444E+02 0.  0.
         12    1    1    2    0    0  0.69868340961E+01 -0.12459783169E+02  0.12108498232E+02  0.18726392518E+02  0.00000000000E+00 0. -1.
         11    1    3    3    0    0 -0.99254196780E+01  0.16317444525E+01 -0.11371427026E+02  0.15181762039E+02  0.51100000000E-03 0. -1.
        -11    1    3    3    0    0  0.76640482282E+01  0.28366450390E+02 -0.16086648857E+02  0.33498856916E+02  0.51100000000E-03 0.  1.
         12    1    3    3    0    0 -0.47254626463E+01 -0.17538411674E+02  0.15349577651E+02  0.23780988527E+02  0.00000000000E+00 0. -1.
</event>
<event>
 7    1  0.3050261E-013  0.7246159E+02  0.7816164E-02  0.1226708E+00
        -11   -1    0    0    0    0  0.00000000000E+00  0.00000000000E+00  0.45593999997E+02  0.45594000000E+02  0.51100000000E-03 0.  1.
         11   -1    0    0    0    0 -0.00000000000E+00 -0.00000000000E+00 -0.45593999997E+02  0.45594000000E+02  0.51100000000E-03 0. -1.
    9900012    2    1    2    0    0  0.61835360420E+00 -0.25702933221E+01  0.18538865557E+02  0.72461593375E+02  0.70000030067E+02 0.  0.
         12    1    1    2    0    0 -0.61835360420E+00  0.25702933221E+01 -0.18538865557E+02  0.18726406625E+02  0.00000000000E+00 0. -1.
         11    1    3    3    0    0  0.14954380450E+02  0.26979481092E+01 -0.97807926016E+01  0.18071422822E+02  0.51100000000E-03 0. -1.
        -11    1    3    3    0    0 -0.36841836016E+00  0.14678121594E+01 -0.11530384648E+02  0.11629272334E+02  0.51100000000E-03 0.  1.
        -12    1    3    3    0    0 -0.13967608486E+02 -0.67360535906E+01  0.39850042807E+02  0.42760898219E+02  0.00000000000E+00 0.  1.
</event>
<event>
 7    1  0.3050261E-013  0.7246155E+02  0.7816164E-02  0.1226708E+00
        -11   -1    0    0    0    0  0.00000000000E+00  0.00000000000E+00  0.45593999997E+02  0.45594000000E+02  0.51100000000E-03 0.  1.
         11   -1    0    0    0    0 -0.00000000000E+00 -0.00000000000E+00 -0.45593999997E+02  0.45594000000E+02  0.51100000000E-03 0. -1.
    9900012    2    1    2    0    0 -0.69898617383E+01  0.16623821161E+02  0.50468122983E+01  0.72461550484E+02  0.69999974193E+02 0.  0.
         12    1    1    2    0    0  0.69898617383E+01 -0.16623821161E+02 -0.50468122983E+01  0.18726449516E+02  0.00000000000E+00 0. -1.
         11    1    3    3    0    0  0.18338096441E+02 -0.54069042800E+01 -0.32642471712E+01  0.19395249543E+02  0.51100000000E-03 0. -1.
        -11    1    3    3    0    0 -0.11932424100E+02 -0.61629010084E+01 -0.10120721588E+02  0.16816453237E+02  0.51100000000E-03 0.  1.
        -12    1    3    3    0    0 -0.13395534079E+02  0.28193626449E+02  0.18431781058E+02  0.36249847704E+02  0.00000000000E+00 0.  1.
</event>
<event>
 7    1  0.3050261E-013  0.7246160E+02  0.7816164E-02  0.1226708E+00
        -11   -1    0    0    0    0  0.00000000000E+00  0.00000000000E+00  0.45593999997E+02  0.45594000000E+02  0.51100000000E-03 0.  1.
         11   -1    0    0    0    0 -0.00000000000E+00 -0.00000000000E+00 -0.45593999997E+02  0.45594000000E+02  0.51100000000E-03 0. -1.
    9900012    2    1    2    0    0 -0.87227134772E+01 -0.12109916185E+02 -0.11311164390E+02  0.72461595106E+02  0.70000032321E+02 0.  0.
         12    1    1    2    0    0  0.87227134772E+01  0.12109916185E+02  0.11311164390E+02  0.18726404894E+02  0.00000000000E+00 0. -1.
         11    1    3    3    0    0 -0.15506097639E+01  0.47893018258E+01 -0.50484725129E+01  0.71294373967E+01  0.51100000000E-03 0. -1.
        -11    1    3    3    0    0 -0.33597786035E+02 -0.12209138072E+02 -0.12333985342E+02  0.37815360287E+02  0.51100000000E-03 0.  1.
        -12    1    3    3    0    0  0.26425682322E+02 -0.46900799390E+01  0.60712934656E+01  0.27516797422E+02  0.00000000000E+00 0.  1.
</event>
<event>
 7    1  0.3050261E-013  0.7246154E+02  0.7816164E-02  0.1226708E+00
        -11   -1    0    0    0    0  0.00000000000E+00  0.00000000000E+00  0.45593999997E+02  0.45594000000E+02  0.51100000000E-03 0.  1.
         11   -1    0    0    0    0 -0.00000000000E+00 -0.00000000000E+00 -0.45593999997E+02  0.45594000000E+02  0.51100000000E-03 0. -1.
    9900012    2    1    2    0    0  0.27569372130E+01 -0.12263538018E+02  0.13881104086E+02  0.72461544965E+02  0.69999967004E+02 0.  0.
         12    1    1    2    0    0 -0.27569372130E+01  0.12263538018E+02 -0.13881104086E+02  0.18726455035E+02  0.00000000000E+00 0. -1.
         11    1    3    3    0    0 -0.82535514914E+01 -0.21789088905E+02 -0.12181179100E+02  0.26291949948E+02  0.51100000000E-03 0. -1.
        -11    1    3    3    0    0  0.24471930377E+01 -0.12174765577E+02  0.17199318937E+02  0.21213916253E+02  0.51100000000E-03 0.  1.
         12    1    3    3    0    0  0.85632956667E+01  0.21700316464E+02  0.88629642493E+01  0.24955678764E+02  0.00000000000E+00 0. -1.
</event>
<event>
 7    1  0.3050261E-013  0.7246153E+02  0.7816164E-02  0.1226708E+00
        -11   -1    0    0    0    0  0.00000000000E+00  0.00000000000E+00  0.45593999997E+02  0.45594000000E+02  0.51100000000E-03 0.  1.
         11   -1    0    0    0    0 -0.00000000000E+00 -0.00000000000E+00 -0.45593999997E+02  0.45594000000E+02  0.51100000000E-03 0. -1.
    9900012    2    1    2    0    0  0.14922265972E+02  0.10145835974E+02  0.50068736034E+01  0.72461526957E+02  0.69999943546E+02 0.  0.
         12    1    1    2    0    0 -0.14922265972E+02 -0.10145835974E+02 -0.50068736034E+01  0.18726473043E+02  0.00000000000E+00 0. -1.
         11    1    3    3    0    0  0.66812673713E+01 -0.17848949032E+02 -0.17493953945E+02  0.25870112874E+02  0.51100000000E-03 0. -1.
        -11    1    3    3    0    0  0.53320166108E+01 -0.44961223871E-01 -0.49268525676E+01  0.72599104081E+01  0.51100000000E-03 0.  1.
        -12    1    3    3    0    0  0.29089819894E+01  0.28039746230E+02  0.27427680116E+02  0.39331503675E+02  0.00000000000E+00 0.  1.
</event>
<event>
 7    1  0.3050261E-013  0.7246156E+02  0.7816164E-02  0.1226708E+00
        -11   -1    0    0    0    0  0.00000000000E+00  0.00000000000E+00  0.45593999997E+02  0.45594000000E+02  0.51100000000E-03 0.  1.
         11   -1    0    0    0    0 -0.00000000000E+00 -0.00000000000E+00 -0.45593999997E+02  0.45594000000E+02  0.51100000000E-03 0. -1.
    9900012    2    1    2    0    0  0.13435537844E+02 -0.11830308784E+02  0.54963218207E+01  0.72461563162E+02  0.69999990709E+02 0.  0.
         12    1    1    2    0    0 -0.13435537844E+02  0.11830308784E+02 -0.54963218207E+01  0.18726436838E+02  0.00000000000E+00 0. -1.
         11    1    3    3    0    0 -0.16086697156E+02 -0.26277614694E+02 -0.75043477489E+00  0.30819766579E+02  0.51100000000E-03 0. -1.
        -11    1    3    3    0    0  0.38064798604E-01 -0.12841969445E+01 -0.59348471952E+01  0.60723160502E+01  0.51100000000E-03 0.  1.
        -12    1    3    3    0    0  0.29484170201E+02  0.15731502854E+02  0.12181603791E+02  0.35569480533E+02  0.00000000000E+00 0.  1.
</event>
<event>
 7    1  0.3050261E-013  0.7246165E+02  0.7816164E-02  0.1226708E+00
        -11   -1    0    0    0    0  0.00000000000E+00  0.00000000000E+00  0.45593999997E+02  0.45594000000E+02  0.51100000000E-03 0.  1.
         11   -1    0    0    0    0 -0.00000000000E+00 -0.00000000000E+00 -0.45593999997E+02  0.45594000000E+02  0.51100000000E-03 0. -1.
    9900012    2    1    2    0    0  0.73149887634E+01 -0.13781622558E+02 -0.10355382865E+02  0.72461651311E+02  0.70000105540E+02 0.  0.
         12    1    1    2    0    0 -0.73149887634E+01  0.13781622558E+02  0.10355382865E+02  0.18726348689E+02  0.00000000000E+00 0. -1.
         11    1    3    3    0    0 -0.12109668326E+02 -0.77582239727E+01 -0.11821946754E+02  0.18616995769E+02  0.51100000000E-03 0. -1.
        -11    1    3    3    0    0  0.51912380122E+01 -0.18841188659E+02 -0.17974954431E+02  0.26552557866E+02  0.51100000000E-03 0.  1.
        -12    1    3    3    0    0  0.14233419077E+02  0.12817790074E+02  0.19441518320E+02  0.27292097676E+02  0.00000000000E+00 0.  1.
</event>
<event>
 7    1  0.3050261E-013  0.7246171E+02  0.7816164E-02  0.1226708E+00
        -11   -1    0    0    0    0  0.00000000000E+00  0.00000000000E+00  0.45593999997E+02  0.45594000000E+02  0.51100000000E-03 0. -1.
         11   -1    0    0    0    0 -0.00000000000E+00 -0.00000000000E+00 -0.45593999997E+02  0.45594000000E+02  0.51100000000E-03 0.  1.
    9900012    2    1    2    0    0  0.37859787005E+01 -0.13219729123E+02 -0.12711370639E+02  0.72461713226E+02  0.70000186195E+02 0.  0.
         12    1    1    2    0    0 -0.37859787005E+01  0.13219729123E+02  0.12711370639E+02  0.18726286774E+02  0.00000000000E+00 0. -1.
         11    1    3    3    0    0  0.16418719512E+02 -0.47188753258E+01  0.14632426225E+02  0.22493333062E+02  0.51100000000E-03 0. -1.
        -11    1    3    3    0    0 -0.19594241305E+02 -0.10888180579E+02 -0.80781587322E+00  0.22430767605E+02  0.51100000000E-03 0.  1.
        -12    1    3    3    0    0  0.69615004931E+01  0.23873267813E+01 -0.26535980991E+02  0.27537612559E+02  0.00000000000E+00 0.  1.
</event>
<event>
 7    1  0.3050261E-013  0.7246150E+02  0.7816164E-02  0.1226708E+00
        -11   -1    0    0    0    0  0.00000000000E+00  0.00000000000E+00  0.45593999997E+02  0.45594000000E+02  0.51100000000E-03 0.  1.
         11   -1    0    0    0    0 -0.00000000000E+00 -0.00000000000E+00 -0.45593999997E+02  0.45594000000E+02  0.51100000000E-03 0. -1.
    9900012    2    1    2    0    0  0.13971933402E+02 -0.93837895786E+01  0.82104328322E+01  0.72461504408E+02  0.69999914171E+02 0.  0.
         12    1    1    2    0    0 -0.13971933402E+02  0.93837895786E+01 -0.82104328322E+01  0.18726495592E+02  0.00000000000E+00 0. -1.
         11    1    3    3    0    0  0.17548228738E+02 -0.11945247104E+02 -0.15255374641E+02  0.26141073350E+02  0.51100000000E-03 0. -1.
        -11    1    3    3    0    0 -0.40432647378E+01 -0.17116971691E+02  0.28515485260E+01  0.17817688931E+02  0.51100000000E-03 0.  1.
        -12    1    3    3    0    0  0.46696940238E+00  0.19678429216E+02  0.20614258947E+02  0.28502742127E+02  0.00000000000E+00 0.  1.
</event>
<event>
 7    1  0.3050261E-013  0.7246159E+02  0.7816164E-02  0.1226708E+00
        -11   -1    0    0    0    0  0.00000000000E+00  0.00000000000E+00  0.45593999997E+02  0.45594000000E+02  0.51100000000E-03 0.  1.
         11   -1    0    0    0    0 -0.00000000000E+00 -0.00000000000E+00 -0.45593999997E+02  0.45594000000E+02  0.51100000000E-03 0. -1.
    9900012    2    1    2    0    0 -0.18270270558E+02  0.34390089424E+01  0.22469377903E+01  0.72461593559E+02  0.70000030307E+02 0.  0.
         12    1    1    2    0    0  0.18270270558E+02 -0.34390089424E+01 -0.22469377903E+01  0.18726406441E+02  0.00000000000E+00 0. -1.
         11    1    3    3    0    0  0.91511089041E+01  0.20466050405E+02  0.66920886289E+00  0.22428772907E+02  0.51100000000E-03 0. -1.
        -11    1    3    3    0    0 -0.59034706746E+01 -0.44033081782E+00  0.17546815895E+02  0.18518520609E+02  0.51100000000E-03 0.  1.
         12    1    3    3    0    0 -0.21517908787E+02 -0.16586710645E+02 -0.15969086968E+02  0.31514300043E+02  0.00000000000E+00 0. -1.
</event>
<event>
 7    1  0.3050261E-013  0.7246162E+02  0.7816164E-02  0.1226708E+00
        -11   -1    0    0    0    0  0.00000000000E+00  0.00000000000E+00  0.45593999997E+02  0.45594000000E+02  0.51100000000E-03 0.  1.
         11   -1    0    0    0    0 -0.00000000000E+00 -0.00000000000E+00 -0.45593999997E+02  0.45594000000E+02  0.51100000000E-03 0. -1.
    9900012    2    1    2    0    0 -0.15521913757E+02 -0.89668895256E+01 -0.54168774462E+01  0.72461615520E+02  0.70000058914E+02 0.  0.
         12    1    1    2    0    0  0.15521913757E+02  0.89668895256E+01  0.54168774462E+01  0.18726384480E+02  0.00000000000E+00 0. -1.
         11    1    3    3    0    0 -0.96923416715E+01  0.70011957204E+01  0.13187933183E+01  0.12029025092E+02  0.51100000000E-03 0. -1.
        -11    1    3    3    0    0  0.73579304463E+00  0.20382057327E+02  0.61643500844E+01  0.21306545109E+02  0.51100000000E-03 0.  1.
        -12    1    3    3    0    0 -0.65653651300E+01 -0.36350142573E+02 -0.12900020849E+02  0.39126045318E+02  0.00000000000E+00 0.  1.
</event>
<event>
 7    1  0.3050261E-013  0.7246169E+02  0.7816164E-02  0.1226708E+00
        -11   -1    0    0    0    0  0.00000000000E+00  0.00000000000E+00  0.45593999997E+02  0.45594000000E+02  0.51100000000E-03 0.  1.
         11   -1    0    0    0    0 -0.00000000000E+00 -0.00000000000E+00 -0.45593999997E+02  0.45594000000E+02  0.51100000000E-03 0. -1.
    9900012    2    1    2    0    0  0.60885631699E+01  0.16848471617E+02  0.54528140369E+01  0.72461687543E+02  0.70000152738E+02 0.  0.
         12    1    1    2    0    0 -0.60885631699E+01 -0.16848471617E+02 -0.54528140369E+01  0.18726312457E+02  0.00000000000E+00 0. -1.
         11    1    3    3    0    0  0.50144907353E+01  0.16959659937E+02  0.20545858400E+02  0.27109177048E+02  0.51100000000E-03 0. -1.
        -11    1    3    3    0    0 -0.14550438055E+02  0.10997049863E+02 -0.18389637323E+02  0.25900369001E+02  0.51100000000E-03 0.  1.
         12    1    3    3    0    0  0.15624510489E+02 -0.11108238183E+02  0.32965929594E+01  0.19452141494E+02  0.00000000000E+00 0. -1.
</event>
<event>
 7    1  0.3050261E-013  0.7246156E+02  0.7816164E-02  0.1226708E+00
        -11   -1    0    0    0    0  0.00000000000E+00  0.00000000000E+00  0.45593999997E+02  0.45594000000E+02  0.51100000000E-03 0.  1.
         11   -1    0    0    0    0 -0.00000000000E+00 -0.00000000000E+00 -0.45593999997E+02  0.45594000000E+02  0.51100000000E-03 0. -1.
    9900012    2    1    2    0    0 -0.76922283205E+01 -0.98803969109E+01 -0.13924329867E+02  0.72461559284E+02  0.69999985657E+02 0.  0.
         12    1    1    2    0    0  0.76922283205E+01  0.98803969109E+01  0.13924329867E+02  0.18726440716E+02  0.00000000000E+00 0. -1.
         11    1    3    3    0    0 -0.22993593275E+02 -0.91584110789E+01 -0.98647522190E+01  0.26643857862E+02  0.51100000000E-03 0. -1.
        -11    1    3    3    0    0 -0.67726270213E+00 -0.20310900926E+02 -0.27142342675E+01  0.20502644930E+02  0.51100000000E-03 0.  1.
         12    1    3    3    0    0  0.15978627657E+02  0.19588915094E+02 -0.13453433807E+01  0.25315056491E+02  0.00000000000E+00 0. -1.
</event>
<event>
 7    1  0.3050261E-013  0.7246156E+02  0.7816164E-02  0.1226708E+00
        -11   -1    0    0    0    0  0.00000000000E+00  0.00000000000E+00  0.45593999997E+02  0.45594000000E+02  0.51100000000E-03 0.  1.
         11   -1    0    0    0    0 -0.00000000000E+00 -0.00000000000E+00 -0.45593999997E+02  0.45594000000E+02  0.51100000000E-03 0. -1.
    9900012    2    1    2    0    0 -0.13807715370E+02 -0.32230574438E+01 -0.12232682565E+02  0.72461558113E+02  0.69999984131E+02 0.  0.
         12    1    1    2    0    0  0.13807715370E+02  0.32230574438E+01  0.12232682565E+02  0.18726441887E+02  0.00000000000E+00 0. -1.
         11    1    3    3    0    0  0.64886530954E+01  0.16569409933E+02  0.42807843501E+00  0.17799753255E+02  0.51100000000E-03 0. -1.
        -11    1    3    3    0    0  0.13704620907E+02  0.17615137402E+00 -0.23602272671E+01  0.13907492101E+02  0.51100000000E-03 0.  1.
        -12    1    3    3    0    0 -0.34000989372E+02 -0.19968618751E+02 -0.10300533733E+02  0.40754312757E+02  0.00000000000E+00 0.  1.
</event>
<event>
 7    1  0.3050261E-013  0.7246157E+02  0.7816164E-02  0.1226708E+00
        -11   -1    0    0    0    0  0.00000000000E+00  0.00000000000E+00  0.45593999997E+02  0.45594000000E+02  0.51100000000E-03 0.  1.
         11   -1    0    0    0    0 -0.00000000000E+00 -0.00000000000E+00 -0.45593999997E+02  0.45594000000E+02  0.51100000000E-03 0. -1.
    9900012    2    1    2    0    0 -0.70426583976E+01  0.15579215495E+02 -0.76399032783E+01  0.72461571754E+02  0.70000001901E+02 0.  0.
         12    1    1    2    0    0  0.70426583976E+01 -0.15579215495E+02  0.76399032783E+01  0.18726428246E+02  0.00000000000E+00 0. -1.
         11    1    3    3    0    0 -0.39812207954E+01  0.14798739790E+02  0.16607197106E+01  0.15414629695E+02  0.51100000000E-03 0.  1.
        -11    1    3    3    0    0 -0.25386443495E+02  0.15310266106E+02 -0.50692044026E+01  0.30076113364E+02  0.51100000000E-03 0. -1.
         12    1    3    3    0    0  0.22325005893E+02 -0.14529790401E+02 -0.42314185863E+01  0.26970828695E+02  0.00000000000E+00 0. -1.
</event>
<event>
 7    1  0.3050261E-013  0.7246158E+02  0.7816164E-02  0.1226708E+00
        -11   -1    0    0    0    0  0.00000000000E+00  0.00000000000E+00  0.45593999997E+02  0.45594000000E+02  0.51100000000E-03 0.  1.
         11   -1    0    0    0    0 -0.00000000000E+00 -0.00000000000E+00 -0.45593999997E+02  0.45594000000E+02  0.51100000000E-03 0. -1.
    9900012    2    1    2    0    0 -0.46081757302E+01 -0.42748435578E+01  0.17639992310E+02  0.72461577499E+02  0.70000009385E+02 0.  0.
         12    1    1    2    0    0  0.46081757302E+01  0.42748435578E+01 -0.17639992310E+02  0.18726422501E+02  0.00000000000E+00 0. -1.
         11    1    3    3    0    0  0.34765229526E+01 -0.18752818569E+02 -0.17904861038E+02  0.26159863630E+02  0.51100000000E-03 0. -1.
        -11    1    3    3    0    0 -0.48929877228E+01 -0.37265257523E+01  0.23379822229E+02  0.24175285123E+02  0.51100000000E-03 0.  1.
        -12    1    3    3    0    0 -0.31917109599E+01  0.18204500764E+02  0.12165031118E+02  0.22126428745E+02  0.00000000000E+00 0.  1.
</event>
<event>
 7    1  0.3050261E-013  0.7246167E+02  0.7816164E-02  0.1226708E+00
        -11   -1    0    0    0    0  0.00000000000E+00  0.00000000000E+00  0.45593999997E+02  0.45594000000E+02  0.51100000000E-03 0. -1.
         11   -1    0    0    0    0 -0.00000000000E+00 -0.00000000000E+00 -0.45593999997E+02  0.45594000000E+02  0.51100000000E-03 0.  1.
    9900012    2    1    2    0    0 -0.70589754848E+01  0.12638160458E+02 -0.11879528305E+02  0.72461670210E+02  0.70000130158E+02 0.  0.
         12    1    1    2    0    0  0.70589754848E+01 -0.12638160458E+02  0.11879528305E+02  0.18726329790E+02  0.00000000000E+00 0. -1.
         11    1    3    3    0    0 -0.22411133648E+02  0.14433372585E+02  0.59600424042E+01  0.27314890834E+02  0.51100000000E-03 0. -1.
        -11    1    3    3    0    0 -0.12781448104E+02 -0.14685222905E+01 -0.88290561869E+01  0.15603660044E+02  0.51100000000E-03 0.  1.
        -12    1    3    3    0    0  0.28133606268E+02 -0.32668983689E+00 -0.90105145226E+01  0.29543119331E+02  0.00000000000E+00 0.  1.
</event>
<event>
 7    1  0.3050261E-013  0.7246156E+02  0.7816164E-02  0.1226708E+00
        -11   -1    0    0    0    0  0.00000000000E+00  0.00000000000E+00  0.45593999997E+02  0.45594000000E+02  0.51100000000E-03 0.  1.
         11   -1    0    0    0    0 -0.00000000000E+00 -0.00000000000E+00 -0.45593999997E+02  0.45594000000E+02  0.51100000000E-03 0. -1.
    9900012    2    1    2    0    0 -0.42263599346E+01 -0.11256556430E+02  0.14356445058E+02  0.72461556246E+02  0.69999981700E+02 0.  0.
         12    1    1    2    0    0  0.42263599346E+01  0.11256556430E+02 -0.14356445058E+02  0.18726443754E+02  0.00000000000E+00 0. -1.
         11    1    3    3    0    0  0.59096548467E+00 -0.44325624715E+01  0.27578744028E+02  0.27938932920E+02  0.51100000000E-03 0. -1.
        -11    1    3    3    0    0  0.14362827210E+02  0.21413100040E+01  0.62015913520E+01  0.15790368886E+02  0.51100000000E-03 0.  1.
         12    1    3    3    0    0 -0.19180152629E+02 -0.89653039622E+01 -0.19423890322E+02  0.28732254441E+02  0.00000000000E+00 0. -1.
</event>
<event>
 7    1  0.3050261E-013  0.7246154E+02  0.7816164E-02  0.1226708E+00
        -11   -1    0    0    0    0  0.00000000000E+00  0.00000000000E+00  0.45593999997E+02  0.45594000000E+02  0.51100000000E-03 0.  1.
         11   -1    0    0    0    0 -0.00000000000E+00 -0.00000000000E+00 -0.45593999997E+02  0.45594000000E+02  0.51100000000E-03 0. -1.
    9900012    2    1    2    0    0 -0.18101116767E+02  0.13530935705E+01  0.46042378660E+01  0.72461540197E+02  0.69999960792E+02 0.  0.
         12    1    1    2    0    0  0.18101116767E+02 -0.13530935705E+01 -0.46042378660E+01  0.18726459803E+02  0.00000000000E+00 0. -1.
         11    1    3    3    0    0  0.43038466082E+01  0.95734497651E+01 -0.43058910891E+01  0.11345251622E+02  0.51100000000E-03 0. -1.
        -11    1    3    3    0    0 -0.34807629332E+02  0.11652916002E+02  0.85432355205E+01  0.37687509661E+02  0.51100000000E-03 0.  1.
         12    1    3    3    0    0  0.12402665956E+02 -0.19873272196E+02  0.36689343455E+00  0.23428778914E+02  0.00000000000E+00 0. -1.
</event>
<event>
 7    1  0.3050261E-013  0.7246167E+02  0.7816164E-02  0.1226708E+00
        -11   -1    0    0    0    0  0.00000000000E+00  0.00000000000E+00  0.45593999997E+02  0.45594000000E+02  0.51100000000E-03 0. -1.
         11   -1    0    0    0    0 -0.00000000000E+00 -0.00000000000E+00 -0.45593999997E+02  0.45594000000E+02  0.51100000000E-03 0.  1.
    9900012    2    1    2    0    0 -0.68753458839E+01 -0.43253100521E+01 -0.16872964482E+02  0.72461665108E+02  0.70000123512E+02 0.  0.
         12    1    1    2    0    0  0.68753458839E+01  0.43253100521E+01  0.16872964482E+02  0.18726334892E+02  0.00000000000E+00 0. -1.
         11    1    3    3    0    0 -0.22009640570E+02  0.54726714808E+01 -0.29451673262E+01  0.22870251900E+02  0.51100000000E-03 0. -1.
        -11    1    3    3    0    0 -0.80466961709E+01 -0.10169374822E+02  0.99234667195E+01  0.16329136399E+02  0.51100000000E-03 0.  1.
        -12    1    3    3    0    0  0.23180990857E+02  0.37139328903E+00 -0.23851263875E+02  0.33262276809E+02  0.00000000000E+00 0.  1.
</event>
<event>
 7    1  0.3050261E-013  0.7246157E+02  0.7816164E-02  0.1226708E+00
        -11   -1    0    0    0    0  0.00000000000E+00  0.00000000000E+00  0.45593999997E+02  0.45594000000E+02  0.51100000000E-03 0.  1.
         11   -1    0    0    0    0 -0.00000000000E+00 -0.00000000000E+00 -0.45593999997E+02  0.45594000000E+02  0.51100000000E-03 0. -1.
    9900012    2    1    2    0    0  0.40152747740E+00  0.27589037183E+01  0.18517736594E+02  0.72461565673E+02  0.69999993980E+02 0.  0.
         12    1    1    2    0    0 -0.40152747740E+00 -0.27589037183E+01 -0.18517736594E+02  0.18726434327E+02  0.00000000000E+00 0. -1.
         11    1    3    3    0    0  0.13328857074E+02 -0.65314829754E+01 -0.21459131434E+01  0.14997454592E+02  0.51100000000E-03 0. -1.
        -11    1    3    3    0    0 -0.94184230652E+01 -0.18885327894E+02  0.19981738384E+02  0.29062556182E+02  0.51100000000E-03 0.  1.
         12    1    3    3    0    0 -0.35089065317E+01  0.28175714588E+02  0.68191135326E+00  0.28401554899E+02  0.00000000000E+00 0. -1.
</event>
<event>
 7    1  0.3050261E-013  0.7246138E+02  0.7816164E-02  0.1226709E+00
        -11   -1    0    0    0    0  0.00000000000E+00  0.00000000000E+00  0.45593999997E+02  0.45594000000E+02  0.51100000000E-03 0. -1.
         11   -1    0    0    0    0 -0.00000000000E+00 -0.00000000000E+00 -0.45593999997E+02  0.45594000000E+02  0.51100000000E-03 0.  1.
    9900012    2    1    2    0    0 -0.11088492896E+02 -0.12522824160E+02 -0.84208297903E+01  0.72461383274E+02  0.69999756370E+02 0.  0.
         12    1    1    2    0    0  0.11088492896E+02  0.12522824160E+02  0.84208297903E+01  0.18726616726E+02  0.00000000000E+00 0. -1.
         11    1    3    3    0    0 -0.32110264768E+02 -0.88978928274E+01  0.14008977528E+00  0.33320582613E+02  0.51100000000E-03 0. -1.
        -11    1    3    3    0    0 -0.10327278628E+00 -0.12944478114E+02  0.30455997053E+01  0.13298340375E+02  0.51100000000E-03 0.  1.
        -12    1    3    3    0    0  0.21125044658E+02  0.93195467811E+01 -0.11606519271E+02  0.25842460285E+02  0.00000000000E+00 0.  1.
</event>
<event>
 7    1  0.3050261E-013  0.7246154E+02  0.7816164E-02  0.1226708E+00
        -11   -1    0    0    0    0  0.00000000000E+00  0.00000000000E+00  0.45593999997E+02  0.45594000000E+02  0.51100000000E-03 0.  1.
         11   -1    0    0    0    0 -0.00000000000E+00 -0.00000000000E+00 -0.45593999997E+02  0.45594000000E+02  0.51100000000E-03 0. -1.
    9900012    2    1    2    0    0  0.10840790146E+02 -0.24079808492E+01  0.15078432605E+02  0.72461541911E+02  0.69999963025E+02 0.  0.
         12    1    1    2    0    0 -0.10840790146E+02  0.24079808492E+01 -0.15078432605E+02  0.18726458089E+02  0.00000000000E+00 0. -1.
         11    1    3    3    0    0  0.22194975318E+02  0.50036191280E-01 -0.25804730590E+01  0.22344535673E+02  0.51100000000E-03 0. -1.
        -11    1    3    3    0    0  0.17149894056E+01  0.19602239270E+02  0.13382662407E+01  0.19722574119E+02  0.51100000000E-03 0.  1.
         12    1    3    3    0    0 -0.13069174578E+02 -0.22060256311E+02  0.16320639423E+02  0.30394432119E+02  0.00000000000E+00 0. -1.
</event>
<event>
 7    1  0.3050261E-013  0.7246157E+02  0.7816164E-02  0.1226708E+00
        -11   -1    0    0    0    0  0.00000000000E+00  0.00000000000E+00  0.45593999997E+02  0.45594000000E+02  0.51100000000E-03 0.  1.
         11   -1    0    0    0    0 -0.00000000000E+00 -0.00000000000E+00 -0.45593999997E+02  0.45594000000E+02  0.51100000000E-03 0. -1.
    9900012    2    1    2    0    0  0.73256158475E+01 -0.13601039834E+02  0.10584238571E+02  0.72461573799E+02  0.70000004566E+02 0.  0.
         12    1    1    2    0    0 -0.73256158475E+01  0.13601039834E+02 -0.10584238571E+02  0.18726426201E+02  0.00000000000E+00 0. -1.
         11    1    3    3    0    0 -0.71972744690E+00 -0.75227349809E+01  0.16382325841E+02  0.18041345554E+02  0.51100000000E-03 0. -1.
        -11    1    3    3    0    0  0.28492227370E+02 -0.13776969793E+01  0.76078878225E+01  0.29522618903E+02  0.51100000000E-03 0.  1.
         12    1    3    3    0    0 -0.20446884076E+02 -0.47006078740E+01 -0.13405975092E+02  0.24897609343E+02  0.00000000000E+00 0. -1.
</event>
<event>
 7    1  0.3050261E-013  0.7246156E+02  0.7816164E-02  0.1226708E+00
        -11   -1    0    0    0    0  0.00000000000E+00  0.00000000000E+00  0.45593999997E+02  0.45594000000E+02  0.51100000000E-03 0. -1.
         11   -1    0    0    0    0 -0.00000000000E+00 -0.00000000000E+00 -0.45593999997E+02  0.45594000000E+02  0.51100000000E-03 0.  1.
    9900012    2    1    2    0    0 -0.18260305326E+02 -0.36219283559E+01  0.20304211336E+01  0.72461555447E+02  0.69999980659E+02 0.  0.
         12    1    1    2    0    0  0.18260305326E+02  0.36219283559E+01 -0.20304211336E+01  0.18726444553E+02  0.00000000000E+00 0. -1.
         11    1    3    3    0    0  0.62841856746E+01  0.10514099922E+02  0.36266809680E+01  0.12774588129E+02  0.51100000000E-03 0. -1.
        -11    1    3    3    0    0 -0.34710333856E+01  0.19512349414E+02  0.14225999488E+01  0.19869666411E+02  0.51100000000E-03 0.  1.
        -12    1    3    3    0    0 -0.21073457615E+02 -0.33648377691E+02 -0.30188597831E+01  0.39817300907E+02  0.00000000000E+00 0.  1.
</event>
<event>
 7    1  0.3050261E-013  0.7246159E+02  0.7816164E-02  0.1226708E+00
        -11   -1    0    0    0    0  0.00000000000E+00  0.00000000000E+00  0.45593999997E+02  0.45594000000E+02  0.51100000000E-03 0. -1.
         11   -1    0    0    0    0 -0.00000000000E+00 -0.00000000000E+00 -0.45593999997E+02  0.45594000000E+02  0.51100000000E-03 0.  1.
    9900012    2    1    2    0    0  0.13076720317E+01  0.26865907221E+01 -0.18486496821E+02  0.72461592427E+02  0.70000028832E+02 0.  0.
         12    1    1    2    0    0 -0.13076720317E+01 -0.26865907221E+01  0.18486496821E+02  0.18726407573E+02  0.00000000000E+00 0. -1.
         11    1    3    3    0    0  0.26835753002E+01  0.50720771753E+01  0.68058322534E+01  0.89020725781E+01  0.51100000000E-03 0. -1.
        -11    1    3    3    0    0  0.24621160113E+02  0.81336610462E+01 -0.20387076469E+00  0.25930667768E+02  0.51100000000E-03 0.  1.
        -12    1    3    3    0    0 -0.25997063382E+02 -0.10519147499E+02 -0.25088458310E+02  0.37628852081E+02  0.00000000000E+00 0.  1.
</event>
<event>
 7    1  0.3050261E-013  0.7246160E+02  0.7816164E-02  0.1226708E+00
        -11   -1    0    0    0    0  0.00000000000E+00  0.00000000000E+00  0.45593999997E+02  0.45594000000E+02  0.51100000000E-03 0. -1.
         11   -1    0    0    0    0 -0.00000000000E+00 -0.00000000000E+00 -0.45593999997E+02  0.45594000000E+02  0.51100000000E-03 0.  1.
    9900012    2    1    2    0    0  0.80286280771E+00  0.43613019758E+01 -0.18193750250E+02  0.72461599070E+02  0.70000037486E+02 0.  0.
         12    1    1    2    0    0 -0.80286280771E+00 -0.43613019758E+01  0.18193750250E+02  0.18726400930E+02  0.00000000000E+00 0. -1.
         11    1    3    3    0    0 -0.20709840594E+01 -0.15528987283E+02  0.95430727647E+01  0.18344172346E+02  0.51100000000E-03 0. -1.
        -11    1    3    3    0    0 -0.16337041842E+02  0.17969759385E+02 -0.59445051373E+01  0.25002966426E+02  0.51100000000E-03 0.  1.
        -12    1    3    3    0    0  0.19210888709E+02  0.19205298741E+01 -0.21792317878E+02  0.29114460298E+02  0.00000000000E+00 0.  1.
</event>
<event>
 7    1  0.3050261E-013  0.7246149E+02  0.7816164E-02  0.1226708E+00
        -11   -1    0    0    0    0  0.00000000000E+00  0.00000000000E+00  0.45593999997E+02  0.45594000000E+02  0.51100000000E-03 0.  1.
         11   -1    0    0    0    0 -0.00000000000E+00 -0.00000000000E+00 -0.45593999997E+02  0.45594000000E+02  0.51100000000E-03 0. -1.
    9900012    2    1    2    0    0 -0.14919985370E+02  0.11302903920E+02 -0.56634128011E+00  0.72461485565E+02  0.69999889624E+02 0.  0.
         12    1    1    2    0    0  0.14919985370E+02 -0.11302903920E+02  0.56634128011E+00  0.18726514435E+02  0.00000000000E+00 0. -1.
         11    1    3    3    0    0  0.36429328947E+01  0.12533322848E+02 -0.30388707912E+02  0.33073081357E+02  0.51100000000E-03 0. -1.
        -11    1    3    3    0    0 -0.72934026147E+01 -0.83025692513E+01  0.73477333993E+01  0.13270853938E+02  0.51100000000E-03 0.  1.
        -12    1    3    3    0    0 -0.11269515650E+02  0.70721503232E+01  0.22474633232E+02  0.26117550270E+02  0.00000000000E+00 0.  1.
</event>
<event>
 7    1  0.3050261E-013  0.7246155E+02  0.7816164E-02  0.1226708E+00
        -11   -1    0    0    0    0  0.00000000000E+00  0.00000000000E+00  0.45593999997E+02  0.45594000000E+02  0.51100000000E-03 0. -1.
         11   -1    0    0    0    0 -0.00000000000E+00 -0.00000000000E+00 -0.45593999997E+02  0.45594000000E+02  0.51100000000E-03 0.  1.
    9900012    2    1    2    0    0  0.91274445062E+01 -0.14020988786E+02 -0.84131777097E+01  0.72461550018E+02  0.69999973586E+02 0.  0.
         12    1    1    2    0    0 -0.91274445062E+01  0.14020988786E+02  0.84131777097E+01  0.18726449982E+02  0.00000000000E+00 0. -1.
         11    1    3    3    0    0 -0.16338548014E+02 -0.30554867825E+02 -0.11236826589E+02  0.36425463224E+02  0.51100000000E-03 0. -1.
        -11    1    3    3    0    0  0.33208988051E+01  0.28781321682E+01 -0.69675693326E+01  0.82376596383E+01  0.51100000000E-03 0.  1.
        -12    1    3    3    0    0  0.22145093715E+02  0.13655746871E+02  0.97912182114E+01  0.27798427155E+02  0.00000000000E+00 0.  1.
</event>
<event>
 7    1  0.3050261E-013  0.7246162E+02  0.7816164E-02  0.1226708E+00
        -11   -1    0    0    0    0  0.00000000000E+00  0.00000000000E+00  0.45593999997E+02  0.45594000000E+02  0.51100000000E-03 0. -1.
         11   -1    0    0    0    0 -0.00000000000E+00 -0.00000000000E+00 -0.45593999997E+02  0.45594000000E+02  0.51100000000E-03 0.  1.
    9900012    2    1    2    0    0  0.32722342571E+01 -0.41775420143E+01 -0.17958784685E+02  0.72461619632E+02  0.70000064272E+02 0.  0.
         12    1    1    2    0    0 -0.32722342571E+01  0.41775420143E+01  0.17958784685E+02  0.18726380368E+02  0.00000000000E+00 0. -1.
         11    1    3    3    0    0 -0.59647835762E+01  0.12131601491E+02  0.14655096901E+02  0.19938060670E+02  0.51100000000E-03 0. -1.
        -11    1    3    3    0    0 -0.11488350988E+02 -0.13183579881E+02 -0.56612021626E+01  0.18380375325E+02  0.51100000000E-03 0.  1.
         12    1    3    3    0    0  0.20725368821E+02 -0.31255636235E+01 -0.26952679424E+02  0.34143183637E+02  0.00000000000E+00 0. -1.
</event>
<event>
 7    1  0.3050261E-013  0.7246210E+02  0.7816164E-02  0.1226707E+00
        -11   -1    0    0    0    0  0.00000000000E+00  0.00000000000E+00  0.45593999997E+02  0.45594000000E+02  0.51100000000E-03 0.  1.
         11   -1    0    0    0    0 -0.00000000000E+00 -0.00000000000E+00 -0.45593999997E+02  0.45594000000E+02  0.51100000000E-03 0. -1.
    9900012    2    1    2    0    0 -0.18682033667E+02 -0.11977884179E+01 -0.45402494397E+00  0.72462103021E+02  0.70000693972E+02 0.  0.
         12    1    1    2    0    0  0.18682033667E+02  0.11977884179E+01  0.45402494397E+00  0.18725896979E+02  0.00000000000E+00 0. -1.
         11    1    3    3    0    0 -0.45504455622E+01  0.27666604421E+01 -0.84832747589E+01  0.10016332448E+02  0.51100000000E-03 0. -1.
        -11    1    3    3    0    0 -0.84110219507E+00  0.19636654690E+02 -0.16683064490E+02  0.25780424771E+02  0.51100000000E-03 0.  1.
        -12    1    3    3    0    0 -0.13290485910E+02 -0.23601103550E+02  0.24712314305E+02  0.36665345802E+02  0.00000000000E+00 0.  1.
</event>
<event>
 7    1  0.3050261E-013  0.7246161E+02  0.7816164E-02  0.1226708E+00
        -11   -1    0    0    0    0  0.00000000000E+00  0.00000000000E+00  0.45593999997E+02  0.45594000000E+02  0.51100000000E-03 0.  1.
         11   -1    0    0    0    0 -0.00000000000E+00 -0.00000000000E+00 -0.45593999997E+02  0.45594000000E+02  0.51100000000E-03 0. -1.
    9900012    2    1    2    0    0 -0.18504651829E+02  0.16768541965E+01  0.23331649946E+01  0.72461611181E+02  0.70000053262E+02 0.  0.
         12    1    1    2    0    0  0.18504651829E+02 -0.16768541965E+01 -0.23331649946E+01  0.18726388819E+02  0.00000000000E+00 0. -1.
         11    1    3    3    0    0 -0.19864130675E+02 -0.15848083954E+01 -0.20550984191E+02  0.28625831982E+02  0.51100000000E-03 0. -1.
        -11    1    3    3    0    0  0.10011153883E+02 -0.11382307317E+02  0.22112708743E+02  0.26809550727E+02  0.51100000000E-03 0.  1.
         12    1    3    3    0    0 -0.86516750370E+01  0.14643969909E+02  0.77144044288E+00  0.17026228473E+02  0.00000000000E+00 0. -1.
</event>
<event>
 7    1  0.3050261E-013  0.7246157E+02  0.7816164E-02  0.1226708E+00
        -11   -1    0    0    0    0  0.00000000000E+00  0.00000000000E+00  0.45593999997E+02  0.45594000000E+02  0.51100000000E-03 0. -1.
         11   -1    0    0    0    0 -0.00000000000E+00 -0.00000000000E+00 -0.45593999997E+02  0.45594000000E+02  0.51100000000E-03 0.  1.
    9900012    2    1    2    0    0  0.15497424523E+02  0.10221023268E+02 -0.24575769279E+01  0.72461570339E+02  0.70000000058E+02 0.  0.
         12    1    1    2    0    0 -0.15497424523E+02 -0.10221023268E+02  0.24575769279E+01  0.18726429661E+02  0.00000000000E+00 0. -1.
         11    1    3    3    0    0 -0.18120387543E+02 -0.22627201508E+01 -0.82696357833E+01  0.20046326932E+02  0.51100000000E-03 0. -1.
        -11    1    3    3    0    0  0.35648997564E+01  0.13417653281E+02 -0.11227740628E+02  0.17855085822E+02  0.51100000000E-03 0.  1.
         12    1    3    3    0    0  0.30052912310E+02 -0.93390986232E+00  0.17039799483E+02  0.34560157586E+02  0.00000000000E+00 0. -1.
</event>
<event>
 7    1  0.3050261E-013  0.7246157E+02  0.7816164E-02  0.1226708E+00
        -11   -1    0    0    0    0  0.00000000000E+00  0.00000000000E+00  0.45593999997E+02  0.45594000000E+02  0.51100000000E-03 0.  1.
         11   -1    0    0    0    0 -0.00000000000E+00 -0.00000000000E+00 -0.45593999997E+02  0.45594000000E+02  0.51100000000E-03 0. -1.
    9900012    2    1    2    0    0  0.18433539902E+02 -0.46465741713E+00  0.32661634580E+01  0.72461571521E+02  0.70000001598E+02 0.  0.
         12    1    1    2    0    0 -0.18433539902E+02  0.46465741713E+00 -0.32661634580E+01  0.18726428479E+02  0.00000000000E+00 0. -1.
         11    1    3    3    0    0 -0.40448798024E+01 -0.62641955613E+01  0.15962410601E+02  0.17618165373E+02  0.51100000000E-03 0. -1.
        -11    1    3    3    0    0 -0.12595573246E+02  0.92288568974E+01  0.35881009333E+01  0.16021695716E+02  0.51100000000E-03 0.  1.
        -12    1    3    3    0    0  0.35073992951E+02 -0.34293187532E+01 -0.16284348077E+02  0.38821710432E+02  0.00000000000E+00 0.  1.
</event>
<event>
 7    1  0.3050261E-013  0.7246160E+02  0.7816164E-02  0.1226708E+00
        -11   -1    0    0    0    0  0.00000000000E+00  0.00000000000E+00  0.45593999997E+02  0.45594000000E+02  0.51100000000E-03 0. -1.
         11   -1    0    0    0    0 -0.00000000000E+00 -0.00000000000E+00 -0.45593999997E+02  0.45594000000E+02  0.51100000000E-03 0.  1.
    9900012    2    1    2    0    0 -0.35608891919E+01  0.12584433530E+02 -0.13402622695E+02  0.72461596335E+02  0.70000033923E+02 0.  0.
         12    1    1    2    0    0  0.35608891919E+01 -0.12584433530E+02  0.13402622695E+02  0.18726403665E+02  0.00000000000E+00 0. -1.
         11    1    3    3    0    0 -0.59109370048E-01  0.36929203912E+02  0.32938185946E+01  0.37075852474E+02  0.51100000000E-03 0. -1.
        -11    1    3    3    0    0  0.79695988059E+01 -0.91815203978E+01 -0.72403432533E+01  0.14150526232E+02  0.51100000000E-03 0.  1.
        -12    1    3    3    0    0 -0.11471378628E+02 -0.15163249984E+02 -0.94560980363E+01  0.21235217629E+02  0.00000000000E+00 0.  1.
</event>
<event>
 7    1  0.3050261E-013  0.7246165E+02  0.7816164E-02  0.1226708E+00
        -11   -1    0    0    0    0  0.00000000000E+00  0.00000000000E+00  0.45593999997E+02  0.45594000000E+02  0.51100000000E-03 0. -1.
         11   -1    0    0    0    0 -0.00000000000E+00 -0.00000000000E+00 -0.45593999997E+02  0.45594000000E+02  0.51100000000E-03 0.  1.
    9900012    2    1    2    0    0 -0.73217430374E+01 -0.21642533182E+01 -0.17099253127E+02  0.72461645014E+02  0.70000097337E+02 0.  0.
         12    1    1    2    0    0  0.73217430374E+01  0.21642533182E+01  0.17099253127E+02  0.18726354986E+02  0.00000000000E+00 0. -1.
         11    1    3    3    0    0 -0.24987324187E+02  0.89695536228E+01  0.48253712052E+01  0.26983392480E+02  0.51100000000E-03 0. -1.
        -11    1    3    3    0    0 -0.49591743904E+01 -0.15831633560E+02 -0.72509575275E+01  0.18105535539E+02  0.51100000000E-03 0.  1.
        -12    1    3    3    0    0  0.22624755540E+02  0.46978266194E+01 -0.14673666805E+02  0.27372716995E+02  0.00000000000E+00 0.  1.
</event>
<event>
 7    1  0.3050261E-013  0.7246153E+02  0.7816164E-02  0.1226708E+00
        -11   -1    0    0    0    0  0.00000000000E+00  0.00000000000E+00  0.45593999997E+02  0.45594000000E+02  0.51100000000E-03 0. -1.
         11   -1    0    0    0    0 -0.00000000000E+00 -0.00000000000E+00 -0.45593999997E+02  0.45594000000E+02  0.51100000000E-03 0.  1.
    9900012    2    1    2    0    0 -0.17963055606E+02  0.52022772042E+01 -0.97252129652E+00  0.72461525359E+02  0.69999941463E+02 0.  0.
         12    1    1    2    0    0  0.17963055606E+02 -0.52022772042E+01  0.97252129652E+00  0.18726474641E+02  0.00000000000E+00 0. -1.
         11    1    3    3    0    0 -0.47565019390E+01  0.75321879899E+01 -0.95697740877E+01  0.13074354399E+02  0.51100000000E-03 0. -1.
        -11    1    3    3    0    0  0.11153639976E+02 -0.44840116965E+01 -0.19018792688E+02  0.22499433797E+02  0.51100000000E-03 0.  1.
         12    1    3    3    0    0 -0.24360193643E+02  0.21541009108E+01  0.27616045480E+02  0.36887737162E+02  0.00000000000E+00 0. -1.
</event>
<event>
 7    1  0.3050261E-013  0.7246162E+02  0.7816164E-02  0.1226708E+00
        -11   -1    0    0    0    0  0.00000000000E+00  0.00000000000E+00  0.45593999997E+02  0.45594000000E+02  0.51100000000E-03 0.  1.
         11   -1    0    0    0    0 -0.00000000000E+00 -0.00000000000E+00 -0.45593999997E+02  0.45594000000E+02  0.51100000000E-03 0. -1.
    9900012    2    1    2    0    0 -0.36027717833E+01  0.14589208325E+02 -0.11173729042E+02  0.72461623288E+02  0.70000069034E+02 0.  0.
         12    1    1    2    0    0  0.36027717833E+01 -0.14589208325E+02  0.11173729042E+02  0.18726376712E+02  0.00000000000E+00 0. -1.
         11    1    3    3    0    0 -0.12425030310E+02  0.30235679100E+02 -0.25458263345E+02  0.41433088729E+02  0.51100000000E-03 0. -1.
        -11    1    3    3    0    0 -0.53727063119E+01 -0.37320717982E+01 -0.14696574235E+01  0.67047912887E+01  0.51100000000E-03 0.  1.
        -12    1    3    3    0    0  0.14194964838E+02 -0.11914398977E+02  0.15754191726E+02  0.24323743270E+02  0.00000000000E+00 0.  1.
</event>
<event>
 7    1  0.3050261E-013  0.7246159E+02  0.7816164E-02  0.1226708E+00
        -11   -1    0    0    0    0  0.00000000000E+00  0.00000000000E+00  0.45593999997E+02  0.45594000000E+02  0.51100000000E-03 0.  1.
         11   -1    0    0    0    0 -0.00000000000E+00 -0.00000000000E+00 -0.45593999997E+02  0.45594000000E+02  0.51100000000E-03 0. -1.
    9900012    2    1    2    0    0  0.15113247307E+02 -0.60153680439E+01 -0.92781116045E+01  0.72461594798E+02  0.70000031920E+02 0.  0.
         12    1    1    2    0    0 -0.15113247307E+02  0.60153680439E+01  0.92781116045E+01  0.18726405202E+02  0.00000000000E+00 0. -1.
         11    1    3    3    0    0  0.42760862806E+01  0.22677742529E+02  0.32311644382E+01  0.23302475061E+02  0.51100000000E-03 0. -1.
        -11    1    3    3    0    0  0.45242450033E+01  0.69268083383E+01 -0.98830324554E+01  0.12888902102E+02  0.51100000000E-03 0.  1.
         12    1    3    3    0    0  0.63129160227E+01 -0.35619918911E+02 -0.26262435873E+01  0.36270217635E+02  0.00000000000E+00 0. -1.
</event>
<event>
 7    1  0.3050261E-013  0.7246156E+02  0.7816164E-02  0.1226708E+00
        -11   -1    0    0    0    0  0.00000000000E+00  0.00000000000E+00  0.45593999997E+02  0.45594000000E+02  0.51100000000E-03 0. -1.
         11   -1    0    0    0    0 -0.00000000000E+00 -0.00000000000E+00 -0.45593999997E+02  0.45594000000E+02  0.51100000000E-03 0.  1.
    9900012    2    1    2    0    0 -0.82247560611E+01  0.65443762548E+01 -0.15498516429E+02  0.72461561889E+02  0.69999989051E+02 0.  0.
         12    1    1    2    0    0  0.82247560611E+01 -0.65443762548E+01  0.15498516429E+02  0.18726438111E+02  0.00000000000E+00 0. -1.
         11    1    3    3    0    0  0.11477238639E+02 -0.11583648549E+02  0.44514510700E+01  0.16903352844E+02  0.51100000000E-03 0. -1.
        -11    1    3    3    0    0 -0.49147193517E+01  0.14442904266E+02  0.12490106645E+02  0.19716863701E+02  0.51100000000E-03 0.  1.
        -12    1    3    3    0    0 -0.14787275349E+02  0.36851205380E+01 -0.32440074144E+02  0.35841345344E+02  0.00000000000E+00 0.  1.
</event>
<event>
 7    1  0.3050261E-013  0.7246146E+02  0.7816164E-02  0.1226708E+00
        -11   -1    0    0    0    0  0.00000000000E+00  0.00000000000E+00  0.45593999997E+02  0.45594000000E+02  0.51100000000E-03 0. -1.
         11   -1    0    0    0    0 -0.00000000000E+00 -0.00000000000E+00 -0.45593999997E+02  0.45594000000E+02  0.51100000000E-03 0.  1.
    9900012    2    1    2    0    0 -0.10254856224E+02 -0.15293114742E+02  0.34119916213E+01  0.72461464776E+02  0.69999862542E+02 0.  0.
         12    1    1    2    0    0  0.10254856224E+02  0.15293114742E+02 -0.34119916213E+01  0.18726535224E+02  0.00000000000E+00 0. -1.
         11    1    3    3    0    0  0.11737898743E+02  0.13610904865E+02  0.54611979928E+01  0.18784559668E+02  0.51100000000E-03 0. -1.
        -11    1    3    3    0    0 -0.27729336985E+01  0.78066978259E+01  0.74754821239E+01  0.11158697302E+02  0.51100000000E-03 0.  1.
        -12    1    3    3    0    0 -0.19219821269E+02 -0.36710717433E+02 -0.95246884954E+01  0.42518207805E+02  0.00000000000E+00 0.  1.
</event>
<event>
 7    1  0.3050261E-013  0.7246157E+02  0.7816164E-02  0.1226708E+00
        -11   -1    0    0    0    0  0.00000000000E+00  0.00000000000E+00  0.45593999997E+02  0.45594000000E+02  0.51100000000E-03 0. -1.
         11   -1    0    0    0    0 -0.00000000000E+00 -0.00000000000E+00 -0.45593999997E+02  0.45594000000E+02  0.51100000000E-03 0.  1.
    9900012    2    1    2    0    0  0.15704016383E+02 -0.18321360866E+01  0.10035250294E+02  0.72461572106E+02  0.70000002360E+02 0.  0.
         12    1    1    2    0    0 -0.15704016383E+02  0.18321360866E+01 -0.10035250294E+02  0.18726427894E+02  0.00000000000E+00 0. -1.
         11    1    3    3    0    0 -0.71722369752E+00 -0.21314220817E+02  0.14112202557E+02  0.25572733137E+02  0.51100000000E-03 0.  1.
        -11    1    3    3    0    0 -0.13605501194E+01 -0.82849432125E+01  0.81701908666E+01  0.11715092817E+02  0.51100000000E-03 0. -1.
        -12    1    3    3    0    0  0.17781790200E+02  0.27767027943E+02 -0.12247143129E+02  0.35173746151E+02  0.00000000000E+00 0.  1.
</event>
<event>
 7    1  0.3050261E-013  0.7246158E+02  0.7816164E-02  0.1226708E+00
        -11   -1    0    0    0    0  0.00000000000E+00  0.00000000000E+00  0.45593999997E+02  0.45594000000E+02  0.51100000000E-03 0. -1.
         11   -1    0    0    0    0 -0.00000000000E+00 -0.00000000000E+00 -0.45593999997E+02  0.45594000000E+02  0.51100000000E-03 0.  1.
    9900012    2    1    2    0    0 -0.14039645977E+02  0.12370493975E+02 -0.73346520321E+00  0.72461581455E+02  0.70000014538E+02 0.  0.
         12    1    1    2    0    0  0.14039645977E+02 -0.12370493975E+02  0.73346520321E+00  0.18726418545E+02  0.00000000000E+00 0. -1.
         11    1    3    3    0    0  0.45025931743E-01 -0.19898062226E+01  0.55887547206E+01  0.59325825512E+01  0.51100000000E-03 0. -1.
        -11    1    3    3    0    0 -0.14379395923E+02 -0.22767247229E+02 -0.11037129688E+02  0.29102109983E+02  0.51100000000E-03 0.  1.
         12    1    3    3    0    0  0.29472401432E+00  0.37127547426E+02  0.47149097645E+01  0.37426888920E+02  0.00000000000E+00 0. -1.
</event>
<event>
 7    1  0.3050261E-013  0.7246169E+02  0.7816164E-02  0.1226708E+00
        -11   -1    0    0    0    0  0.00000000000E+00  0.00000000000E+00  0.45593999997E+02  0.45594000000E+02  0.51100000000E-03 0. -1.
         11   -1    0    0    0    0 -0.00000000000E+00 -0.00000000000E+00 -0.45593999997E+02  0.45594000000E+02  0.51100000000E-03 0.  1.
    9900012    2    1    2    0    0  0.17848339718E+02 -0.15125257579E+01 -0.54611077682E+01  0.72461690622E+02  0.70000156749E+02 0.  0.
         12    1    1    2    0    0 -0.17848339718E+02  0.15125257579E+01  0.54611077682E+01  0.18726309378E+02  0.00000000000E+00 0. -1.
         11    1    3    3    0    0  0.85628914806E+01 -0.24091890896E+01 -0.23536768477E+02  0.25161613088E+02  0.51100000000E-03 0.  1.
        -11    1    3    3    0    0  0.13605468133E+02 -0.18619070865E+02  0.55744510645E+01  0.23724524609E+02  0.51100000000E-03 0. -1.
        -12    1    3    3    0    0 -0.43200198951E+01  0.19515734197E+02  0.12501209645E+02  0.23575552925E+02  0.00000000000E+00 0.  1.
</event>
<event>
 7    1  0.3050261E-013  0.7246157E+02  0.7816164E-02  0.1226708E+00
        -11   -1    0    0    0    0  0.00000000000E+00  0.00000000000E+00  0.45593999997E+02  0.45594000000E+02  0.51100000000E-03 0.  1.
         11   -1    0    0    0    0 -0.00000000000E+00 -0.00000000000E+00 -0.45593999997E+02  0.45594000000E+02  0.51100000000E-03 0. -1.
    9900012    2    1    2    0    0 -0.38844067244E+01 -0.10270563064E+02  0.15169254298E+02  0.72461565283E+02  0.69999993471E+02 0.  0.
         12    1    1    2    0    0  0.38844067244E+01  0.10270563064E+02 -0.15169254298E+02  0.18726434717E+02  0.00000000000E+00 0. -1.
         11    1    3    3    0    0  0.15499184115E+02  0.10079459839E+01  0.32096091552E+02  0.35656693011E+02  0.51100000000E-03 0. -1.
        -11    1    3    3    0    0  0.47864721772E+01 -0.18952328280E+01  0.10510664214E+01  0.52542329848E+01  0.51100000000E-03 0.  1.
        -12    1    3    3    0    0 -0.24170063017E+02 -0.93832762198E+01 -0.17977903675E+02  0.31550639287E+02  0.00000000000E+00 0.  1.
</event>
<event>
 7    1  0.3050261E-013  0.7246159E+02  0.7816164E-02  0.1226708E+00
        -11   -1    0    0    0    0  0.00000000000E+00  0.00000000000E+00  0.45593999997E+02  0.45594000000E+02  0.51100000000E-03 0.  1.
         11   -1    0    0    0    0 -0.00000000000E+00 -0.00000000000E+00 -0.45593999997E+02  0.45594000000E+02  0.51100000000E-03 0. -1.
    9900012    2    1    2    0    0 -0.48984930243E+01  0.12418476313E+02  0.13132582805E+02  0.72461587664E+02  0.70000022627E+02 0.  0.
         12    1    1    2    0    0  0.48984930243E+01 -0.12418476313E+02 -0.13132582805E+02  0.18726412336E+02  0.00000000000E+00 0. -1.
         11    1    3    3    0    0 -0.86856523636E+01  0.37770287849E+01 -0.54875300413E+01  0.10946208916E+02  0.51100000000E-03 0. -1.
        -11    1    3    3    0    0  0.30263102391E+02  0.14080408870E+01  0.15080893082E+02  0.33841856951E+02  0.51100000000E-03 0.  1.
         12    1    3    3    0    0 -0.26475943052E+02  0.72334066411E+01  0.35392197648E+01  0.27673521797E+02  0.00000000000E+00 0. -1.
</event>
<event>
 7    1  0.3050261E-013  0.7246176E+02  0.7816164E-02  0.1226708E+00
        -11   -1    0    0    0    0  0.00000000000E+00  0.00000000000E+00  0.45593999997E+02  0.45594000000E+02  0.51100000000E-03 0.  1.
         11   -1    0    0    0    0 -0.00000000000E+00 -0.00000000000E+00 -0.45593999997E+02  0.45594000000E+02  0.51100000000E-03 0. -1.
    9900012    2    1    2    0    0 -0.14354765171E+02 -0.72748013804E+01  0.95755000308E+01  0.72461755874E+02  0.70000241751E+02 0.  0.
         12    1    1    2    0    0  0.14354765171E+02  0.72748013804E+01 -0.95755000308E+01  0.18726244126E+02  0.00000000000E+00 0. -1.
         11    1    3    3    0    0 -0.33192389701E+01 -0.11469043769E+02  0.24552609426E+01  0.12189529067E+02  0.51100000000E-03 0. -1.
        -11    1    3    3    0    0 -0.87427647875E+01  0.99555510441E+01  0.31998361513E+02  0.34632991099E+02  0.51100000000E-03 0.  1.
         12    1    3    3    0    0 -0.22927614132E+01 -0.57613086557E+01 -0.24878122424E+02  0.25639235708E+02  0.00000000000E+00 0. -1.
</event>
<event>
 7    1  0.3050261E-013  0.7246154E+02  0.7816164E-02  0.1226708E+00
        -11   -1    0    0    0    0  0.00000000000E+00  0.00000000000E+00  0.45593999997E+02  0.45594000000E+02  0.51100000000E-03 0. -1.
         11   -1    0    0    0    0 -0.00000000000E+00 -0.00000000000E+00 -0.45593999997E+02  0.45594000000E+02  0.51100000000E-03 0.  1.
    9900012    2    1    2    0    0 -0.42697889298E+00  0.64404386774E+01 -0.17578928700E+02  0.72461540228E+02  0.69999960834E+02 0.  0.
         12    1    1    2    0    0  0.42697889298E+00 -0.64404386774E+01  0.17578928700E+02  0.18726459772E+02  0.00000000000E+00 0. -1.
         11    1    3    3    0    0  0.42674116032E+01  0.12111066714E+02 -0.50685072824E+01  0.13805017388E+02  0.51100000000E-03 0. -1.
        -11    1    3    3    0    0 -0.13705002179E+02  0.22668317967E+02 -0.24776702746E+00  0.26490396617E+02  0.51100000000E-03 0.  1.
         12    1    3    3    0    0  0.90106116826E+01 -0.28338946004E+02 -0.12262654390E+02  0.32166126223E+02  0.00000000000E+00 0. -1.
</event>
<event>
 7    1  0.3050261E-013  0.7246156E+02  0.7816164E-02  0.1226708E+00
        -11   -1    0    0    0    0  0.00000000000E+00  0.00000000000E+00  0.45593999997E+02  0.45594000000E+02  0.51100000000E-03 0. -1.
         11   -1    0    0    0    0 -0.00000000000E+00 -0.00000000000E+00 -0.45593999997E+02  0.45594000000E+02  0.51100000000E-03 0.  1.
    9900012    2    1    2    0    0 -0.16656052147E+02 -0.13242184215E+01 -0.84558705743E+01  0.72461564815E+02  0.69999992862E+02 0.  0.
         12    1    1    2    0    0  0.16656052147E+02  0.13242184215E+01  0.84558705743E+01  0.18726435185E+02  0.00000000000E+00 0. -1.
         11    1    3    3    0    0 -0.26738242749E+01 -0.13458279796E+02  0.95612063366E+01  0.16723973756E+02  0.51100000000E-03 0. -1.
        -11    1    3    3    0    0 -0.17969246828E+02 -0.85482275634E+01  0.86987762437E+01  0.21717153001E+02  0.51100000000E-03 0.  1.
        -12    1    3    3    0    0  0.39870189559E+01  0.20682288938E+02 -0.26715853155E+02  0.34020438058E+02  0.00000000000E+00 0.  1.
</event>
<event>
 7    1  0.3050261E-013  0.7246174E+02  0.7816164E-02  0.1226708E+00
        -11   -1    0    0    0    0  0.00000000000E+00  0.00000000000E+00  0.45593999997E+02  0.45594000000E+02  0.51100000000E-03 0.  1.
         11   -1    0    0    0    0 -0.00000000000E+00 -0.00000000000E+00 -0.45593999997E+02  0.45594000000E+02  0.51100000000E-03 0. -1.
    9900012    2    1    2    0    0 -0.41486870220E+01  0.52697574388E+01  0.17484012994E+02  0.72461744158E+02  0.70000226490E+02 0.  0.
         12    1    1    2    0    0  0.41486870220E+01 -0.52697574388E+01 -0.17484012994E+02  0.18726255842E+02  0.00000000000E+00 0. -1.
         11    1    3    3    0    0  0.59884873071E+01  0.34824469528E+01 -0.40214595102E+01  0.80100907523E+01  0.51100000000E-03 0. -1.
        -11    1    3    3    0    0  0.24909466509E+02  0.24906320985E+01  0.13708318494E+02  0.28541246753E+02  0.51100000000E-03 0.  1.
        -12    1    3    3    0    0 -0.35046640838E+02 -0.70332161254E+00  0.77971540106E+01  0.35910406653E+02  0.00000000000E+00 0.  1.
</event>
<event>
 7    1  0.3050261E-013  0.7246153E+02  0.7816164E-02  0.1226708E+00
        -11   -1    0    0    0    0  0.00000000000E+00  0.00000000000E+00  0.45593999997E+02  0.45594000000E+02  0.51100000000E-03 0.  1.
         11   -1    0    0    0    0 -0.00000000000E+00 -0.00000000000E+00 -0.45593999997E+02  0.45594000000E+02  0.51100000000E-03 0. -1.
    9900012    2    1    2    0    0 -0.16978445123E+02  0.50036889204E+01 -0.61135972703E+01  0.72461532816E+02  0.69999951178E+02 0.  0.
         12    1    1    2    0    0  0.16978445123E+02 -0.50036889204E+01  0.61135972703E+01  0.18726467184E+02  0.00000000000E+00 0. -1.
         11    1    3    3    0    0  0.30361616673E+01  0.10117641145E+02 -0.21359041317E+01  0.10777152997E+02  0.51100000000E-03 0. -1.
        -11    1    3    3    0    0 -0.13461858107E+01  0.21064914505E+02  0.13531424074E+02  0.25072739720E+02  0.51100000000E-03 0.  1.
         12    1    3    3    0    0 -0.18668420980E+02 -0.26178866730E+02 -0.17509117213E+02  0.36611640098E+02  0.00000000000E+00 0. -1.
</event>
<event>
 7    1  0.3050261E-013  0.7246156E+02  0.7816164E-02  0.1226708E+00
        -11   -1    0    0    0    0  0.00000000000E+00  0.00000000000E+00  0.45593999997E+02  0.45594000000E+02  0.51100000000E-03 0. -1.
         11   -1    0    0    0    0 -0.00000000000E+00 -0.00000000000E+00 -0.45593999997E+02  0.45594000000E+02  0.51100000000E-03 0.  1.
    9900012    2    1    2    0    0  0.19970029014E+00  0.17496687970E+02 -0.66712615039E+01  0.72461556126E+02  0.69999981543E+02 0.  0.
         12    1    1    2    0    0 -0.19970029014E+00 -0.17496687970E+02  0.66712615039E+01  0.18726443874E+02  0.00000000000E+00 0. -1.
         11    1    3    3    0    0 -0.21438753341E+02  0.14554007221E+02 -0.49878169349E+01  0.26387830321E+02  0.51100000000E-03 0. -1.
        -11    1    3    3    0    0  0.95811936159E+01  0.17014068709E+02 -0.13820280339E+02  0.23922331701E+02  0.51100000000E-03 0.  1.
         12    1    3    3    0    0  0.12057260016E+02 -0.14071387960E+02  0.12136835770E+02  0.22151394103E+02  0.00000000000E+00 0. -1.
</event>
<event>
 7    1  0.3050261E-013  0.7246160E+02  0.7816164E-02  0.1226708E+00
        -11   -1    0    0    0    0  0.00000000000E+00  0.00000000000E+00  0.45593999997E+02  0.45594000000E+02  0.51100000000E-03 0.  1.
         11   -1    0    0    0    0 -0.00000000000E+00 -0.00000000000E+00 -0.45593999997E+02  0.45594000000E+02  0.51100000000E-03 0. -1.
    9900012    2    1    2    0    0 -0.13948202369E+02  0.36675427482E+01  0.11944651643E+02  0.72461603603E+02  0.70000043391E+02 0.  0.
         12    1    1    2    0    0  0.13948202369E+02 -0.36675427482E+01 -0.11944651643E+02  0.18726396397E+02  0.00000000000E+00 0. -1.
         11    1    3    3    0    0 -0.77566355527E+01 -0.10910259725E+02  0.40053270645E+01  0.13972895459E+02  0.51100000000E-03 0. -1.
        -11    1    3    3    0    0  0.11255611944E+01 -0.59488943164E+01  0.28134107198E+02  0.28778190000E+02  0.51100000000E-03 0.  1.
        -12    1    3    3    0    0 -0.73171280107E+01  0.20526696789E+02 -0.20194782619E+02  0.29710518145E+02  0.00000000000E+00 0.  1.
</event>
<event>
 7    1  0.3050261E-013  0.7246159E+02  0.7816164E-02  0.1226708E+00
        -11   -1    0    0    0    0  0.00000000000E+00  0.00000000000E+00  0.45593999997E+02  0.45594000000E+02  0.51100000000E-03 0. -1.
         11   -1    0    0    0    0 -0.00000000000E+00 -0.00000000000E+00 -0.45593999997E+02  0.45594000000E+02  0.51100000000E-03 0.  1.
    9900012    2    1    2    0    0 -0.12137947691E+02  0.12091531811E+02 -0.75593441477E+01  0.72461585511E+02  0.70000019823E+02 0.  0.
         12    1    1    2    0    0  0.12137947691E+02 -0.12091531811E+02  0.75593441477E+01  0.18726414489E+02  0.00000000000E+00 0. -1.
         11    1    3    3    0    0 -0.48790059770E+01 -0.33243619494E+01 -0.24755515542E+02  0.25449786476E+02  0.51100000000E-03 0. -1.
        -11    1    3    3    0    0 -0.12329735221E+02  0.12566099144E+02 -0.92822554726E+01  0.19901997016E+02  0.51100000000E-03 0.  1.
         12    1    3    3    0    0  0.50707935076E+01  0.28497946162E+01  0.26478426867E+02  0.27109802019E+02  0.00000000000E+00 0. -1.
</event>
<event>
 7    1  0.3050261E-013  0.7246151E+02  0.7816164E-02  0.1226708E+00
        -11   -1    0    0    0    0  0.00000000000E+00  0.00000000000E+00  0.45593999997E+02  0.45594000000E+02  0.51100000000E-03 0.  1.
         11   -1    0    0    0    0 -0.00000000000E+00 -0.00000000000E+00 -0.45593999997E+02  0.45594000000E+02  0.51100000000E-03 0. -1.
    9900012    2    1    2    0    0  0.63464103707E+01  0.41410057878E+01  0.17124731834E+02  0.72461513573E+02  0.69999926110E+02 0.  0.
         12    1    1    2    0    0 -0.63464103707E+01 -0.41410057878E+01 -0.17124731834E+02  0.18726486427E+02  0.00000000000E+00 0. -1.
         11    1    3    3    0    0 -0.18964477334E+02  0.17287975602E+02 -0.77022375778E+01  0.26792722238E+02  0.51100000000E-03 0. -1.
        -11    1    3    3    0    0 -0.13660617406E+01  0.24577003310E+01 -0.29783343080E+01  0.40959603400E+01  0.51100000000E-03 0.  1.
        -12    1    3    3    0    0  0.26676949445E+02 -0.15604670145E+02  0.27805303720E+02  0.41572830995E+02  0.00000000000E+00 0.  1.
</event>
<event>
 7    1  0.3050261E-013  0.7246141E+02  0.7816164E-02  0.1226708E+00
        -11   -1    0    0    0    0  0.00000000000E+00  0.00000000000E+00  0.45593999997E+02  0.45594000000E+02  0.51100000000E-03 0.  1.
         11   -1    0    0    0    0 -0.00000000000E+00 -0.00000000000E+00 -0.45593999997E+02  0.45594000000E+02  0.51100000000E-03 0. -1.
    9900012    2    1    2    0    0  0.17300568539E+02  0.41403210874E+01 -0.58509283863E+01  0.72461406784E+02  0.69999786997E+02 0.  0.
         12    1    1    2    0    0 -0.17300568539E+02 -0.41403210874E+01  0.58509283863E+01  0.18726593216E+02  0.00000000000E+00 0. -1.
         11    1    3    3    0    0  0.42337942322E+01  0.23794292418E+01 -0.35371731652E+02  0.35703586618E+02  0.51100000000E-03 0. -1.
        -11    1    3    3    0    0  0.45848550462E+00  0.57268024247E+01  0.17559806380E+01  0.60074905936E+01  0.51100000000E-03 0.  1.
        -12    1    3    3    0    0  0.12608288803E+02 -0.39659105791E+01  0.27764822627E+02  0.30750329572E+02  0.00000000000E+00 0.  1.
</event>
<event>
 7    1  0.3050261E-013  0.7246156E+02  0.7816164E-02  0.1226708E+00
        -11   -1    0    0    0    0  0.00000000000E+00  0.00000000000E+00  0.45593999997E+02  0.45594000000E+02  0.51100000000E-03 0.  1.
         11   -1    0    0    0    0 -0.00000000000E+00 -0.00000000000E+00 -0.45593999997E+02  0.45594000000E+02  0.51100000000E-03 0. -1.
    9900012    2    1    2    0    0  0.79781196994E+01  0.19547837521E+01  0.16828782477E+02  0.72461561654E+02  0.69999988745E+02 0.  0.
         12    1    1    2    0    0 -0.79781196994E+01 -0.19547837521E+01 -0.16828782477E+02  0.18726438346E+02  0.00000000000E+00 0. -1.
         11    1    3    3    0    0  0.90690873463E+01  0.17082559073E+02  0.58534440479E+00  0.19349542581E+02  0.51100000000E-03 0. -1.
        -11    1    3    3    0    0  0.16992142438E+02 -0.19371820682E+02  0.21769511686E+02  0.33732950960E+02  0.51100000000E-03 0.  1.
         12    1    3    3    0    0 -0.18083110085E+02  0.42440453611E+01 -0.55260736132E+01  0.19379068113E+02  0.00000000000E+00 0. -1.
</event>
<event>
 7    1  0.3050261E-013  0.7246158E+02  0.7816164E-02  0.1226708E+00
        -11   -1    0    0    0    0  0.00000000000E+00  0.00000000000E+00  0.45593999997E+02  0.45594000000E+02  0.51100000000E-03 0.  1.
         11   -1    0    0    0    0 -0.00000000000E+00 -0.00000000000E+00 -0.45593999997E+02  0.45594000000E+02  0.51100000000E-03 0. -1.
    9900012    2    1    2    0    0 -0.17167406508E+02  0.11505005721E+01  0.73915717806E+01  0.72461579329E+02  0.70000011769E+02 0.  0.
         12    1    1    2    0    0  0.17167406508E+02 -0.11505005721E+01 -0.73915717806E+01  0.18726420671E+02  0.00000000000E+00 0. -1.
         11    1    3    3    0    0  0.85209091334E+00 -0.72682808038E+01  0.89139861350E+01  0.11533131138E+02  0.51100000000E-03 0. -1.
        -11    1    3    3    0    0 -0.14661018005E+02 -0.24081322027E+02 -0.18476233581E+01  0.28253658734E+02  0.51100000000E-03 0.  1.
         12    1    3    3    0    0 -0.33584794164E+01  0.32500103403E+02  0.32520900363E+00  0.32674789457E+02  0.00000000000E+00 0. -1.
</event>
<event>
 7    1  0.3050261E-013  0.7246157E+02  0.7816164E-02  0.1226708E+00
        -11   -1    0    0    0    0  0.00000000000E+00  0.00000000000E+00  0.45593999997E+02  0.45594000000E+02  0.51100000000E-03 0. -1.
         11   -1    0    0    0    0 -0.00000000000E+00 -0.00000000000E+00 -0.45593999997E+02  0.45594000000E+02  0.51100000000E-03 0.  1.
    9900012    2    1    2    0    0  0.16835191839E+02 -0.27421811085E+01 -0.77288926585E+01  0.72461574201E+02  0.70000005089E+02 0.  0.
         12    1    1    2    0    0 -0.16835191839E+02  0.27421811085E+01  0.77288926585E+01  0.18726425799E+02  0.00000000000E+00 0. -1.
         11    1    3    3    0    0  0.27869754774E+01  0.37026618978E+01  0.78915997598E+01  0.91517366915E+01  0.51100000000E-03 0. -1.
        -11    1    3    3    0    0 -0.57171227065E+01 -0.29808967983E+02 -0.41825283769E+01  0.30639086281E+02  0.51100000000E-03 0.  1.
         12    1    3    3    0    0  0.19765339068E+02  0.23364124977E+02 -0.11437964041E+02  0.32670751228E+02  0.00000000000E+00 0. -1.
</event>
<event>
 7    1  0.3050261E-013  0.7246156E+02  0.7816164E-02  0.1226708E+00
        -11   -1    0    0    0    0  0.00000000000E+00  0.00000000000E+00  0.45593999997E+02  0.45594000000E+02  0.51100000000E-03 0.  1.
         11   -1    0    0    0    0 -0.00000000000E+00 -0.00000000000E+00 -0.45593999997E+02  0.45594000000E+02  0.51100000000E-03 0. -1.
    9900012    2    1    2    0    0  0.99513284102E+01 -0.10623175126E+02  0.11781296116E+02  0.72461555462E+02  0.69999980678E+02 0.  0.
         12    1    1    2    0    0 -0.99513284102E+01  0.10623175126E+02 -0.11781296116E+02  0.18726444538E+02  0.00000000000E+00 0. -1.
         11    1    3    3    0    0  0.32128338213E+02 -0.13822612104E+02 -0.33477133742E+01  0.35135479316E+02  0.51100000000E-03 0. -1.
        -11    1    3    3    0    0  0.11940879785E+01 -0.73880682235E+01 -0.10916413164E+00  0.74847388228E+01  0.51100000000E-03 0.  1.
        -12    1    3    3    0    0 -0.23371097781E+02  0.10587505201E+02  0.15238173621E+02  0.29841337323E+02  0.00000000000E+00 0.  1.
</event>
<event>
 7    1  0.3050261E-013  0.7246160E+02  0.7816164E-02  0.1226708E+00
        -11   -1    0    0    0    0  0.00000000000E+00  0.00000000000E+00  0.45593999997E+02  0.45594000000E+02  0.51100000000E-03 0. -1.
         11   -1    0    0    0    0 -0.00000000000E+00 -0.00000000000E+00 -0.45593999997E+02  0.45594000000E+02  0.51100000000E-03 0.  1.
    9900012    2    1    2    0    0  0.16399780983E+02 -0.34647535625E+01 -0.83499035074E+01  0.72461595590E+02  0.70000032953E+02 0.  0.
         12    1    1    2    0    0 -0.16399780983E+02  0.34647535625E+01  0.83499035074E+01  0.18726404410E+02  0.00000000000E+00 0. -1.
         11    1    3    3    0    0 -0.97000336911E+01 -0.24249781506E+00  0.22698143160E+02  0.24685120254E+02  0.51100000000E-03 0. -1.
        -11    1    3    3    0    0 -0.40798623598E+01 -0.88677432256E+00  0.31695227733E+00  0.41871356058E+01  0.51100000000E-03 0.  1.
        -12    1    3    3    0    0  0.30179677034E+02 -0.23354814249E+01 -0.31364998944E+02  0.43589339730E+02  0.00000000000E+00 0.  1.
</event>
<event>
 7    1  0.3050261E-013  0.7246153E+02  0.7816164E-02  0.1226708E+00
        -11   -1    0    0    0    0  0.00000000000E+00  0.00000000000E+00  0.45593999997E+02  0.45594000000E+02  0.51100000000E-03 0.  1.
         11   -1    0    0    0    0 -0.00000000000E+00 -0.00000000000E+00 -0.45593999997E+02  0.45594000000E+02  0.51100000000E-03 0. -1.
    9900012    2    1    2    0    0  0.99024138016E+01 -0.86959431215E+01 -0.13304269648E+02  0.72461526313E+02  0.69999942706E+02 0.  0.
         12    1    1    2    0    0 -0.99024138016E+01  0.86959431215E+01  0.13304269648E+02  0.18726473687E+02  0.00000000000E+00 0. -1.
         11    1    3    3    0    0 -0.28841160470E+01  0.25758734869E+02  0.25636327812E+01  0.26046165951E+02  0.51100000000E-03 0. -1.
        -11    1    3    3    0    0 -0.41155454585E+01  0.91991146369E+00 -0.28450353592E+00  0.42266883071E+01  0.51100000000E-03 0.  1.
        -12    1    3    3    0    0  0.16902075307E+02 -0.35374589454E+02 -0.15583398894E+02  0.42188672056E+02  0.00000000000E+00 0.  1.
</event>
<event>
 7    1  0.3050261E-013  0.7246156E+02  0.7816164E-02  0.1226708E+00
        -11   -1    0    0    0    0  0.00000000000E+00  0.00000000000E+00  0.45593999997E+02  0.45594000000E+02  0.51100000000E-03 0.  1.
         11   -1    0    0    0    0 -0.00000000000E+00 -0.00000000000E+00 -0.45593999997E+02  0.45594000000E+02  0.51100000000E-03 0. -1.
    9900012    2    1    2    0    0 -0.14669995523E+02 -0.80356530417E+01  0.84201586158E+01  0.72461559880E+02  0.69999986433E+02 0.  0.
         12    1    1    2    0    0  0.14669995523E+02  0.80356530417E+01 -0.84201586158E+01  0.18726440120E+02  0.00000000000E+00 0. -1.
         11    1    3    3    0    0  0.15532726539E+02 -0.74338054732E+01  0.67206978617E+01  0.18484989520E+02  0.51100000000E-03 0. -1.
        -11    1    3    3    0    0 -0.98895352405E+01  0.20530897288E+02  0.77037127165E+01  0.24055515804E+02  0.51100000000E-03 0.  1.
        -12    1    3    3    0    0 -0.20313186822E+02 -0.21132744857E+02 -0.60042519624E+01  0.29921054555E+02  0.00000000000E+00 0.  1.
</event>
<event>
 7    1  0.3050261E-013  0.7246158E+02  0.7816164E-02  0.1226708E+00
        -11   -1    0    0    0    0  0.00000000000E+00  0.00000000000E+00  0.45593999997E+02  0.45594000000E+02  0.51100000000E-03 0.  1.
         11   -1    0    0    0    0 -0.00000000000E+00 -0.00000000000E+00 -0.45593999997E+02  0.45594000000E+02  0.51100000000E-03 0. -1.
    9900012    2    1    2    0    0 -0.48873643155E+01  0.16096305229E+02  0.82280805054E+01  0.72461583344E+02  0.70000017000E+02 0.  0.
         12    1    1    2    0    0  0.48873643155E+01 -0.16096305229E+02 -0.82280805054E+01  0.18726416656E+02  0.00000000000E+00 0. -1.
         11    1    3    3    0    0 -0.16262111595E+02  0.77456193487E+01  0.11066409702E+02  0.21140395374E+02  0.51100000000E-03 0. -1.
        -11    1    3    3    0    0 -0.85688186985E+01  0.80911124188E+01  0.18612814417E+02  0.22030152402E+02  0.51100000000E-03 0.  1.
        -12    1    3    3    0    0  0.19943565978E+02  0.25957346136E+00 -0.21451143613E+02  0.29291035568E+02  0.00000000000E+00 0.  1.
</event>
<event>
 7    1  0.3050261E-013  0.7246159E+02  0.7816164E-02  0.1226708E+00
        -11   -1    0    0    0    0  0.00000000000E+00  0.00000000000E+00  0.45593999997E+02  0.45594000000E+02  0.51100000000E-03 0. -1.
         11   -1    0    0    0    0 -0.00000000000E+00 -0.00000000000E+00 -0.45593999997E+02  0.45594000000E+02  0.51100000000E-03 0.  1.
    9900012    2    1    2    0    0  0.10865067324E+02  0.15174679506E+02  0.15355253570E+01  0.72461590195E+02  0.70000025924E+02 0.  0.
         12    1    1    2    0    0 -0.10865067324E+02 -0.15174679506E+02 -0.15355253570E+01  0.18726409805E+02  0.00000000000E+00 0. -1.
         11    1    3    3    0    0 -0.73403799029E+01 -0.45824564207E+01 -0.65803158068E+01  0.10871091957E+02  0.51100000000E-03 0.  1.
        -11    1    3    3    0    0  0.28928059689E+02  0.74629799405E+01  0.24375728842E+02  0.38557811969E+02  0.51100000000E-03 0. -1.
         12    1    3    3    0    0 -0.10722612462E+02  0.12294155986E+02 -0.16259887678E+02  0.23032686268E+02  0.00000000000E+00 0. -1.
</event>
<event>
 7    1  0.3050261E-013  0.7246144E+02  0.7816164E-02  0.1226708E+00
        -11   -1    0    0    0    0  0.00000000000E+00  0.00000000000E+00  0.45593999997E+02  0.45594000000E+02  0.51100000000E-03 0.  1.
         11   -1    0    0    0    0 -0.00000000000E+00 -0.00000000000E+00 -0.45593999997E+02  0.45594000000E+02  0.51100000000E-03 0. -1.
    9900012    2    1    2    0    0  0.57636664774E+01  0.38454868741E+01  0.17397600728E+02  0.72461437805E+02  0.69999827408E+02 0.  0.
         12    1    1    2    0    0 -0.57636664774E+01 -0.38454868741E+01 -0.17397600728E+02  0.18726562195E+02  0.00000000000E+00 0. -1.
         11    1    3    3    0    0 -0.12066785573E+02  0.12866861105E+02 -0.34934642065E+01  0.17982428122E+02  0.51100000000E-03 0. -1.
        -11    1    3    3    0    0 -0.47070835116E+01  0.13896716745E+02  0.16430150903E+02  0.22027828546E+02  0.51100000000E-03 0.  1.
        -12    1    3    3    0    0  0.22537535562E+02 -0.22918090976E+02  0.44609140312E+01  0.32451181137E+02  0.00000000000E+00 0.  1.
</event>
<event>
 7    1  0.3050261E-013  0.7246155E+02  0.7816164E-02  0.1226708E+00
        -11   -1    0    0    0    0  0.00000000000E+00  0.00000000000E+00  0.45593999997E+02  0.45594000000E+02  0.51100000000E-03 0.  1.
         11   -1    0    0    0    0 -0.00000000000E+00 -0.00000000000E+00 -0.45593999997E+02  0.45594000000E+02  0.51100000000E-03 0. -1.
    9900012    2    1    2    0    0 -0.61650253608E+01 -0.17680051103E+02  0.29712085581E+00  0.72461547439E+02  0.69999970227E+02 0.  0.
         12    1    1    2    0    0  0.61650253608E+01  0.17680051103E+02 -0.29712085581E+00  0.18726452561E+02  0.00000000000E+00 0. -1.
         11    1    3    3    0    0  0.22472200657E+02 -0.38756324458E+01 -0.21526238884E+02  0.31359197853E+02  0.51100000000E-03 0. -1.
        -11    1    3    3    0    0  0.12465731067E+01  0.88216588873E+00  0.11079802809E+01  0.18867383840E+01  0.51100000000E-03 0.  1.
        -12    1    3    3    0    0 -0.29883799125E+02 -0.14686584546E+02  0.20715379459E+02  0.39215611202E+02  0.00000000000E+00 0.  1.
</event>
<event>
 7    1  0.3050261E-013  0.7246151E+02  0.7816164E-02  0.1226708E+00
        -11   -1    0    0    0    0  0.00000000000E+00  0.00000000000E+00  0.45593999997E+02  0.45594000000E+02  0.51100000000E-03 0. -1.
         11   -1    0    0    0    0 -0.00000000000E+00 -0.00000000000E+00 -0.45593999997E+02  0.45594000000E+02  0.51100000000E-03 0.  1.
    9900012    2    1    2    0    0  0.40282820931E+01 -0.11532626791E+02 -0.14193406122E+02  0.72461513019E+02  0.69999925388E+02 0.  0.
         12    1    1    2    0    0 -0.40282820931E+01  0.11532626791E+02  0.14193406122E+02  0.18726486981E+02  0.00000000000E+00 0. -1.
         11    1    3    3    0    0  0.42525209275E+00  0.22481856695E+01  0.66610178576E+01  0.70430346660E+01  0.51100000000E-03 0. -1.
        -11    1    3    3    0    0  0.11581673998E+02 -0.34156266170E+02 -0.23985270050E+02  0.43313726126E+02  0.51100000000E-03 0.  1.
         12    1    3    3    0    0 -0.79786439980E+01  0.20375453709E+02  0.31308460704E+01  0.22104752227E+02  0.00000000000E+00 0. -1.
</event>
<event>
 7    1  0.3050261E-013  0.7246151E+02  0.7816164E-02  0.1226708E+00
        -11   -1    0    0    0    0  0.00000000000E+00  0.00000000000E+00  0.45593999997E+02  0.45594000000E+02  0.51100000000E-03 0. -1.
         11   -1    0    0    0    0 -0.00000000000E+00 -0.00000000000E+00 -0.45593999997E+02  0.45594000000E+02  0.51100000000E-03 0.  1.
    9900012    2    1    2    0    0 -0.65380303292E+01  0.34531782063E+01 -0.17204973018E+02  0.72461511358E+02  0.69999923225E+02 0.  0.
         12    1    1    2    0    0  0.65380303292E+01 -0.34531782063E+01  0.17204973018E+02  0.18726488642E+02  0.00000000000E+00 0. -1.
         11    1    3    3    0    0  0.79082847240E-01  0.10513362983E+02 -0.20203398621E+02  0.22775301785E+02  0.51100000000E-03 0. -1.
        -11    1    3    3    0    0  0.79523968611E+01 -0.17444910989E+02 -0.14973786999E+02  0.24326525288E+02  0.51100000000E-03 0.  1.
         12    1    3    3    0    0 -0.14569510038E+02  0.10384726212E+02  0.17972212602E+02  0.25359684285E+02  0.00000000000E+00 0. -1.
</event>
<event>
 7    1  0.3050261E-013  0.7246155E+02  0.7816164E-02  0.1226708E+00
        -11   -1    0    0    0    0  0.00000000000E+00  0.00000000000E+00  0.45593999997E+02  0.45594000000E+02  0.51100000000E-03 0.  1.
         11   -1    0    0    0    0 -0.00000000000E+00 -0.00000000000E+00 -0.45593999997E+02  0.45594000000E+02  0.51100000000E-03 0. -1.
    9900012    2    1    2    0    0 -0.17618382483E+02 -0.62609736591E+01 -0.10356987903E+01  0.72461551740E+02  0.69999975829E+02 0.  0.
         12    1    1    2    0    0  0.17618382483E+02  0.62609736591E+01  0.10356987903E+01  0.18726448260E+02  0.00000000000E+00 0. -1.
         11    1    3    3    0    0  0.10998322340E+02  0.12579737003E+02 -0.90734996082E+01  0.19014238685E+02  0.51100000000E-03 0. -1.
        -11    1    3    3    0    0  0.35332477481E+01 -0.62850602764E+01 -0.11658622461E+02  0.13708001323E+02  0.51100000000E-03 0.  1.
        -12    1    3    3    0    0 -0.32149952571E+02 -0.12555650386E+02  0.19696423279E+02  0.39739311732E+02  0.00000000000E+00 0.  1.
</event>
<event>
 7    1  0.3050261E-013  0.7246158E+02  0.7816164E-02  0.1226708E+00
        -11   -1    0    0    0    0  0.00000000000E+00  0.00000000000E+00  0.45593999997E+02  0.45594000000E+02  0.51100000000E-03 0.  1.
         11   -1    0    0    0    0 -0.00000000000E+00 -0.00000000000E+00 -0.45593999997E+02  0.45594000000E+02  0.51100000000E-03 0. -1.
    9900012    2    1    2    0    0 -0.18594280648E+02 -0.11322186914E+01  0.19103982876E+01  0.72461579798E+02  0.70000012380E+02 0.  0.
         12    1    1    2    0    0  0.18594280648E+02  0.11322186914E+01 -0.19103982876E+01  0.18726420202E+02  0.00000000000E+00 0. -1.
         11    1    3    3    0    0  0.16229867747E+01 -0.79306545812E+01 -0.14971299775E+01  0.82323002003E+01  0.51100000000E-03 0. -1.
        -11    1    3    3    0    0 -0.18218540665E+02 -0.21260062208E+02 -0.13840863054E+02  0.31232594503E+02  0.51100000000E-03 0.  1.
         12    1    3    3    0    0 -0.19987267575E+01  0.28058498098E+02  0.17248391319E+02  0.32996685095E+02  0.00000000000E+00 0. -1.
</event>
<event>
 7    1  0.3050261E-013  0.7246155E+02  0.7816164E-02  0.1226708E+00
        -11   -1    0    0    0    0  0.00000000000E+00  0.00000000000E+00  0.45593999997E+02  0.45594000000E+02  0.51100000000E-03 0.  1.
         11   -1    0    0    0    0 -0.00000000000E+00 -0.00000000000E+00 -0.45593999997E+02  0.45594000000E+02  0.51100000000E-03 0. -1.
    9900012    2    1    2    0    0 -0.17114707558E+02  0.48339572372E+01 -0.58651157787E+01  0.72461549710E+02  0.69999973185E+02 0.  0.
         12    1    1    2    0    0  0.17114707558E+02 -0.48339572372E+01  0.58651157787E+01  0.18726450290E+02  0.00000000000E+00 0. -1.
         11    1    3    3    0    0 -0.13733120118E+02  0.19069899035E+02  0.13660896555E+02  0.27182342289E+02  0.51100000000E-03 0. -1.
        -11    1    3    3    0    0 -0.14540596010E+02 -0.45636496188E+01  0.55158113969E+01  0.16207405894E+02  0.51100000000E-03 0.  1.
         12    1    3    3    0    0  0.11159008570E+02 -0.96722921787E+01 -0.25041823731E+02  0.29071801527E+02  0.00000000000E+00 0. -1.
</event>
<event>
 7    1  0.3050261E-013  0.7246159E+02  0.7816164E-02  0.1226708E+00
        -11   -1    0    0    0    0  0.00000000000E+00  0.00000000000E+00  0.45593999997E+02  0.45594000000E+02  0.51100000000E-03 0. -1.
         11   -1    0    0    0    0 -0.00000000000E+00 -0.00000000000E+00 -0.45593999997E+02  0.45594000000E+02  0.51100000000E-03 0.  1.
    9900012    2    1    2    0    0 -0.57585323296E+00  0.30385650749E+01 -0.18469267194E+02  0.72461593101E+02  0.70000029710E+02 0.  0.
         12    1    1    2    0    0  0.57585323296E+00 -0.30385650749E+01  0.18469267194E+02  0.18726406899E+02  0.00000000000E+00 0. -1.
         11    1    3    3    0    0 -0.29622310027E+02  0.53550583893E+01 -0.91565929481E+01  0.31464282868E+02  0.51100000000E-03 0. -1.
        -11    1    3    3    0    0  0.31334963823E+01  0.30660820058E+01  0.81744306172E+01  0.92758274359E+01  0.51100000000E-03 0.  1.
        -12    1    3    3    0    0  0.25912960412E+02 -0.53825753203E+01 -0.17487104863E+02  0.31721482798E+02  0.00000000000E+00 0.  1.
</event>
<event>
 7    1  0.3050261E-013  0.7246157E+02  0.7816164E-02  0.1226708E+00
        -11   -1    0    0    0    0  0.00000000000E+00  0.00000000000E+00  0.45593999997E+02  0.45594000000E+02  0.51100000000E-03 0. -1.
         11   -1    0    0    0    0 -0.00000000000E+00 -0.00000000000E+00 -0.45593999997E+02  0.45594000000E+02  0.51100000000E-03 0.  1.
    9900012    2    1    2    0    0  0.77848284003E+01 -0.11442461566E+02 -0.12615300691E+02  0.72461567039E+02  0.69999995759E+02 0.  0.
         12    1    1    2    0    0 -0.77848284003E+01  0.11442461566E+02  0.12615300691E+02  0.18726432961E+02  0.00000000000E+00 0. -1.
         11    1    3    3    0    0 -0.13701586338E+01 -0.91571799655E+01 -0.74089030346E+00  0.92887134904E+01  0.51100000000E-03 0. -1.
        -11    1    3    3    0    0  0.29922001564E+02 -0.17245433586E+02 -0.14474835784E+02  0.37446655770E+02  0.51100000000E-03 0.  1.
        -12    1    3    3    0    0 -0.20767014530E+02  0.14960151985E+02  0.26004253962E+01  0.25726197778E+02  0.00000000000E+00 0.  1.
</event>
<event>
 7    1  0.3050261E-013  0.7246153E+02  0.7816164E-02  0.1226708E+00
        -11   -1    0    0    0    0  0.00000000000E+00  0.00000000000E+00  0.45593999997E+02  0.45594000000E+02  0.51100000000E-03 0.  1.
         11   -1    0    0    0    0 -0.00000000000E+00 -0.00000000000E+00 -0.45593999997E+02  0.45594000000E+02  0.51100000000E-03 0. -1.
    9900012    2    1    2    0    0  0.85251870114E+01 -0.14756071814E+02  0.77627502329E+01  0.72461527825E+02  0.69999944675E+02 0.  0.
         12    1    1    2    0    0 -0.85251870114E+01  0.14756071814E+02 -0.77627502329E+01  0.18726472175E+02  0.00000000000E+00 0. -1.
         11    1    3    3    0    0 -0.16403546209E+02 -0.18108727564E+02 -0.41276297863E+01  0.24779823852E+02  0.51100000000E-03 0. -1.
        -11    1    3    3    0    0  0.71069580128E+01 -0.11814407722E+02 -0.88735327549E+01  0.16395995421E+02  0.51100000000E-03 0.  1.
        -12    1    3    3    0    0  0.17821775208E+02  0.15167063472E+02  0.20763912774E+02  0.31285708552E+02  0.00000000000E+00 0.  1.
</event>
<event>
 7    1  0.3050261E-013  0.7246155E+02  0.7816164E-02  0.1226708E+00
        -11   -1    0    0    0    0  0.00000000000E+00  0.00000000000E+00  0.45593999997E+02  0.45594000000E+02  0.51100000000E-03 0. -1.
         11   -1    0    0    0    0 -0.00000000000E+00 -0.00000000000E+00 -0.45593999997E+02  0.45594000000E+02  0.51100000000E-03 0.  1.
    9900012    2    1    2    0    0 -0.16743938009E+02 -0.38053330431E+01 -0.74726022024E+01  0.72461553373E+02  0.69999977957E+02 0.  0.
         12    1    1    2    0    0  0.16743938009E+02  0.38053330431E+01  0.74726022024E+01  0.18726446627E+02  0.00000000000E+00 0. -1.
         11    1    3    3    0    0 -0.27373926582E+01 -0.20822449967E+01 -0.80571730077E+01  0.87605422166E+01  0.51100000000E-03 0. -1.
        -11    1    3    3    0    0  0.13989682861E+02  0.21319627796E+02 -0.74423018905E+01  0.26563614468E+02  0.51100000000E-03 0.  1.
         12    1    3    3    0    0 -0.27996228212E+02 -0.23042715842E+02  0.80268726959E+01  0.37137396688E+02  0.00000000000E+00 0. -1.
</event>
<event>
 7    1  0.3050261E-013  0.7246171E+02  0.7816164E-02  0.1226708E+00
        -11   -1    0    0    0    0  0.00000000000E+00  0.00000000000E+00  0.45593999997E+02  0.45594000000E+02  0.51100000000E-03 0. -1.
         11   -1    0    0    0    0 -0.00000000000E+00 -0.00000000000E+00 -0.45593999997E+02  0.45594000000E+02  0.51100000000E-03 0.  1.
    9900012    2    1    2    0    0 -0.17006256393E+02  0.77361461656E+01 -0.12700948797E+01  0.72461712194E+02  0.70000184850E+02 0.  0.
         12    1    1    2    0    0  0.17006256393E+02 -0.77361461656E+01  0.12700948797E+01  0.18726287806E+02  0.00000000000E+00 0. -1.
         11    1    3    3    0    0 -0.14233177458E+02 -0.42683245680E+01 -0.13809596228E+02  0.20285632438E+02  0.51100000000E-03 0. -1.
        -11    1    3    3    0    0 -0.59724353812E+00  0.22932346912E+02 -0.11513725030E+02  0.25667393695E+02  0.51100000000E-03 0.  1.
         12    1    3    3    0    0 -0.21758353962E+01 -0.10927876178E+02  0.24053226379E+02  0.26508686061E+02  0.00000000000E+00 0. -1.
</event>
<event>
 7    1  0.3050261E-013  0.7246162E+02  0.7816164E-02  0.1226708E+00
        -11   -1    0    0    0    0  0.00000000000E+00  0.00000000000E+00  0.45593999997E+02  0.45594000000E+02  0.51100000000E-03 0. -1.
         11   -1    0    0    0    0 -0.00000000000E+00 -0.00000000000E+00 -0.45593999997E+02  0.45594000000E+02  0.51100000000E-03 0.  1.
    9900012    2    1    2    0    0 -0.15677547625E+02 -0.10218047907E+02  0.69524621763E+00  0.72461618346E+02  0.70000062596E+02 0.  0.
         12    1    1    2    0    0  0.15677547625E+02  0.10218047907E+02 -0.69524621763E+00  0.18726381654E+02  0.00000000000E+00 0. -1.
         11    1    3    3    0    0 -0.32948211768E+01  0.34891497101E+01 -0.11435534353E+02  0.12401671601E+02  0.51100000000E-03 0. -1.
        -11    1    3    3    0    0 -0.53957332092E+01  0.17428181588E+02 -0.10397429229E+02  0.20999094866E+02  0.51100000000E-03 0.  1.
         12    1    3    3    0    0 -0.69869932386E+01 -0.31135379205E+02  0.22528209800E+02  0.39060851880E+02  0.00000000000E+00 0. -1.
</event>
<event>
 7    1  0.3050261E-013  0.7246166E+02  0.7816164E-02  0.1226708E+00
        -11   -1    0    0    0    0  0.00000000000E+00  0.00000000000E+00  0.45593999997E+02  0.45594000000E+02  0.51100000000E-03 0. -1.
         11   -1    0    0    0    0 -0.00000000000E+00 -0.00000000000E+00 -0.45593999997E+02  0.45594000000E+02  0.51100000000E-03 0.  1.
    9900012    2    1    2    0    0  0.80387273532E+01  0.49529719003E+01 -0.16171662443E+02  0.72461662016E+02  0.70000119485E+02 0.  0.
         12    1    1    2    0    0 -0.80387273532E+01 -0.49529719003E+01  0.16171662443E+02  0.18726337984E+02  0.00000000000E+00 0. -1.
         11    1    3    3    0    0  0.32045643071E+01  0.27892135459E+02 -0.87720731605E+01  0.29414107511E+02  0.51100000000E-03 0. -1.
        -11    1    3    3    0    0 -0.40190148153E+01  0.73242114350E+01 -0.79195158096E+01  0.11511528315E+02  0.51100000000E-03 0.  1.
        -12    1    3    3    0    0  0.88531778614E+01 -0.30263374994E+02  0.51992652697E+00  0.31536026190E+02  0.00000000000E+00 0.  1.
</event>
<event>
 7    1  0.3050261E-013  0.7246156E+02  0.7816164E-02  0.1226708E+00
        -11   -1    0    0    0    0  0.00000000000E+00  0.00000000000E+00  0.45593999997E+02  0.45594000000E+02  0.51100000000E-03 0. -1.
         11   -1    0    0    0    0 -0.00000000000E+00 -0.00000000000E+00 -0.45593999997E+02  0.45594000000E+02  0.51100000000E-03 0.  1.
    9900012    2    1    2    0    0  0.71247155228E+01  0.12574820940E+02 -0.11907644588E+02  0.72461556328E+02  0.69999981806E+02 0.  0.
         12    1    1    2    0    0 -0.71247155228E+01 -0.12574820940E+02  0.11907644588E+02  0.18726443672E+02  0.00000000000E+00 0. -1.
         11    1    3    3    0    0 -0.46627074199E+01  0.15808837966E+00  0.16897801538E+01  0.49619743700E+01  0.51100000000E-03 0. -1.
        -11    1    3    3    0    0  0.91851356261E+01  0.36558357185E+02  0.34187556856E+01  0.37849281198E+02  0.51100000000E-03 0.  1.
         12    1    3    3    0    0  0.26022873166E+01 -0.24141624625E+02 -0.17016180428E+02  0.29650300760E+02  0.00000000000E+00 0. -1.
</event>
<event>
 7    1  0.3050261E-013  0.7246160E+02  0.7816164E-02  0.1226708E+00
        -11   -1    0    0    0    0  0.00000000000E+00  0.00000000000E+00  0.45593999997E+02  0.45594000000E+02  0.51100000000E-03 0. -1.
         11   -1    0    0    0    0 -0.00000000000E+00 -0.00000000000E+00 -0.45593999997E+02  0.45594000000E+02  0.51100000000E-03 0.  1.
    9900012    2    1    2    0    0  0.12128734532E+02 -0.12161321879E+02 -0.74615116426E+01  0.72461598659E+02  0.70000036950E+02 0.  0.
         12    1    1    2    0    0 -0.12128734532E+02  0.12161321879E+02  0.74615116426E+01  0.18726401341E+02  0.00000000000E+00 0. -1.
         11    1    3    3    0    0 -0.85263981050E+00 -0.11045308823E+02 -0.16989515239E+01  0.11207688351E+02  0.51100000000E-03 0. -1.
        -11    1    3    3    0    0  0.16231967274E+02 -0.50078006263E+00 -0.31428177655E+02  0.35375950775E+02  0.51100000000E-03 0.  1.
         12    1    3    3    0    0 -0.32505929313E+01 -0.61523299322E+00  0.25665617536E+02  0.25877959532E+02  0.00000000000E+00 0. -1.
</event>
<event>
 7    1  0.3050261E-013  0.7246153E+02  0.7816164E-02  0.1226708E+00
        -11   -1    0    0    0    0  0.00000000000E+00  0.00000000000E+00  0.45593999997E+02  0.45594000000E+02  0.51100000000E-03 0. -1.
         11   -1    0    0    0    0 -0.00000000000E+00 -0.00000000000E+00 -0.45593999997E+02  0.45594000000E+02  0.51100000000E-03 0.  1.
    9900012    2    1    2    0    0  0.12544845632E+02  0.68501597599E+00 -0.13886625733E+02  0.72461527480E+02  0.69999944226E+02 0.  0.
         12    1    1    2    0    0 -0.12544845632E+02 -0.68501597599E+00  0.13886625733E+02  0.18726472520E+02  0.00000000000E+00 0. -1.
         11    1    3    3    0    0 -0.12150874390E+02  0.15162812130E+02 -0.66411566315E+01  0.20534351263E+02  0.51100000000E-03 0. -1.
        -11    1    3    3    0    0 -0.42939859459E+01 -0.20979577799E+02 -0.30159949506E+00  0.21416628176E+02  0.51100000000E-03 0.  1.
        -12    1    3    3    0    0  0.28989705968E+02  0.65017816446E+01 -0.69438696061E+01  0.30510548041E+02  0.00000000000E+00 0.  1.
</event>
<event>
 7    1  0.3050261E-013  0.7246157E+02  0.7816164E-02  0.1226708E+00
        -11   -1    0    0    0    0  0.00000000000E+00  0.00000000000E+00  0.45593999997E+02  0.45594000000E+02  0.51100000000E-03 0.  1.
         11   -1    0    0    0    0 -0.00000000000E+00 -0.00000000000E+00 -0.45593999997E+02  0.45594000000E+02  0.51100000000E-03 0. -1.
    9900012    2    1    2    0    0  0.11702576838E+02  0.14152030655E+02  0.36672742973E+01  0.72461570092E+02  0.69999999737E+02 0.  0.
         12    1    1    2    0    0 -0.11702576838E+02 -0.14152030655E+02 -0.36672742973E+01  0.18726429908E+02  0.00000000000E+00 0. -1.
         11    1    3    3    0    0  0.87686729995E+01  0.76922490083E+01  0.18164228787E+01  0.11805071508E+02  0.51100000000E-03 0. -1.
        -11    1    3    3    0    0  0.20660240067E+02  0.12632093179E+02  0.22285254348E+02  0.32909692483E+02  0.51100000000E-03 0.  1.
         12    1    3    3    0    0 -0.17726336228E+02 -0.61723115322E+01 -0.20434402930E+02  0.27746806101E+02  0.00000000000E+00 0. -1.
</event>
<event>
 7    1  0.3050261E-013  0.7246157E+02  0.7816164E-02  0.1226708E+00
        -11   -1    0    0    0    0  0.00000000000E+00  0.00000000000E+00  0.45593999997E+02  0.45594000000E+02  0.51100000000E-03 0. -1.
         11   -1    0    0    0    0 -0.00000000000E+00 -0.00000000000E+00 -0.45593999997E+02  0.45594000000E+02  0.51100000000E-03 0.  1.
    9900012    2    1    2    0    0  0.46509515827E+00 -0.76211649461E+01 -0.17099143634E+02  0.72461569971E+02  0.69999999578E+02 0.  0.
         12    1    1    2    0    0 -0.46509515827E+00  0.76211649461E+01  0.17099143634E+02  0.18726430029E+02  0.00000000000E+00 0. -1.
         11    1    3    3    0    0  0.10684216246E+02 -0.23185529363E+01  0.17709660553E+01  0.11075400017E+02  0.51100000000E-03 0. -1.
        -11    1    3    3    0    0  0.21172994900E+02  0.10084325277E+02 -0.73452710501E+01  0.24575238277E+02  0.51100000000E-03 0.  1.
        -12    1    3    3    0    0 -0.31392115988E+02 -0.15386937287E+02 -0.11524838639E+02  0.36810931676E+02  0.00000000000E+00 0.  1.
</event>
<event>
 7    1  0.3050261E-013  0.7246160E+02  0.7816164E-02  0.1226708E+00
        -11   -1    0    0    0    0  0.00000000000E+00  0.00000000000E+00  0.45593999997E+02  0.45594000000E+02  0.51100000000E-03 0.  1.
         11   -1    0    0    0    0 -0.00000000000E+00 -0.00000000000E+00 -0.45593999997E+02  0.45594000000E+02  0.51100000000E-03 0. -1.
    9900012    2    1    2    0    0  0.81993270651E+01 -0.74708284225E+01  0.15087599415E+02  0.72461604251E+02  0.70000044234E+02 0.  0.
         12    1    1    2    0    0 -0.81993270651E+01  0.74708284225E+01 -0.15087599415E+02  0.18726395749E+02  0.00000000000E+00 0. -1.
         11    1    3    3    0    0  0.89773786520E+01 -0.12841820038E+02 -0.59709389770E+01  0.16767760193E+02  0.51100000000E-03 0. -1.
        -11    1    3    3    0    0  0.18589925915E+02 -0.65077495423E+01 -0.57827121456E+01  0.20527442842E+02  0.51100000000E-03 0.  1.
        -12    1    3    3    0    0 -0.19367977502E+02  0.11878741158E+02  0.26841250538E+02  0.35166401216E+02  0.00000000000E+00 0.  1.
</event>
<event>
 7    1  0.3050261E-013  0.7246158E+02  0.7816164E-02  0.1226708E+00
        -11   -1    0    0    0    0  0.00000000000E+00  0.00000000000E+00  0.45593999997E+02  0.45594000000E+02  0.51100000000E-03 0.  1.
         11   -1    0    0    0    0 -0.00000000000E+00 -0.00000000000E+00 -0.45593999997E+02  0.45594000000E+02  0.51100000000E-03 0. -1.
    9900012    2    1    2    0    0  0.86319058171E+01 -0.14788892379E+02  0.75800832896E+01  0.72461580201E+02  0.70000012905E+02 0.  0.
         12    1    1    2    0    0 -0.86319058171E+01  0.14788892379E+02 -0.75800832896E+01  0.18726419799E+02  0.00000000000E+00 0. -1.
         11    1    3    3    0    0  0.68849480126E+00  0.72526335184E-01 -0.50861277970E+01  0.51330284812E+01  0.51100000000E-03 0. -1.
        -11    1    3    3    0    0  0.27122500750E+02  0.14360169612E+02  0.99829201594E+01  0.32272328912E+02  0.51100000000E-03 0.  1.
         12    1    3    3    0    0 -0.19179089734E+02 -0.29221588326E+02  0.26832909272E+01  0.35056222807E+02  0.00000000000E+00 0. -1.
</event>
<event>
 7    1  0.3050261E-013  0.7246152E+02  0.7816164E-02  0.1226708E+00
        -11   -1    0    0    0    0  0.00000000000E+00  0.00000000000E+00  0.45593999997E+02  0.45594000000E+02  0.51100000000E-03 0. -1.
         11   -1    0    0    0    0 -0.00000000000E+00 -0.00000000000E+00 -0.45593999997E+02  0.45594000000E+02  0.51100000000E-03 0.  1.
    9900012    2    1    2    0    0  0.80627659645E+01  0.71855301722E+01 -0.15298395068E+02  0.72461523275E+02  0.69999938749E+02 0.  0.
         12    1    1    2    0    0 -0.80627659645E+01 -0.71855301722E+01  0.15298395068E+02  0.18726476725E+02  0.00000000000E+00 0. -1.
         11    1    3    3    0    0  0.70203237823E+01  0.78717330863E+01  0.26527315040E+01  0.10875941912E+02  0.51100000000E-03 0. -1.
        -11    1    3    3    0    0 -0.34578968685E+01 -0.28559623289E+02 -0.12797898387E+01  0.28796649031E+02  0.51100000000E-03 0.  1.
         12    1    3    3    0    0  0.45003390508E+01  0.27873420374E+02 -0.16671336734E+02  0.32788932331E+02  0.00000000000E+00 0. -1.
</event>
<event>
 7    1  0.3050261E-013  0.7246150E+02  0.7816164E-02  0.1226708E+00
        -11   -1    0    0    0    0  0.00000000000E+00  0.00000000000E+00  0.45593999997E+02  0.45594000000E+02  0.51100000000E-03 0.  1.
         11   -1    0    0    0    0 -0.00000000000E+00 -0.00000000000E+00 -0.45593999997E+02  0.45594000000E+02  0.51100000000E-03 0. -1.
    9900012    2    1    2    0    0  0.15034237700E+02  0.83243964506E+01 -0.74402887454E+01  0.72461500699E+02  0.69999909338E+02 0.  0.
         12    1    1    2    0    0 -0.15034237700E+02 -0.83243964506E+01  0.74402887454E+01  0.18726499301E+02  0.00000000000E+00 0. -1.
         11    1    3    3    0    0  0.18271139369E+02 -0.10083948033E+02  0.17643906552E+02  0.27328153623E+02  0.51100000000E-03 0. -1.
        -11    1    3    3    0    0 -0.63233362570E+01 -0.59355256623E+01 -0.17363072213E+02  0.19408537381E+02  0.51100000000E-03 0.  1.
        -12    1    3    3    0    0  0.30864345879E+01  0.24343870146E+02 -0.77211230839E+01  0.25724809695E+02  0.00000000000E+00 0.  1.
</event>
<event>
 7    1  0.3050261E-013  0.7246159E+02  0.7816164E-02  0.1226708E+00
        -11   -1    0    0    0    0  0.00000000000E+00  0.00000000000E+00  0.45593999997E+02  0.45594000000E+02  0.51100000000E-03 0.  1.
         11   -1    0    0    0    0 -0.00000000000E+00 -0.00000000000E+00 -0.45593999997E+02  0.45594000000E+02  0.51100000000E-03 0. -1.
    9900012    2    1    2    0    0 -0.14341168587E+02 -0.11309230463E+02  0.41365115124E+01  0.72461587167E+02  0.70000021980E+02 0.  0.
         12    1    1    2    0    0  0.14341168587E+02  0.11309230463E+02 -0.41365115124E+01  0.18726412833E+02  0.00000000000E+00 0. -1.
         11    1    3    3    0    0 -0.39760316505E+02 -0.17853915403E+02  0.79008394878E+01  0.44295240474E+02  0.51100000000E-03 0. -1.
        -11    1    3    3    0    0  0.39555828936E+01 -0.18825563026E+01  0.12769066083E+01  0.45630192864E+01  0.51100000000E-03 0.  1.
        -12    1    3    3    0    0  0.21463565024E+02  0.84272412428E+01 -0.50412345838E+01  0.23603327406E+02  0.00000000000E+00 0.  1.
</event>
<event>
 7    1  0.3050261E-013  0.7246157E+02  0.7816164E-02  0.1226708E+00
        -11   -1    0    0    0    0  0.00000000000E+00  0.00000000000E+00  0.45593999997E+02  0.45594000000E+02  0.51100000000E-03 0.  1.
         11   -1    0    0    0    0 -0.00000000000E+00 -0.00000000000E+00 -0.45593999997E+02  0.45594000000E+02  0.51100000000E-03 0. -1.
    9900012    2    1    2    0    0  0.85867094761E+01  0.15544648691E+02  0.59423399311E+01  0.72461572514E+02  0.70000002891E+02 0.  0.
         12    1    1    2    0    0 -0.85867094761E+01 -0.15544648691E+02 -0.59423399311E+01  0.18726427486E+02  0.00000000000E+00 0. -1.
         11    1    3    3    0    0  0.56774730676E+01 -0.11312501745E+01 -0.17437786312E+02  0.18373617475E+02  0.51100000000E-03 0. -1.
        -11    1    3    3    0    0  0.64866958879E+01  0.18047412169E+02 -0.92091226715E+01  0.21274262624E+02  0.51100000000E-03 0.  1.
        -12    1    3    3    0    0 -0.35774594794E+01 -0.13715133040E+01  0.32589248915E+02  0.32813692415E+02  0.00000000000E+00 0.  1.
</event>
<event>
 7    1  0.3050261E-013  0.7246159E+02  0.7816164E-02  0.1226708E+00
        -11   -1    0    0    0    0  0.00000000000E+00  0.00000000000E+00  0.45593999997E+02  0.45594000000E+02  0.51100000000E-03 0. -1.
         11   -1    0    0    0    0 -0.00000000000E+00 -0.00000000000E+00 -0.45593999997E+02  0.45594000000E+02  0.51100000000E-03 0.  1.
    9900012    2    1    2    0    0  0.14053954875E+02  0.11263573754E+02 -0.51280365322E+01  0.72461588170E+02  0.70000023287E+02 0.  0.
         12    1    1    2    0    0 -0.14053954875E+02 -0.11263573754E+02  0.51280365322E+01  0.18726411830E+02  0.00000000000E+00 0. -1.
         11    1    3    3    0    0 -0.11995024252E+02  0.51172818632E+01  0.34203553184E+01  0.13482062574E+02  0.51100000000E-03 0. -1.
        -11    1    3    3    0    0 -0.11418007822E+02 -0.11968800397E+02 -0.24830843450E+00  0.16543419928E+02  0.51100000000E-03 0.  1.
        -12    1    3    3    0    0  0.37466986949E+02  0.18115092288E+02 -0.83000834161E+01  0.42436105669E+02  0.00000000000E+00 0.  1.
</event>
<event>
 7    1  0.3050261E-013  0.7246168E+02  0.7816164E-02  0.1226708E+00
        -11   -1    0    0    0    0  0.00000000000E+00  0.00000000000E+00  0.45593999997E+02  0.45594000000E+02  0.51100000000E-03 0. -1.
         11   -1    0    0    0    0 -0.00000000000E+00 -0.00000000000E+00 -0.45593999997E+02  0.45594000000E+02  0.51100000000E-03 0.  1.
    9900012    2    1    2    0    0 -0.66496031389E+01 -0.11452832188E+02 -0.13239725498E+02  0.72461683804E+02  0.70000147867E+02 0.  0.
         12    1    1    2    0    0  0.66496031389E+01  0.11452832188E+02  0.13239725498E+02  0.18726316196E+02  0.00000000000E+00 0. -1.
         11    1    3    3    0    0  0.13580727357E+02 -0.54683586278E+00 -0.16396928013E+01  0.13690280412E+02  0.51100000000E-03 0. -1.
        -11    1    3    3    0    0  0.50082654491E+01  0.10025363866E+02 -0.21733205850E+02  0.24452461640E+02  0.51100000000E-03 0.  1.
         12    1    3    3    0    0 -0.25238595945E+02 -0.20931360192E+02  0.10133173154E+02  0.34318941752E+02  0.00000000000E+00 0. -1.
</event>
<event>
 7    1  0.3050261E-013  0.7246144E+02  0.7816164E-02  0.1226708E+00
        -11   -1    0    0    0    0  0.00000000000E+00  0.00000000000E+00  0.45593999997E+02  0.45594000000E+02  0.51100000000E-03 0. -1.
         11   -1    0    0    0    0 -0.00000000000E+00 -0.00000000000E+00 -0.45593999997E+02  0.45594000000E+02  0.51100000000E-03 0.  1.
    9900012    2    1    2    0    0  0.15342306467E+02  0.97193855088E+01  0.45641219961E+01  0.72461440466E+02  0.69999830874E+02 0.  0.
         12    1    1    2    0    0 -0.15342306467E+02 -0.97193855088E+01 -0.45641219961E+01  0.18726559534E+02  0.00000000000E+00 0. -1.
         11    1    3    3    0    0 -0.32288381170E+01  0.29210644493E+02 -0.89063007698E+01  0.30708457157E+02  0.51100000000E-03 0. -1.
        -11    1    3    3    0    0  0.45339444072E+01 -0.13600340792E+02 -0.72311719395E+01  0.16056642533E+02  0.51100000000E-03 0.  1.
        -12    1    3    3    0    0  0.14037200176E+02 -0.58909181929E+01  0.20701594705E+02  0.25696340776E+02  0.00000000000E+00 0.  1.
</event>
<event>
 7    1  0.3050261E-013  0.7246156E+02  0.7816164E-02  0.1226708E+00
        -11   -1    0    0    0    0  0.00000000000E+00  0.00000000000E+00  0.45593999997E+02  0.45594000000E+02  0.51100000000E-03 0. -1.
         11   -1    0    0    0    0 -0.00000000000E+00 -0.00000000000E+00 -0.45593999997E+02  0.45594000000E+02  0.51100000000E-03 0.  1.
    9900012    2    1    2    0    0  0.63314801205E+01 -0.10358355470E+02 -0.14258199102E+02  0.72461563868E+02  0.69999991628E+02 0.  0.
         12    1    1    2    0    0 -0.63314801205E+01  0.10358355470E+02  0.14258199102E+02  0.18726436132E+02  0.00000000000E+00 0. -1.
         11    1    3    3    0    0  0.96749645303E+01  0.23830680218E+02  0.22667953344E+01  0.25819462032E+02  0.51100000000E-03 0. -1.
        -11    1    3    3    0    0  0.20129413154E+00  0.97028574171E+00  0.51116109788E+01  0.52067783521E+01  0.51100000000E-03 0.  1.
        -12    1    3    3    0    0 -0.35447785413E+01 -0.35159321429E+02 -0.21636605416E+02  0.41435323484E+02  0.00000000000E+00 0.  1.
</event>
<event>
 7    1  0.3050261E-013  0.7246153E+02  0.7816164E-02  0.1226708E+00
        -11   -1    0    0    0    0  0.00000000000E+00  0.00000000000E+00  0.45593999997E+02  0.45594000000E+02  0.51100000000E-03 0. -1.
         11   -1    0    0    0    0 -0.00000000000E+00 -0.00000000000E+00 -0.45593999997E+02  0.45594000000E+02  0.51100000000E-03 0.  1.
    9900012    2    1    2    0    0 -0.10235176551E+02 -0.98625681177E+01 -0.12192275831E+02  0.72461529995E+02  0.69999947503E+02 0.  0.
         12    1    1    2    0    0  0.10235176551E+02  0.98625681177E+01  0.12192275831E+02  0.18726470005E+02  0.00000000000E+00 0. -1.
         11    1    3    3    0    0  0.17774851016E+01  0.20944616371E+02  0.13462735157E+01  0.21062973694E+02  0.51100000000E-03 0. -1.
        -11    1    3    3    0    0 -0.27911250782E+01 -0.20231684805E+02 -0.25702430909E+02  0.32828743566E+02  0.51100000000E-03 0.  1.
         12    1    3    3    0    0 -0.92215365744E+01 -0.10575499683E+02  0.12163881562E+02  0.18569812735E+02  0.00000000000E+00 0. -1.
</event>
<event>
 7    1  0.3050261E-013  0.7246156E+02  0.7816164E-02  0.1226708E+00
        -11   -1    0    0    0    0  0.00000000000E+00  0.00000000000E+00  0.45593999997E+02  0.45594000000E+02  0.51100000000E-03 0.  1.
         11   -1    0    0    0    0 -0.00000000000E+00 -0.00000000000E+00 -0.45593999997E+02  0.45594000000E+02  0.51100000000E-03 0. -1.
    9900012    2    1    2    0    0 -0.17894746459E+02  0.51682708520E+01  0.19356071184E+01  0.72461560153E+02  0.69999986788E+02 0.  0.
         12    1    1    2    0    0  0.17894746459E+02 -0.51682708520E+01 -0.19356071184E+01  0.18726439847E+02  0.00000000000E+00 0. -1.
         11    1    3    3    0    0  0.23354581421E+01 -0.28743474887E+01  0.51050743466E+01  0.63069820488E+01  0.51100000000E-03 0. -1.
        -11    1    3    3    0    0 -0.20546809191E+02 -0.13254216992E+02  0.22202818213E+02  0.33027424556E+02  0.51100000000E-03 0.  1.
         12    1    3    3    0    0  0.31660458914E+00  0.21296835332E+02 -0.25372285441E+02  0.33127153547E+02  0.00000000000E+00 0. -1.
</event>
<event>
 7    1  0.3050261E-013  0.7246155E+02  0.7816164E-02  0.1226708E+00
        -11   -1    0    0    0    0  0.00000000000E+00  0.00000000000E+00  0.45593999997E+02  0.45594000000E+02  0.51100000000E-03 0. -1.
         11   -1    0    0    0    0 -0.00000000000E+00 -0.00000000000E+00 -0.45593999997E+02  0.45594000000E+02  0.51100000000E-03 0.  1.
    9900012    2    1    2    0    0 -0.10212909824E+02 -0.55922907616E+01 -0.14666385138E+02  0.72461545556E+02  0.69999967774E+02 0.  0.
         12    1    1    2    0    0  0.10212909824E+02  0.55922907616E+01  0.14666385138E+02  0.18726454444E+02  0.00000000000E+00 0. -1.
         11    1    3    3    0    0 -0.25249063507E+01 -0.17277333645E+02  0.21738842564E+02  0.27882946155E+02  0.51100000000E-03 0. -1.
        -11    1    3    3    0    0  0.70736808690E+01  0.48300886806E+00 -0.83260951856E+01  0.10935909651E+02  0.51100000000E-03 0.  1.
        -12    1    3    3    0    0 -0.14761684342E+02  0.11202034016E+02 -0.28079132517E+02  0.33642689750E+02  0.00000000000E+00 0.  1.
</event>
<event>
 7    1  0.3050261E-013  0.7246159E+02  0.7816164E-02  0.1226708E+00
        -11   -1    0    0    0    0  0.00000000000E+00  0.00000000000E+00  0.45593999997E+02  0.45594000000E+02  0.51100000000E-03 0.  1.
         11   -1    0    0    0    0 -0.00000000000E+00 -0.00000000000E+00 -0.45593999997E+02  0.45594000000E+02  0.51100000000E-03 0. -1.
    9900012    2    1    2    0    0  0.13624828280E+02  0.42139946488E+01  0.12136092644E+02  0.72461589740E+02  0.70000025332E+02 0.  0.
         12    1    1    2    0    0 -0.13624828280E+02 -0.42139946488E+01 -0.12136092644E+02  0.18726410260E+02  0.00000000000E+00 0. -1.
         11    1    3    3    0    0 -0.52468559820E+01  0.26097341709E+01  0.20980014214E+01  0.62242927601E+01  0.51100000000E-03 0. -1.
        -11    1    3    3    0    0  0.11146518197E+02 -0.11332255231E+02  0.34227781340E+02  0.37738652497E+02  0.51100000000E-03 0.  1.
         12    1    3    3    0    0  0.77251660644E+01  0.12936515709E+02 -0.24189690118E+02  0.28498644484E+02  0.00000000000E+00 0. -1.
</event>
<event>
 7    1  0.3050261E-013  0.7246152E+02  0.7816164E-02  0.1226708E+00
        -11   -1    0    0    0    0  0.00000000000E+00  0.00000000000E+00  0.45593999997E+02  0.45594000000E+02  0.51100000000E-03 0. -1.
         11   -1    0    0    0    0 -0.00000000000E+00 -0.00000000000E+00 -0.45593999997E+02  0.45594000000E+02  0.51100000000E-03 0.  1.
    9900012    2    1    2    0    0 -0.10335257376E+02  0.10772953581E+01 -0.15578928783E+02  0.72461517887E+02  0.69999931729E+02 0.  0.
         12    1    1    2    0    0  0.10335257376E+02 -0.10772953581E+01  0.15578928783E+02  0.18726482113E+02  0.00000000000E+00 0. -1.
         11    1    3    3    0    0 -0.16546083410E+02 -0.69147269254E+01  0.68916679502E+01  0.19211491667E+02  0.51100000000E-03 0. -1.
        -11    1    3    3    0    0  0.81675140313E+01  0.26522218030E+02 -0.60260276720E+01  0.28398051773E+02  0.51100000000E-03 0.  1.
         12    1    3    3    0    0 -0.19566879975E+01 -0.18530195747E+02 -0.16444569061E+02  0.24851974448E+02  0.00000000000E+00 0. -1.
</event>
<event>
 7    1  0.3050261E-013  0.7246156E+02  0.7816164E-02  0.1226708E+00
        -11   -1    0    0    0    0  0.00000000000E+00  0.00000000000E+00  0.45593999997E+02  0.45594000000E+02  0.51100000000E-03 0.  1.
         11   -1    0    0    0    0 -0.00000000000E+00 -0.00000000000E+00 -0.45593999997E+02  0.45594000000E+02  0.51100000000E-03 0. -1.
    9900012    2    1    2    0    0  0.86495811663E+01  0.43979463358E+01  0.16016315086E+02  0.72461560529E+02  0.69999987278E+02 0.  0.
         12    1    1    2    0    0 -0.86495811663E+01 -0.43979463358E+01 -0.16016315086E+02  0.18726439471E+02  0.00000000000E+00 0. -1.
         11    1    3    3    0    0  0.83234049073E+01  0.41101458125E+01 -0.46327952318E+01  0.10374736612E+02  0.51100000000E-03 0. -1.
        -11    1    3    3    0    0  0.17367166709E+01  0.11996847814E+02  0.38683607350E+02  0.40538401796E+02  0.51100000000E-03 0.  1.
         12    1    3    3    0    0 -0.14105404119E+01 -0.11709047291E+02 -0.18034497032E+02  0.21548422121E+02  0.00000000000E+00 0. -1.
</event>
<event>
 7    1  0.3050261E-013  0.7246158E+02  0.7816164E-02  0.1226708E+00
        -11   -1    0    0    0    0  0.00000000000E+00  0.00000000000E+00  0.45593999997E+02  0.45594000000E+02  0.51100000000E-03 0.  1.
         11   -1    0    0    0    0 -0.00000000000E+00 -0.00000000000E+00 -0.45593999997E+02  0.45594000000E+02  0.51100000000E-03 0. -1.
    9900012    2    1    2    0    0 -0.15372503238E+02 -0.10693604279E+02  0.10808375655E+00  0.72461582554E+02  0.70000015970E+02 0.  0.
         12    1    1    2    0    0  0.15372503238E+02  0.10693604279E+02 -0.10808375655E+00  0.18726417446E+02  0.00000000000E+00 0. -1.
         11    1    3    3    0    0 -0.10215604198E+02 -0.99561717364E+01 -0.37563536080E+01  0.14751071739E+02  0.51100000000E-03 0. -1.
        -11    1    3    3    0    0 -0.23170232135E+02 -0.17587433792E+02  0.12383013419E+02  0.31615130969E+02  0.51100000000E-03 0.  1.
         12    1    3    3    0    0  0.18013333095E+02  0.16850001250E+02 -0.85185760545E+01  0.26095379846E+02  0.00000000000E+00 0. -1.
</event>
<event>
 7    1  0.3050261E-013  0.7246158E+02  0.7816164E-02  0.1226708E+00
        -11   -1    0    0    0    0  0.00000000000E+00  0.00000000000E+00  0.45593999997E+02  0.45594000000E+02  0.51100000000E-03 0.  1.
         11   -1    0    0    0    0 -0.00000000000E+00 -0.00000000000E+00 -0.45593999997E+02  0.45594000000E+02  0.51100000000E-03 0. -1.
    9900012    2    1    2    0    0 -0.38999456191E+01 -0.16276287417E+02 -0.83995092290E+01  0.72461578473E+02  0.70000010655E+02 0.  0.
         12    1    1    2    0    0  0.38999456191E+01  0.16276287417E+02  0.83995092290E+01  0.18726421527E+02  0.00000000000E+00 0. -1.
         11    1    3    3    0    0  0.43055041925E+01 -0.12024832324E+02 -0.15001444946E+02  0.19702215853E+02  0.51100000000E-03 0. -1.
        -11    1    3    3    0    0  0.17196975468E+02 -0.15343840799E+02 -0.33892987637E+01  0.23294994357E+02  0.51100000000E-03 0.  1.
        -12    1    3    3    0    0 -0.25402425280E+02  0.11092385706E+02  0.99912344812E+01  0.29464368264E+02  0.00000000000E+00 0.  1.
</event>
<event>
 7    1  0.3050261E-013  0.7246152E+02  0.7816164E-02  0.1226708E+00
        -11   -1    0    0    0    0  0.00000000000E+00  0.00000000000E+00  0.45593999997E+02  0.45594000000E+02  0.51100000000E-03 0. -1.
         11   -1    0    0    0    0 -0.00000000000E+00 -0.00000000000E+00 -0.45593999997E+02  0.45594000000E+02  0.51100000000E-03 0.  1.
    9900012    2    1    2    0    0  0.15647879625E+02  0.72244030939E+01 -0.73234479349E+01  0.72461520713E+02  0.69999935411E+02 0.  0.
         12    1    1    2    0    0 -0.15647879625E+02 -0.72244030939E+01  0.73234479349E+01  0.18726479287E+02  0.00000000000E+00 0. -1.
         11    1    3    3    0    0 -0.83528618000E+01  0.22176024564E+02  0.15395124178E+02  0.28258736957E+02  0.51100000000E-03 0. -1.
        -11    1    3    3    0    0  0.69201998509E+01  0.66410271071E+01 -0.21315247850E+01  0.98252636191E+01  0.51100000000E-03 0.  1.
        -12    1    3    3    0    0  0.17080541575E+02 -0.21592648577E+02 -0.20587047328E+02  0.34377520136E+02  0.00000000000E+00 0.  1.
</event>
<event>
 7    1  0.3050261E-013  0.7246166E+02  0.7816164E-02  0.1226708E+00
        -11   -1    0    0    0    0  0.00000000000E+00  0.00000000000E+00  0.45593999997E+02  0.45594000000E+02  0.51100000000E-03 0.  1.
         11   -1    0    0    0    0 -0.00000000000E+00 -0.00000000000E+00 -0.45593999997E+02  0.45594000000E+02  0.51100000000E-03 0. -1.
    9900012    2    1    2    0    0 -0.94076858664E+01 -0.15680563866E+02  0.40362124976E+01  0.72461664324E+02  0.70000122491E+02 0.  0.
         12    1    1    2    0    0  0.94076858664E+01  0.15680563866E+02 -0.40362124976E+01  0.18726335676E+02  0.00000000000E+00 0. -1.
         11    1    3    3    0    0  0.17815856388E+02 -0.35052526758E+01 -0.40813949649E+01  0.18610462657E+02  0.51100000000E-03 0. -1.
        -11    1    3    3    0    0  0.10090208362E+02 -0.12151057678E+02  0.41273771972E+01  0.16324697555E+02  0.51100000000E-03 0.  1.
         12    1    3    3    0    0 -0.37313750617E+02 -0.24253512908E-01  0.39902302653E+01  0.37526504112E+02  0.00000000000E+00 0. -1.
</event>
<event>
 7    1  0.3050261E-013  0.7246169E+02  0.7816164E-02  0.1226708E+00
        -11   -1    0    0    0    0  0.00000000000E+00  0.00000000000E+00  0.45593999997E+02  0.45594000000E+02  0.51100000000E-03 0.  1.
         11   -1    0    0    0    0 -0.00000000000E+00 -0.00000000000E+00 -0.45593999997E+02  0.45594000000E+02  0.51100000000E-03 0. -1.
    9900012    2    1    2    0    0  0.16814827249E+02 -0.11421474702E+01 -0.81628305365E+01  0.72461689135E+02  0.70000154812E+02 0.  0.
         12    1    1    2    0    0 -0.16814827249E+02  0.11421474702E+01  0.81628305365E+01  0.18726310865E+02  0.00000000000E+00 0. -1.
         11    1    3    3    0    0  0.10782624743E+02  0.46030038059E+01 -0.24615083209E+01  0.11979635381E+02  0.51100000000E-03 0. -1.
        -11    1    3    3    0    0 -0.10056380093E+01 -0.14957340257E+02  0.24169140415E+02  0.28440827767E+02  0.51100000000E-03 0.  1.
         12    1    3    3    0    0  0.70378405147E+01  0.92121889812E+01 -0.29870462631E+02  0.32041225987E+02  0.00000000000E+00 0. -1.
</event>
<event>
 7    1  0.3050261E-013  0.7246167E+02  0.7816164E-02  0.1226708E+00
        -11   -1    0    0    0    0  0.00000000000E+00  0.00000000000E+00  0.45593999997E+02  0.45594000000E+02  0.51100000000E-03 0. -1.
         11   -1    0    0    0    0 -0.00000000000E+00 -0.00000000000E+00 -0.45593999997E+02  0.45594000000E+02  0.51100000000E-03 0.  1.
    9900012    2    1    2    0    0 -0.47519702715E+01 -0.17021149208E+02  0.61947305789E+01  0.72461670174E+02  0.70000130111E+02 0.  0.
         12    1    1    2    0    0  0.47519702715E+01  0.17021149208E+02 -0.61947305789E+01  0.18726329826E+02  0.00000000000E+00 0. -1.
         11    1    3    3    0    0  0.10814881129E+02 -0.22037864950E+02  0.63329221762E+01  0.25352219803E+02  0.51100000000E-03 0. -1.
        -11    1    3    3    0    0 -0.14552831463E+02 -0.61402356763E+01 -0.19283850149E+02  0.24926978850E+02  0.51100000000E-03 0.  1.
         12    1    3    3    0    0 -0.10140199374E+01  0.11156951418E+02  0.19145658551E+02  0.22182471520E+02  0.00000000000E+00 0. -1.
</event>
<event>
 7    1  0.3050261E-013  0.7246159E+02  0.7816164E-02  0.1226708E+00
        -11   -1    0    0    0    0  0.00000000000E+00  0.00000000000E+00  0.45593999997E+02  0.45594000000E+02  0.51100000000E-03 0. -1.
         11   -1    0    0    0    0 -0.00000000000E+00 -0.00000000000E+00 -0.45593999997E+02  0.45594000000E+02  0.51100000000E-03 0.  1.
    9900012    2    1    2    0    0  0.94513546075E+01 -0.11770513309E+02 -0.11081760622E+02  0.72461588012E+02  0.70000023080E+02 0.  0.
         12    1    1    2    0    0 -0.94513546075E+01  0.11770513309E+02  0.11081760622E+02  0.18726411988E+02  0.00000000000E+00 0. -1.
         11    1    3    3    0    0 -0.28792880900E+01  0.34848740275E+01 -0.32381941279E+01  0.55606248177E+01  0.51100000000E-03 0. -1.
        -11    1    3    3    0    0 -0.23335937100E+02 -0.62329204731E+01  0.98402440905E+01  0.26081519549E+02  0.51100000000E-03 0.  1.
         12    1    3    3    0    0  0.35666579797E+02 -0.90224668631E+01 -0.17683810585E+02  0.40819443645E+02  0.00000000000E+00 0. -1.
</event>
<event>
 7    1  0.3050261E-013  0.7246165E+02  0.7816164E-02  0.1226708E+00
        -11   -1    0    0    0    0  0.00000000000E+00  0.00000000000E+00  0.45593999997E+02  0.45594000000E+02  0.51100000000E-03 0.  1.
         11   -1    0    0    0    0 -0.00000000000E+00 -0.00000000000E+00 -0.45593999997E+02  0.45594000000E+02  0.51100000000E-03 0. -1.
    9900012    2    1    2    0    0  0.12585228749E+02  0.16442354031E+00  0.13865831333E+02  0.72461647009E+02  0.70000099935E+02 0.  0.
         12    1    1    2    0    0 -0.12585228749E+02 -0.16442354031E+00 -0.13865831333E+02  0.18726352991E+02  0.00000000000E+00 0. -1.
         11    1    3    3    0    0 -0.12200779777E+01  0.71524279645E+01  0.10136827819E+02  0.12465997535E+02  0.51100000000E-03 0. -1.
        -11    1    3    3    0    0  0.20534633815E+02 -0.23093030114E+02  0.19442722182E+02  0.36509980442E+02  0.51100000000E-03 0.  1.
         12    1    3    3    0    0 -0.67293270883E+01  0.16105025690E+02 -0.15713718667E+02  0.23485669032E+02  0.00000000000E+00 0. -1.
</event>
<event>
 7    1  0.3050261E-013  0.7246199E+02  0.7816164E-02  0.1226707E+00
        -11   -1    0    0    0    0  0.00000000000E+00  0.00000000000E+00  0.45593999997E+02  0.45594000000E+02  0.51100000000E-03 0.  1.
         11   -1    0    0    0    0 -0.00000000000E+00 -0.00000000000E+00 -0.45593999997E+02  0.45594000000E+02  0.51100000000E-03 0. -1.
    9900012    2    1    2    0    0 -0.15625726787E+02 -0.77980467215E+00  0.10290379440E+02  0.72461992898E+02  0.70000550518E+02 0.  0.
         12    1    1    2    0    0  0.15625726787E+02  0.77980467215E+00 -0.10290379440E+02  0.18726007102E+02  0.00000000000E+00 0. -1.
         11    1    3    3    0    0 -0.25172424799E+01 -0.20555744975E+02  0.47975848234E+01  0.21257751094E+02  0.51100000000E-03 0. -1.
        -11    1    3    3    0    0 -0.19101724521E+02  0.14120259360E+01  0.19507388650E+02  0.27338762026E+02  0.51100000000E-03 0.  1.
         12    1    3    3    0    0  0.59932402136E+01  0.18363914367E+02 -0.14014594033E+02  0.23865479778E+02  0.00000000000E+00 0. -1.
</event>
<event>
 7    1  0.3050261E-013  0.7246154E+02  0.7816164E-02  0.1226708E+00
        -11   -1    0    0    0    0  0.00000000000E+00  0.00000000000E+00  0.45593999997E+02  0.45594000000E+02  0.51100000000E-03 0.  1.
         11   -1    0    0    0    0 -0.00000000000E+00 -0.00000000000E+00 -0.45593999997E+02  0.45594000000E+02  0.51100000000E-03 0. -1.
    9900012    2    1    2    0    0 -0.42201037639E+01 -0.14503965611E+02  0.11068247116E+02  0.72461537749E+02  0.69999957603E+02 0.  0.
         12    1    1    2    0    0  0.42201037639E+01  0.14503965611E+02 -0.11068247116E+02  0.18726462251E+02  0.00000000000E+00 0. -1.
         11    1    3    3    0    0  0.47628629235E+01  0.44219958143E+01 -0.60568739706E+00  0.65273093763E+01  0.51100000000E-03 0. -1.
        -11    1    3    3    0    0  0.58590236228E+01 -0.15297700383E+02  0.34658368813E+02  0.38334714344E+02  0.51100000000E-03 0.  1.
         12    1    3    3    0    0 -0.14841990310E+02 -0.36282610427E+01 -0.22984434299E+02  0.27599514029E+02  0.00000000000E+00 0. -1.
</event>
<event>
 7    1  0.3050261E-013  0.7246150E+02  0.7816164E-02  0.1226708E+00
        -11   -1    0    0    0    0  0.00000000000E+00  0.00000000000E+00  0.45593999997E+02  0.45594000000E+02  0.51100000000E-03 0.  1.
         11   -1    0    0    0    0 -0.00000000000E+00 -0.00000000000E+00 -0.45593999997E+02  0.45594000000E+02  0.51100000000E-03 0. -1.
    9900012    2    1    2    0    0 -0.12502907889E+02  0.13917009169E+02 -0.82211909719E+00  0.72461501937E+02  0.69999910952E+02 0.  0.
         12    1    1    2    0    0  0.12502907889E+02 -0.13917009169E+02  0.82211909719E+00  0.18726498063E+02  0.00000000000E+00 0. -1.
         11    1    3    3    0    0  0.68000489852E+01 -0.86462258313E+01 -0.16140876455E+02  0.19532684924E+02  0.51100000000E-03 0. -1.
        -11    1    3    3    0    0 -0.55190326252E+01 -0.11885282923E+02  0.94542813322E+00  0.13138245921E+02  0.51100000000E-03 0.  1.
        -12    1    3    3    0    0 -0.13783924249E+02  0.34448517924E+02  0.14373329225E+02  0.39790571092E+02  0.00000000000E+00 0.  1.
</event>
<event>
 7    1  0.3050261E-013  0.7246159E+02  0.7816164E-02  0.1226708E+00
        -11   -1    0    0    0    0  0.00000000000E+00  0.00000000000E+00  0.45593999997E+02  0.45594000000E+02  0.51100000000E-03 0.  1.
         11   -1    0    0    0    0 -0.00000000000E+00 -0.00000000000E+00 -0.45593999997E+02  0.45594000000E+02  0.51100000000E-03 0. -1.
    9900012    2    1    2    0    0  0.10280440869E+02 -0.91245288128E+01  0.12717459203E+02  0.72461594603E+02  0.70000031666E+02 0.  0.
         12    1    1    2    0    0 -0.10280440869E+02  0.91245288128E+01 -0.12717459203E+02  0.18726405397E+02  0.00000000000E+00 0. -1.
         11    1    3    3    0    0 -0.51237784058E+01  0.23750070407E+02  0.15040817385E+02  0.28575253933E+02  0.51100000000E-03 0. -1.
        -11    1    3    3    0    0 -0.52470724355E+01 -0.10312659095E+02 -0.60789062721E+01  0.13070417303E+02  0.51100000000E-03 0.  1.
        -12    1    3    3    0    0  0.20651291710E+02 -0.22561940125E+02  0.37555480906E+01  0.30815923366E+02  0.00000000000E+00 0.  1.
</event>
<event>
 7    1  0.3050261E-013  0.7246159E+02  0.7816164E-02  0.1226708E+00
        -11   -1    0    0    0    0  0.00000000000E+00  0.00000000000E+00  0.45593999997E+02  0.45594000000E+02  0.51100000000E-03 0.  1.
         11   -1    0    0    0    0 -0.00000000000E+00 -0.00000000000E+00 -0.45593999997E+02  0.45594000000E+02  0.51100000000E-03 0. -1.
    9900012    2    1    2    0    0  0.10127876035E+01  0.18507204372E+02 -0.26713166654E+01  0.72461593908E+02  0.70000030761E+02 0.  0.
         12    1    1    2    0    0 -0.10127876035E+01 -0.18507204372E+02  0.26713166654E+01  0.18726406092E+02  0.00000000000E+00 0. -1.
         11    1    3    3    0    0  0.51288846105E+01 -0.13273791327E+01 -0.86084733749E+01  0.10108076316E+02  0.51100000000E-03 0. -1.
        -11    1    3    3    0    0  0.12565566875E+02 -0.84957295918E+01 -0.16605695493E+02  0.22490442754E+02  0.51100000000E-03 0.  1.
        -12    1    3    3    0    0 -0.16681663882E+02  0.28330313097E+02  0.22542852203E+02  0.39863074837E+02  0.00000000000E+00 0.  1.
</event>
<event>
 7    1  0.3050261E-013  0.7246147E+02  0.7816164E-02  0.1226708E+00
        -11   -1    0    0    0    0  0.00000000000E+00  0.00000000000E+00  0.45593999997E+02  0.45594000000E+02  0.51100000000E-03 0. -1.
         11   -1    0    0    0    0 -0.00000000000E+00 -0.00000000000E+00 -0.45593999997E+02  0.45594000000E+02  0.51100000000E-03 0.  1.
    9900012    2    1    2    0    0  0.16521641385E+02  0.86447443988E+01  0.17282369760E+01  0.72461466877E+02  0.69999865280E+02 0.  0.
         12    1    1    2    0    0 -0.16521641385E+02 -0.86447443988E+01 -0.17282369760E+01  0.18726533123E+02  0.00000000000E+00 0. -1.
         11    1    3    3    0    0 -0.54819700024E+01  0.25741950766E+02  0.65865173318E+01  0.27130835505E+02  0.51100000000E-03 0. -1.
        -11    1    3    3    0    0 -0.22743648492E+01 -0.35238620419E+01 -0.15114258861E+02  0.15685380465E+02  0.51100000000E-03 0.  1.
        -12    1    3    3    0    0  0.24277976236E+02 -0.13573344325E+02  0.10255978505E+02  0.29645250908E+02  0.00000000000E+00 0.  1.
</event>
<event>
 7    1  0.3050261E-013  0.7246157E+02  0.7816164E-02  0.1226708E+00
        -11   -1    0    0    0    0  0.00000000000E+00  0.00000000000E+00  0.45593999997E+02  0.45594000000E+02  0.51100000000E-03 0.  1.
         11   -1    0    0    0    0 -0.00000000000E+00 -0.00000000000E+00 -0.45593999997E+02  0.45594000000E+02  0.51100000000E-03 0. -1.
    9900012    2    1    2    0    0  0.90922891272E+01 -0.74024913170E+00  0.16354251078E+02  0.72461568982E+02  0.69999998290E+02 0.  0.
         12    1    1    2    0    0 -0.90922891272E+01  0.74024913170E+00 -0.16354251078E+02  0.18726431018E+02  0.00000000000E+00 0. -1.
         11    1    3    3    0    0 -0.39656239461E+01  0.72996461674E+01 -0.52032658684E+01  0.98022948033E+01  0.51100000000E-03 0. -1.
        -11    1    3    3    0    0 -0.90667829415E+01  0.12135085042E+02 -0.10776953926E+02  0.18590577669E+02  0.51100000000E-03 0.  1.
         12    1    3    3    0    0  0.22124696015E+02 -0.20174980341E+02  0.32334470872E+02  0.44068696510E+02  0.00000000000E+00 0. -1.
</event>
<event>
 7    1  0.3050261E-013  0.7246190E+02  0.7816164E-02  0.1226707E+00
        -11   -1    0    0    0    0  0.00000000000E+00  0.00000000000E+00  0.45593999997E+02  0.45594000000E+02  0.51100000000E-03 0. -1.
         11   -1    0    0    0    0 -0.00000000000E+00 -0.00000000000E+00 -0.45593999997E+02  0.45594000000E+02  0.51100000000E-03 0.  1.
    9900012    2    1    2    0    0 -0.63545701524E+01 -0.16099363214E+02 -0.71481971456E+01  0.72461901096E+02  0.70000430929E+02 0.  0.
         12    1    1    2    0    0  0.63545701524E+01  0.16099363214E+02  0.71481971456E+01  0.18726098904E+02  0.00000000000E+00 0. -1.
         11    1    3    3    0    0  0.19740182849E+02  0.73644943640E+01  0.17863832142E+02  0.27622945086E+02  0.51100000000E-03 0. -1.
        -11    1    3    3    0    0 -0.13245277436E+02 -0.17846517397E+02 -0.10239377224E+02  0.24469989860E+02  0.51100000000E-03 0.  1.
        -12    1    3    3    0    0 -0.12849475565E+02 -0.56173401808E+01 -0.14772652064E+02  0.20368966150E+02  0.00000000000E+00 0.  1.
</event>
<event>
 7    1  0.3050261E-013  0.7246158E+02  0.7816164E-02  0.1226708E+00
        -11   -1    0    0    0    0  0.00000000000E+00  0.00000000000E+00  0.45593999997E+02  0.45594000000E+02  0.51100000000E-03 0.  1.
         11   -1    0    0    0    0 -0.00000000000E+00 -0.00000000000E+00 -0.45593999997E+02  0.45594000000E+02  0.51100000000E-03 0. -1.
    9900012    2    1    2    0    0 -0.78659388231E+01  0.12757738744E+02  0.11227016287E+02  0.72461580531E+02  0.70000013335E+02 0.  0.
         12    1    1    2    0    0  0.78659388231E+01 -0.12757738744E+02 -0.11227016287E+02  0.18726419469E+02  0.00000000000E+00 0. -1.
         11    1    3    3    0    0 -0.30300456514E+01 -0.17014875928E+02  0.77949240283E+01  0.18959114440E+02  0.51100000000E-03 0. -1.
        -11    1    3    3    0    0 -0.22785656518E+00 -0.10638516263E+02 -0.53226329040E+01  0.11897914447E+02  0.51100000000E-03 0.  1.
        -12    1    3    3    0    0 -0.46080366065E+01  0.40411130935E+02  0.87547251627E+01  0.41604551644E+02  0.00000000000E+00 0.  1.
</event>
<event>
 7    1  0.3050261E-013  0.7246149E+02  0.7816164E-02  0.1226708E+00
        -11   -1    0    0    0    0  0.00000000000E+00  0.00000000000E+00  0.45593999997E+02  0.45594000000E+02  0.51100000000E-03 0.  1.
         11   -1    0    0    0    0 -0.00000000000E+00 -0.00000000000E+00 -0.45593999997E+02  0.45594000000E+02  0.51100000000E-03 0. -1.
    9900012    2    1    2    0    0 -0.25906077962E+01  0.18491110629E+02 -0.14317567212E+01  0.72461485419E+02  0.69999889434E+02 0.  0.
         12    1    1    2    0    0  0.25906077962E+01 -0.18491110629E+02  0.14317567212E+01  0.18726514581E+02  0.00000000000E+00 0. -1.
         11    1    3    3    0    0  0.19431790455E+02  0.26140876080E+01 -0.99814792172E+01  0.22001315004E+02  0.51100000000E-03 0. -1.
        -11    1    3    3    0    0 -0.16322208113E+01 -0.14670553375E+01  0.20874992685E+02  0.20990038494E+02  0.51100000000E-03 0.  1.
         12    1    3    3    0    0 -0.20390177440E+02  0.17344078359E+02 -0.12325270189E+02  0.29470131920E+02  0.00000000000E+00 0. -1.
</event>
<event>
 7    1  0.3050261E-013  0.7246157E+02  0.7816164E-02  0.1226708E+00
        -11   -1    0    0    0    0  0.00000000000E+00  0.00000000000E+00  0.45593999997E+02  0.45594000000E+02  0.51100000000E-03 0. -1.
         11   -1    0    0    0    0 -0.00000000000E+00 -0.00000000000E+00 -0.45593999997E+02  0.45594000000E+02  0.51100000000E-03 0.  1.
    9900012    2    1    2    0    0  0.11458304454E+02 -0.74467962418E+01 -0.12803585388E+02  0.72461566436E+02  0.69999994974E+02 0.  0.
         12    1    1    2    0    0 -0.11458304454E+02  0.74467962418E+01  0.12803585388E+02  0.18726433564E+02  0.00000000000E+00 0. -1.
         11    1    3    3    0    0  0.58640661672E+01 -0.37742870840E+01 -0.44533294101E+01  0.82743373210E+01  0.51100000000E-03 0. -1.
        -11    1    3    3    0    0 -0.27462360378E+02 -0.49495979042E+01 -0.12993565010E+02  0.30781690806E+02  0.51100000000E-03 0.  1.
         12    1    3    3    0    0  0.33056598665E+02  0.12770887464E+01  0.46433090316E+01  0.33405538309E+02  0.00000000000E+00 0. -1.
</event>
<event>
 7    1  0.3050261E-013  0.7246156E+02  0.7816164E-02  0.1226708E+00
        -11   -1    0    0    0    0  0.00000000000E+00  0.00000000000E+00  0.45593999997E+02  0.45594000000E+02  0.51100000000E-03 0. -1.
         11   -1    0    0    0    0 -0.00000000000E+00 -0.00000000000E+00 -0.45593999997E+02  0.45594000000E+02  0.51100000000E-03 0.  1.
    9900012    2    1    2    0    0  0.33918433538E+01  0.19827995532E+01 -0.18309656599E+02  0.72461558261E+02  0.69999984325E+02 0.  0.
         12    1    1    2    0    0 -0.33918433538E+01 -0.19827995532E+01  0.18309656599E+02  0.18726441739E+02  0.00000000000E+00 0. -1.
         11    1    3    3    0    0  0.87634114879E+01  0.65546417551E+01  0.41188582738E+00  0.10951272056E+02  0.51100000000E-03 0. -1.
        -11    1    3    3    0    0  0.24701951102E+02 -0.82051607035E+01 -0.17162648496E+02  0.31177997916E+02  0.51100000000E-03 0.  1.
         12    1    3    3    0    0 -0.30073519236E+02  0.36333185016E+01 -0.15588939307E+01  0.30332288289E+02  0.00000000000E+00 0. -1.
</event>
<event>
 7    1  0.3050261E-013  0.7246158E+02  0.7816164E-02  0.1226708E+00
        -11   -1    0    0    0    0  0.00000000000E+00  0.00000000000E+00  0.45593999997E+02  0.45594000000E+02  0.51100000000E-03 0. -1.
         11   -1    0    0    0    0 -0.00000000000E+00 -0.00000000000E+00 -0.45593999997E+02  0.45594000000E+02  0.51100000000E-03 0.  1.
    9900012    2    1    2    0    0  0.48973172685E+01 -0.47133519386E+01 -0.17449339307E+02  0.72461578954E+02  0.70000011281E+02 0.  0.
         12    1    1    2    0    0 -0.48973172685E+01  0.47133519386E+01  0.17449339307E+02  0.18726421046E+02  0.00000000000E+00 0. -1.
         11    1    3    3    0    0 -0.57610825886E+00 -0.30703134786E+02 -0.68712689744E+00  0.30716225843E+02  0.51100000000E-03 0. -1.
        -11    1    3    3    0    0  0.43004014465E+01 -0.13036193536E+01  0.50698855611E+01  0.67747041178E+01  0.51100000000E-03 0.  1.
        -12    1    3    3    0    0  0.11730240809E+01  0.27293402201E+02 -0.21832097971E+02  0.34970648993E+02  0.00000000000E+00 0.  1.
</event>
<event>
 7    1  0.3050261E-013  0.7246158E+02  0.7816164E-02  0.1226708E+00
        -11   -1    0    0    0    0  0.00000000000E+00  0.00000000000E+00  0.45593999997E+02  0.45594000000E+02  0.51100000000E-03 0. -1.
         11   -1    0    0    0    0 -0.00000000000E+00 -0.00000000000E+00 -0.45593999997E+02  0.45594000000E+02  0.51100000000E-03 0.  1.
    9900012    2    1    2    0    0 -0.15726478086E+02 -0.52398541069E+01 -0.87120926734E+01  0.72461581688E+02  0.70000014842E+02 0.  0.
         12    1    1    2    0    0  0.15726478086E+02  0.52398541069E+01  0.87120926734E+01  0.18726418312E+02  0.00000000000E+00 0. -1.
         11    1    3    3    0    0 -0.24795796387E+02 -0.11678606121E+01 -0.15072345486E+02  0.29040850807E+02  0.51100000000E-03 0.  1.
        -11    1    3    3    0    0 -0.70356357822E+01 -0.15402686384E+02 -0.83125416544E+01  0.18863755398E+02  0.51100000000E-03 0. -1.
         12    1    3    3    0    0  0.16104954083E+02  0.11330692890E+02  0.14672794467E+02  0.24556975482E+02  0.00000000000E+00 0. -1.
</event>
<event>
 7    1  0.3050261E-013  0.7246156E+02  0.7816164E-02  0.1226708E+00
        -11   -1    0    0    0    0  0.00000000000E+00  0.00000000000E+00  0.45593999997E+02  0.45594000000E+02  0.51100000000E-03 0.  1.
         11   -1    0    0    0    0 -0.00000000000E+00 -0.00000000000E+00 -0.45593999997E+02  0.45594000000E+02  0.51100000000E-03 0. -1.
    9900012    2    1    2    0    0 -0.79462072177E+01 -0.14505046643E+02 -0.87830024779E+01  0.72461555602E+02  0.69999980861E+02 0.  0.
         12    1    1    2    0    0  0.79462072177E+01  0.14505046643E+02  0.87830024779E+01  0.18726444398E+02  0.00000000000E+00 0. -1.
         11    1    3    3    0    0  0.49268530617E+01  0.11351613027E+02 -0.23686017679E+02  0.26723780293E+02  0.51100000000E-03 0. -1.
        -11    1    3    3    0    0 -0.15735785510E+02  0.14330688520E+01  0.56180823668E+01  0.16769957713E+02  0.51100000000E-03 0.  1.
        -12    1    3    3    0    0  0.28627252304E+01 -0.27289728522E+02  0.92849328346E+01  0.28967817596E+02  0.00000000000E+00 0.  1.
</event>
<event>
 7    1  0.3050261E-013  0.7246158E+02  0.7816164E-02  0.1226708E+00
        -11   -1    0    0    0    0  0.00000000000E+00  0.00000000000E+00  0.45593999997E+02  0.45594000000E+02  0.51100000000E-03 0.  1.
         11   -1    0    0    0    0 -0.00000000000E+00 -0.00000000000E+00 -0.45593999997E+02  0.45594000000E+02  0.51100000000E-03 0. -1.
    9900012    2    1    2    0    0  0.95963688602E+01 -0.15926967558E+02  0.22181622791E+01  0.72461579232E+02  0.70000011643E+02 0.  0.
         12    1    1    2    0    0 -0.95963688602E+01  0.15926967558E+02 -0.22181622791E+01  0.18726420768E+02  0.00000000000E+00 0. -1.
         11    1    3    3    0    0  0.83413158828E+01 -0.49938924477E+01 -0.82539432112E+01  0.12753199255E+02  0.51100000000E-03 0. -1.
        -11    1    3    3    0    0 -0.12750407324E+02 -0.19133997261E+02 -0.16450677304E+02  0.28272027202E+02  0.51100000000E-03 0.  1.
         12    1    3    3    0    0  0.14005460301E+02  0.82009221509E+01  0.26922782795E+02  0.31436352775E+02  0.00000000000E+00 0. -1.
</event>
<event>
 7    1  0.3600592E-013  0.7246154E+02  0.7816164E-02  0.1226708E+00
        -11   -1    0    0    0    0  0.00000000000E+00  0.00000000000E+00  0.45593999997E+02  0.45594000000E+02  0.51100000000E-03 0. -1.
         11   -1    0    0    0    0 -0.00000000000E+00 -0.00000000000E+00 -0.45593999997E+02  0.45594000000E+02  0.51100000000E-03 0.  1.
    9900012    2    1    2    0    0 -0.10479110317E+02 -0.32274176461E+01 -0.15180651021E+02  0.72461544299E+02  0.69999966136E+02 0.  0.
         12    1    1    2    0    0  0.10479110317E+02  0.32274176461E+01  0.15180651021E+02  0.18726455701E+02  0.00000000000E+00 0. -1.
         11    1    3    3    0    0 -0.11931865901E+02  0.91242974746E+01 -0.92912096741E+01  0.17662072522E+02  0.51100000000E-03 0. -1.
        -11    1    3    3    0    0  0.13000361937E+02 -0.19021650613E+02 -0.23366998455E+02  0.32815380838E+02  0.51100000000E-03 0.  1.
         12    1    3    3    0    0 -0.11547606353E+02  0.66699354919E+01  0.17477557108E+02  0.21984090939E+02  0.00000000000E+00 0. -1.
</event>
<event>
 7    1  0.3050261E-013  0.7246149E+02  0.7816164E-02  0.1226708E+00
        -11   -1    0    0    0    0  0.00000000000E+00  0.00000000000E+00  0.45593999997E+02  0.45594000000E+02  0.51100000000E-03 0. -1.
         11   -1    0    0    0    0 -0.00000000000E+00 -0.00000000000E+00 -0.45593999997E+02  0.45594000000E+02  0.51100000000E-03 0.  1.
    9900012    2    1    2    0    0  0.34049166111E+01  0.19849534624E+01 -0.18307065075E+02  0.72461491275E+02  0.69999897062E+02 0.  0.
         12    1    1    2    0    0 -0.34049166111E+01 -0.19849534624E+01  0.18307065075E+02  0.18726508725E+02  0.00000000000E+00 0. -1.
         11    1    3    3    0    0  0.85209326932E+01 -0.10620542054E+02 -0.78545293123E+01  0.15719282378E+02  0.51100000000E-03 0. -1.
        -11    1    3    3    0    0 -0.95260113704E+01 -0.52136752279E+01 -0.28805518211E+02  0.30784495800E+02  0.51100000000E-03 0.  1.
         12    1    3    3    0    0  0.44099952883E+01  0.17819170745E+02  0.18352982448E+02  0.25957713097E+02  0.00000000000E+00 0. -1.
</event>
<event>
 7    1  0.3050261E-013  0.7246156E+02  0.7816164E-02  0.1226708E+00
        -11   -1    0    0    0    0  0.00000000000E+00  0.00000000000E+00  0.45593999997E+02  0.45594000000E+02  0.51100000000E-03 0.  1.
         11   -1    0    0    0    0 -0.00000000000E+00 -0.00000000000E+00 -0.45593999997E+02  0.45594000000E+02  0.51100000000E-03 0. -1.
    9900012    2    1    2    0    0 -0.22372706790E+01 -0.30940215632E+01  0.18333061842E+02  0.72461561309E+02  0.69999988295E+02 0.  0.
         12    1    1    2    0    0  0.22372706790E+01  0.30940215632E+01 -0.18333061842E+02  0.18726438691E+02  0.00000000000E+00 0. -1.
         11    1    3    3    0    0 -0.15290003162E+02 -0.49616700180E+01  0.52455448457E+01  0.16909113136E+02  0.51100000000E-03 0.  1.
        -11    1    3    3    0    0  0.63880277540E+01 -0.31306050080E+01 -0.20107086107E+02  0.21328443410E+02  0.51100000000E-03 0. -1.
        -12    1    3    3    0    0  0.66647047293E+01  0.49982534628E+01  0.33194603104E+02  0.34224004763E+02  0.00000000000E+00 0.  1.
</event>
<event>
 7    1  0.3050261E-013  0.7246160E+02  0.7816164E-02  0.1226708E+00
        -11   -1    0    0    0    0  0.00000000000E+00  0.00000000000E+00  0.45593999997E+02  0.45594000000E+02  0.51100000000E-03 0. -1.
         11   -1    0    0    0    0 -0.00000000000E+00 -0.00000000000E+00 -0.45593999997E+02  0.45594000000E+02  0.51100000000E-03 0.  1.
    9900012    2    1    2    0    0  0.11185462578E+02 -0.22125289281E+01 -0.14854909730E+02  0.72461596169E+02  0.70000033707E+02 0.  0.
         12    1    1    2    0    0 -0.11185462578E+02  0.22125289281E+01  0.14854909730E+02  0.18726403831E+02  0.00000000000E+00 0. -1.
         11    1    3    3    0    0  0.25457485498E+01 -0.17358848124E+02 -0.18072664834E+02  0.25187926837E+02  0.51100000000E-03 0. -1.
        -11    1    3    3    0    0 -0.34147213329E+01 -0.19237931624E+01 -0.17448531887E+02  0.17883304146E+02  0.51100000000E-03 0.  1.
         12    1    3    3    0    0  0.12054435361E+02  0.17070112358E+02  0.20666286991E+02  0.29390365186E+02  0.00000000000E+00 0. -1.
</event>
<event>
 7    1  0.3050261E-013  0.7246156E+02  0.7816164E-02  0.1226708E+00
        -11   -1    0    0    0    0  0.00000000000E+00  0.00000000000E+00  0.45593999997E+02  0.45594000000E+02  0.51100000000E-03 0. -1.
         11   -1    0    0    0    0 -0.00000000000E+00 -0.00000000000E+00 -0.45593999997E+02  0.45594000000E+02  0.51100000000E-03 0.  1.
    9900012    2    1    2    0    0  0.46580201816E+01  0.13207429410E+02 -0.12431667536E+02  0.72461556094E+02  0.69999981501E+02 0.  0.
         12    1    1    2    0    0 -0.46580201816E+01 -0.13207429410E+02  0.12431667536E+02  0.18726443906E+02  0.00000000000E+00 0. -1.
         11    1    3    3    0    0  0.96640518657E+01 -0.21850724061E+02  0.48829938080E+00  0.23897415697E+02  0.51100000000E-03 0. -1.
        -11    1    3    3    0    0  0.60761366657E+01  0.48105948759E+01 -0.14360385631E+02  0.16318147430E+02  0.51100000000E-03 0.  1.
         12    1    3    3    0    0 -0.11082168350E+02  0.30247558595E+02  0.14404187135E+01  0.32245992966E+02  0.00000000000E+00 0. -1.
</event>
<event>
 7    1  0.3050261E-013  0.7246153E+02  0.7816164E-02  0.1226708E+00
        -11   -1    0    0    0    0  0.00000000000E+00  0.00000000000E+00  0.45593999997E+02  0.45594000000E+02  0.51100000000E-03 0.  1.
         11   -1    0    0    0    0 -0.00000000000E+00 -0.00000000000E+00 -0.45593999997E+02  0.45594000000E+02  0.51100000000E-03 0. -1.
    9900012    2    1    2    0    0  0.18183145954E+02 -0.19476951370E+01  0.40324090198E+01  0.72461531148E+02  0.69999949005E+02 0.  0.
         12    1    1    2    0    0 -0.18183145954E+02  0.19476951370E+01 -0.40324090198E+01  0.18726468852E+02  0.00000000000E+00 0. -1.
         11    1    3    3    0    0 -0.45137064238E+01 -0.90830798749E+01 -0.17382487125E+02  0.20125276261E+02  0.51100000000E-03 0. -1.
        -11    1    3    3    0    0 -0.58770435959E+01 -0.11982104421E+02  0.51729180626E+01  0.14313264804E+02  0.51100000000E-03 0.  1.
        -12    1    3    3    0    0  0.28573895974E+02  0.19117489159E+02  0.16241978082E+02  0.38022990084E+02  0.00000000000E+00 0.  1.
</event>
<event>
 7    1  0.3050261E-013  0.7246160E+02  0.7816164E-02  0.1226708E+00
        -11   -1    0    0    0    0  0.00000000000E+00  0.00000000000E+00  0.45593999997E+02  0.45594000000E+02  0.51100000000E-03 0.  1.
         11   -1    0    0    0    0 -0.00000000000E+00 -0.00000000000E+00 -0.45593999997E+02  0.45594000000E+02  0.51100000000E-03 0. -1.
    9900012    2    1    2    0    0  0.15511700395E+02  0.10435177050E+02  0.10827684766E+01  0.72461597335E+02  0.70000035225E+02 0.  0.
         12    1    1    2    0    0 -0.15511700395E+02 -0.10435177050E+02 -0.10827684766E+01  0.18726402665E+02  0.00000000000E+00 0. -1.
         11    1    3    3    0    0 -0.13068421347E+02 -0.17676177124E+02 -0.70884601050E+01  0.23097124088E+02  0.51100000000E-03 0. -1.
        -11    1    3    3    0    0  0.87754331538E+01  0.11233204930E+02 -0.10185863052E+02  0.17519843790E+02  0.51100000000E-03 0.  1.
        -12    1    3    3    0    0  0.19804688588E+02  0.16878149244E+02  0.18357091634E+02  0.31844629457E+02  0.00000000000E+00 0.  1.
</event>
<event>
 7    1  0.3050261E-013  0.7246157E+02  0.7816164E-02  0.1226708E+00
        -11   -1    0    0    0    0  0.00000000000E+00  0.00000000000E+00  0.45593999997E+02  0.45594000000E+02  0.51100000000E-03 0. -1.
         11   -1    0    0    0    0 -0.00000000000E+00 -0.00000000000E+00 -0.45593999997E+02  0.45594000000E+02  0.51100000000E-03 0.  1.
    9900012    2    1    2    0    0  0.15368414717E+02  0.10332156503E+02  0.27816442404E+01  0.72461570186E+02  0.69999999858E+02 0.  0.
         12    1    1    2    0    0 -0.15368414717E+02 -0.10332156503E+02 -0.27816442404E+01  0.18726429814E+02  0.00000000000E+00 0. -1.
         11    1    3    3    0    0  0.68557012102E+01  0.31238844945E+01 -0.11756940676E+02  0.13963701076E+02  0.51100000000E-03 0. -1.
        -11    1    3    3    0    0  0.20834998142E+02 -0.18235044521E+02  0.11793162652E+02  0.30094728473E+02  0.51100000000E-03 0.  1.
         12    1    3    3    0    0 -0.12322284635E+02  0.25443316529E+02  0.27454222640E+01  0.28403140637E+02  0.00000000000E+00 0. -1.
</event>
<event>
 7    1  0.3050261E-013  0.7246151E+02  0.7816164E-02  0.1226708E+00
        -11   -1    0    0    0    0  0.00000000000E+00  0.00000000000E+00  0.45593999997E+02  0.45594000000E+02  0.51100000000E-03 0. -1.
         11   -1    0    0    0    0 -0.00000000000E+00 -0.00000000000E+00 -0.45593999997E+02  0.45594000000E+02  0.51100000000E-03 0.  1.
    9900012    2    1    2    0    0  0.77004425926E+01 -0.11738955700E+02 -0.12392796974E+02  0.72461513040E+02  0.69999925415E+02 0.  0.
         12    1    1    2    0    0 -0.77004425926E+01  0.11738955700E+02  0.12392796974E+02  0.18726486960E+02  0.00000000000E+00 0. -1.
         11    1    3    3    0    0  0.41871244024E+01 -0.23193044041E+02  0.28257231262E+01  0.23736765030E+02  0.51100000000E-03 0. -1.
        -11    1    3    3    0    0 -0.16954484996E+02  0.17353332658E+02 -0.38013865298E+01  0.24556939053E+02  0.51100000000E-03 0.  1.
         12    1    3    3    0    0  0.20467803187E+02 -0.58992443173E+01 -0.11417133570E+02  0.24167808957E+02  0.00000000000E+00 0. -1.
</event>
<event>
 7    1  0.3050261E-013  0.7246155E+02  0.7816164E-02  0.1226708E+00
        -11   -1    0    0    0    0  0.00000000000E+00  0.00000000000E+00  0.45593999997E+02  0.45594000000E+02  0.51100000000E-03 0. -1.
         11   -1    0    0    0    0 -0.00000000000E+00 -0.00000000000E+00 -0.45593999997E+02  0.45594000000E+02  0.51100000000E-03 0.  1.
    9900012    2    1    2    0    0  0.18382644831E+02  0.10412947855E+01  0.34167080179E+01  0.72461552940E+02  0.69999977392E+02 0.  0.
         12    1    1    2    0    0 -0.18382644831E+02 -0.10412947855E+01 -0.34167080179E+01  0.18726447060E+02  0.00000000000E+00 0. -1.
         11    1    3    3    0    0 -0.90572844596E+01  0.23426490510E+01 -0.61193998490E+01  0.11178974064E+02  0.51100000000E-03 0. -1.
        -11    1    3    3    0    0  0.20560438619E+02  0.12913648427E+02 -0.17529778333E+02  0.29946403466E+02  0.51100000000E-03 0.  1.
         12    1    3    3    0    0  0.68794906720E+01 -0.14215002692E+02  0.27065886200E+02  0.31336175409E+02  0.00000000000E+00 0. -1.
</event>
<event>
 7    1  0.3050261E-013  0.7246154E+02  0.7816164E-02  0.1226708E+00
        -11   -1    0    0    0    0  0.00000000000E+00  0.00000000000E+00  0.45593999997E+02  0.45594000000E+02  0.51100000000E-03 0.  1.
         11   -1    0    0    0    0 -0.00000000000E+00 -0.00000000000E+00 -0.45593999997E+02  0.45594000000E+02  0.51100000000E-03 0. -1.
    9900012    2    1    2    0    0 -0.13316977125E+02  0.10787669620E+02  0.75474953334E+01  0.72461537938E+02  0.69999957849E+02 0.  0.
         12    1    1    2    0    0  0.13316977125E+02 -0.10787669620E+02 -0.75474953334E+01  0.18726462062E+02  0.00000000000E+00 0. -1.
         11    1    3    3    0    0 -0.14443846036E+02  0.59718472896E+01 -0.19436779003E+02  0.24941451975E+02  0.51100000000E-03 0. -1.
        -11    1    3    3    0    0  0.11867517243E+02  0.70149345808E+01 -0.42431703806E+01  0.14423999717E+02  0.51100000000E-03 0.  1.
        -12    1    3    3    0    0 -0.10740648332E+02 -0.21991122508E+01  0.31227444717E+02  0.33096086246E+02  0.00000000000E+00 0.  1.
</event>
<event>
 7    1  0.3050261E-013  0.7246160E+02  0.7816164E-02  0.1226708E+00
        -11   -1    0    0    0    0  0.00000000000E+00  0.00000000000E+00  0.45593999997E+02  0.45594000000E+02  0.51100000000E-03 0. -1.
         11   -1    0    0    0    0 -0.00000000000E+00 -0.00000000000E+00 -0.45593999997E+02  0.45594000000E+02  0.51100000000E-03 0.  1.
    9900012    2    1    2    0    0  0.48339408194E+01 -0.33888239551E+01 -0.17771517338E+02  0.72461603119E+02  0.70000042760E+02 0.  0.
         12    1    1    2    0    0 -0.48339408194E+01  0.33888239551E+01  0.17771517338E+02  0.18726396881E+02  0.00000000000E+00 0. -1.
         11    1    3    3    0    0  0.15705704017E+02 -0.10191105499E+01 -0.92536190677E+01  0.18257524232E+02  0.51100000000E-03 0. -1.
        -11    1    3    3    0    0 -0.26019958514E+01 -0.27007954338E+02 -0.10080433243E+01  0.27151724283E+02  0.51100000000E-03 0.  1.
         12    1    3    3    0    0 -0.82697673463E+01  0.24638240933E+02 -0.75098549463E+01  0.27052354603E+02  0.00000000000E+00 0. -1.
</event>
<event>
 7    1  0.3050261E-013  0.7246218E+02  0.7816164E-02  0.1226706E+00
        -11   -1    0    0    0    0  0.00000000000E+00  0.00000000000E+00  0.45593999997E+02  0.45594000000E+02  0.51100000000E-03 0. -1.
         11   -1    0    0    0    0 -0.00000000000E+00 -0.00000000000E+00 -0.45593999997E+02  0.45594000000E+02  0.51100000000E-03 0.  1.
    9900012    2    1    2    0    0 -0.20467172968E+01  0.61212182393E+01 -0.17578339989E+02  0.72462178224E+02  0.70000791937E+02 0.  0.
         12    1    1    2    0    0  0.20467172968E+01 -0.61212182393E+01  0.17578339989E+02  0.18725821776E+02  0.00000000000E+00 0. -1.
         11    1    3    3    0    0 -0.39072780514E+01 -0.55708480889E+01 -0.25500904526E+02  0.26393129828E+02  0.51100000000E-03 0. -1.
        -11    1    3    3    0    0  0.14579703158E+02 -0.10967237675E+02  0.83876960787E+01  0.20079877792E+02  0.51100000000E-03 0.  1.
         12    1    3    3    0    0 -0.12719142403E+02  0.22659304003E+02 -0.46513154144E+00  0.25989170605E+02  0.00000000000E+00 0. -1.
</event>
<event>
 7    1  0.3050261E-013  0.7246153E+02  0.7816164E-02  0.1226708E+00
        -11   -1    0    0    0    0  0.00000000000E+00  0.00000000000E+00  0.45593999997E+02  0.45594000000E+02  0.51100000000E-03 0.  1.
         11   -1    0    0    0    0 -0.00000000000E+00 -0.00000000000E+00 -0.45593999997E+02  0.45594000000E+02  0.51100000000E-03 0. -1.
    9900012    2    1    2    0    0 -0.16752015675E+02  0.77622893398E+01  0.31301075435E+01  0.72461528411E+02  0.69999945439E+02 0.  0.
         12    1    1    2    0    0  0.16752015675E+02 -0.77622893398E+01 -0.31301075435E+01  0.18726471589E+02  0.00000000000E+00 0. -1.
         11    1    3    3    0    0 -0.42402842463E+01  0.17436299750E+02 -0.28602705056E+02  0.33765652611E+02  0.51100000000E-03 0. -1.
        -11    1    3    3    0    0 -0.85155200762E-01  0.29304401433E+01  0.11246154264E+02  0.11621992808E+02  0.51100000000E-03 0.  1.
        -12    1    3    3    0    0 -0.12426576227E+02 -0.12604450554E+02  0.20486658336E+02  0.27073882992E+02  0.00000000000E+00 0.  1.
</event>
<event>
 7    1  0.3050261E-013  0.7246131E+02  0.7816164E-02  0.1226709E+00
        -11   -1    0    0    0    0  0.00000000000E+00  0.00000000000E+00  0.45593999997E+02  0.45594000000E+02  0.51100000000E-03 0.  1.
         11   -1    0    0    0    0 -0.00000000000E+00 -0.00000000000E+00 -0.45593999997E+02  0.45594000000E+02  0.51100000000E-03 0. -1.
    9900012    2    1    2    0    0  0.16083286314E+02 -0.54911667800E+01  0.78653619574E+01  0.72461309690E+02  0.69999660513E+02 0.  0.
         12    1    1    2    0    0 -0.16083286314E+02  0.54911667800E+01 -0.78653619574E+01  0.18726690310E+02  0.00000000000E+00 0. -1.
         11    1    3    3    0    0 -0.16688488500E+01  0.54008176718E+01 -0.58729271337E+00  0.56832034101E+01  0.51100000000E-03 0. -1.
        -11    1    3    3    0    0  0.20308830252E+02  0.23029869128E+02 -0.30771554446E+01  0.30859234341E+02  0.51100000000E-03 0.  1.
         12    1    3    3    0    0 -0.25566950879E+01 -0.33921853580E+02  0.11529810115E+02  0.35918871939E+02  0.00000000000E+00 0. -1.
</event>
<event>
 7    1  0.3050261E-013  0.7246155E+02  0.7816164E-02  0.1226708E+00
        -11   -1    0    0    0    0  0.00000000000E+00  0.00000000000E+00  0.45593999997E+02  0.45594000000E+02  0.51100000000E-03 0.  1.
         11   -1    0    0    0    0 -0.00000000000E+00 -0.00000000000E+00 -0.45593999997E+02  0.45594000000E+02  0.51100000000E-03 0. -1.
    9900012    2    1    2    0    0  0.36103917139E+00  0.18712969524E+02  0.61182141123E+00  0.72461550707E+02  0.69999974483E+02 0.  0.
         12    1    1    2    0    0 -0.36103917139E+00 -0.18712969524E+02 -0.61182141123E+00  0.18726449293E+02  0.00000000000E+00 0. -1.
         11    1    3    3    0    0  0.22071487561E+01 -0.11864833478E+02 -0.26478420027E+02  0.29099012122E+02  0.51100000000E-03 0. -1.
        -11    1    3    3    0    0 -0.62066135114E+01  0.13098976859E+02  0.61662059455E+01  0.15752058344E+02  0.51100000000E-03 0.  1.
        -12    1    3    3    0    0  0.43605039267E+01  0.17478826143E+02  0.20924035493E+02  0.27610480241E+02  0.00000000000E+00 0.  1.
</event>
<event>
 7    1  0.3050261E-013  0.7246157E+02  0.7816164E-02  0.1226708E+00
        -11   -1    0    0    0    0  0.00000000000E+00  0.00000000000E+00  0.45593999997E+02  0.45594000000E+02  0.51100000000E-03 0.  1.
         11   -1    0    0    0    0 -0.00000000000E+00 -0.00000000000E+00 -0.45593999997E+02  0.45594000000E+02  0.51100000000E-03 0. -1.
    9900012    2    1    2    0    0  0.31406042438E+00  0.16207616730E+02 -0.93751546754E+01  0.72461574842E+02  0.70000005924E+02 0.  0.
         12    1    1    2    0    0 -0.31406042438E+00 -0.16207616730E+02  0.93751546754E+01  0.18726425158E+02  0.00000000000E+00 0. -1.
         11    1    3    3    0    0  0.11461411316E+02 -0.31001077684E+01  0.16616103381E+02  0.20422279730E+02  0.51100000000E-03 0. -1.
        -11    1    3    3    0    0  0.14341125741E+02  0.38122921122E+01 -0.12038532329E+02  0.19108315455E+02  0.51100000000E-03 0.  1.
         12    1    3    3    0    0 -0.25488476632E+02  0.15495432386E+02 -0.13952725728E+02  0.32930979656E+02  0.00000000000E+00 0. -1.
</event>
<event>
 7    1  0.3050261E-013  0.7246130E+02  0.7816164E-02  0.1226709E+00
        -11   -1    0    0    0    0  0.00000000000E+00  0.00000000000E+00  0.45593999997E+02  0.45594000000E+02  0.51100000000E-03 0. -1.
         11   -1    0    0    0    0 -0.00000000000E+00 -0.00000000000E+00 -0.45593999997E+02  0.45594000000E+02  0.51100000000E-03 0.  1.
    9900012    2    1    2    0    0 -0.17052947663E+02 -0.44567071407E+01 -0.63264624284E+01  0.72461297424E+02  0.69999644534E+02 0.  0.
         12    1    1    2    0    0  0.17052947663E+02  0.44567071407E+01  0.63264624284E+01  0.18726702576E+02  0.00000000000E+00 0. -1.
         11    1    3    3    0    0  0.23413840610E+01 -0.99577855082E+01 -0.19108841762E+02  0.21674579703E+02  0.51100000000E-03 0. -1.
        -11    1    3    3    0    0 -0.23273394448E+02 -0.75054904085E+01 -0.82045204092E+01  0.25793360208E+02  0.51100000000E-03 0.  1.
         12    1    3    3    0    0  0.38790627248E+01  0.13006568776E+02  0.20986899743E+02  0.24993357513E+02  0.00000000000E+00 0. -1.
</event>
<event>
 7    1  0.3050261E-013  0.7246156E+02  0.7816164E-02  0.1226708E+00
        -11   -1    0    0    0    0  0.00000000000E+00  0.00000000000E+00  0.45593999997E+02  0.45594000000E+02  0.51100000000E-03 0.  1.
         11   -1    0    0    0    0 -0.00000000000E+00 -0.00000000000E+00 -0.45593999997E+02  0.45594000000E+02  0.51100000000E-03 0. -1.
    9900012    2    1    2    0    0  0.94220932596E+01  0.41708808224E+01  0.15636732996E+02  0.72461561283E+02  0.69999988262E+02 0.  0.
         12    1    1    2    0    0 -0.94220932596E+01 -0.41708808224E+01 -0.15636732996E+02  0.18726438717E+02  0.00000000000E+00 0. -1.
         11    1    3    3    0    0  0.40238998342E+01 -0.18368961679E+02  0.21787598742E+02  0.28780374950E+02  0.51100000000E-03 0. -1.
        -11    1    3    3    0    0 -0.14621826285E+02  0.10971002338E+02  0.35236262051E+01  0.18616568913E+02  0.51100000000E-03 0.  1.
        -12    1    3    3    0    0  0.20020019710E+02  0.11568840163E+02 -0.96744919515E+01  0.25064617420E+02  0.00000000000E+00 0.  1.
</event>
<event>
 7    1  0.3050261E-013  0.7246162E+02  0.7816164E-02  0.1226708E+00
        -11   -1    0    0    0    0  0.00000000000E+00  0.00000000000E+00  0.45593999997E+02  0.45594000000E+02  0.51100000000E-03 0.  1.
         11   -1    0    0    0    0 -0.00000000000E+00 -0.00000000000E+00 -0.45593999997E+02  0.45594000000E+02  0.51100000000E-03 0. -1.
    9900012    2    1    2    0    0  0.11575692114E+02 -0.93273426729E+01  0.11387767031E+02  0.72461622689E+02  0.70000068254E+02 0.  0.
         12    1    1    2    0    0 -0.11575692114E+02  0.93273426729E+01 -0.11387767031E+02  0.18726377311E+02  0.00000000000E+00 0. -1.
         11    1    3    3    0    0  0.89540741146E+01  0.70039688192E+01  0.48871284709E+01  0.12373966519E+02  0.51100000000E-03 0. -1.
        -11    1    3    3    0    0  0.65242203523E+01  0.85830357085E+00  0.29999272856E+02  0.30712513873E+02  0.51100000000E-03 0.  1.
        -12    1    3    3    0    0 -0.39026023529E+01 -0.17189615063E+02 -0.23498634297E+02  0.29375142297E+02  0.00000000000E+00 0.  1.
</event>
<event>
 7    1  0.3050261E-013  0.7246149E+02  0.7816164E-02  0.1226708E+00
        -11   -1    0    0    0    0  0.00000000000E+00  0.00000000000E+00  0.45593999997E+02  0.45594000000E+02  0.51100000000E-03 0. -1.
         11   -1    0    0    0    0 -0.00000000000E+00 -0.00000000000E+00 -0.45593999997E+02  0.45594000000E+02  0.51100000000E-03 0.  1.
    9900012    2    1    2    0    0  0.69365749563E+01 -0.49641837991E+01 -0.16671018914E+02  0.72461492997E+02  0.69999899305E+02 0.  0.
         12    1    1    2    0    0 -0.69365749563E+01  0.49641837991E+01  0.16671018914E+02  0.18726507003E+02  0.00000000000E+00 0. -1.
         11    1    3    3    0    0 -0.18343400281E+02 -0.67857912823E+01  0.49784925514E+01  0.20181989137E+02  0.51100000000E-03 0. -1.
        -11    1    3    3    0    0 -0.76940848355E+01 -0.89095861537E+01 -0.10719784211E+02  0.15921477340E+02  0.51100000000E-03 0.  1.
        -12    1    3    3    0    0  0.32974060073E+02  0.10731193637E+02 -0.10929727254E+02  0.36358026520E+02  0.00000000000E+00 0.  1.
</event>
<event>
 7    1  0.3050261E-013  0.7246155E+02  0.7816164E-02  0.1226708E+00
        -11   -1    0    0    0    0  0.00000000000E+00  0.00000000000E+00  0.45593999997E+02  0.45594000000E+02  0.51100000000E-03 0.  1.
         11   -1    0    0    0    0 -0.00000000000E+00 -0.00000000000E+00 -0.45593999997E+02  0.45594000000E+02  0.51100000000E-03 0. -1.
    9900012    2    1    2    0    0  0.86044974524E+01  0.15635696472E+02  0.56716322342E+01  0.72461553653E+02  0.69999978322E+02 0.  0.
         12    1    1    2    0    0 -0.86044974524E+01 -0.15635696472E+02 -0.56716322342E+01  0.18726446347E+02  0.00000000000E+00 0. -1.
         11    1    3    3    0    0  0.17931000821E+02  0.53477327801E+01 -0.19110725206E+01  0.18808807373E+02  0.51100000000E-03 0. -1.
        -11    1    3    3    0    0  0.15992164371E+02 -0.10638967602E+02 -0.23138008159E+01  0.19346592139E+02  0.51100000000E-03 0.  1.
         12    1    3    3    0    0 -0.25318667740E+02  0.20926931294E+02  0.98965055707E+01  0.34306154142E+02  0.00000000000E+00 0. -1.
</event>
<event>
 7    1  0.3050261E-013  0.7246170E+02  0.7816164E-02  0.1226708E+00
        -11   -1    0    0    0    0  0.00000000000E+00  0.00000000000E+00  0.45593999997E+02  0.45594000000E+02  0.51100000000E-03 0.  1.
         11   -1    0    0    0    0 -0.00000000000E+00 -0.00000000000E+00 -0.45593999997E+02  0.45594000000E+02  0.51100000000E-03 0. -1.
    9900012    2    1    2    0    0 -0.10140664444E+02  0.14149648421E+02 -0.69013668524E+01  0.72461695233E+02  0.70000162755E+02 0.  0.
         12    1    1    2    0    0  0.10140664444E+02 -0.14149648421E+02  0.69013668524E+01  0.18726304767E+02  0.00000000000E+00 0. -1.
         11    1    3    3    0    0 -0.38676938109E+01  0.82429510118E+01  0.57896170049E+01  0.10790039950E+02  0.51100000000E-03 0. -1.
        -11    1    3    3    0    0  0.10697082723E+02  0.22639992246E+01  0.21054408061E+02  0.23724278078E+02  0.51100000000E-03 0.  1.
         12    1    3    3    0    0 -0.16970053356E+02  0.36426981843E+01 -0.33745391919E+02  0.37947377204E+02  0.00000000000E+00 0. -1.
</event>
<event>
 7    1  0.3050261E-013  0.7246159E+02  0.7816164E-02  0.1226708E+00
        -11   -1    0    0    0    0  0.00000000000E+00  0.00000000000E+00  0.45593999997E+02  0.45594000000E+02  0.51100000000E-03 0. -1.
         11   -1    0    0    0    0 -0.00000000000E+00 -0.00000000000E+00 -0.45593999997E+02  0.45594000000E+02  0.51100000000E-03 0.  1.
    9900012    2    1    2    0    0 -0.15117384872E+02  0.20658346063E+01  0.10857048093E+02  0.72461588404E+02  0.70000023591E+02 0.  0.
         12    1    1    2    0    0  0.15117384872E+02 -0.20658346063E+01 -0.10857048093E+02  0.18726411596E+02  0.00000000000E+00 0. -1.
         11    1    3    3    0    0 -0.15405232642E+01  0.45068154352E+00  0.59587468112E+01  0.61711416773E+01  0.51100000000E-03 0. -1.
        -11    1    3    3    0    0 -0.39034962846E+02 -0.50167133708E+01 -0.83653718309E+00  0.39364902288E+02  0.51100000000E-03 0.  1.
         12    1    3    3    0    0  0.25458101239E+02  0.66318664336E+01  0.57348384651E+01  0.26925544438E+02  0.00000000000E+00 0. -1.
</event>
<event>
 7    1  0.3050261E-013  0.7246159E+02  0.7816164E-02  0.1226708E+00
        -11   -1    0    0    0    0  0.00000000000E+00  0.00000000000E+00  0.45593999997E+02  0.45594000000E+02  0.51100000000E-03 0. -1.
         11   -1    0    0    0    0 -0.00000000000E+00 -0.00000000000E+00 -0.45593999997E+02  0.45594000000E+02  0.51100000000E-03 0.  1.
    9900012    2    1    2    0    0 -0.28865640003E+01 -0.61867544267E-01 -0.18502497421E+02  0.72461588435E+02  0.70000023631E+02 0.  0.
         12    1    1    2    0    0  0.28865640003E+01  0.61867544267E-01  0.18502497421E+02  0.18726411565E+02  0.00000000000E+00 0. -1.
         11    1    3    3    0    0  0.24834605456E+02 -0.10027401642E+02  0.73194305036E+01  0.27764734376E+02  0.51100000000E-03 0. -1.
        -11    1    3    3    0    0 -0.42618096618E+01  0.26415618802E+01  0.37387177354E+01  0.62545088798E+01  0.51100000000E-03 0.  1.
        -12    1    3    3    0    0 -0.23459359794E+02  0.73239722175E+01 -0.29560645660E+02  0.38442345178E+02  0.00000000000E+00 0.  1.
</event>
<event>
 7    1  0.3050261E-013  0.7246165E+02  0.7816164E-02  0.1226708E+00
        -11   -1    0    0    0    0  0.00000000000E+00  0.00000000000E+00  0.45593999997E+02  0.45594000000E+02  0.51100000000E-03 0. -1.
         11   -1    0    0    0    0 -0.00000000000E+00 -0.00000000000E+00 -0.45593999997E+02  0.45594000000E+02  0.51100000000E-03 0.  1.
    9900012    2    1    2    0    0  0.54952047457E+01  0.17487797319E+02 -0.38282854717E+01  0.72461652254E+02  0.70000106767E+02 0.  0.
         12    1    1    2    0    0 -0.54952047457E+01 -0.17487797319E+02  0.38282854717E+01  0.18726347746E+02  0.00000000000E+00 0. -1.
         11    1    3    3    0    0  0.84134688347E+01 -0.15072346407E+02  0.12832842306E+02  0.21509159118E+02  0.51100000000E-03 0. -1.
        -11    1    3    3    0    0  0.90203431181E+00 -0.76787878706E+01 -0.26765199444E+01  0.81817607112E+01  0.51100000000E-03 0.  1.
         12    1    3    3    0    0 -0.38202984008E+01  0.40238931597E+02 -0.13984607833E+02  0.42770732425E+02  0.00000000000E+00 0. -1.
</event>
<event>
 7    1  0.3050261E-013  0.7246154E+02  0.7816164E-02  0.1226708E+00
        -11   -1    0    0    0    0  0.00000000000E+00  0.00000000000E+00  0.45593999997E+02  0.45594000000E+02  0.51100000000E-03 0.  1.
         11   -1    0    0    0    0 -0.00000000000E+00 -0.00000000000E+00 -0.45593999997E+02  0.45594000000E+02  0.51100000000E-03 0. -1.
    9900012    2    1    2    0    0 -0.13059366827E+02 -0.22500955971E+00 -0.13419482503E+02  0.72461542730E+02  0.69999964092E+02 0.  0.
         12    1    1    2    0    0  0.13059366827E+02  0.22500955971E+00  0.13419482503E+02  0.18726457270E+02  0.00000000000E+00 0. -1.
         11    1    3    3    0    0 -0.93674529599E+01 -0.83430578030E+01 -0.12148207116E+02  0.17462380275E+02  0.51100000000E-03 0. -1.
        -11    1    3    3    0    0  0.96851516208E+01  0.99921938654E+01 -0.24472515186E+02  0.28152266338E+02  0.51100000000E-03 0.  1.
         12    1    3    3    0    0 -0.13377065488E+02 -0.18741456222E+01  0.23201239799E+02  0.26846896117E+02  0.00000000000E+00 0. -1.
</event>
<event>
 7    1  0.3050261E-013  0.7246157E+02  0.7816164E-02  0.1226708E+00
        -11   -1    0    0    0    0  0.00000000000E+00  0.00000000000E+00  0.45593999997E+02  0.45594000000E+02  0.51100000000E-03 0.  1.
         11   -1    0    0    0    0 -0.00000000000E+00 -0.00000000000E+00 -0.45593999997E+02  0.45594000000E+02  0.51100000000E-03 0. -1.
    9900012    2    1    2    0    0 -0.91076516780E+01 -0.87302025395E+01  0.13838842590E+02  0.72461566285E+02  0.69999994776E+02 0.  0.
         12    1    1    2    0    0  0.91076516780E+01  0.87302025395E+01 -0.13838842590E+02  0.18726433715E+02  0.00000000000E+00 0. -1.
         11    1    3    3    0    0 -0.26310037429E+02  0.17993547368E+02  0.15174269320E+02  0.35302185004E+02  0.51100000000E-03 0. -1.
        -11    1    3    3    0    0  0.34223044404E+01  0.43911238995E+00  0.49748023153E+01  0.60542254427E+01  0.51100000000E-03 0.  1.
         12    1    3    3    0    0  0.13780081311E+02 -0.27162862297E+02 -0.63102290452E+01  0.31105155838E+02  0.00000000000E+00 0. -1.
</event>
<event>
 7    1  0.3050261E-013  0.7246156E+02  0.7816164E-02  0.1226708E+00
        -11   -1    0    0    0    0  0.00000000000E+00  0.00000000000E+00  0.45593999997E+02  0.45594000000E+02  0.51100000000E-03 0.  1.
         11   -1    0    0    0    0 -0.00000000000E+00 -0.00000000000E+00 -0.45593999997E+02  0.45594000000E+02  0.51100000000E-03 0. -1.
    9900012    2    1    2    0    0  0.11395272958E+02  0.10298602041E+02  0.10712890050E+02  0.72461562458E+02  0.69999989792E+02 0.  0.
         12    1    1    2    0    0 -0.11395272958E+02 -0.10298602041E+02 -0.10712890050E+02  0.18726437542E+02  0.00000000000E+00 0. -1.
         11    1    3    3    0    0  0.61379393287E+01  0.12445015399E+00  0.12593417646E+02  0.14010137590E+02  0.51100000000E-03 0. -1.
        -11    1    3    3    0    0  0.12165688357E+02  0.18375172254E+02  0.22697650061E+02  0.31635964457E+02  0.51100000000E-03 0.  1.
         12    1    3    3    0    0 -0.69083547275E+01 -0.82010203674E+01 -0.24578177657E+02  0.26815460411E+02  0.00000000000E+00 0. -1.
</event>
<event>
 7    1  0.3050261E-013  0.7246159E+02  0.7816164E-02  0.1226708E+00
        -11   -1    0    0    0    0  0.00000000000E+00  0.00000000000E+00  0.45593999997E+02  0.45594000000E+02  0.51100000000E-03 0. -1.
         11   -1    0    0    0    0 -0.00000000000E+00 -0.00000000000E+00 -0.45593999997E+02  0.45594000000E+02  0.51100000000E-03 0.  1.
    9900012    2    1    2    0    0  0.17857453623E+02 -0.68529159435E+00 -0.55964538192E+01  0.72461586307E+02  0.70000020859E+02 0.  0.
         12    1    1    2    0    0 -0.17857453623E+02  0.68529159435E+00  0.55964538192E+01  0.18726413693E+02  0.00000000000E+00 0. -1.
         11    1    3    3    0    0 -0.31168901735E+01  0.20042246575E+01  0.56520438213E+01  0.67585146631E+01  0.51100000000E-03 0. -1.
        -11    1    3    3    0    0  0.15942908552E+02 -0.13772165769E+02  0.21901348093E+02  0.30389437830E+02  0.51100000000E-03 0.  1.
         12    1    3    3    0    0  0.50314352442E+01  0.11082649517E+02 -0.33149845734E+02  0.35313633814E+02  0.00000000000E+00 0. -1.
</event>
<event>
 7    1  0.3050261E-013  0.7246156E+02  0.7816164E-02  0.1226708E+00
        -11   -1    0    0    0    0  0.00000000000E+00  0.00000000000E+00  0.45593999997E+02  0.45594000000E+02  0.51100000000E-03 0.  1.
         11   -1    0    0    0    0 -0.00000000000E+00 -0.00000000000E+00 -0.45593999997E+02  0.45594000000E+02  0.51100000000E-03 0. -1.
    9900012    2    1    2    0    0  0.81497769414E+01 -0.16005408683E+01  0.16783891931E+02  0.72461558170E+02  0.69999984206E+02 0.  0.
         12    1    1    2    0    0 -0.81497769414E+01  0.16005408683E+01 -0.16783891931E+02  0.18726441830E+02  0.00000000000E+00 0. -1.
         11    1    3    3    0    0  0.84813350208E+01 -0.91732914511E+01 -0.38206215323E+01  0.13064435270E+02  0.51100000000E-03 0. -1.
        -11    1    3    3    0    0 -0.16314707697E+00 -0.22490847407E+02 -0.77748376590E+00  0.22504873146E+02  0.51100000000E-03 0.  1.
         12    1    3    3    0    0 -0.16841100247E+00  0.30063597990E+02  0.21381997229E+02  0.36892249753E+02  0.00000000000E+00 0. -1.
</event>
<event>
 7    1  0.3050261E-013  0.7246157E+02  0.7816164E-02  0.1226708E+00
        -11   -1    0    0    0    0  0.00000000000E+00  0.00000000000E+00  0.45593999997E+02  0.45594000000E+02  0.51100000000E-03 0. -1.
         11   -1    0    0    0    0 -0.00000000000E+00 -0.00000000000E+00 -0.45593999997E+02  0.45594000000E+02  0.51100000000E-03 0.  1.
    9900012    2    1    2    0    0  0.12043174410E+02  0.11346826298E+02 -0.87687335313E+01  0.72461569357E+02  0.69999998778E+02 0.  0.
         12    1    1    2    0    0 -0.12043174410E+02 -0.11346826298E+02  0.87687335313E+01  0.18726430643E+02  0.00000000000E+00 0. -1.
         11    1    3    3    0    0 -0.18674263596E+02 -0.52666216260E+01 -0.10013076825E+02  0.21834081890E+02  0.51100000000E-03 0. -1.
        -11    1    3    3    0    0 -0.62520976115E+01  0.11044305332E+02 -0.28806028236E+01  0.13013964719E+02  0.51100000000E-03 0.  1.
        -12    1    3    3    0    0  0.36969535618E+02  0.55691425916E+01  0.41249461175E+01  0.37613522748E+02  0.00000000000E+00 0.  1.
</event>
<event>
 7    1  0.3050261E-013  0.7246154E+02  0.7816164E-02  0.1226708E+00
        -11   -1    0    0    0    0  0.00000000000E+00  0.00000000000E+00  0.45593999997E+02  0.45594000000E+02  0.51100000000E-03 0.  1.
         11   -1    0    0    0    0 -0.00000000000E+00 -0.00000000000E+00 -0.45593999997E+02  0.45594000000E+02  0.51100000000E-03 0. -1.
    9900012    2    1    2    0    0 -0.37614697549E+01 -0.18131022360E+02  0.27924109877E+01  0.72461543164E+02  0.69999964657E+02 0.  0.
         12    1    1    2    0    0  0.37614697549E+01  0.18131022360E+02 -0.27924109877E+01  0.18726456836E+02  0.00000000000E+00 0. -1.
         11    1    3    3    0    0  0.23378738319E+02 -0.11152746801E+02  0.14453796473E+02  0.29662457742E+02  0.51100000000E-03 0. -1.
        -11    1    3    3    0    0  0.22428432752E+01  0.28224002907E+01 -0.11258940445E+02  0.11822014616E+02  0.51100000000E-03 0.  1.
        -12    1    3    3    0    0 -0.29383051349E+02 -0.98006758497E+01 -0.40244503989E+00  0.30977070806E+02  0.00000000000E+00 0.  1.
</event>
<event>
 7    1  0.3050261E-013  0.7246160E+02  0.7816164E-02  0.1226708E+00
        -11   -1    0    0    0    0  0.00000000000E+00  0.00000000000E+00  0.45593999997E+02  0.45594000000E+02  0.51100000000E-03 0. -1.
         11   -1    0    0    0    0 -0.00000000000E+00 -0.00000000000E+00 -0.45593999997E+02  0.45594000000E+02  0.51100000000E-03 0.  1.
    9900012    2    1    2    0    0  0.11373188309E+02 -0.11948343930E+02 -0.88637411326E+01  0.72461595063E+02  0.70000032266E+02 0.  0.
         12    1    1    2    0    0 -0.11373188309E+02  0.11948343930E+02  0.88637411326E+01  0.18726404937E+02  0.00000000000E+00 0. -1.
         11    1    3    3    0    0 -0.14276432728E+01  0.33752983387E+01  0.37742378639E+00  0.36841896212E+01  0.51100000000E-03 0. -1.
        -11    1    3    3    0    0 -0.21718028581E+01  0.65016187380E+01  0.24758724331E+02  0.25690118813E+02  0.51100000000E-03 0.  1.
        -12    1    3    3    0    0  0.14972634440E+02 -0.21825261007E+02 -0.33999889250E+02  0.43087286629E+02  0.00000000000E+00 0.  1.
</event>
<event>
 7    1  0.3050261E-013  0.7246156E+02  0.7816164E-02  0.1226708E+00
        -11   -1    0    0    0    0  0.00000000000E+00  0.00000000000E+00  0.45593999997E+02  0.45594000000E+02  0.51100000000E-03 0. -1.
         11   -1    0    0    0    0 -0.00000000000E+00 -0.00000000000E+00 -0.45593999997E+02  0.45594000000E+02  0.51100000000E-03 0.  1.
    9900012    2    1    2    0    0 -0.71872411210E+01 -0.78392409193E+01 -0.15413288456E+02  0.72461558956E+02  0.69999985230E+02 0.  0.
         12    1    1    2    0    0  0.71872411210E+01  0.78392409193E+01  0.15413288456E+02  0.18726441044E+02  0.00000000000E+00 0. -1.
         11    1    3    3    0    0 -0.43472535838E+01 -0.42172891835E+01 -0.65442879502E+01  0.89169415617E+01  0.51100000000E-03 0. -1.
        -11    1    3    3    0    0  0.25374267722E+00 -0.30859388295E+02 -0.16628098509E+02  0.35055097940E+02  0.51100000000E-03 0.  1.
         12    1    3    3    0    0 -0.30937302145E+01  0.27237436559E+02  0.77590980022E+01  0.28489519455E+02  0.00000000000E+00 0. -1.
</event>
<event>
 7    1  0.3050261E-013  0.7246156E+02  0.7816164E-02  0.1226708E+00
        -11   -1    0    0    0    0  0.00000000000E+00  0.00000000000E+00  0.45593999997E+02  0.45594000000E+02  0.51100000000E-03 0.  1.
         11   -1    0    0    0    0 -0.00000000000E+00 -0.00000000000E+00 -0.45593999997E+02  0.45594000000E+02  0.51100000000E-03 0. -1.
    9900012    2    1    2    0    0 -0.61622654640E+01  0.16811542540E+02  0.54843417613E+01  0.72461561930E+02  0.69999989104E+02 0.  0.
         12    1    1    2    0    0  0.61622654640E+01 -0.16811542540E+02 -0.54843417613E+01  0.18726438070E+02  0.00000000000E+00 0. -1.
         11    1    3    3    0    0 -0.68946278758E+01 -0.43272287041E+01 -0.32916081981E+01  0.87804035553E+01  0.51100000000E-03 0. -1.
        -11    1    3    3    0    0 -0.16598709527E+02  0.24574158162E+02 -0.15653067896E+02  0.33532446110E+02  0.51100000000E-03 0.  1.
        -12    1    3    3    0    0  0.17331071939E+02 -0.34353869173E+01  0.24429017856E+02  0.30148712265E+02  0.00000000000E+00 0.  1.
</event>
<event>
 7    1  0.3050261E-013  0.7246156E+02  0.7816164E-02  0.1226708E+00
        -11   -1    0    0    0    0  0.00000000000E+00  0.00000000000E+00  0.45593999997E+02  0.45594000000E+02  0.51100000000E-03 0. -1.
         11   -1    0    0    0    0 -0.00000000000E+00 -0.00000000000E+00 -0.45593999997E+02  0.45594000000E+02  0.51100000000E-03 0.  1.
    9900012    2    1    2    0    0 -0.12704848355E+02 -0.30248735853E+01 -0.13420752402E+02  0.72461558080E+02  0.69999984089E+02 0.  0.
         12    1    1    2    0    0  0.12704848355E+02  0.30248735853E+01  0.13420752402E+02  0.18726441920E+02  0.00000000000E+00 0. -1.
         11    1    3    3    0    0 -0.55451352829E+01 -0.92469539460E+01  0.19900020121E+02  0.22633282653E+02  0.51100000000E-03 0. -1.
        -11    1    3    3    0    0 -0.14571275329E+02  0.22508961503E+00  0.60775943443E+00  0.14585681397E+02  0.51100000000E-03 0.  1.
        -12    1    3    3    0    0  0.74115622566E+01  0.59969907457E+01 -0.33928531958E+02  0.35242594029E+02  0.00000000000E+00 0.  1.
</event>
<event>
 7    1  0.3050261E-013  0.7246128E+02  0.7816164E-02  0.1226709E+00
        -11   -1    0    0    0    0  0.00000000000E+00  0.00000000000E+00  0.45593999997E+02  0.45594000000E+02  0.51100000000E-03 0.  1.
         11   -1    0    0    0    0 -0.00000000000E+00 -0.00000000000E+00 -0.45593999997E+02  0.45594000000E+02  0.51100000000E-03 0. -1.
    9900012    2    1    2    0    0  0.11739340502E+02 -0.12037283426E+01  0.14540597020E+02  0.72461280078E+02  0.69999621938E+02 0.  0.
         12    1    1    2    0    0 -0.11739340502E+02  0.12037283426E+01 -0.14540597020E+02  0.18726719922E+02  0.00000000000E+00 0. -1.
         11    1    3    3    0    0 -0.88705021308E+01 -0.46052524708E+01  0.20961576413E+01  0.10212151364E+02  0.51100000000E-03 0. -1.
        -11    1    3    3    0    0  0.14435194314E+01 -0.83424061865E+01 -0.20606944103E+02  0.22278366970E+02  0.51100000000E-03 0.  1.
        -12    1    3    3    0    0  0.19166323202E+02  0.11743930315E+02  0.33051383481E+02  0.39970761743E+02  0.00000000000E+00 0.  1.
</event>
<event>
 7    1  0.3050261E-013  0.7246127E+02  0.7816164E-02  0.1226709E+00
        -11   -1    0    0    0    0  0.00000000000E+00  0.00000000000E+00  0.45593999997E+02  0.45594000000E+02  0.51100000000E-03 0. -1.
         11   -1    0    0    0    0 -0.00000000000E+00 -0.00000000000E+00 -0.45593999997E+02  0.45594000000E+02  0.51100000000E-03 0.  1.
    9900012    2    1    2    0    0 -0.13585259400E+02  0.12497807521E+02  0.31521513885E+01  0.72461267125E+02  0.69999605064E+02 0.  0.
         12    1    1    2    0    0  0.13585259400E+02 -0.12497807521E+02 -0.31521513885E+01  0.18726732875E+02  0.00000000000E+00 0. -1.
         11    1    3    3    0    0 -0.20062297533E+02 -0.10529874979E+02  0.17397156177E+02  0.28566327953E+02  0.51100000000E-03 0. -1.
        -11    1    3    3    0    0 -0.50918529121E+01  0.19564602665E+02  0.53186878395E+01  0.20904283870E+02  0.51100000000E-03 0.  1.
        -12    1    3    3    0    0  0.11568891045E+02  0.34630798349E+01 -0.19563692628E+02  0.22990655302E+02  0.00000000000E+00 0.  1.
</event>
<event>
 7    1  0.3050261E-013  0.7246155E+02  0.7816164E-02  0.1226708E+00
        -11   -1    0    0    0    0  0.00000000000E+00  0.00000000000E+00  0.45593999997E+02  0.45594000000E+02  0.51100000000E-03 0.  1.
         11   -1    0    0    0    0 -0.00000000000E+00 -0.00000000000E+00 -0.45593999997E+02  0.45594000000E+02  0.51100000000E-03 0. -1.
    9900012    2    1    2    0    0 -0.16438249485E+02 -0.61360913027E+01  0.65431220120E+01  0.72461545229E+02  0.69999967348E+02 0.  0.
         12    1    1    2    0    0  0.16438249485E+02  0.61360913027E+01 -0.65431220120E+01  0.18726454771E+02  0.00000000000E+00 0. -1.
         11    1    3    3    0    0  0.70659482191E+01  0.14406794442E+02  0.10997714030E+02  0.19453356124E+02  0.51100000000E-03 0. -1.
        -11    1    3    3    0    0 -0.15915647645E+02 -0.35333182091E+01  0.17700245610E+02  0.24064307022E+02  0.51100000000E-03 0.  1.
        -12    1    3    3    0    0 -0.75885500589E+01 -0.17009567536E+02 -0.22154837628E+02  0.28943882084E+02  0.00000000000E+00 0.  1.
</event>
<event>
 7    1  0.3050261E-013  0.7246158E+02  0.7816164E-02  0.1226708E+00
        -11   -1    0    0    0    0  0.00000000000E+00  0.00000000000E+00  0.45593999997E+02  0.45594000000E+02  0.51100000000E-03 0.  1.
         11   -1    0    0    0    0 -0.00000000000E+00 -0.00000000000E+00 -0.45593999997E+02  0.45594000000E+02  0.51100000000E-03 0. -1.
    9900012    2    1    2    0    0  0.12520728580E+02  0.99412698183E+01 -0.97509714048E+01  0.72461576607E+02  0.70000008223E+02 0.  0.
         12    1    1    2    0    0 -0.12520728580E+02 -0.99412698183E+01  0.97509714048E+01  0.18726423393E+02  0.00000000000E+00 0. -1.
         11    1    3    3    0    0 -0.12789752461E+02  0.65656541090E+00  0.87493843619E+01  0.15510015252E+02  0.51100000000E-03 0. -1.
        -11    1    3    3    0    0  0.42505328408E+01 -0.14732219221E+02  0.62340464825E+01  0.16551998321E+02  0.51100000000E-03 0.  1.
         12    1    3    3    0    0  0.21059948200E+02  0.24016923628E+02 -0.24734402249E+02  0.40399563034E+02  0.00000000000E+00 0. -1.
</event>
<event>
 7    1  0.3050261E-013  0.7246157E+02  0.7816164E-02  0.1226708E+00
        -11   -1    0    0    0    0  0.00000000000E+00  0.00000000000E+00  0.45593999997E+02  0.45594000000E+02  0.51100000000E-03 0. -1.
         11   -1    0    0    0    0 -0.00000000000E+00 -0.00000000000E+00 -0.45593999997E+02  0.45594000000E+02  0.51100000000E-03 0.  1.
    9900012    2    1    2    0    0  0.12975131287E+02 -0.87271263023E+01 -0.10303508338E+02  0.72461573499E+02  0.70000004175E+02 0.  0.
         12    1    1    2    0    0 -0.12975131287E+02  0.87271263023E+01  0.10303508338E+02  0.18726426501E+02  0.00000000000E+00 0. -1.
         11    1    3    3    0    0  0.90905189538E+01  0.40432586015E+01  0.18096413067E+02  0.20651044553E+02  0.51100000000E-03 0. -1.
        -11    1    3    3    0    0 -0.26985561108E+01  0.68717460391E+01  0.73974472803E+01  0.10451092059E+02  0.51100000000E-03 0.  1.
        -12    1    3    3    0    0  0.65831684440E+01 -0.19642130943E+02 -0.35797368686E+02  0.41359436887E+02  0.00000000000E+00 0.  1.
</event>
<event>
 7    1  0.3050261E-013  0.7246187E+02  0.7816164E-02  0.1226707E+00
        -11   -1    0    0    0    0  0.00000000000E+00  0.00000000000E+00  0.45593999997E+02  0.45594000000E+02  0.51100000000E-03 0.  1.
         11   -1    0    0    0    0 -0.00000000000E+00 -0.00000000000E+00 -0.45593999997E+02  0.45594000000E+02  0.51100000000E-03 0. -1.
    9900012    2    1    2    0    0 -0.70192993355E+01  0.14368006197E+02 -0.97446219231E+01  0.72461873287E+02  0.70000394703E+02 0.  0.
         12    1    1    2    0    0  0.70192993355E+01 -0.14368006197E+02  0.97446219231E+01  0.18726126713E+02  0.00000000000E+00 0. -1.
         11    1    3    3    0    0 -0.10364931650E+01  0.36051632576E+01 -0.19421718541E+02  0.19780664083E+02  0.51100000000E-03 0. -1.
        -11    1    3    3    0    0 -0.16512976641E+02  0.78434749312E+00 -0.16116714340E+02  0.23087704085E+02  0.51100000000E-03 0.  1.
        -12    1    3    3    0    0  0.10530170470E+02  0.99784954464E+01  0.25793810958E+02  0.29593505120E+02  0.00000000000E+00 0.  1.
</event>
<event>
 7    1  0.3050261E-013  0.7246154E+02  0.7816164E-02  0.1226708E+00
        -11   -1    0    0    0    0  0.00000000000E+00  0.00000000000E+00  0.45593999997E+02  0.45594000000E+02  0.51100000000E-03 0.  1.
         11   -1    0    0    0    0 -0.00000000000E+00 -0.00000000000E+00 -0.45593999997E+02  0.45594000000E+02  0.51100000000E-03 0. -1.
    9900012    2    1    2    0    0 -0.50801878300E+01 -0.27001045807E+01  0.17820818758E+02  0.72461535989E+02  0.69999955311E+02 0.  0.
         12    1    1    2    0    0  0.50801878300E+01  0.27001045807E+01 -0.17820818758E+02  0.18726464011E+02  0.00000000000E+00 0. -1.
         11    1    3    3    0    0 -0.78897434450E+01 -0.84455405876E+01  0.97723819260E+01  0.15135212460E+02  0.51100000000E-03 0. -1.
        -11    1    3    3    0    0 -0.26493867151E+02  0.58239136932E+01  0.79332089474E+00  0.27138023613E+02  0.51100000000E-03 0.  1.
         12    1    3    3    0    0  0.29303422766E+02 -0.78477686267E-01  0.72551159374E+01  0.30188299916E+02  0.00000000000E+00 0. -1.
</event>
<event>
 7    1  0.3050261E-013  0.7246146E+02  0.7816164E-02  0.1226708E+00
        -11   -1    0    0    0    0  0.00000000000E+00  0.00000000000E+00  0.45593999997E+02  0.45594000000E+02  0.51100000000E-03 0.  1.
         11   -1    0    0    0    0 -0.00000000000E+00 -0.00000000000E+00 -0.45593999997E+02  0.45594000000E+02  0.51100000000E-03 0. -1.
    9900012    2    1    2    0    0 -0.11852239903E+02 -0.14247871615E+02  0.26843939525E+01  0.72461457148E+02  0.69999852606E+02 0.  0.
         12    1    1    2    0    0  0.11852239903E+02  0.14247871615E+02 -0.26843939525E+01  0.18726542852E+02  0.00000000000E+00 0. -1.
         11    1    3    3    0    0 -0.10924315761E+01  0.21260418041E+02  0.33384935496E+01  0.21548650108E+02  0.51100000000E-03 0. -1.
        -11    1    3    3    0    0 -0.78759040231E+01  0.55278363697E+01  0.14035969265E+01  0.97240384463E+01  0.51100000000E-03 0.  1.
         12    1    3    3    0    0 -0.28839043036E+01 -0.41036126026E+02 -0.20576965236E+01  0.41188768594E+02  0.00000000000E+00 0. -1.
</event>
<event>
 7    1  0.3050261E-013  0.7246152E+02  0.7816164E-02  0.1226708E+00
        -11   -1    0    0    0    0  0.00000000000E+00  0.00000000000E+00  0.45593999997E+02  0.45594000000E+02  0.51100000000E-03 0. -1.
         11   -1    0    0    0    0 -0.00000000000E+00 -0.00000000000E+00 -0.45593999997E+02  0.45594000000E+02  0.51100000000E-03 0.  1.
    9900012    2    1    2    0    0 -0.49133480013E+01 -0.10159474594E+02 -0.14944067759E+02  0.72461519450E+02  0.69999933766E+02 0.  0.
         12    1    1    2    0    0  0.49133480013E+01  0.10159474594E+02  0.14944067759E+02  0.18726480550E+02  0.00000000000E+00 0. -1.
         11    1    3    3    0    0  0.95785651249E+01  0.28619731123E+01  0.24487185902E+00  0.99999881218E+01  0.51100000000E-03 0. -1.
        -11    1    3    3    0    0  0.73369805524E+01  0.18973284456E+02  0.12600073667E+01  0.20381472604E+02  0.51100000000E-03 0.  1.
         12    1    3    3    0    0 -0.21828893679E+02 -0.31994732162E+02 -0.16448946984E+02  0.42080058725E+02  0.00000000000E+00 0. -1.
</event>
<event>
 7    1  0.3050261E-013  0.7246106E+02  0.7816164E-02  0.1226709E+00
        -11   -1    0    0    0    0  0.00000000000E+00  0.00000000000E+00  0.45593999997E+02  0.45594000000E+02  0.51100000000E-03 0.  1.
         11   -1    0    0    0    0 -0.00000000000E+00 -0.00000000000E+00 -0.45593999997E+02  0.45594000000E+02  0.51100000000E-03 0. -1.
    9900012    2    1    2    0    0 -0.18479643425E+02 -0.28174595399E+01 -0.11238577912E+01  0.72461058025E+02  0.69999332671E+02 0.  0.
         12    1    1    2    0    0  0.18479643425E+02  0.28174595399E+01  0.11238577912E+01  0.18726941975E+02  0.00000000000E+00 0. -1.
         11    1    3    3    0    0  0.29527888309E+01  0.46198353042E+01 -0.82295084692E+01  0.98887132643E+01  0.51100000000E-03 0. -1.
        -11    1    3    3    0    0  0.12765322344E+02 -0.19318849876E+02  0.11932283319E+02  0.26049007669E+02  0.51100000000E-03 0.  1.
         12    1    3    3    0    0 -0.34197754600E+02  0.11881555032E+02 -0.48266326413E+01  0.36523337092E+02  0.00000000000E+00 0. -1.
</event>
<event>
 7    1  0.3050261E-013  0.7246152E+02  0.7816164E-02  0.1226708E+00
        -11   -1    0    0    0    0  0.00000000000E+00  0.00000000000E+00  0.45593999997E+02  0.45594000000E+02  0.51100000000E-03 0. -1.
         11   -1    0    0    0    0 -0.00000000000E+00 -0.00000000000E+00 -0.45593999997E+02  0.45594000000E+02  0.51100000000E-03 0.  1.
    9900012    2    1    2    0    0  0.90761116783E+01  0.13685263027E+02 -0.90010491974E+01  0.72461518377E+02  0.69999932368E+02 0.  0.
         12    1    1    2    0    0 -0.90761116783E+01 -0.13685263027E+02  0.90010491974E+01  0.18726481623E+02  0.00000000000E+00 0. -1.
         11    1    3    3    0    0  0.24550114164E+02  0.19308040348E+02  0.11780269121E+02  0.33380881779E+02  0.51100000000E-03 0. -1.
        -11    1    3    3    0    0  0.48604020856E+01 -0.89589613511E+01 -0.14139931041E+02  0.17430552115E+02  0.51100000000E-03 0.  1.
        -12    1    3    3    0    0 -0.20334404571E+02  0.33361840306E+01 -0.66413872774E+01  0.21650084483E+02  0.00000000000E+00 0.  1.
</event>
<event>
 7    1  0.3050261E-013  0.7246156E+02  0.7816164E-02  0.1226708E+00
        -11   -1    0    0    0    0  0.00000000000E+00  0.00000000000E+00  0.45593999997E+02  0.45594000000E+02  0.51100000000E-03 0. -1.
         11   -1    0    0    0    0 -0.00000000000E+00 -0.00000000000E+00 -0.45593999997E+02  0.45594000000E+02  0.51100000000E-03 0.  1.
    9900012    2    1    2    0    0 -0.17892882767E+02 -0.54515249280E+01 -0.89739788121E+00  0.72461556111E+02  0.69999981524E+02 0.  0.
         12    1    1    2    0    0  0.17892882767E+02  0.54515249280E+01  0.89739788121E+00  0.18726443889E+02  0.00000000000E+00 0. -1.
         11    1    3    3    0    0  0.18433299604E+02  0.13592868326E+01 -0.70745750235E+00  0.18496883288E+02  0.51100000000E-03 0. -1.
        -11    1    3    3    0    0 -0.62651459224E+01  0.12841775105E+02 -0.91264679476E+01  0.16954517355E+02  0.51100000000E-03 0.  1.
        -12    1    3    3    0    0 -0.30061036448E+02 -0.19652586865E+02  0.89365275687E+01  0.37010155469E+02  0.00000000000E+00 0.  1.
</event>
<event>
 7    1  0.3050261E-013  0.7246159E+02  0.7816164E-02  0.1226708E+00
        -11   -1    0    0    0    0  0.00000000000E+00  0.00000000000E+00  0.45593999997E+02  0.45594000000E+02  0.51100000000E-03 0.  1.
         11   -1    0    0    0    0 -0.00000000000E+00 -0.00000000000E+00 -0.45593999997E+02  0.45594000000E+02  0.51100000000E-03 0. -1.
    9900012    2    1    2    0    0  0.30844923386E+00  0.10388188003E+02  0.15577836815E+02  0.72461585748E+02  0.70000020131E+02 0.  0.
         12    1    1    2    0    0 -0.30844923386E+00 -0.10388188003E+02 -0.15577836815E+02  0.18726414252E+02  0.00000000000E+00 0. -1.
         11    1    3    3    0    0 -0.47847551265E+01 -0.58703280498E+01  0.95574071017E+01  0.12194206157E+02  0.51100000000E-03 0. -1.
        -11    1    3    3    0    0 -0.18367070283E-02  0.36864808318E+02  0.10987031482E+02  0.38467245245E+02  0.51100000000E-03 0.  1.
         12    1    3    3    0    0  0.50950410674E+01 -0.20606292265E+02 -0.49666017685E+01  0.21800134346E+02  0.00000000000E+00 0. -1.
</event>
<event>
 7    1  0.3050261E-013  0.7246151E+02  0.7816164E-02  0.1226708E+00
        -11   -1    0    0    0    0  0.00000000000E+00  0.00000000000E+00  0.45593999997E+02  0.45594000000E+02  0.51100000000E-03 0. -1.
         11   -1    0    0    0    0 -0.00000000000E+00 -0.00000000000E+00 -0.45593999997E+02  0.45594000000E+02  0.51100000000E-03 0.  1.
    9900012    2    1    2    0    0 -0.65654694915E+01 -0.13474807259E+02 -0.11225217339E+02  0.72461512753E+02  0.69999925041E+02 0.  0.
         12    1    1    2    0    0  0.65654694915E+01  0.13474807259E+02  0.11225217339E+02  0.18726487247E+02  0.00000000000E+00 0. -1.
         11    1    3    3    0    0 -0.93923721565E+00  0.24182111968E+02 -0.76136308675E+01  0.25369747358E+02  0.51100000000E-03 0. -1.
        -11    1    3    3    0    0  0.87537269460E+00  0.24333363140E+01 -0.58706279603E+01  0.64149572002E+01  0.51100000000E-03 0.  1.
        -12    1    3    3    0    0 -0.65016049704E+01 -0.40090255540E+02  0.22590414883E+01  0.40676808195E+02  0.00000000000E+00 0.  1.
</event>
<event>
 7    1  0.3050261E-013  0.7246155E+02  0.7816164E-02  0.1226708E+00
        -11   -1    0    0    0    0  0.00000000000E+00  0.00000000000E+00  0.45593999997E+02  0.45594000000E+02  0.51100000000E-03 0.  1.
         11   -1    0    0    0    0 -0.00000000000E+00 -0.00000000000E+00 -0.45593999997E+02  0.45594000000E+02  0.51100000000E-03 0. -1.
    9900012    2    1    2    0    0  0.47026210828E+01 -0.22665316950E+01  0.17984105905E+02  0.72461551426E+02  0.69999975421E+02 0.  0.
         12    1    1    2    0    0 -0.47026210828E+01  0.22665316950E+01 -0.17984105905E+02  0.18726448574E+02  0.00000000000E+00 0. -1.
         11    1    3    3    0    0  0.99066763918E+01 -0.12949552883E+02  0.15986794922E+01  0.16382580181E+02  0.51100000000E-03 0. -1.
        -11    1    3    3    0    0  0.72073090408E+00 -0.16634426248E+02  0.21977686182E+02  0.27572491360E+02  0.51100000000E-03 0.  1.
        -12    1    3    3    0    0 -0.59247862130E+01  0.27317447437E+02 -0.55922597688E+01  0.28506479885E+02  0.00000000000E+00 0.  1.
</event>
<event>
 7    1  0.3050261E-013  0.7246161E+02  0.7816164E-02  0.1226708E+00
        -11   -1    0    0    0    0  0.00000000000E+00  0.00000000000E+00  0.45593999997E+02  0.45594000000E+02  0.51100000000E-03 0. -1.
         11   -1    0    0    0    0 -0.00000000000E+00 -0.00000000000E+00 -0.45593999997E+02  0.45594000000E+02  0.51100000000E-03 0.  1.
    9900012    2    1    2    0    0 -0.73965867034E+00 -0.18657311943E+02  0.14266986460E+01  0.72461605448E+02  0.70000045795E+02 0.  0.
         12    1    1    2    0    0  0.73965867034E+00  0.18657311943E+02 -0.14266986460E+01  0.18726394552E+02  0.00000000000E+00 0. -1.
         11    1    3    3    0    0 -0.19407042636E+02  0.13555006380E+02  0.96134197868E+01  0.25549742506E+02  0.51100000000E-03 0. -1.
        -11    1    3    3    0    0  0.10257368104E+01  0.47394107950E+01  0.98993359755E+00  0.49491534101E+01  0.51100000000E-03 0.  1.
        -12    1    3    3    0    0  0.17641647156E+02 -0.36951729118E+02 -0.91766547384E+01  0.41962709533E+02  0.00000000000E+00 0.  1.
</event>
<event>
 7    1  0.3050261E-013  0.7246137E+02  0.7816164E-02  0.1226709E+00
        -11   -1    0    0    0    0  0.00000000000E+00  0.00000000000E+00  0.45593999997E+02  0.45594000000E+02  0.51100000000E-03 0.  1.
         11   -1    0    0    0    0 -0.00000000000E+00 -0.00000000000E+00 -0.45593999997E+02  0.45594000000E+02  0.51100000000E-03 0. -1.
    9900012    2    1    2    0    0 -0.54924652616E+01 -0.13879246334E+02  0.11308667555E+02  0.72461371490E+02  0.69999741020E+02 0.  0.
         12    1    1    2    0    0  0.54924652616E+01  0.13879246334E+02 -0.11308667555E+02  0.18726628510E+02  0.00000000000E+00 0. -1.
         11    1    3    3    0    0  0.34490060070E+01 -0.12198156502E+02 -0.61545998794E+01  0.14091478433E+02  0.51100000000E-03 0.  1.
        -11    1    3    3    0    0 -0.73536708240E+01  0.15012994728E+02 -0.14594113377E+02  0.22191318817E+02  0.51100000000E-03 0. -1.
        -12    1    3    3    0    0 -0.15878004446E+01 -0.16694084561E+02  0.32057380812E+02  0.36178574241E+02  0.00000000000E+00 0.  1.
</event>
<event>
 7    1  0.3050261E-013  0.7246154E+02  0.7816164E-02  0.1226708E+00
        -11   -1    0    0    0    0  0.00000000000E+00  0.00000000000E+00  0.45593999997E+02  0.45594000000E+02  0.51100000000E-03 0.  1.
         11   -1    0    0    0    0 -0.00000000000E+00 -0.00000000000E+00 -0.45593999997E+02  0.45594000000E+02  0.51100000000E-03 0. -1.
    9900012    2    1    2    0    0 -0.15333235718E+02  0.57813264877E+01  0.90635844750E+01  0.72461536985E+02  0.69999956608E+02 0.  0.
         12    1    1    2    0    0  0.15333235718E+02 -0.57813264877E+01 -0.90635844750E+01  0.18726463015E+02  0.00000000000E+00 0. -1.
         11    1    3    3    0    0  0.88305408087E+01  0.70393005709E+01  0.76028387557E+01  0.13613719584E+02  0.51100000000E-03 0. -1.
        -11    1    3    3    0    0 -0.35819612483E+01  0.34893906100E+01  0.25996245905E+02  0.26472836921E+02  0.51100000000E-03 0.  1.
         12    1    3    3    0    0 -0.20581815278E+02 -0.47473646932E+01 -0.24535500186E+02  0.32374980480E+02  0.00000000000E+00 0. -1.
</event>
<event>
 7    1  0.3050261E-013  0.7246157E+02  0.7816164E-02  0.1226708E+00
        -11   -1    0    0    0    0  0.00000000000E+00  0.00000000000E+00  0.45593999997E+02  0.45594000000E+02  0.51100000000E-03 0. -1.
         11   -1    0    0    0    0 -0.00000000000E+00 -0.00000000000E+00 -0.45593999997E+02  0.45594000000E+02  0.51100000000E-03 0.  1.
    9900012    2    1    2    0    0 -0.41981515634E+01  0.83473776065E+01 -0.16228862994E+02  0.72461569920E+02  0.69999999513E+02 0.  0.
         12    1    1    2    0    0  0.41981515634E+01 -0.83473776065E+01  0.16228862994E+02  0.18726430080E+02  0.00000000000E+00 0. -1.
         11    1    3    3    0    0  0.33157017061E+00 -0.12421734383E+01 -0.19365194414E+01  0.23244443287E+01  0.51100000000E-03 0. -1.
        -11    1    3    3    0    0  0.19423008395E+02  0.29606286053E+02 -0.16040783297E+02  0.38872768849E+02  0.51100000000E-03 0.  1.
         12    1    3    3    0    0 -0.23952730129E+02 -0.20016735008E+02  0.17484397444E+01  0.31264356743E+02  0.00000000000E+00 0. -1.
</event>
<event>
 7    1  0.3050261E-013  0.7246159E+02  0.7816164E-02  0.1226708E+00
        -11   -1    0    0    0    0  0.00000000000E+00  0.00000000000E+00  0.45593999997E+02  0.45594000000E+02  0.51100000000E-03 0. -1.
         11   -1    0    0    0    0 -0.00000000000E+00 -0.00000000000E+00 -0.45593999997E+02  0.45594000000E+02  0.51100000000E-03 0.  1.
    9900012    2    1    2    0    0  0.12569248906E+02 -0.35162706945E+01 -0.13428641623E+02  0.72461585675E+02  0.70000020036E+02 0.  0.
         12    1    1    2    0    0 -0.12569248906E+02  0.35162706945E+01  0.13428641623E+02  0.18726414325E+02  0.00000000000E+00 0. -1.
         11    1    3    3    0    0 -0.22377627355E+02  0.82593323789E+01 -0.19029264480E+02  0.30513729439E+02  0.51100000000E-03 0. -1.
        -11    1    3    3    0    0 -0.38283978217E-01 -0.24087909667E+01  0.51970038571E+01  0.57282273817E+01  0.51100000000E-03 0.  1.
        -12    1    3    3    0    0  0.34985160239E+02 -0.93668121067E+01  0.40361900033E+00  0.36219628853E+02  0.00000000000E+00 0.  1.
</event>
<event>
 7    1  0.3050261E-013  0.7246143E+02  0.7816164E-02  0.1226708E+00
        -11   -1    0    0    0    0  0.00000000000E+00  0.00000000000E+00  0.45593999997E+02  0.45594000000E+02  0.51100000000E-03 0.  1.
         11   -1    0    0    0    0 -0.00000000000E+00 -0.00000000000E+00 -0.45593999997E+02  0.45594000000E+02  0.51100000000E-03 0. -1.
    9900012    2    1    2    0    0 -0.65381859331E+00  0.74700928019E+01  0.17159684407E+02  0.72461427057E+02  0.69999813407E+02 0.  0.
         12    1    1    2    0    0  0.65381859331E+00 -0.74700928019E+01 -0.17159684407E+02  0.18726572943E+02  0.00000000000E+00 0. -1.
         11    1    3    3    0    0  0.13574489187E+02 -0.23500263468E+00 -0.24681079674E+01  0.13799041276E+02  0.51100000000E-03 0. -1.
        -11    1    3    3    0    0  0.29491010232E+01  0.26419282690E+02  0.37559828360E-01  0.26583399062E+02  0.51100000000E-03 0.  1.
         12    1    3    3    0    0 -0.17177408804E+02 -0.18714187253E+02  0.19590232546E+02  0.32078986720E+02  0.00000000000E+00 0. -1.
</event>
<event>
 7    1  0.3050261E-013  0.7246156E+02  0.7816164E-02  0.1226708E+00
        -11   -1    0    0    0    0  0.00000000000E+00  0.00000000000E+00  0.45593999997E+02  0.45594000000E+02  0.51100000000E-03 0.  1.
         11   -1    0    0    0    0 -0.00000000000E+00 -0.00000000000E+00 -0.45593999997E+02  0.45594000000E+02  0.51100000000E-03 0. -1.
    9900012    2    1    2    0    0  0.18061953647E+02 -0.41067420199E+01  0.27532179872E+01  0.72461555894E+02  0.69999981241E+02 0.  0.
         12    1    1    2    0    0 -0.18061953647E+02  0.41067420199E+01 -0.27532179872E+01  0.18726444106E+02  0.00000000000E+00 0. -1.
         11    1    3    3    0    0  0.19493135797E+02 -0.29229033549E+02  0.14122122786E+01  0.35161244136E+02  0.51100000000E-03 0. -1.
        -11    1    3    3    0    0  0.67948629010E+01 -0.28386050172E+01 -0.27664943883E+01  0.78664688233E+01  0.51100000000E-03 0.  1.
        -12    1    3    3    0    0 -0.82260450507E+01  0.27960896547E+02  0.41075000969E+01  0.29433842935E+02  0.00000000000E+00 0.  1.
</event>
<event>
 7    1  0.3050261E-013  0.7246154E+02  0.7816164E-02  0.1226708E+00
        -11   -1    0    0    0    0  0.00000000000E+00  0.00000000000E+00  0.45593999997E+02  0.45594000000E+02  0.51100000000E-03 0.  1.
         11   -1    0    0    0    0 -0.00000000000E+00 -0.00000000000E+00 -0.45593999997E+02  0.45594000000E+02  0.51100000000E-03 0. -1.
    9900012    2    1    2    0    0 -0.97550346448E+01  0.68489225321E+01  0.14443405581E+02  0.72461537292E+02  0.69999957008E+02 0.  0.
         12    1    1    2    0    0  0.97550346448E+01 -0.68489225321E+01 -0.14443405581E+02  0.18726462708E+02  0.00000000000E+00 0. -1.
         11    1    3    3    0    0 -0.42812518185E+01  0.34601890147E+01 -0.20570602959E+02  0.21294406108E+02  0.51100000000E-03 0. -1.
        -11    1    3    3    0    0 -0.61969894792E+01  0.17828809740E+02  0.79454198524E+01  0.20479229288E+02  0.51100000000E-03 0.  1.
        -12    1    3    3    0    0  0.72320665287E+00 -0.14440076223E+02  0.27068588688E+02  0.30687901895E+02  0.00000000000E+00 0.  1.
</event>
<event>
 7    1  0.3050261E-013  0.7246130E+02  0.7816164E-02  0.1226709E+00
        -11   -1    0    0    0    0  0.00000000000E+00  0.00000000000E+00  0.45593999997E+02  0.45594000000E+02  0.51100000000E-03 0.  1.
         11   -1    0    0    0    0 -0.00000000000E+00 -0.00000000000E+00 -0.45593999997E+02  0.45594000000E+02  0.51100000000E-03 0. -1.
    9900012    2    1    2    0    0 -0.13041497145E+02 -0.12358904760E+02  0.52788245779E+01  0.72461303453E+02  0.69999652389E+02 0.  0.
         12    1    1    2    0    0  0.13041497145E+02  0.12358904760E+02 -0.52788245779E+01  0.18726696547E+02  0.00000000000E+00 0. -1.
         11    1    3    3    0    0 -0.10215168591E+02 -0.77643449836E+01 -0.14234745485E+02  0.19164099292E+02  0.51100000000E-03 0. -1.
        -11    1    3    3    0    0 -0.69914933963E+01 -0.25434292039E+02  0.33346953667E+01  0.26587673552E+02  0.51100000000E-03 0.  1.
        -12    1    3    3    0    0  0.41651648432E+01  0.20839732263E+02  0.16178874696E+02  0.26709530610E+02  0.00000000000E+00 0.  1.
</event>
<event>
 7    1  0.3050261E-013  0.7246158E+02  0.7816164E-02  0.1226708E+00
        -11   -1    0    0    0    0  0.00000000000E+00  0.00000000000E+00  0.45593999997E+02  0.45594000000E+02  0.51100000000E-03 0.  1.
         11   -1    0    0    0    0 -0.00000000000E+00 -0.00000000000E+00 -0.45593999997E+02  0.45594000000E+02  0.51100000000E-03 0. -1.
    9900012    2    1    2    0    0  0.47994699845E+01  0.18620949357E+01  0.18004899928E+02  0.72461582000E+02  0.70000015249E+02 0.  0.
         12    1    1    2    0    0 -0.47994699845E+01 -0.18620949357E+01 -0.18004899928E+02  0.18726418000E+02  0.00000000000E+00 0. -1.
         11    1    3    3    0    0 -0.53609966458E+01 -0.56314671396E+01 -0.98620230723E+01  0.12558391876E+02  0.51100000000E-03 0. -1.
        -11    1    3    3    0    0 -0.16983630321E+02  0.12082755670E+02  0.15812310136E+00  0.20843744544E+02  0.51100000000E-03 0.  1.
         12    1    3    3    0    0  0.27144096951E+02 -0.45891935951E+01  0.27708799899E+02  0.39059445579E+02  0.00000000000E+00 0. -1.
</event>
<event>
 7    1  0.3050261E-013  0.7246160E+02  0.7816164E-02  0.1226708E+00
        -11   -1    0    0    0    0  0.00000000000E+00  0.00000000000E+00  0.45593999997E+02  0.45594000000E+02  0.51100000000E-03 0. -1.
         11   -1    0    0    0    0 -0.00000000000E+00 -0.00000000000E+00 -0.45593999997E+02  0.45594000000E+02  0.51100000000E-03 0.  1.
    9900012    2    1    2    0    0  0.11460962815E+01 -0.11486709207E+02 -0.14745165563E+02  0.72461603321E+02  0.70000043024E+02 0.  0.
         12    1    1    2    0    0 -0.11460962815E+01  0.11486709207E+02  0.14745165563E+02  0.18726396679E+02  0.00000000000E+00 0. -1.
         11    1    3    3    0    0  0.11317497558E+01 -0.27472202559E+02  0.13793335894E+02  0.30761321270E+02  0.51100000000E-03 0. -1.
        -11    1    3    3    0    0  0.32914045660E+01 -0.62087968798E+01 -0.11704182171E+02  0.13651753853E+02  0.51100000000E-03 0.  1.
        -12    1    3    3    0    0 -0.32770580403E+01  0.22194290232E+02 -0.16834319285E+02  0.28048528198E+02  0.00000000000E+00 0.  1.
</event>
<event>
 7    1  0.3050261E-013  0.7246161E+02  0.7816164E-02  0.1226708E+00
        -11   -1    0    0    0    0  0.00000000000E+00  0.00000000000E+00  0.45593999997E+02  0.45594000000E+02  0.51100000000E-03 0.  1.
         11   -1    0    0    0    0 -0.00000000000E+00 -0.00000000000E+00 -0.45593999997E+02  0.45594000000E+02  0.51100000000E-03 0. -1.
    9900012    2    1    2    0    0 -0.14257703270E+02 -0.21795300715E+01  0.11943413087E+02  0.72461613001E+02  0.70000055633E+02 0.  0.
         12    1    1    2    0    0  0.14257703270E+02  0.21795300715E+01 -0.11943413087E+02  0.18726386999E+02  0.00000000000E+00 0. -1.
         11    1    3    3    0    0 -0.23046913070E+01 -0.80690642961E+01 -0.45739522720E+01  0.95573239081E+01  0.51100000000E-03 0. -1.
        -11    1    3    3    0    0 -0.32420195579E+02  0.70750125026E+01 -0.45667156244E+01  0.33495966550E+02  0.51100000000E-03 0.  1.
        -12    1    3    3    0    0  0.20467183615E+02 -0.11854782780E+01  0.21084080983E+02  0.29408322543E+02  0.00000000000E+00 0.  1.
</event>
<event>
 7    1  0.3050261E-013  0.7246164E+02  0.7816164E-02  0.1226708E+00
        -11   -1    0    0    0    0  0.00000000000E+00  0.00000000000E+00  0.45593999997E+02  0.45594000000E+02  0.51100000000E-03 0.  1.
         11   -1    0    0    0    0 -0.00000000000E+00 -0.00000000000E+00 -0.45593999997E+02  0.45594000000E+02  0.51100000000E-03 0. -1.
    9900012    2    1    2    0    0 -0.18267401785E+02  0.15585466112E+01  0.38144034500E+01  0.72461635985E+02  0.70000085575E+02 0.  0.
         12    1    1    2    0    0  0.18267401785E+02 -0.15585466112E+01 -0.38144034500E+01  0.18726364015E+02  0.00000000000E+00 0. -1.
         11    1    3    3    0    0 -0.57662759658E+01  0.30016072806E+01 -0.11421624743E+02  0.13142035489E+02  0.51100000000E-03 0. -1.
        -11    1    3    3    0    0 -0.12716495753E+02  0.21295454994E+02 -0.87182279470E+01  0.26290933160E+02  0.51100000000E-03 0.  1.
         12    1    3    3    0    0  0.21536993367E+00 -0.22738515663E+02  0.23954256140E+02  0.33028667336E+02  0.00000000000E+00 0. -1.
</event>
<event>
 7    1  0.3050261E-013  0.7246162E+02  0.7816164E-02  0.1226708E+00
        -11   -1    0    0    0    0  0.00000000000E+00  0.00000000000E+00  0.45593999997E+02  0.45594000000E+02  0.51100000000E-03 0.  1.
         11   -1    0    0    0    0 -0.00000000000E+00 -0.00000000000E+00 -0.45593999997E+02  0.45594000000E+02  0.51100000000E-03 0. -1.
    9900012    2    1    2    0    0 -0.15028417372E+02  0.51547267619E+01  0.99122445175E+01  0.72461624802E+02  0.70000071006E+02 0.  0.
         12    1    1    2    0    0  0.15028417372E+02 -0.51547267619E+01 -0.99122445175E+01  0.18726375198E+02  0.00000000000E+00 0. -1.
         11    1    3    3    0    0  0.18955851439E+02  0.10650946329E+02  0.17039063252E+00  0.21743872579E+02  0.51100000000E-03 0. -1.
        -11    1    3    3    0    0 -0.17158682172E+02  0.15278676376E+02  0.57892155144E+01  0.23693318514E+02  0.51100000000E-03 0.  1.
        -12    1    3    3    0    0 -0.16825586639E+02 -0.20774895943E+02  0.39526383706E+01  0.27024433709E+02  0.00000000000E+00 0.  1.
</event>
<event>
 7    1  0.3050261E-013  0.7246144E+02  0.7816164E-02  0.1226708E+00
        -11   -1    0    0    0    0  0.00000000000E+00  0.00000000000E+00  0.45593999997E+02  0.45594000000E+02  0.51100000000E-03 0.  1.
         11   -1    0    0    0    0 -0.00000000000E+00 -0.00000000000E+00 -0.45593999997E+02  0.45594000000E+02  0.51100000000E-03 0. -1.
    9900012    2    1    2    0    0 -0.14368236065E+02 -0.11761504115E+02 -0.24299745112E+01  0.72461442313E+02  0.69999833281E+02 0.  0.
         12    1    1    2    0    0  0.14368236065E+02  0.11761504115E+02  0.24299745112E+01  0.18726557687E+02  0.00000000000E+00 0. -1.
         11    1    3    3    0    0 -0.17699333404E+02  0.18435962222E+02 -0.24748454858E+01  0.25676369807E+02  0.51100000000E-03 0. -1.
        -11    1    3    3    0    0  0.10771491659E+02  0.33275884648E+01  0.45355638179E+01  0.12151922356E+02  0.51100000000E-03 0.  1.
        -12    1    3    3    0    0 -0.74403943198E+01 -0.33525054802E+02 -0.44906928433E+01  0.34633150150E+02  0.00000000000E+00 0.  1.
</event>
<event>
 7    1  0.3050261E-013  0.7246157E+02  0.7816164E-02  0.1226708E+00
        -11   -1    0    0    0    0  0.00000000000E+00  0.00000000000E+00  0.45593999997E+02  0.45594000000E+02  0.51100000000E-03 0. -1.
         11   -1    0    0    0    0 -0.00000000000E+00 -0.00000000000E+00 -0.45593999997E+02  0.45594000000E+02  0.51100000000E-03 0.  1.
    9900012    2    1    2    0    0  0.74618378968E+01  0.12385271164E+02 -0.11899802514E+02  0.72461567706E+02  0.69999996628E+02 0.  0.
         12    1    1    2    0    0 -0.74618378968E+01 -0.12385271164E+02  0.11899802514E+02  0.18726432294E+02  0.00000000000E+00 0. -1.
         11    1    3    3    0    0  0.86429397879E+01 -0.75230682163E+00  0.13510106486E+02  0.16055819856E+02  0.51100000000E-03 0. -1.
        -11    1    3    3    0    0 -0.68296990989E+01  0.27210387134E+01  0.13695762733E+02  0.15544219458E+02  0.51100000000E-03 0.  1.
        -12    1    3    3    0    0  0.56485972078E+01  0.10416539272E+02 -0.39105671733E+02  0.40861528392E+02  0.00000000000E+00 0.  1.
</event>
<event>
 7    1  0.3050261E-013  0.7246156E+02  0.7816164E-02  0.1226708E+00
        -11   -1    0    0    0    0  0.00000000000E+00  0.00000000000E+00  0.45593999997E+02  0.45594000000E+02  0.51100000000E-03 0.  1.
         11   -1    0    0    0    0 -0.00000000000E+00 -0.00000000000E+00 -0.45593999997E+02  0.45594000000E+02  0.51100000000E-03 0. -1.
    9900012    2    1    2    0    0 -0.10316331750E+02  0.15115491475E+02 -0.39717449289E+01  0.72461560374E+02  0.69999987077E+02 0.  0.
         12    1    1    2    0    0  0.10316331750E+02 -0.15115491475E+02  0.39717449289E+01  0.18726439626E+02  0.00000000000E+00 0. -1.
         11    1    3    3    0    0  0.71935940615E+01  0.17024544392E+02  0.64947760549E+01  0.19589921479E+02  0.51100000000E-03 0. -1.
        -11    1    3    3    0    0 -0.61938178086E+01 -0.12282541842E+02  0.16719352322E+02  0.21650888100E+02  0.51100000000E-03 0.  1.
         12    1    3    3    0    0 -0.11316108003E+02  0.10373488925E+02 -0.27185873306E+02  0.31220750795E+02  0.00000000000E+00 0. -1.
</event>
<event>
 7    1  0.3050261E-013  0.7246158E+02  0.7816164E-02  0.1226708E+00
        -11   -1    0    0    0    0  0.00000000000E+00  0.00000000000E+00  0.45593999997E+02  0.45594000000E+02  0.51100000000E-03 0. -1.
         11   -1    0    0    0    0 -0.00000000000E+00 -0.00000000000E+00 -0.45593999997E+02  0.45594000000E+02  0.51100000000E-03 0.  1.
    9900012    2    1    2    0    0  0.16146618887E+02 -0.28474066467E+01 -0.90475284698E+01  0.72461580227E+02  0.70000012939E+02 0.  0.
         12    1    1    2    0    0 -0.16146618887E+02  0.28474066467E+01  0.90475284698E+01  0.18726419773E+02  0.00000000000E+00 0. -1.
         11    1    3    3    0    0  0.17032287435E+02 -0.40945130771E+01 -0.12954992904E+02  0.21787512341E+02  0.51100000000E-03 0. -1.
        -11    1    3    3    0    0  0.13071142579E+02 -0.18824889068E+02 -0.69147574613E+01  0.23938360173E+02  0.51100000000E-03 0.  1.
         12    1    3    3    0    0 -0.13956811127E+02  0.20071995499E+02  0.10822221896E+02  0.26735707713E+02  0.00000000000E+00 0. -1.
</event>
<event>
 7    1  0.3050261E-013  0.7246157E+02  0.7816164E-02  0.1226708E+00
        -11   -1    0    0    0    0  0.00000000000E+00  0.00000000000E+00  0.45593999997E+02  0.45594000000E+02  0.51100000000E-03 0.  1.
         11   -1    0    0    0    0 -0.00000000000E+00 -0.00000000000E+00 -0.45593999997E+02  0.45594000000E+02  0.51100000000E-03 0. -1.
    9900012    2    1    2    0    0 -0.10875003404E+02 -0.12790538602E+02  0.82955086496E+01  0.72461573739E+02  0.70000004487E+02 0.  0.
         12    1    1    2    0    0  0.10875003404E+02  0.12790538602E+02 -0.82955086496E+01  0.18726426261E+02  0.00000000000E+00 0. -1.
         11    1    3    3    0    0 -0.19867299402E+02  0.13309297181E+02  0.16710145573E+02  0.29173205897E+02  0.51100000000E-03 0. -1.
        -11    1    3    3    0    0  0.29812738790E+01  0.16413051768E+01 -0.13958289685E+02  0.14367175360E+02  0.51100000000E-03 0.  1.
        -12    1    3    3    0    0  0.60110221191E+01 -0.27741140959E+02  0.55436527617E+01  0.28921192482E+02  0.00000000000E+00 0.  1.
</event>
<event>
 7    1  0.3050261E-013  0.7246164E+02  0.7816164E-02  0.1226708E+00
        -11   -1    0    0    0    0  0.00000000000E+00  0.00000000000E+00  0.45593999997E+02  0.45594000000E+02  0.51100000000E-03 0.  1.
         11   -1    0    0    0    0 -0.00000000000E+00 -0.00000000000E+00 -0.45593999997E+02  0.45594000000E+02  0.51100000000E-03 0. -1.
    9900012    2    1    2    0    0 -0.18387298863E+02  0.34792819134E+01 -0.69156401837E+00  0.72461643630E+02  0.70000095533E+02 0.  0.
         12    1    1    2    0    0  0.18387298863E+02 -0.34792819134E+01  0.69156401837E+00  0.18726356370E+02  0.00000000000E+00 0. -1.
         11    1    3    3    0    0  0.17770360183E+02 -0.13569217010E+02  0.66503736745E+01  0.23326740483E+02  0.51100000000E-03 0. -1.
        -11    1    3    3    0    0  0.49394911543E+00  0.55871422157E+01 -0.91034524452E+01  0.10692660593E+02  0.51100000000E-03 0.  1.
         12    1    3    3    0    0 -0.36651608161E+02  0.11461356707E+02  0.17615147523E+01  0.38442242554E+02  0.00000000000E+00 0. -1.
</event>
<event>
 7    1  0.3050261E-013  0.7246159E+02  0.7816164E-02  0.1226708E+00
        -11   -1    0    0    0    0  0.00000000000E+00  0.00000000000E+00  0.45593999997E+02  0.45594000000E+02  0.51100000000E-03 0. -1.
         11   -1    0    0    0    0 -0.00000000000E+00 -0.00000000000E+00 -0.45593999997E+02  0.45594000000E+02  0.51100000000E-03 0.  1.
    9900012    2    1    2    0    0  0.46298659256E+01 -0.73797981151E+01  0.16576524631E+02  0.72461594911E+02  0.70000032068E+02 0.  0.
         12    1    1    2    0    0 -0.46298659256E+01  0.73797981151E+01 -0.16576524631E+02  0.18726405089E+02  0.00000000000E+00 0. -1.
         11    1    3    3    0    0 -0.13685081700E+02  0.23412662638E+01  0.19105693498E+02  0.23617589064E+02  0.51100000000E-03 0. -1.
        -11    1    3    3    0    0 -0.19080050928E+01 -0.62203773303E+00  0.18306186090E+02  0.18415859030E+02  0.51100000000E-03 0.  1.
        -12    1    3    3    0    0  0.20222952719E+02 -0.90990266458E+01 -0.20835354957E+02  0.30428146818E+02  0.00000000000E+00 0.  1.
</event>
<event>
 7    1  0.3050261E-013  0.7246154E+02  0.7816164E-02  0.1226708E+00
        -11   -1    0    0    0    0  0.00000000000E+00  0.00000000000E+00  0.45593999997E+02  0.45594000000E+02  0.51100000000E-03 0. -1.
         11   -1    0    0    0    0 -0.00000000000E+00 -0.00000000000E+00 -0.45593999997E+02  0.45594000000E+02  0.51100000000E-03 0.  1.
    9900012    2    1    2    0    0 -0.14081911633E+02  0.12307203714E+02  0.95545918453E+00  0.72461537420E+02  0.69999957175E+02 0.  0.
         12    1    1    2    0    0  0.14081911633E+02 -0.12307203714E+02 -0.95545918453E+00  0.18726462580E+02  0.00000000000E+00 0. -1.
         11    1    3    3    0    0 -0.59479621557E+01  0.32622424205E-01 -0.13024498674E+01  0.60889813554E+01  0.51100000000E-03 0. -1.
        -11    1    3    3    0    0  0.30311103805E+00  0.35495373495E+02  0.15045126859E+02  0.38553459745E+02  0.51100000000E-03 0.  1.
         12    1    3    3    0    0 -0.84370605158E+01 -0.23220792205E+02 -0.12787217807E+02  0.27819096319E+02  0.00000000000E+00 0. -1.
</event>
<event>
 7    1  0.3050261E-013  0.7246146E+02  0.7816164E-02  0.1226708E+00
        -11   -1    0    0    0    0  0.00000000000E+00  0.00000000000E+00  0.45593999997E+02  0.45594000000E+02  0.51100000000E-03 0. -1.
         11   -1    0    0    0    0 -0.00000000000E+00 -0.00000000000E+00 -0.45593999997E+02  0.45594000000E+02  0.51100000000E-03 0.  1.
    9900012    2    1    2    0    0  0.13327942843E+02 -0.10536941709E+01 -0.13112546781E+02  0.72461462281E+02  0.69999859293E+02 0.  0.
         12    1    1    2    0    0 -0.13327942843E+02  0.10536941709E+01  0.13112546781E+02  0.18726537719E+02  0.00000000000E+00 0. -1.
         11    1    3    3    0    0  0.19429608072E+02 -0.59195123985E+01 -0.10066470892E+00  0.20311583654E+02  0.51100000000E-03 0. -1.
        -11    1    3    3    0    0  0.14959075871E+02  0.19173627635E+02 -0.10749024271E+02  0.26588408577E+02  0.51100000000E-03 0.  1.
        -12    1    3    3    0    0 -0.21060741100E+02 -0.14307809408E+02 -0.22628578020E+01  0.25561470051E+02  0.00000000000E+00 0.  1.
</event>
<event>
 7    1  0.3050261E-013  0.7246156E+02  0.7816164E-02  0.1226708E+00
        -11   -1    0    0    0    0  0.00000000000E+00  0.00000000000E+00  0.45593999997E+02  0.45594000000E+02  0.51100000000E-03 0. -1.
         11   -1    0    0    0    0 -0.00000000000E+00 -0.00000000000E+00 -0.45593999997E+02  0.45594000000E+02  0.51100000000E-03 0.  1.
    9900012    2    1    2    0    0 -0.10629778475E+02  0.15225847339E+02 -0.24209542951E+01  0.72461557804E+02  0.69999983729E+02 0.  0.
         12    1    1    2    0    0  0.10629778475E+02 -0.15225847339E+02  0.24209542951E+01  0.18726442196E+02  0.00000000000E+00 0. -1.
         11    1    3    3    0    0 -0.33644919722E+02  0.84801143084E+01  0.10097016776E+02  0.36136445728E+02  0.51100000000E-03 0. -1.
        -11    1    3    3    0    0 -0.10259400446E+01 -0.59870978758E+01 -0.55830639629E+01  0.82503634723E+01  0.51100000000E-03 0.  1.
        -12    1    3    3    0    0  0.24041081291E+02  0.12732830907E+02 -0.69349071082E+01  0.28074748604E+02  0.00000000000E+00 0.  1.
</event>
<event>
 7    1  0.3050261E-013  0.7246155E+02  0.7816164E-02  0.1226708E+00
        -11   -1    0    0    0    0  0.00000000000E+00  0.00000000000E+00  0.45593999997E+02  0.45594000000E+02  0.51100000000E-03 0.  1.
         11   -1    0    0    0    0 -0.00000000000E+00 -0.00000000000E+00 -0.45593999997E+02  0.45594000000E+02  0.51100000000E-03 0. -1.
    9900012    2    1    2    0    0 -0.14710515863E+02 -0.29974848744E+01  0.11193558669E+02  0.72461549503E+02  0.69999972916E+02 0.  0.
         12    1    1    2    0    0  0.14710515863E+02  0.29974848744E+01 -0.11193558669E+02  0.18726450497E+02  0.00000000000E+00 0. -1.
         11    1    3    3    0    0  0.11753924258E+02  0.94435426500E+01  0.32729193274E+01  0.15428779421E+02  0.51100000000E-03 0. -1.
        -11    1    3    3    0    0 -0.34043547258E+02  0.77459055920E+01  0.45822212054E+01  0.35213050348E+02  0.51100000000E-03 0.  1.
         12    1    3    3    0    0  0.75791071371E+01 -0.20186933116E+02  0.33384181358E+01  0.21819719734E+02  0.00000000000E+00 0. -1.
</event>
<event>
 7    1  0.3050261E-013  0.7246156E+02  0.7816164E-02  0.1226708E+00
        -11   -1    0    0    0    0  0.00000000000E+00  0.00000000000E+00  0.45593999997E+02  0.45594000000E+02  0.51100000000E-03 0. -1.
         11   -1    0    0    0    0 -0.00000000000E+00 -0.00000000000E+00 -0.45593999997E+02  0.45594000000E+02  0.51100000000E-03 0.  1.
    9900012    2    1    2    0    0 -0.16270096422E+02  0.35991106624E+01 -0.85445920461E+01  0.72461556440E+02  0.69999981953E+02 0.  0.
         12    1    1    2    0    0  0.16270096422E+02 -0.35991106624E+01  0.85445920461E+01  0.18726443560E+02  0.00000000000E+00 0. -1.
         11    1    3    3    0    0 -0.30594586450E+01  0.11765439530E+01  0.12997892201E+02  0.13404840350E+02  0.51100000000E-03 0. -1.
        -11    1    3    3    0    0 -0.17980015608E+02  0.15272375281E+02  0.92594041321E+01  0.25342907748E+02  0.51100000000E-03 0.  1.
         12    1    3    3    0    0  0.47693778309E+01 -0.12849808572E+02 -0.30801888379E+02  0.33713808342E+02  0.00000000000E+00 0. -1.
</event>
<event>
 7    1  0.3050261E-013  0.7246153E+02  0.7816164E-02  0.1226708E+00
        -11   -1    0    0    0    0  0.00000000000E+00  0.00000000000E+00  0.45593999997E+02  0.45594000000E+02  0.51100000000E-03 0. -1.
         11   -1    0    0    0    0 -0.00000000000E+00 -0.00000000000E+00 -0.45593999997E+02  0.45594000000E+02  0.51100000000E-03 0.  1.
    9900012    2    1    2    0    0  0.15777177111E+02 -0.93298177172E+01  0.38361307422E+01  0.72461529021E+02  0.69999946234E+02 0.  0.
         12    1    1    2    0    0 -0.15777177111E+02  0.93298177172E+01 -0.38361307422E+01  0.18726470979E+02  0.00000000000E+00 0. -1.
         11    1    3    3    0    0  0.36213150090E+02  0.56882140510E+01  0.11773652884E+02  0.38501518425E+02  0.51100000000E-03 0. -1.
        -11    1    3    3    0    0  0.17142065354E+01 -0.83183355554E+01 -0.66431566502E+01  0.10782612902E+02  0.51100000000E-03 0.  1.
        -12    1    3    3    0    0 -0.22150179514E+02 -0.66996962127E+01 -0.12943654921E+01  0.23177397694E+02  0.00000000000E+00 0.  1.
</event>
<event>
 7    1  0.3050261E-013  0.7246155E+02  0.7816164E-02  0.1226708E+00
        -11   -1    0    0    0    0  0.00000000000E+00  0.00000000000E+00  0.45593999997E+02  0.45594000000E+02  0.51100000000E-03 0.  1.
         11   -1    0    0    0    0 -0.00000000000E+00 -0.00000000000E+00 -0.45593999997E+02  0.45594000000E+02  0.51100000000E-03 0. -1.
    9900012    2    1    2    0    0 -0.22987193028E+01  0.18316524005E+02  0.31465215559E+01  0.72461554530E+02  0.69999979464E+02 0.  0.
         12    1    1    2    0    0  0.22987193028E+01 -0.18316524005E+02 -0.31465215559E+01  0.18726445470E+02  0.00000000000E+00 0. -1.
         11    1    3    3    0    0  0.20274641057E+01  0.43309887447E+00  0.11567139210E+02  0.11751463530E+02  0.51100000000E-03 0. -1.
        -11    1    3    3    0    0 -0.26065895846E+01  0.37697371375E+02  0.27712917506E+01  0.37888866123E+02  0.51100000000E-03 0.  1.
         12    1    3    3    0    0 -0.17195938238E+01 -0.19813946245E+02 -0.11191909405E+02  0.22821224876E+02  0.00000000000E+00 0. -1.
</event>
<event>
 7    1  0.3050261E-013  0.7246165E+02  0.7816164E-02  0.1226708E+00
        -11   -1    0    0    0    0  0.00000000000E+00  0.00000000000E+00  0.45593999997E+02  0.45594000000E+02  0.51100000000E-03 0. -1.
         11   -1    0    0    0    0 -0.00000000000E+00 -0.00000000000E+00 -0.45593999997E+02  0.45594000000E+02  0.51100000000E-03 0.  1.
    9900012    2    1    2    0    0 -0.24519246904E+01 -0.16860751613E+02 -0.77704012816E+01  0.72461654502E+02  0.70000109696E+02 0.  0.
         12    1    1    2    0    0  0.24519246904E+01  0.16860751613E+02  0.77704012816E+01  0.18726345498E+02  0.00000000000E+00 0. -1.
         11    1    3    3    0    0  0.20430733745E+01  0.17079427331E+01 -0.71689914770E+01  0.76475915328E+01  0.51100000000E-03 0. -1.
        -11    1    3    3    0    0 -0.12190707537E+02 -0.62343578071E+00 -0.28360304069E+02  0.30875700309E+02  0.51100000000E-03 0.  1.
         12    1    3    3    0    0  0.76957094718E+01 -0.17945258565E+02  0.27758894265E+02  0.33938362660E+02  0.00000000000E+00 0. -1.
</event>
<event>
 7    1  0.3050261E-013  0.7246162E+02  0.7816164E-02  0.1226708E+00
        -11   -1    0    0    0    0  0.00000000000E+00  0.00000000000E+00  0.45593999997E+02  0.45594000000E+02  0.51100000000E-03 0.  1.
         11   -1    0    0    0    0 -0.00000000000E+00 -0.00000000000E+00 -0.45593999997E+02  0.45594000000E+02  0.51100000000E-03 0. -1.
    9900012    2    1    2    0    0 -0.68525799135E+01  0.11230680476E+02  0.13326341815E+02  0.72461616964E+02  0.70000060796E+02 0.  0.
         12    1    1    2    0    0  0.68525799135E+01 -0.11230680476E+02 -0.13326341815E+02  0.18726383036E+02  0.00000000000E+00 0. -1.
         11    1    3    3    0    0  0.17219025010E+02  0.23831591668E+02  0.13021328298E+02  0.32155786021E+02  0.51100000000E-03 0. -1.
        -11    1    3    3    0    0 -0.84736802758E+00  0.47082701913E+01  0.88898961576E+01  0.10095350154E+02  0.51100000000E-03 0.  1.
         12    1    3    3    0    0 -0.23224236896E+02 -0.17309181384E+02 -0.85848826410E+01  0.30210480789E+02  0.00000000000E+00 0. -1.
</event>
<event>
 7    1  0.3050261E-013  0.7246148E+02  0.7816164E-02  0.1226708E+00
        -11   -1    0    0    0    0  0.00000000000E+00  0.00000000000E+00  0.45593999997E+02  0.45594000000E+02  0.51100000000E-03 0. -1.
         11   -1    0    0    0    0 -0.00000000000E+00 -0.00000000000E+00 -0.45593999997E+02  0.45594000000E+02  0.51100000000E-03 0.  1.
    9900012    2    1    2    0    0 -0.13721696043E+01  0.18605582216E+02 -0.16223377660E+01  0.72461480866E+02  0.69999883504E+02 0.  0.
         12    1    1    2    0    0  0.13721696043E+01 -0.18605582216E+02  0.16223377660E+01  0.18726519134E+02  0.00000000000E+00 0. -1.
         11    1    3    3    0    0 -0.13631724821E+02 -0.10172507303E+02 -0.61289830020E+01  0.18079498315E+02  0.51100000000E-03 0. -1.
        -11    1    3    3    0    0  0.15618262816E+02 -0.77856090512E+01  0.66478373927E+00  0.17463899317E+02  0.51100000000E-03 0.  1.
         12    1    3    3    0    0 -0.33587075996E+01  0.36563698571E+02  0.38418614967E+01  0.36918083234E+02  0.00000000000E+00 0. -1.
</event>
<event>
 7    1  0.3050261E-013  0.7246154E+02  0.7816164E-02  0.1226708E+00
        -11   -1    0    0    0    0  0.00000000000E+00  0.00000000000E+00  0.45593999997E+02  0.45594000000E+02  0.51100000000E-03 0. -1.
         11   -1    0    0    0    0 -0.00000000000E+00 -0.00000000000E+00 -0.45593999997E+02  0.45594000000E+02  0.51100000000E-03 0.  1.
    9900012    2    1    2    0    0  0.24104127879E+01 -0.11308124461E+02 -0.14730808355E+02  0.72461535213E+02  0.69999954300E+02 0.  0.
         12    1    1    2    0    0 -0.24104127879E+01  0.11308124461E+02  0.14730808355E+02  0.18726464787E+02  0.00000000000E+00 0. -1.
         11    1    3    3    0    0  0.13777895575E+01  0.16168143754E+02  0.14987377238E+02  0.22089107117E+02  0.51100000000E-03 0. -1.
        -11    1    3    3    0    0  0.48178464579E+01 -0.60544663538E+01  0.51358611088E+01  0.92868335245E+01  0.51100000000E-03 0.  1.
        -12    1    3    3    0    0 -0.37852232275E+01 -0.21421801861E+02 -0.34854046701E+02  0.41085594572E+02  0.00000000000E+00 0.  1.
</event>
<event>
 7    1  0.3050261E-013  0.7246154E+02  0.7816164E-02  0.1226708E+00
        -11   -1    0    0    0    0  0.00000000000E+00  0.00000000000E+00  0.45593999997E+02  0.45594000000E+02  0.51100000000E-03 0. -1.
         11   -1    0    0    0    0 -0.00000000000E+00 -0.00000000000E+00 -0.45593999997E+02  0.45594000000E+02  0.51100000000E-03 0.  1.
    9900012    2    1    2    0    0  0.17112619605E+02 -0.23315698463E+01  0.72389440233E+01  0.72461540690E+02  0.69999961435E+02 0.  0.
         12    1    1    2    0    0 -0.17112619605E+02  0.23315698463E+01 -0.72389440233E+01  0.18726459310E+02  0.00000000000E+00 0. -1.
         11    1    3    3    0    0  0.12667761844E+02 -0.12114210390E+02 -0.35952462325E+01  0.17892794059E+02  0.51100000000E-03 0. -1.
        -11    1    3    3    0    0  0.19371330188E+02  0.23597093792E+02 -0.18730410246E+01  0.30587244917E+02  0.51100000000E-03 0.  1.
         12    1    3    3    0    0 -0.14926472426E+02 -0.13814453249E+02  0.12707231280E+02  0.23981501714E+02  0.00000000000E+00 0. -1.
</event>
<event>
 7    1  0.3050261E-013  0.7246156E+02  0.7816164E-02  0.1226708E+00
        -11   -1    0    0    0    0  0.00000000000E+00  0.00000000000E+00  0.45593999997E+02  0.45594000000E+02  0.51100000000E-03 0. -1.
         11   -1    0    0    0    0 -0.00000000000E+00 -0.00000000000E+00 -0.45593999997E+02  0.45594000000E+02  0.51100000000E-03 0.  1.
    9900012    2    1    2    0    0 -0.78861793724E+01 -0.53296297036E+01 -0.16127087509E+02  0.72461555346E+02  0.69999980527E+02 0.  0.
         12    1    1    2    0    0  0.78861793724E+01  0.53296297036E+01  0.16127087509E+02  0.18726444654E+02  0.00000000000E+00 0. -1.
         11    1    3    3    0    0 -0.25541007616E+02  0.58282337081E+01 -0.75456575114E+01  0.27262581054E+02  0.51100000000E-03 0. -1.
        -11    1    3    3    0    0 -0.12377850484E+02 -0.50687395009E+01 -0.52722724728E+01  0.14377070634E+02  0.51100000000E-03 0.  1.
         12    1    3    3    0    0  0.30032678728E+02 -0.60891239108E+01 -0.33091575245E+01  0.30821903658E+02  0.00000000000E+00 0. -1.
</event>
<event>
 7    1  0.3050261E-013  0.7246157E+02  0.7816164E-02  0.1226708E+00
        -11   -1    0    0    0    0  0.00000000000E+00  0.00000000000E+00  0.45593999997E+02  0.45594000000E+02  0.51100000000E-03 0.  1.
         11   -1    0    0    0    0 -0.00000000000E+00 -0.00000000000E+00 -0.45593999997E+02  0.45594000000E+02  0.51100000000E-03 0. -1.
    9900012    2    1    2    0    0  0.10835606849E+02  0.73226209817E+01  0.13403289418E+02  0.72461566248E+02  0.69999994729E+02 0.  0.
         12    1    1    2    0    0 -0.10835606849E+02 -0.73226209817E+01 -0.13403289418E+02  0.18726433752E+02  0.00000000000E+00 0. -1.
         11    1    3    3    0    0  0.85958355707E+01  0.93038239215E+01  0.40364610483E+01  0.13294455490E+02  0.51100000000E-03 0. -1.
        -11    1    3    3    0    0 -0.88757224655E+01 -0.10162466363E+02  0.30827777353E+02  0.33651241116E+02  0.51100000000E-03 0.  1.
         12    1    3    3    0    0  0.11115493744E+02  0.81812634233E+01 -0.21460948983E+02  0.25515869642E+02  0.00000000000E+00 0. -1.
</event>
<event>
 7    1  0.3050261E-013  0.7246158E+02  0.7816164E-02  0.1226708E+00
        -11   -1    0    0    0    0  0.00000000000E+00  0.00000000000E+00  0.45593999997E+02  0.45594000000E+02  0.51100000000E-03 0.  1.
         11   -1    0    0    0    0 -0.00000000000E+00 -0.00000000000E+00 -0.45593999997E+02  0.45594000000E+02  0.51100000000E-03 0. -1.
    9900012    2    1    2    0    0 -0.96621658411E+01 -0.15785499662E+02 -0.28529845420E+01  0.72461575645E+02  0.70000006970E+02 0.  0.
         12    1    1    2    0    0  0.96621658411E+01  0.15785499662E+02  0.28529845420E+01  0.18726424355E+02  0.00000000000E+00 0. -1.
         11    1    3    3    0    0  0.16119293357E+02 -0.10266689788E+02  0.77481451687E+01  0.20622082614E+02  0.51100000000E-03 0.  1.
        -11    1    3    3    0    0 -0.26968502176E+02  0.10078179291E+02  0.55887791767E+01  0.29327534169E+02  0.51100000000E-03 0. -1.
         12    1    3    3    0    0  0.11870429785E+01 -0.15596989165E+02 -0.16189908887E+02  0.22511958863E+02  0.00000000000E+00 0. -1.
</event>
<event>
 7    1  0.3050261E-013  0.7246173E+02  0.7816164E-02  0.1226708E+00
        -11   -1    0    0    0    0  0.00000000000E+00  0.00000000000E+00  0.45593999997E+02  0.45594000000E+02  0.51100000000E-03 0. -1.
         11   -1    0    0    0    0 -0.00000000000E+00 -0.00000000000E+00 -0.45593999997E+02  0.45594000000E+02  0.51100000000E-03 0.  1.
    9900012    2    1    2    0    0 -0.46656819534E+01 -0.17196336098E+02 -0.57611159685E+01  0.72461734476E+02  0.70000213876E+02 0.  0.
         12    1    1    2    0    0  0.46656819534E+01  0.17196336098E+02  0.57611159685E+01  0.18726265524E+02  0.00000000000E+00 0. -1.
         11    1    3    3    0    0  0.15611115738E+02  0.12390651017E+02  0.41683246694E+01  0.20361976771E+02  0.51100000000E-03 0. -1.
        -11    1    3    3    0    0 -0.75314885313E+01  0.47079758124E+01  0.74521745373E+01  0.11594104594E+02  0.51100000000E-03 0.  1.
        -12    1    3    3    0    0 -0.12745309160E+02 -0.34294962928E+02 -0.17381615175E+02  0.40505653110E+02  0.00000000000E+00 0.  1.
</event>
<event>
 7    1  0.3050261E-013  0.7246160E+02  0.7816164E-02  0.1226708E+00
        -11   -1    0    0    0    0  0.00000000000E+00  0.00000000000E+00  0.45593999997E+02  0.45594000000E+02  0.51100000000E-03 0. -1.
         11   -1    0    0    0    0 -0.00000000000E+00 -0.00000000000E+00 -0.45593999997E+02  0.45594000000E+02  0.51100000000E-03 0.  1.
    9900012    2    1    2    0    0 -0.94991460280E+01  0.85640502268E+01 -0.13678504198E+02  0.72461595950E+02  0.70000033421E+02 0.  0.
         12    1    1    2    0    0  0.94991460280E+01 -0.85640502268E+01  0.13678504198E+02  0.18726404050E+02  0.00000000000E+00 0. -1.
         11    1    3    3    0    0 -0.17622152298E+02  0.13746318109E+02 -0.13275559037E+02  0.25995037626E+02  0.51100000000E-03 0. -1.
        -11    1    3    3    0    0 -0.11896096586E+02  0.41686312921E+01  0.14954404803E+02  0.19558344105E+02  0.51100000000E-03 0.  1.
        -12    1    3    3    0    0  0.20019102856E+02 -0.93508991746E+01 -0.15357349965E+02  0.26908214219E+02  0.00000000000E+00 0.  1.
</event>
<event>
 7    1  0.3050261E-013  0.7246158E+02  0.7816164E-02  0.1226708E+00
        -11   -1    0    0    0    0  0.00000000000E+00  0.00000000000E+00  0.45593999997E+02  0.45594000000E+02  0.51100000000E-03 0.  1.
         11   -1    0    0    0    0 -0.00000000000E+00 -0.00000000000E+00 -0.45593999997E+02  0.45594000000E+02  0.51100000000E-03 0. -1.
    9900012    2    1    2    0    0  0.98065030973E+01 -0.78546478210E+01  0.13885817565E+02  0.72461576827E+02  0.70000008510E+02 0.  0.
         12    1    1    2    0    0 -0.98065030973E+01  0.78546478210E+01 -0.13885817565E+02  0.18726423173E+02  0.00000000000E+00 0. -1.
         11    1    3    3    0    0 -0.15371325518E+01 -0.18848055629E+02  0.24617916118E+02  0.31042773261E+02  0.51100000000E-03 0. -1.
        -11    1    3    3    0    0  0.81707988500E+01 -0.90031050358E+01  0.74057065235E+01  0.14235952497E+02  0.51100000000E-03 0.  1.
         12    1    3    3    0    0  0.31728367990E+01  0.19996512844E+02 -0.18137805076E+02  0.27182851069E+02  0.00000000000E+00 0. -1.
</event>
<event>
 7    1  0.3050261E-013  0.7246155E+02  0.7816164E-02  0.1226708E+00
        -11   -1    0    0    0    0  0.00000000000E+00  0.00000000000E+00  0.45593999997E+02  0.45594000000E+02  0.51100000000E-03 0.  1.
         11   -1    0    0    0    0 -0.00000000000E+00 -0.00000000000E+00 -0.45593999997E+02  0.45594000000E+02  0.51100000000E-03 0. -1.
    9900012    2    1    2    0    0  0.18434600004E+02  0.26895679978E+01 -0.19004246474E+01  0.72461551667E+02  0.69999975735E+02 0.  0.
         12    1    1    2    0    0 -0.18434600004E+02 -0.26895679978E+01  0.19004246474E+01  0.18726448333E+02  0.00000000000E+00 0. -1.
         11    1    3    3    0    0  0.12542938959E+02  0.13493053125E+02 -0.81139497098E+01  0.20130175869E+02  0.51100000000E-03 0. -1.
        -11    1    3    3    0    0  0.35282183911E+01  0.75165210056E+01  0.24784275177E+02  0.26138223149E+02  0.51100000000E-03 0.  1.
         12    1    3    3    0    0  0.23634426532E+01 -0.18320006133E+02 -0.18570750115E+02  0.26193152649E+02  0.00000000000E+00 0. -1.
</event>
<event>
 7    1  0.3050261E-013  0.7246145E+02  0.7816164E-02  0.1226708E+00
        -11   -1    0    0    0    0  0.00000000000E+00  0.00000000000E+00  0.45593999997E+02  0.45594000000E+02  0.51100000000E-03 0. -1.
         11   -1    0    0    0    0 -0.00000000000E+00 -0.00000000000E+00 -0.45593999997E+02  0.45594000000E+02  0.51100000000E-03 0.  1.
    9900012    2    1    2    0    0  0.17892765616E+02  0.38659556407E+01 -0.39480574553E+01  0.72461445803E+02  0.69999837827E+02 0.  0.
         12    1    1    2    0    0 -0.17892765616E+02 -0.38659556407E+01  0.39480574553E+01  0.18726554197E+02  0.00000000000E+00 0. -1.
         11    1    3    3    0    0  0.25654932294E+02 -0.11460208779E+02  0.22348826935E+02  0.35902395490E+02  0.51100000000E-03 0. -1.
        -11    1    3    3    0    0 -0.67971304414E+01 -0.10046722302E+01 -0.18016617310E+01  0.71032621930E+01  0.51100000000E-03 0.  1.
        -12    1    3    3    0    0 -0.96503623617E+00  0.16330836650E+02 -0.24495222660E+02  0.29455788120E+02  0.00000000000E+00 0.  1.
</event>
<event>
 7    1  0.3050261E-013  0.7246158E+02  0.7816164E-02  0.1226708E+00
        -11   -1    0    0    0    0  0.00000000000E+00  0.00000000000E+00  0.45593999997E+02  0.45594000000E+02  0.51100000000E-03 0.  1.
         11   -1    0    0    0    0 -0.00000000000E+00 -0.00000000000E+00 -0.45593999997E+02  0.45594000000E+02  0.51100000000E-03 0. -1.
    9900012    2    1    2    0    0 -0.11749209273E+02 -0.12835887723E+00  0.14581441524E+02  0.72461579321E+02  0.70000011759E+02 0.  0.
         12    1    1    2    0    0  0.11749209273E+02  0.12835887723E+00 -0.14581441524E+02  0.18726420679E+02  0.00000000000E+00 0. -1.
         11    1    3    3    0    0 -0.24054638779E+02  0.66748205162E+01  0.30166106225E+02  0.39155751056E+02  0.51100000000E-03 0. -1.
        -11    1    3    3    0    0  0.86603235435E+01 -0.40728882853E+01  0.59671037502E+01  0.11278118207E+02  0.51100000000E-03 0.  1.
        -12    1    3    3    0    0  0.36451059622E+01 -0.27302911081E+01 -0.21551768451E+02  0.22027710058E+02  0.00000000000E+00 0.  1.
</event>
<event>
 7    1  0.3050261E-013  0.7246155E+02  0.7816164E-02  0.1226708E+00
        -11   -1    0    0    0    0  0.00000000000E+00  0.00000000000E+00  0.45593999997E+02  0.45594000000E+02  0.51100000000E-03 0. -1.
         11   -1    0    0    0    0 -0.00000000000E+00 -0.00000000000E+00 -0.45593999997E+02  0.45594000000E+02  0.51100000000E-03 0.  1.
    9900012    2    1    2    0    0 -0.36971710690E+01 -0.18133770298E+02  0.28595930270E+01  0.72461548884E+02  0.69999972109E+02 0.  0.
         12    1    1    2    0    0  0.36971710690E+01  0.18133770298E+02 -0.28595930270E+01  0.18726451116E+02  0.00000000000E+00 0. -1.
         11    1    3    3    0    0  0.37816199318E+00 -0.20409144813E+02  0.18727930099E+02  0.27702194219E+02  0.51100000000E-03 0. -1.
        -11    1    3    3    0    0 -0.20547669541E+02 -0.35136273279E+01  0.46429301910E+00  0.20851087954E+02  0.51100000000E-03 0.  1.
        -12    1    3    3    0    0  0.16472336479E+02  0.57890018430E+01 -0.16332630092E+02  0.23908266711E+02  0.00000000000E+00 0.  1.
</event>
<event>
 7    1  0.3050261E-013  0.7246160E+02  0.7816164E-02  0.1226708E+00
        -11   -1    0    0    0    0  0.00000000000E+00  0.00000000000E+00  0.45593999997E+02  0.45594000000E+02  0.51100000000E-03 0.  1.
         11   -1    0    0    0    0 -0.00000000000E+00 -0.00000000000E+00 -0.45593999997E+02  0.45594000000E+02  0.51100000000E-03 0. -1.
    9900012    2    1    2    0    0 -0.69632858961E+01  0.17318531140E+02  0.15031155014E+01  0.72461595446E+02  0.70000032765E+02 0.  0.
         12    1    1    2    0    0  0.69632858961E+01 -0.17318531140E+02 -0.15031155014E+01  0.18726404554E+02  0.00000000000E+00 0. -1.
         11    1    3    3    0    0  0.79324142396E+01  0.62421631838E+00 -0.11178846779E+02  0.13721496174E+02  0.51100000000E-03 0. -1.
        -11    1    3    3    0    0  0.91386329539E+01  0.24967701428E+02 -0.59240596718E+01  0.27239589023E+02  0.51100000000E-03 0.  1.
         12    1    3    3    0    0 -0.24034333090E+02 -0.82733866070E+01  0.18606021953E+02  0.31500510249E+02  0.00000000000E+00 0. -1.
</event>
<event>
 7    1  0.3050261E-013  0.7246157E+02  0.7816164E-02  0.1226708E+00
        -11   -1    0    0    0    0  0.00000000000E+00  0.00000000000E+00  0.45593999997E+02  0.45594000000E+02  0.51100000000E-03 0. -1.
         11   -1    0    0    0    0 -0.00000000000E+00 -0.00000000000E+00 -0.45593999997E+02  0.45594000000E+02  0.51100000000E-03 0.  1.
    9900012    2    1    2    0    0  0.43459001351E+01 -0.43995292399E+00 -0.18209858771E+02  0.72461565128E+02  0.69999993270E+02 0.  0.
         12    1    1    2    0    0 -0.43459001351E+01  0.43995292399E+00  0.18209858771E+02  0.18726434872E+02  0.00000000000E+00 0. -1.
         11    1    3    3    0    0 -0.12097535720E+02  0.21109324342E+02 -0.12575399990E+02  0.27387855517E+02  0.51100000000E-03 0. -1.
        -11    1    3    3    0    0  0.19368939928E+02  0.29492994755E+01  0.68660329489E+00  0.19604224690E+02  0.51100000000E-03 0.  1.
         12    1    3    3    0    0 -0.29255040731E+01 -0.24498576741E+02 -0.63210620751E+01  0.25469484922E+02  0.00000000000E+00 0. -1.
</event>
<event>
 7    1  0.3050261E-013  0.7246161E+02  0.7816164E-02  0.1226708E+00
        -11   -1    0    0    0    0  0.00000000000E+00  0.00000000000E+00  0.45593999997E+02  0.45594000000E+02  0.51100000000E-03 0.  1.
         11   -1    0    0    0    0 -0.00000000000E+00 -0.00000000000E+00 -0.45593999997E+02  0.45594000000E+02  0.51100000000E-03 0. -1.
    9900012    2    1    2    0    0  0.47733555962E+01  0.15192999829E+01  0.18043958814E+02  0.72461610979E+02  0.70000053000E+02 0.  0.
         12    1    1    2    0    0 -0.47733555962E+01 -0.15192999829E+01 -0.18043958814E+02  0.18726389021E+02  0.00000000000E+00 0. -1.
         11    1    3    3    0    0 -0.18886785852E+01  0.32293265289E+00  0.13119163607E+02  0.13258350060E+02  0.51100000000E-03 0. -1.
        -11    1    3    3    0    0  0.26000050191E+02  0.43509874843E+01  0.21123466943E+02  0.33780683207E+02  0.51100000000E-03 0.  1.
         12    1    3    3    0    0 -0.19338016009E+02 -0.31546201544E+01 -0.16198671736E+02  0.25422577712E+02  0.00000000000E+00 0. -1.
</event>
<event>
 7    1  0.3050261E-013  0.7246156E+02  0.7816164E-02  0.1226708E+00
        -11   -1    0    0    0    0  0.00000000000E+00  0.00000000000E+00  0.45593999997E+02  0.45594000000E+02  0.51100000000E-03 0.  1.
         11   -1    0    0    0    0 -0.00000000000E+00 -0.00000000000E+00 -0.45593999997E+02  0.45594000000E+02  0.51100000000E-03 0. -1.
    9900012    2    1    2    0    0 -0.84414127582E+01 -0.16673104607E+02 -0.11956248965E+01  0.72461564528E+02  0.69999992488E+02 0.  0.
         12    1    1    2    0    0  0.84414127582E+01  0.16673104607E+02  0.11956248965E+01  0.18726435472E+02  0.00000000000E+00 0. -1.
         11    1    3    3    0    0 -0.11831273178E+02  0.11856552529E+02 -0.88074554514E+01  0.18924273690E+02  0.51100000000E-03 0. -1.
        -11    1    3    3    0    0  0.22907861283E+02 -0.72450068420E+01  0.49962115132E+01  0.24540219283E+02  0.51100000000E-03 0.  1.
         12    1    3    3    0    0 -0.19518000863E+02 -0.21284650294E+02  0.26156190417E+01  0.28997071556E+02  0.00000000000E+00 0. -1.
</event>
<event>
 7    1  0.3050261E-013  0.7246154E+02  0.7816164E-02  0.1226708E+00
        -11   -1    0    0    0    0  0.00000000000E+00  0.00000000000E+00  0.45593999997E+02  0.45594000000E+02  0.51100000000E-03 0.  1.
         11   -1    0    0    0    0 -0.00000000000E+00 -0.00000000000E+00 -0.45593999997E+02  0.45594000000E+02  0.51100000000E-03 0. -1.
    9900012    2    1    2    0    0  0.18307509076E+01  0.94794607173E+01  0.16045826025E+02  0.72461538583E+02  0.69999958690E+02 0.  0.
         12    1    1    2    0    0 -0.18307509076E+01 -0.94794607173E+01 -0.16045826025E+02  0.18726461417E+02  0.00000000000E+00 0. -1.
         11    1    3    3    0    0 -0.20254660842E+02  0.18849045365E+02  0.22355259845E+02  0.35570991552E+02  0.51100000000E-03 0. -1.
        -11    1    3    3    0    0  0.47713816030E-01  0.77614201456E+01  0.15012248693E+01  0.79054155902E+01  0.51100000000E-03 0.  1.
        -12    1    3    3    0    0  0.22037697934E+02 -0.17131004794E+02 -0.78106586892E+01  0.28985131440E+02  0.00000000000E+00 0.  1.
</event>
<event>
 7    1  0.3050261E-013  0.7246160E+02  0.7816164E-02  0.1226708E+00
        -11   -1    0    0    0    0  0.00000000000E+00  0.00000000000E+00  0.45593999997E+02  0.45594000000E+02  0.51100000000E-03 0.  1.
         11   -1    0    0    0    0 -0.00000000000E+00 -0.00000000000E+00 -0.45593999997E+02  0.45594000000E+02  0.51100000000E-03 0. -1.
    9900012    2    1    2    0    0 -0.16379986715E+02  0.73037591470E+01 -0.53878814323E+01  0.72461598082E+02  0.70000036198E+02 0.  0.
         12    1    1    2    0    0  0.16379986715E+02 -0.73037591470E+01  0.53878814323E+01  0.18726401918E+02  0.00000000000E+00 0. -1.
         11    1    3    3    0    0 -0.13838883894E+02 -0.17646972555E+02 -0.12015854116E+02  0.25442309215E+02  0.51100000000E-03 0. -1.
        -11    1    3    3    0    0 -0.13556803632E+02 -0.38916715162E+01 -0.34891695989E+01  0.14529498844E+02  0.51100000000E-03 0.  1.
        -12    1    3    3    0    0  0.11015700811E+02  0.28842403218E+02  0.10117142283E+02  0.32489790023E+02  0.00000000000E+00 0.  1.
</event>
<event>
 7    1  0.3050261E-013  0.7246165E+02  0.7816164E-02  0.1226708E+00
        -11   -1    0    0    0    0  0.00000000000E+00  0.00000000000E+00  0.45593999997E+02  0.45594000000E+02  0.51100000000E-03 0.  1.
         11   -1    0    0    0    0 -0.00000000000E+00 -0.00000000000E+00 -0.45593999997E+02  0.45594000000E+02  0.51100000000E-03 0. -1.
    9900012    2    1    2    0    0 -0.55725679320E+01  0.12179227209E+02  0.13087740053E+02  0.72461654161E+02  0.70000109252E+02 0.  0.
         12    1    1    2    0    0  0.55725679320E+01 -0.12179227209E+02 -0.13087740053E+02  0.18726345839E+02  0.00000000000E+00 0. -1.
         11    1    3    3    0    0  0.11583239251E+02  0.12935028015E+01  0.14809783916E+02  0.18846068050E+02  0.51100000000E-03 0. -1.
        -11    1    3    3    0    0 -0.32123256960E+02  0.14242971024E+02  0.72013036485E+01  0.35869550259E+02  0.51100000000E-03 0.  1.
         12    1    3    3    0    0  0.14967449777E+02 -0.33572466162E+01 -0.89233475110E+01  0.17746035852E+02  0.00000000000E+00 0. -1.
</event>
<event>
 7    1  0.3050261E-013  0.7246159E+02  0.7816164E-02  0.1226708E+00
        -11   -1    0    0    0    0  0.00000000000E+00  0.00000000000E+00  0.45593999997E+02  0.45594000000E+02  0.51100000000E-03 0.  1.
         11   -1    0    0    0    0 -0.00000000000E+00 -0.00000000000E+00 -0.45593999997E+02  0.45594000000E+02  0.51100000000E-03 0. -1.
    9900012    2    1    2    0    0 -0.30911621670E+01  0.36350901036E+01  0.18108260579E+02  0.72461594451E+02  0.70000031468E+02 0.  0.
         12    1    1    2    0    0  0.30911621670E+01 -0.36350901036E+01 -0.18108260579E+02  0.18726405549E+02  0.00000000000E+00 0. -1.
         11    1    3    3    0    0 -0.97274402300E+01 -0.16596312660E+02 -0.25775219759E+01  0.19408871867E+02  0.51100000000E-03 0. -1.
        -11    1    3    3    0    0  0.27363614363E+01  0.48069105424E+01  0.32669574009E+02  0.33134500585E+02  0.51100000000E-03 0.  1.
         12    1    3    3    0    0  0.38999166267E+01  0.15424492221E+02 -0.11983791454E+02  0.19918221999E+02  0.00000000000E+00 0. -1.
</event>
<event>
 7    1  0.3050261E-013  0.7246162E+02  0.7816164E-02  0.1226708E+00
        -11   -1    0    0    0    0  0.00000000000E+00  0.00000000000E+00  0.45593999997E+02  0.45594000000E+02  0.51100000000E-03 0.  1.
         11   -1    0    0    0    0 -0.00000000000E+00 -0.00000000000E+00 -0.45593999997E+02  0.45594000000E+02  0.51100000000E-03 0. -1.
    9900012    2    1    2    0    0 -0.74251706065E+01  0.17182658494E+02 -0.54812282195E+00  0.72461618873E+02  0.70000063283E+02 0.  0.
         12    1    1    2    0    0  0.74251706065E+01 -0.17182658494E+02  0.54812282195E+00  0.18726381127E+02  0.00000000000E+00 0. -1.
         11    1    3    3    0    0  0.10189496051E+00 -0.40344518788E+01  0.95679610979E+01  0.10384270045E+02  0.51100000000E-03 0. -1.
        -11    1    3    3    0    0  0.68490136768E+01  0.17162278180E+02  0.20751111587E+02  0.27785993109E+02  0.51100000000E-03 0.  1.
         12    1    3    3    0    0 -0.14376079244E+02  0.40548321929E+01 -0.30867195507E+02  0.34291355719E+02  0.00000000000E+00 0. -1.
</event>
<event>
 7    1  0.3050261E-013  0.7246160E+02  0.7816164E-02  0.1226708E+00
        -11   -1    0    0    0    0  0.00000000000E+00  0.00000000000E+00  0.45593999997E+02  0.45594000000E+02  0.51100000000E-03 0. -1.
         11   -1    0    0    0    0 -0.00000000000E+00 -0.00000000000E+00 -0.45593999997E+02  0.45594000000E+02  0.51100000000E-03 0.  1.
    9900012    2    1    2    0    0  0.10915779491E+02  0.79933162876E+01 -0.12947230711E+02  0.72461598043E+02  0.70000036148E+02 0.  0.
         12    1    1    2    0    0 -0.10915779491E+02 -0.79933162876E+01  0.12947230711E+02  0.18726401957E+02  0.00000000000E+00 0. -1.
         11    1    3    3    0    0  0.22274170118E+01  0.66799029403E+01 -0.24979790354E+02  0.25953273709E+02  0.51100000000E-03 0. -1.
        -11    1    3    3    0    0  0.21779163101E+02  0.68040433759E+01 -0.59669619805E+01  0.23584562476E+02  0.51100000000E-03 0.  1.
         12    1    3    3    0    0 -0.13090800622E+02 -0.54906300285E+01  0.17999521624E+02  0.22923761858E+02  0.00000000000E+00 0. -1.
</event>
<event>
 7    1  0.3050261E-013  0.7246142E+02  0.7816164E-02  0.1226708E+00
        -11   -1    0    0    0    0  0.00000000000E+00  0.00000000000E+00  0.45593999997E+02  0.45594000000E+02  0.51100000000E-03 0. -1.
         11   -1    0    0    0    0 -0.00000000000E+00 -0.00000000000E+00 -0.45593999997E+02  0.45594000000E+02  0.51100000000E-03 0.  1.
    9900012    2    1    2    0    0  0.29161913098E+01  0.16001063314E+02 -0.92815253028E+01  0.72461416999E+02  0.69999800304E+02 0.  0.
         12    1    1    2    0    0 -0.29161913098E+01 -0.16001063314E+02  0.92815253028E+01  0.18726583001E+02  0.00000000000E+00 0. -1.
         11    1    3    3    0    0 -0.39991269636E+01  0.10379488850E+02  0.21606120729E+01  0.11331153959E+02  0.51100000000E-03 0. -1.
        -11    1    3    3    0    0  0.28204766022E+02  0.10833033972E+01  0.10600971140E+02  0.30150671004E+02  0.51100000000E-03 0.  1.
         12    1    3    3    0    0 -0.21289447748E+02  0.45382710670E+01 -0.22043108516E+02  0.30979592037E+02  0.00000000000E+00 0. -1.
</event>
<event>
 7    1  0.3050261E-013  0.7246156E+02  0.7816164E-02  0.1226708E+00
        -11   -1    0    0    0    0  0.00000000000E+00  0.00000000000E+00  0.45593999997E+02  0.45594000000E+02  0.51100000000E-03 0. -1.
         11   -1    0    0    0    0 -0.00000000000E+00 -0.00000000000E+00 -0.45593999997E+02  0.45594000000E+02  0.51100000000E-03 0.  1.
    9900012    2    1    2    0    0 -0.12571178403E+01  0.62630651596E+01 -0.17603217761E+02  0.72461558640E+02  0.69999984819E+02 0.  0.
         12    1    1    2    0    0  0.12571178403E+01 -0.62630651596E+01  0.17603217761E+02  0.18726441360E+02  0.00000000000E+00 0. -1.
         11    1    3    3    0    0  0.19630722426E+02  0.20425944523E+02 -0.59793939611E+01  0.28954060596E+02  0.51100000000E-03 0. -1.
        -11    1    3    3    0    0 -0.97168179543E+01  0.10391717816E+02 -0.79065572347E+01  0.16276301727E+02  0.51100000000E-03 0.  1.
        -12    1    3    3    0    0 -0.11171022312E+02 -0.24554597180E+02 -0.37172665651E+01  0.27231196317E+02  0.00000000000E+00 0.  1.
</event>
<event>
 7    1  0.3050261E-013  0.7246159E+02  0.7816164E-02  0.1226708E+00
        -11   -1    0    0    0    0  0.00000000000E+00  0.00000000000E+00  0.45593999997E+02  0.45594000000E+02  0.51100000000E-03 0.  1.
         11   -1    0    0    0    0 -0.00000000000E+00 -0.00000000000E+00 -0.45593999997E+02  0.45594000000E+02  0.51100000000E-03 0. -1.
    9900012    2    1    2    0    0 -0.12984972272E+02 -0.99746099050E+01 -0.90871347003E+01  0.72461591783E+02  0.70000027993E+02 0.  0.
         12    1    1    2    0    0  0.12984972272E+02  0.99746099050E+01  0.90871347003E+01  0.18726408217E+02  0.00000000000E+00 0. -1.
         11    1    3    3    0    0 -0.22825689776E+02  0.39291476919E+01 -0.12388188622E+02  0.26266281293E+02  0.51100000000E-03 0. -1.
        -11    1    3    3    0    0 -0.76781416982E+01 -0.11379434120E+02  0.18381863974E+02  0.22942064080E+02  0.51100000000E-03 0.  1.
         12    1    3    3    0    0  0.17518859203E+02 -0.25243234764E+01 -0.15080810052E+02  0.23253246410E+02  0.00000000000E+00 0. -1.
</event>
<event>
 7    1  0.3050261E-013  0.7246153E+02  0.7816164E-02  0.1226708E+00
        -11   -1    0    0    0    0  0.00000000000E+00  0.00000000000E+00  0.45593999997E+02  0.45594000000E+02  0.51100000000E-03 0.  1.
         11   -1    0    0    0    0 -0.00000000000E+00 -0.00000000000E+00 -0.45593999997E+02  0.45594000000E+02  0.51100000000E-03 0. -1.
    9900012    2    1    2    0    0 -0.83164655113E+01  0.16722252453E+02  0.13723226008E+01  0.72461532233E+02  0.69999950418E+02 0.  0.
         12    1    1    2    0    0  0.83164655113E+01 -0.16722252453E+02 -0.13723226008E+01  0.18726467767E+02  0.00000000000E+00 0. -1.
         11    1    3    3    0    0 -0.18680584741E+02  0.59119117867E+01 -0.10343949597E+02  0.22156539458E+02  0.51100000000E-03 0. -1.
        -11    1    3    3    0    0  0.30699774600E+01  0.86641606041E+01 -0.17687870437E+02  0.19933720211E+02  0.51100000000E-03 0.  1.
        -12    1    3    3    0    0  0.72941417693E+01  0.21461800625E+01  0.29404142635E+02  0.30371272564E+02  0.00000000000E+00 0.  1.
</event>
<event>
 7    1  0.3050261E-013  0.7246156E+02  0.7816164E-02  0.1226708E+00
        -11   -1    0    0    0    0  0.00000000000E+00  0.00000000000E+00  0.45593999997E+02  0.45594000000E+02  0.51100000000E-03 0.  1.
         11   -1    0    0    0    0 -0.00000000000E+00 -0.00000000000E+00 -0.45593999997E+02  0.45594000000E+02  0.51100000000E-03 0. -1.
    9900012    2    1    2    0    0  0.16661055637E+02 -0.29762582725E+01  0.80144149462E+01  0.72461555192E+02  0.69999980326E+02 0.  0.
         12    1    1    2    0    0 -0.16661055637E+02  0.29762582725E+01 -0.80144149462E+01  0.18726444808E+02  0.00000000000E+00 0. -1.
         11    1    3    3    0    0 -0.88013709392E+01 -0.61938039317E+01 -0.22975930907E+02  0.25371652269E+02  0.51100000000E-03 0.  1.
        -11    1    3    3    0    0 -0.60724841117E+00 -0.28637209265E+01  0.16287332964E+02  0.16548319054E+02  0.51100000000E-03 0. -1.
        -12    1    3    3    0    0  0.26069674987E+02  0.60812665857E+01  0.14703012889E+02  0.30541583869E+02  0.00000000000E+00 0.  1.
</event>
<event>
 7    1  0.3050261E-013  0.7246157E+02  0.7816164E-02  0.1226708E+00
        -11   -1    0    0    0    0  0.00000000000E+00  0.00000000000E+00  0.45593999997E+02  0.45594000000E+02  0.51100000000E-03 0. -1.
         11   -1    0    0    0    0 -0.00000000000E+00 -0.00000000000E+00 -0.45593999997E+02  0.45594000000E+02  0.51100000000E-03 0.  1.
    9900012    2    1    2    0    0  0.89234773894E+01  0.74240913872E+00 -0.16446874167E+02  0.72461567080E+02  0.69999995813E+02 0.  0.
         12    1    1    2    0    0 -0.89234773894E+01 -0.74240913872E+00  0.16446874167E+02  0.18726432920E+02  0.00000000000E+00 0. -1.
         11    1    3    3    0    0  0.11439929128E+02  0.15330258831E+02  0.12096292019E+02  0.22632036920E+02  0.51100000000E-03 0. -1.
        -11    1    3    3    0    0 -0.85333873222E+01  0.11038138717E+02 -0.13960715514E+02  0.19737294228E+02  0.51100000000E-03 0.  1.
        -12    1    3    3    0    0  0.60169355838E+01 -0.25625988409E+02 -0.14582450672E+02  0.30092235932E+02  0.00000000000E+00 0.  1.
</event>
<event>
 7    1  0.3050261E-013  0.7246157E+02  0.7816164E-02  0.1226708E+00
        -11   -1    0    0    0    0  0.00000000000E+00  0.00000000000E+00  0.45593999997E+02  0.45594000000E+02  0.51100000000E-03 0. -1.
         11   -1    0    0    0    0 -0.00000000000E+00 -0.00000000000E+00 -0.45593999997E+02  0.45594000000E+02  0.51100000000E-03 0.  1.
    9900012    2    1    2    0    0  0.42590316845E+01  0.17461759106E+02 -0.52561189394E+01  0.72461570328E+02  0.70000000043E+02 0.  0.
         12    1    1    2    0    0 -0.42590316845E+01 -0.17461759106E+02  0.52561189394E+01  0.18726429672E+02  0.00000000000E+00 0. -1.
         11    1    3    3    0    0 -0.10127257802E+01 -0.56694567811E+00 -0.14090060559E+02  0.14137780863E+02  0.51100000000E-03 0. -1.
        -11    1    3    3    0    0  0.29807787637E+02  0.12778554082E+02  0.30513359869E+01  0.32574626626E+02  0.51100000000E-03 0.  1.
         12    1    3    3    0    0 -0.24536030172E+02  0.52501507020E+01  0.57826056331E+01  0.25749162839E+02  0.00000000000E+00 0. -1.
</event>
<event>
 7    1  0.3050261E-013  0.7246150E+02  0.7816164E-02  0.1226708E+00
        -11   -1    0    0    0    0  0.00000000000E+00  0.00000000000E+00  0.45593999997E+02  0.45594000000E+02  0.51100000000E-03 0.  1.
         11   -1    0    0    0    0 -0.00000000000E+00 -0.00000000000E+00 -0.45593999997E+02  0.45594000000E+02  0.51100000000E-03 0. -1.
    9900012    2    1    2    0    0 -0.51359901534E+01  0.15580221340E+02  0.90310602685E+01  0.72461501624E+02  0.69999910544E+02 0.  0.
         12    1    1    2    0    0  0.51359901534E+01 -0.15580221340E+02 -0.90310602685E+01  0.18726498376E+02  0.00000000000E+00 0. -1.
         11    1    3    3    0    0  0.20381542141E+02 -0.52574821573E+01 -0.41004694344E+00  0.21052708078E+02  0.51100000000E-03 0. -1.
        -11    1    3    3    0    0  0.76878068884E+01  0.12104919816E+01  0.10198872405E+02  0.12829055467E+02  0.51100000000E-03 0.  1.
        -12    1    3    3    0    0 -0.33205339182E+02  0.19627211516E+02 -0.75776519322E+00  0.38579738078E+02  0.00000000000E+00 0.  1.
</event>
<event>
 7    1  0.3050261E-013  0.7246158E+02  0.7816164E-02  0.1226708E+00
        -11   -1    0    0    0    0  0.00000000000E+00  0.00000000000E+00  0.45593999997E+02  0.45594000000E+02  0.51100000000E-03 0.  1.
         11   -1    0    0    0    0 -0.00000000000E+00 -0.00000000000E+00 -0.45593999997E+02  0.45594000000E+02  0.51100000000E-03 0. -1.
    9900012    2    1    2    0    0 -0.44631755931E+01 -0.45362725663E+01  0.17611957728E+02  0.72461581224E+02  0.70000014238E+02 0.  0.
         12    1    1    2    0    0  0.44631755931E+01  0.45362725663E+01 -0.17611957728E+02  0.18726418776E+02  0.00000000000E+00 0. -1.
         11    1    3    3    0    0  0.35488778490E+00  0.20851676745E+02  0.37914747642E+01  0.21196548058E+02  0.51100000000E-03 0. -1.
        -11    1    3    3    0    0  0.60761545142E+01 -0.93356781250E+01  0.26050358907E+02  0.28331885556E+02  0.51100000000E-03 0.  1.
        -12    1    3    3    0    0 -0.10894217892E+02 -0.16052271186E+02 -0.12229875943E+02  0.22933147610E+02  0.00000000000E+00 0.  1.
</event>
<event>
 7    1  0.3050261E-013  0.7246154E+02  0.7816164E-02  0.1226708E+00
        -11   -1    0    0    0    0  0.00000000000E+00  0.00000000000E+00  0.45593999997E+02  0.45594000000E+02  0.51100000000E-03 0.  1.
         11   -1    0    0    0    0 -0.00000000000E+00 -0.00000000000E+00 -0.45593999997E+02  0.45594000000E+02  0.51100000000E-03 0. -1.
    9900012    2    1    2    0    0  0.99954340277E+01 -0.11189937204E+02 -0.11205224200E+02  0.72461536228E+02  0.69999955622E+02 0.  0.
         12    1    1    2    0    0 -0.99954340277E+01  0.11189937204E+02  0.11205224200E+02  0.18726463772E+02  0.00000000000E+00 0. -1.
         11    1    3    3    0    0 -0.62504860103E+01 -0.21080599693E+02 -0.46983354054E+01  0.22484096927E+02  0.51100000000E-03 0. -1.
        -11    1    3    3    0    0 -0.31756906349E+01 -0.13609244453E+02  0.81207932512E+01  0.16163038974E+02  0.51100000000E-03 0.  1.
        -12    1    3    3    0    0  0.19421610673E+02  0.23499906942E+02 -0.14627682046E+02  0.33814400327E+02  0.00000000000E+00 0.  1.
</event>
<event>
 7    1  0.3050261E-013  0.7246172E+02  0.7816164E-02  0.1226708E+00
        -11   -1    0    0    0    0  0.00000000000E+00  0.00000000000E+00  0.45593999997E+02  0.45594000000E+02  0.51100000000E-03 0.  1.
         11   -1    0    0    0    0 -0.00000000000E+00 -0.00000000000E+00 -0.45593999997E+02  0.45594000000E+02  0.51100000000E-03 0. -1.
    9900012    2    1    2    0    0 -0.13509445405E+02  0.63344953645E+01  0.11315585483E+02  0.72461723768E+02  0.70000199928E+02 0.  0.
         12    1    1    2    0    0  0.13509445405E+02 -0.63344953645E+01 -0.11315585483E+02  0.18726276232E+02  0.00000000000E+00 0. -1.
         11    1    3    3    0    0 -0.15523626594E+02  0.35566128591E+00  0.79508841063E+01  0.17444942989E+02  0.51100000000E-03 0. -1.
        -11    1    3    3    0    0 -0.23041267870E+02 -0.98437179114E+01 -0.93433098693E+00  0.25073328101E+02  0.51100000000E-03 0.  1.
         12    1    3    3    0    0  0.25055449059E+02  0.15822551990E+02  0.42990323640E+01  0.29943452678E+02  0.00000000000E+00 0. -1.
</event>
<event>
 7    1  0.3050261E-013  0.7246151E+02  0.7816164E-02  0.1226708E+00
        -11   -1    0    0    0    0  0.00000000000E+00  0.00000000000E+00  0.45593999997E+02  0.45594000000E+02  0.51100000000E-03 0.  1.
         11   -1    0    0    0    0 -0.00000000000E+00 -0.00000000000E+00 -0.45593999997E+02  0.45594000000E+02  0.51100000000E-03 0. -1.
    9900012    2    1    2    0    0 -0.11758520246E+02  0.12984047540E+02  0.66206495522E+01  0.72461513693E+02  0.69999926267E+02 0.  0.
         12    1    1    2    0    0  0.11758520246E+02 -0.12984047540E+02 -0.66206495522E+01  0.18726486307E+02  0.00000000000E+00 0. -1.
         11    1    3    3    0    0 -0.18202309620E+01 -0.26495757269E+01 -0.11344613287E+02  0.11791257065E+02  0.51100000000E-03 0. -1.
        -11    1    3    3    0    0 -0.17804613607E+02  0.31808837175E+02  0.18165841765E+01  0.36498032364E+02  0.51100000000E-03 0.  1.
        -12    1    3    3    0    0  0.78663243222E+01 -0.16175213909E+02  0.16148678663E+02  0.24172224264E+02  0.00000000000E+00 0.  1.
</event>
<event>
 7    1  0.3050261E-013  0.7246162E+02  0.7816164E-02  0.1226708E+00
        -11   -1    0    0    0    0  0.00000000000E+00  0.00000000000E+00  0.45593999997E+02  0.45594000000E+02  0.51100000000E-03 0.  1.
         11   -1    0    0    0    0 -0.00000000000E+00 -0.00000000000E+00 -0.45593999997E+02  0.45594000000E+02  0.51100000000E-03 0. -1.
    9900012    2    1    2    0    0  0.37767095004E+01  0.14675060914E+02  0.11002554638E+02  0.72461624055E+02  0.70000070033E+02 0.  0.
         12    1    1    2    0    0 -0.37767095004E+01 -0.14675060914E+02 -0.11002554638E+02  0.18726375945E+02  0.00000000000E+00 0. -1.
         11    1    3    3    0    0  0.16861181320E+01 -0.24828402061E+00  0.12146187850E+02  0.12265175044E+02  0.51100000000E-03 0. -1.
        -11    1    3    3    0    0  0.27700137257E+02  0.54506308535E+01  0.11018045795E+02  0.30305186258E+02  0.51100000000E-03 0.  1.
         12    1    3    3    0    0 -0.25609545888E+02  0.94727140809E+01 -0.12161679007E+02  0.29891262752E+02  0.00000000000E+00 0. -1.
</event>
<event>
 7    1  0.3050261E-013  0.7246131E+02  0.7816164E-02  0.1226709E+00
        -11   -1    0    0    0    0  0.00000000000E+00  0.00000000000E+00  0.45593999997E+02  0.45594000000E+02  0.51100000000E-03 0.  1.
         11   -1    0    0    0    0 -0.00000000000E+00 -0.00000000000E+00 -0.45593999997E+02  0.45594000000E+02  0.51100000000E-03 0. -1.
    9900012    2    1    2    0    0 -0.68040185296E+00 -0.13614516604E+02  0.12840205908E+02  0.72461310575E+02  0.69999661667E+02 0.  0.
         12    1    1    2    0    0  0.68040185296E+00  0.13614516604E+02 -0.12840205908E+02  0.18726689425E+02  0.00000000000E+00 0. -1.
         11    1    3    3    0    0  0.23627963384E+01 -0.19363219055E+02  0.10647816755E+02  0.22223704926E+02  0.51100000000E-03 0. -1.
        -11    1    3    3    0    0  0.22554041539E+02 -0.31540117357E+01 -0.17971034117E+01  0.22844302588E+02  0.51100000000E-03 0.  1.
         12    1    3    3    0    0 -0.25597239730E+02  0.89027141867E+01  0.39894925647E+01  0.27393303062E+02  0.00000000000E+00 0. -1.
</event>
<event>
 7    1  0.3050261E-013  0.7246170E+02  0.7816164E-02  0.1226708E+00
        -11   -1    0    0    0    0  0.00000000000E+00  0.00000000000E+00  0.45593999997E+02  0.45594000000E+02  0.51100000000E-03 0. -1.
         11   -1    0    0    0    0 -0.00000000000E+00 -0.00000000000E+00 -0.45593999997E+02  0.45594000000E+02  0.51100000000E-03 0.  1.
    9900012    2    1    2    0    0 -0.17428993274E+01 -0.17783505119E+02  0.56020873910E+01  0.72461704704E+02  0.70000175093E+02 0.  0.
         12    1    1    2    0    0  0.17428993274E+01  0.17783505119E+02 -0.56020873910E+01  0.18726295296E+02  0.00000000000E+00 0. -1.
         11    1    3    3    0    0 -0.12091142041E+02 -0.82653735825E+01  0.27321769496E+02  0.30999858145E+02  0.51100000000E-03 0. -1.
        -11    1    3    3    0    0 -0.50266994825E+01 -0.14816340953E+02 -0.19574134323E+02  0.25058699122E+02  0.51100000000E-03 0.  1.
         12    1    3    3    0    0  0.15374942196E+02  0.52982094165E+01 -0.21455477821E+01  0.16403147437E+02  0.00000000000E+00 0. -1.
</event>
<event>
 7    1  0.3050261E-013  0.7246159E+02  0.7816164E-02  0.1226708E+00
        -11   -1    0    0    0    0  0.00000000000E+00  0.00000000000E+00  0.45593999997E+02  0.45594000000E+02  0.51100000000E-03 0. -1.
         11   -1    0    0    0    0 -0.00000000000E+00 -0.00000000000E+00 -0.45593999997E+02  0.45594000000E+02  0.51100000000E-03 0.  1.
    9900012    2    1    2    0    0  0.62251612760E+01  0.10893240437E+02  0.13901908025E+02  0.72461591726E+02  0.70000027918E+02 0.  0.
         12    1    1    2    0    0 -0.62251612760E+01 -0.10893240437E+02 -0.13901908025E+02  0.18726408274E+02  0.00000000000E+00 0. -1.
         11    1    3    3    0    0  0.66255314379E+01 -0.16964168044E+02  0.84540374691E+01  0.20078630781E+02  0.51100000000E-03 0.  1.
        -11    1    3    3    0    0  0.49496153223E+01  0.67394014933E+01  0.22957820039E+02  0.24433168553E+02  0.51100000000E-03 0. -1.
        -12    1    3    3    0    0 -0.53499854842E+01  0.21118006988E+02 -0.17509949483E+02  0.27949792392E+02  0.00000000000E+00 0.  1.
</event>
<event>
 7    1  0.3050261E-013  0.7246156E+02  0.7816164E-02  0.1226708E+00
        -11   -1    0    0    0    0  0.00000000000E+00  0.00000000000E+00  0.45593999997E+02  0.45594000000E+02  0.51100000000E-03 0. -1.
         11   -1    0    0    0    0 -0.00000000000E+00 -0.00000000000E+00 -0.45593999997E+02  0.45594000000E+02  0.51100000000E-03 0.  1.
    9900012    2    1    2    0    0 -0.16966774117E+02  0.49734083726E+01 -0.61703464664E+01  0.72461564400E+02  0.69999992321E+02 0.  0.
         12    1    1    2    0    0  0.16966774117E+02 -0.49734083726E+01  0.61703464664E+01  0.18726435600E+02  0.00000000000E+00 0. -1.
         11    1    3    3    0    0 -0.86540327607E+01  0.17996874542E+02 -0.96929507823E+01  0.22197591569E+02  0.51100000000E-03 0. -1.
        -11    1    3    3    0    0 -0.16811753178E+02  0.26662055806E+01 -0.16317749669E+02  0.23579920518E+02  0.51100000000E-03 0.  1.
         12    1    3    3    0    0  0.84990118216E+01 -0.15689671750E+02  0.19840353985E+02  0.26684052313E+02  0.00000000000E+00 0. -1.
</event>
<event>
 7    1  0.3050261E-013  0.7246157E+02  0.7816164E-02  0.1226708E+00
        -11   -1    0    0    0    0  0.00000000000E+00  0.00000000000E+00  0.45593999997E+02  0.45594000000E+02  0.51100000000E-03 0. -1.
         11   -1    0    0    0    0 -0.00000000000E+00 -0.00000000000E+00 -0.45593999997E+02  0.45594000000E+02  0.51100000000E-03 0.  1.
    9900012    2    1    2    0    0 -0.11269411182E+02  0.15555354974E+01 -0.14874804731E+02  0.72461571220E+02  0.70000001206E+02 0.  0.
         12    1    1    2    0    0  0.11269411182E+02 -0.15555354974E+01  0.14874804731E+02  0.18726428780E+02  0.00000000000E+00 0. -1.
         11    1    3    3    0    0 -0.12873778754E+02 -0.21065623518E+02 -0.33926395573E+02  0.41958252948E+02  0.51100000000E-03 0. -1.
        -11    1    3    3    0    0 -0.48963618097E+00  0.14010270498E+01  0.43684636813E+01  0.46136856829E+01  0.51100000000E-03 0.  1.
        -12    1    3    3    0    0  0.20940037526E+01  0.21220131966E+02  0.14683127161E+02  0.25889632589E+02  0.00000000000E+00 0.  1.
</event>
<event>
 7    1  0.3050261E-013  0.7246157E+02  0.7816164E-02  0.1226708E+00
        -11   -1    0    0    0    0  0.00000000000E+00  0.00000000000E+00  0.45593999997E+02  0.45594000000E+02  0.51100000000E-03 0.  1.
         11   -1    0    0    0    0 -0.00000000000E+00 -0.00000000000E+00 -0.45593999997E+02  0.45594000000E+02  0.51100000000E-03 0. -1.
    9900012    2    1    2    0    0 -0.82726615126E+01  0.59457005055E+01  0.15712766002E+02  0.72461566853E+02  0.69999995517E+02 0.  0.
         12    1    1    2    0    0  0.82726615126E+01 -0.59457005055E+01 -0.15712766002E+02  0.18726433147E+02  0.00000000000E+00 0. -1.
         11    1    3    3    0    0 -0.19098998549E+01 -0.70709260645E+01  0.21857562876E+02  0.23052088148E+02  0.51100000000E-03 0. -1.
        -11    1    3    3    0    0  0.12083157767E+02 -0.10841265144E+02  0.54144645241E+01  0.17112923710E+02  0.51100000000E-03 0.  1.
         12    1    3    3    0    0 -0.18445919425E+02  0.23857891714E+02 -0.11559261398E+02  0.32296554995E+02  0.00000000000E+00 0. -1.
</event>
<event>
 7    1  0.3050261E-013  0.7246154E+02  0.7816164E-02  0.1226708E+00
        -11   -1    0    0    0    0  0.00000000000E+00  0.00000000000E+00  0.45593999997E+02  0.45594000000E+02  0.51100000000E-03 0.  1.
         11   -1    0    0    0    0 -0.00000000000E+00 -0.00000000000E+00 -0.45593999997E+02  0.45594000000E+02  0.51100000000E-03 0. -1.
    9900012    2    1    2    0    0 -0.15417963827E+02  0.48289417057E+01  0.94682593758E+01  0.72461542188E+02  0.69999963387E+02 0.  0.
         12    1    1    2    0    0  0.15417963827E+02 -0.48289417057E+01 -0.94682593758E+01  0.18726457812E+02  0.00000000000E+00 0. -1.
         11    1    3    3    0    0 -0.10465404919E+02 -0.52631494196E+00  0.11891139928E+02  0.15849319121E+02  0.51100000000E-03 0. -1.
        -11    1    3    3    0    0 -0.17665977321E+02  0.10452296392E+02  0.21071463274E+02  0.29416726864E+02  0.51100000000E-03 0.  1.
         12    1    3    3    0    0  0.12713418414E+02 -0.50970397445E+01 -0.23494343827E+02  0.27195496204E+02  0.00000000000E+00 0. -1.
</event>
<event>
 7    1  0.3050261E-013  0.7246101E+02  0.7816164E-02  0.1226710E+00
        -11   -1    0    0    0    0  0.00000000000E+00  0.00000000000E+00  0.45593999997E+02  0.45594000000E+02  0.51100000000E-03 0.  1.
         11   -1    0    0    0    0 -0.00000000000E+00 -0.00000000000E+00 -0.45593999997E+02  0.45594000000E+02  0.51100000000E-03 0. -1.
    9900012    2    1    2    0    0 -0.14741672355E+02  0.22826269578E+01  0.11321348511E+02  0.72461008203E+02  0.69999267767E+02 0.  0.
         12    1    1    2    0    0  0.14741672355E+02 -0.22826269578E+01 -0.11321348511E+02  0.18726991797E+02  0.00000000000E+00 0. -1.
         11    1    3    3    0    0  0.59831898948E+01 -0.29107291910E+00 -0.46156295552E+01  0.75622299101E+01  0.51100000000E-03 0. -1.
        -11    1    3    3    0    0  0.10145224417E+02  0.38020017979E+01  0.29299376890E+02  0.31238346347E+02  0.51100000000E-03 0.  1.
         12    1    3    3    0    0 -0.30870086667E+02 -0.12283019210E+01 -0.13362398823E+02  0.33660431945E+02  0.00000000000E+00 0. -1.
</event>
<event>
 7    1  0.3050261E-013  0.7246153E+02  0.7816164E-02  0.1226708E+00
        -11   -1    0    0    0    0  0.00000000000E+00  0.00000000000E+00  0.45593999997E+02  0.45594000000E+02  0.51100000000E-03 0.  1.
         11   -1    0    0    0    0 -0.00000000000E+00 -0.00000000000E+00 -0.45593999997E+02  0.45594000000E+02  0.51100000000E-03 0. -1.
    9900012    2    1    2    0    0  0.95237499453E+01 -0.14448447505E+02  0.71568885972E+01  0.72461534698E+02  0.69999953629E+02 0.  0.
         12    1    1    2    0    0 -0.95237499453E+01  0.14448447505E+02 -0.71568885972E+01  0.18726465302E+02  0.00000000000E+00 0. -1.
         11    1    3    3    0    0  0.13723781212E+02 -0.85598961220E+01  0.12148778316E+01  0.16220046879E+02  0.51100000000E-03 0. -1.
        -11    1    3    3    0    0 -0.10238287984E+02 -0.27873839280E+02 -0.63112932992E+01  0.30357962389E+02  0.51100000000E-03 0.  1.
         12    1    3    3    0    0  0.60382567180E+01  0.21985287898E+02  0.12253304065E+02  0.25883525429E+02  0.00000000000E+00 0. -1.
</event>
<event>
 7    1  0.3050261E-013  0.7246160E+02  0.7816164E-02  0.1226708E+00
        -11   -1    0    0    0    0  0.00000000000E+00  0.00000000000E+00  0.45593999997E+02  0.45594000000E+02  0.51100000000E-03 0. -1.
         11   -1    0    0    0    0 -0.00000000000E+00 -0.00000000000E+00 -0.45593999997E+02  0.45594000000E+02  0.51100000000E-03 0.  1.
    9900012    2    1    2    0    0 -0.18071622682E+02 -0.95342566849E-02  0.49085940033E+01  0.72461603327E+02  0.70000043031E+02 0.  0.
         12    1    1    2    0    0  0.18071622682E+02  0.95342566849E-02 -0.49085940033E+01  0.18726396673E+02  0.00000000000E+00 0. -1.
         11    1    3    3    0    0  0.88600994347E+01  0.18792763274E+01  0.18873865601E+01  0.92517711707E+01  0.51100000000E-03 0. -1.
        -11    1    3    3    0    0  0.45327091544E+01  0.21684946777E+02 -0.58344593562E+01  0.22909021918E+02  0.51100000000E-03 0.  1.
         12    1    3    3    0    0 -0.31464431272E+02 -0.23573757361E+02  0.88556667994E+01  0.40300810238E+02  0.00000000000E+00 0. -1.
</event>
<event>
 7    1  0.3050261E-013  0.7246158E+02  0.7816164E-02  0.1226708E+00
        -11   -1    0    0    0    0  0.00000000000E+00  0.00000000000E+00  0.45593999997E+02  0.45594000000E+02  0.51100000000E-03 0.  1.
         11   -1    0    0    0    0 -0.00000000000E+00 -0.00000000000E+00 -0.45593999997E+02  0.45594000000E+02  0.51100000000E-03 0. -1.
    9900012    2    1    2    0    0  0.30763598117E+01  0.21084626526E+01  0.18351273694E+02  0.72461578809E+02  0.70000011092E+02 0.  0.
         12    1    1    2    0    0 -0.30763598117E+01 -0.21084626526E+01 -0.18351273694E+02  0.18726421191E+02  0.00000000000E+00 0. -1.
         11    1    3    3    0    0  0.73389542642E+01 -0.14100117865E+01 -0.23795731219E+01  0.78428790271E+01  0.51100000000E-03 0. -1.
        -11    1    3    3    0    0  0.28412133093E+02  0.18591345998E+01  0.10318261602E+02  0.30284851182E+02  0.51100000000E-03 0.  1.
         12    1    3    3    0    0 -0.32674727545E+02  0.16593398392E+01  0.10412585213E+02  0.34333848600E+02  0.00000000000E+00 0. -1.
</event>
<event>
 7    1  0.3050261E-013  0.7246158E+02  0.7816164E-02  0.1226708E+00
        -11   -1    0    0    0    0  0.00000000000E+00  0.00000000000E+00  0.45593999997E+02  0.45594000000E+02  0.51100000000E-03 0.  1.
         11   -1    0    0    0    0 -0.00000000000E+00 -0.00000000000E+00 -0.45593999997E+02  0.45594000000E+02  0.51100000000E-03 0. -1.
    9900012    2    1    2    0    0 -0.53568569395E+01 -0.34682321012E+01  0.17605519140E+02  0.72461578709E+02  0.70000010962E+02 0.  0.
         12    1    1    2    0    0  0.53568569395E+01  0.34682321012E+01 -0.17605519140E+02  0.18726421291E+02  0.00000000000E+00 0. -1.
         11    1    3    3    0    0 -0.17531440313E+02 -0.68631490899E+01  0.11132240745E+01  0.18859837830E+02  0.51100000000E-03 0. -1.
        -11    1    3    3    0    0  0.23201772214E+02 -0.89129947778E+01  0.24795195365E+02  0.35107911120E+02  0.51100000000E-03 0.  1.
         12    1    3    3    0    0 -0.11027188841E+02  0.12307911767E+02 -0.83029002991E+01  0.18493829759E+02  0.00000000000E+00 0. -1.
</event>
<event>
 7    1  0.3050261E-013  0.7246152E+02  0.7816164E-02  0.1226708E+00
        -11   -1    0    0    0    0  0.00000000000E+00  0.00000000000E+00  0.45593999997E+02  0.45594000000E+02  0.51100000000E-03 0. -1.
         11   -1    0    0    0    0 -0.00000000000E+00 -0.00000000000E+00 -0.45593999997E+02  0.45594000000E+02  0.51100000000E-03 0.  1.
    9900012    2    1    2    0    0  0.99994250372E+01 -0.10760612603E+02 -0.11614719510E+02  0.72461521581E+02  0.69999936542E+02 0.  0.
         12    1    1    2    0    0 -0.99994250372E+01  0.10760612603E+02  0.11614719510E+02  0.18726478419E+02  0.00000000000E+00 0. -1.
         11    1    3    3    0    0 -0.98731701732E+01  0.23609735431E+01 -0.86240610852E+01  0.13320214533E+02  0.51100000000E-03 0. -1.
        -11    1    3    3    0    0  0.14747748516E+02  0.63065665132E+01 -0.24769741449E+02  0.29509472364E+02  0.51100000000E-03 0.  1.
         12    1    3    3    0    0  0.51248466947E+01 -0.19428152659E+02  0.21779083024E+02  0.29631834684E+02  0.00000000000E+00 0. -1.
</event>
<event>
 7    1  0.3050261E-013  0.7246159E+02  0.7816164E-02  0.1226708E+00
        -11   -1    0    0    0    0  0.00000000000E+00  0.00000000000E+00  0.45593999997E+02  0.45594000000E+02  0.51100000000E-03 0.  1.
         11   -1    0    0    0    0 -0.00000000000E+00 -0.00000000000E+00 -0.45593999997E+02  0.45594000000E+02  0.51100000000E-03 0. -1.
    9900012    2    1    2    0    0  0.92814679771E+01 -0.67459137773E+01  0.14799511502E+02  0.72461587071E+02  0.70000021855E+02 0.  0.
         12    1    1    2    0    0 -0.92814679771E+01  0.67459137773E+01 -0.14799511502E+02  0.18726412929E+02  0.00000000000E+00 0. -1.
         11    1    3    3    0    0  0.28669363549E+01  0.30661838683E+00  0.13827646114E+02  0.14125053494E+02  0.51100000000E-03 0. -1.
        -11    1    3    3    0    0  0.19204316355E+02  0.19203964823E+02  0.79698152003E+01  0.28303992407E+02  0.51100000000E-03 0.  1.
         12    1    3    3    0    0 -0.12789784733E+02 -0.26256496987E+02 -0.69979498124E+01  0.30032541170E+02  0.00000000000E+00 0. -1.
</event>
<event>
 7    1  0.3050261E-013  0.7246162E+02  0.7816164E-02  0.1226708E+00
        -11   -1    0    0    0    0  0.00000000000E+00  0.00000000000E+00  0.45593999997E+02  0.45594000000E+02  0.51100000000E-03 0. -1.
         11   -1    0    0    0    0 -0.00000000000E+00 -0.00000000000E+00 -0.45593999997E+02  0.45594000000E+02  0.51100000000E-03 0.  1.
    9900012    2    1    2    0    0 -0.79445723972E+01  0.13638904028E+02 -0.10076780558E+02  0.72461616471E+02  0.70000060154E+02 0.  0.
         12    1    1    2    0    0  0.79445723972E+01 -0.13638904028E+02  0.10076780558E+02  0.18726383529E+02  0.00000000000E+00 0. -1.
         11    1    3    3    0    0  0.23496189438E+02  0.13717305042E+02 -0.15775198527E+02  0.31449837274E+02  0.51100000000E-03 0. -1.
        -11    1    3    3    0    0 -0.69058698627E+01  0.97623512836E+01  0.81381572099E+01  0.14464582406E+02  0.51100000000E-03 0.  1.
        -12    1    3    3    0    0 -0.24534891973E+02 -0.98407522973E+01 -0.24397392407E+01  0.26547196791E+02  0.00000000000E+00 0.  1.
</event>
<event>
 7    1  0.3050261E-013  0.7246161E+02  0.7816164E-02  0.1226708E+00
        -11   -1    0    0    0    0  0.00000000000E+00  0.00000000000E+00  0.45593999997E+02  0.45594000000E+02  0.51100000000E-03 0. -1.
         11   -1    0    0    0    0 -0.00000000000E+00 -0.00000000000E+00 -0.45593999997E+02  0.45594000000E+02  0.51100000000E-03 0.  1.
    9900012    2    1    2    0    0 -0.87666301018E+01  0.16545262416E+02 -0.27927943915E+00  0.72461614637E+02  0.70000057765E+02 0.  0.
         12    1    1    2    0    0  0.87666301018E+01 -0.16545262416E+02  0.27927943915E+00  0.18726385363E+02  0.00000000000E+00 0. -1.
         11    1    3    3    0    0 -0.14982997950E+01 -0.45676221207E+01 -0.63919315079E+01  0.79978036220E+01  0.51100000000E-03 0. -1.
        -11    1    3    3    0    0 -0.27149552688E+02 -0.40378723133E+01 -0.91812520554E+01  0.28943013208E+02  0.51100000000E-03 0.  1.
         12    1    3    3    0    0  0.19881222381E+02  0.25150756850E+02  0.15293904124E+02  0.35520797807E+02  0.00000000000E+00 0. -1.
</event>
<event>
 7    1  0.3050261E-013  0.7246158E+02  0.7816164E-02  0.1226708E+00
        -11   -1    0    0    0    0  0.00000000000E+00  0.00000000000E+00  0.45593999997E+02  0.45594000000E+02  0.51100000000E-03 0. -1.
         11   -1    0    0    0    0 -0.00000000000E+00 -0.00000000000E+00 -0.45593999997E+02  0.45594000000E+02  0.51100000000E-03 0.  1.
    9900012    2    1    2    0    0 -0.16084594415E+02  0.56839914341E+01 -0.77237829004E+01  0.72461581271E+02  0.70000014299E+02 0.  0.
         12    1    1    2    0    0  0.16084594415E+02 -0.56839914341E+01  0.77237829004E+01  0.18726418729E+02  0.00000000000E+00 0. -1.
         11    1    3    3    0    0  0.10290295495E+02  0.37123832793E+01 -0.56249089180E+01  0.12300876862E+02  0.51100000000E-03 0. -1.
        -11    1    3    3    0    0 -0.12582685030E+02 -0.17375766849E+02 -0.20832357862E+02  0.29903651458E+02  0.51100000000E-03 0.  1.
         12    1    3    3    0    0 -0.13792204880E+02  0.19347375003E+02  0.18733483880E+02  0.30257052951E+02  0.00000000000E+00 0. -1.
</event>
<event>
 7    1  0.3050261E-013  0.7246157E+02  0.7816164E-02  0.1226708E+00
        -11   -1    0    0    0    0  0.00000000000E+00  0.00000000000E+00  0.45593999997E+02  0.45594000000E+02  0.51100000000E-03 0. -1.
         11   -1    0    0    0    0 -0.00000000000E+00 -0.00000000000E+00 -0.45593999997E+02  0.45594000000E+02  0.51100000000E-03 0.  1.
    9900012    2    1    2    0    0  0.15333278286E+02  0.75372302718E+01 -0.76654901086E+01  0.72461574773E+02  0.70000005834E+02 0.  0.
         12    1    1    2    0    0 -0.15333278286E+02 -0.75372302718E+01  0.76654901086E+01  0.18726425227E+02  0.00000000000E+00 0. -1.
         11    1    3    3    0    0 -0.34241561487E+01  0.30314905102E+00 -0.47122948682E+00  0.34696977056E+01  0.51100000000E-03 0. -1.
        -11    1    3    3    0    0  0.85723778945E+00  0.15057002935E+02 -0.33200820475E+02  0.36465636899E+02  0.51100000000E-03 0.  1.
         12    1    3    3    0    0  0.17900196645E+02 -0.78229217138E+01  0.26006559853E+02  0.32526240168E+02  0.00000000000E+00 0. -1.
</event>
<event>
 7    1  0.3050261E-013  0.7246166E+02  0.7816164E-02  0.1226708E+00
        -11   -1    0    0    0    0  0.00000000000E+00  0.00000000000E+00  0.45593999997E+02  0.45594000000E+02  0.51100000000E-03 0.  1.
         11   -1    0    0    0    0 -0.00000000000E+00 -0.00000000000E+00 -0.45593999997E+02  0.45594000000E+02  0.51100000000E-03 0. -1.
    9900012    2    1    2    0    0  0.63428051281E+01  0.36801768726E+01  0.17230814511E+02  0.72461658995E+02  0.70000115550E+02 0.  0.
         12    1    1    2    0    0 -0.63428051281E+01 -0.36801768726E+01 -0.17230814511E+02  0.18726341005E+02  0.00000000000E+00 0. -1.
         11    1    3    3    0    0 -0.41570951513E+00 -0.89192434188E+01 -0.66842574946E+01  0.11153699659E+02  0.51100000000E-03 0. -1.
        -11    1    3    3    0    0 -0.21051786683E+02 -0.69280236460E+01  0.63441887332E+01  0.23052634668E+02  0.51100000000E-03 0.  1.
         12    1    3    3    0    0  0.27810301326E+02  0.19527443937E+02  0.17570883272E+02  0.38255324669E+02  0.00000000000E+00 0. -1.
</event>
<event>
 7    1  0.3050261E-013  0.7246146E+02  0.7816164E-02  0.1226708E+00
        -11   -1    0    0    0    0  0.00000000000E+00  0.00000000000E+00  0.45593999997E+02  0.45594000000E+02  0.51100000000E-03 0. -1.
         11   -1    0    0    0    0 -0.00000000000E+00 -0.00000000000E+00 -0.45593999997E+02  0.45594000000E+02  0.51100000000E-03 0.  1.
    9900012    2    1    2    0    0 -0.30998970676E+01 -0.32390556377E+01 -0.18181931632E+02  0.72461455174E+02  0.69999850034E+02 0.  0.
         12    1    1    2    0    0  0.30998970676E+01  0.32390556377E+01  0.18181931632E+02  0.18726544826E+02  0.00000000000E+00 0. -1.
         11    1    3    3    0    0 -0.14041330458E+02  0.26451175063E+01  0.20607429371E+02  0.25076318574E+02  0.51100000000E-03 0. -1.
        -11    1    3    3    0    0  0.91370241828E+00 -0.89234527387E+01 -0.20779408727E+01  0.92076435325E+01  0.51100000000E-03 0.  1.
        -12    1    3    3    0    0  0.10027730972E+02  0.30392795948E+01 -0.36711420131E+02  0.38177493068E+02  0.00000000000E+00 0.  1.
</event>
<event>
 7    1  0.3050261E-013  0.7246156E+02  0.7816164E-02  0.1226708E+00
        -11   -1    0    0    0    0  0.00000000000E+00  0.00000000000E+00  0.45593999997E+02  0.45594000000E+02  0.51100000000E-03 0.  1.
         11   -1    0    0    0    0 -0.00000000000E+00 -0.00000000000E+00 -0.45593999997E+02  0.45594000000E+02  0.51100000000E-03 0. -1.
    9900012    2    1    2    0    0  0.23392113441E+01 -0.22436857109E+01  0.18443795537E+02  0.72461558023E+02  0.69999984015E+02 0.  0.
         12    1    1    2    0    0 -0.23392113441E+01  0.22436857109E+01 -0.18443795537E+02  0.18726441977E+02  0.00000000000E+00 0. -1.
         11    1    3    3    0    0 -0.88180214975E+01  0.12870650179E+01  0.68536663006E+01  0.11242187577E+02  0.51100000000E-03 0. -1.
        -11    1    3    3    0    0 -0.48789771781E+01 -0.18291469946E+02  0.28096365799E+02  0.33879020978E+02  0.51100000000E-03 0.  1.
         12    1    3    3    0    0  0.16036210020E+02  0.14760719217E+02 -0.16506236562E+02  0.27340349468E+02  0.00000000000E+00 0. -1.
</event>
<event>
 7    1  0.3050261E-013  0.7246132E+02  0.7816164E-02  0.1226709E+00
        -11   -1    0    0    0    0  0.00000000000E+00  0.00000000000E+00  0.45593999997E+02  0.45594000000E+02  0.51100000000E-03 0.  1.
         11   -1    0    0    0    0 -0.00000000000E+00 -0.00000000000E+00 -0.45593999997E+02  0.45594000000E+02  0.51100000000E-03 0. -1.
    9900012    2    1    2    0    0  0.15158108510E+02  0.10883902183E+02  0.15687915476E+01  0.72461316171E+02  0.69999668956E+02 0.  0.
         12    1    1    2    0    0 -0.15158108510E+02 -0.10883902183E+02 -0.15687915476E+01  0.18726683829E+02  0.00000000000E+00 0. -1.
         11    1    3    3    0    0  0.21488574458E+02  0.35505824992E+02 -0.55070036131E+01  0.41865851593E+02  0.51100000000E-03 0.  1.
        -11    1    3    3    0    0  0.54898987689E-01 -0.12439054868E+02  0.10659296963E+02  0.16381505179E+02  0.51100000000E-03 0. -1.
        -12    1    3    3    0    0 -0.63853649355E+01 -0.12182867941E+02 -0.35835018026E+01  0.14213959399E+02  0.00000000000E+00 0.  1.
</event>
<event>
 7    1  0.3050261E-013  0.7246156E+02  0.7816164E-02  0.1226708E+00
        -11   -1    0    0    0    0  0.00000000000E+00  0.00000000000E+00  0.45593999997E+02  0.45594000000E+02  0.51100000000E-03 0. -1.
         11   -1    0    0    0    0 -0.00000000000E+00 -0.00000000000E+00 -0.45593999997E+02  0.45594000000E+02  0.51100000000E-03 0.  1.
    9900012    2    1    2    0    0 -0.11756413497E+02  0.73614888789E+01 -0.12580731831E+02  0.72461559061E+02  0.69999985366E+02 0.  0.
         12    1    1    2    0    0  0.11756413497E+02 -0.73614888789E+01  0.12580731831E+02  0.18726440939E+02  0.00000000000E+00 0. -1.
         11    1    3    3    0    0 -0.22862368949E+01  0.97638855826E+01 -0.34416825143E+01  0.10602146934E+02  0.51100000000E-03 0. -1.
        -11    1    3    3    0    0 -0.94912619762E+01 -0.11873370813E+02 -0.32921027593E+02  0.36260930026E+02  0.51100000000E-03 0.  1.
         12    1    3    3    0    0  0.21085374054E-01  0.94709741096E+01  0.23781978275E+02  0.25598482101E+02  0.00000000000E+00 0. -1.
</event>
<event>
 7    1  0.3050261E-013  0.7246156E+02  0.7816164E-02  0.1226708E+00
        -11   -1    0    0    0    0  0.00000000000E+00  0.00000000000E+00  0.45593999997E+02  0.45594000000E+02  0.51100000000E-03 0.  1.
         11   -1    0    0    0    0 -0.00000000000E+00 -0.00000000000E+00 -0.45593999997E+02  0.45594000000E+02  0.51100000000E-03 0. -1.
    9900012    2    1    2    0    0 -0.39959025738E+01 -0.17165496029E+02 -0.63291297618E+01  0.72461564812E+02  0.69999992858E+02 0.  0.
         12    1    1    2    0    0  0.39959025738E+01  0.17165496029E+02  0.63291297618E+01  0.18726435188E+02  0.00000000000E+00 0. -1.
         11    1    3    3    0    0 -0.52935004661E+01 -0.12450922768E+02  0.11083020403E+02  0.17489424418E+02  0.51100000000E-03 0. -1.
        -11    1    3    3    0    0  0.10945820817E+02 -0.12756578650E+02  0.13530020360E+02  0.21577829905E+02  0.51100000000E-03 0.  1.
         12    1    3    3    0    0 -0.96482229245E+01  0.80420053886E+01 -0.30942170525E+02  0.33394310489E+02  0.00000000000E+00 0. -1.
</event>
<event>
 7    1  0.3050261E-013  0.7246155E+02  0.7816164E-02  0.1226708E+00
        -11   -1    0    0    0    0  0.00000000000E+00  0.00000000000E+00  0.45593999997E+02  0.45594000000E+02  0.51100000000E-03 0.  1.
         11   -1    0    0    0    0 -0.00000000000E+00 -0.00000000000E+00 -0.45593999997E+02  0.45594000000E+02  0.51100000000E-03 0. -1.
    9900012    2    1    2    0    0 -0.68493629198E+01  0.12158914074E+02  0.12487078634E+02  0.72461545539E+02  0.69999967752E+02 0.  0.
         12    1    1    2    0    0  0.68493629198E+01 -0.12158914074E+02 -0.12487078634E+02  0.18726454461E+02  0.00000000000E+00 0. -1.
         11    1    3    3    0    0  0.81212385964E+01 -0.32132310468E+01  0.14629076559E+02  0.17037876961E+02  0.51100000000E-03 0. -1.
        -11    1    3    3    0    0 -0.27818850982E+02  0.92109296177E+01  0.15173142992E+02  0.32999302460E+02  0.51100000000E-03 0.  1.
         12    1    3    3    0    0  0.12848249465E+02  0.61612155029E+01 -0.17315140918E+02  0.22424366118E+02  0.00000000000E+00 0. -1.
</event>
<event>
 7    1  0.3050261E-013  0.7246158E+02  0.7816164E-02  0.1226708E+00
        -11   -1    0    0    0    0  0.00000000000E+00  0.00000000000E+00  0.45593999997E+02  0.45594000000E+02  0.51100000000E-03 0.  1.
         11   -1    0    0    0    0 -0.00000000000E+00 -0.00000000000E+00 -0.45593999997E+02  0.45594000000E+02  0.51100000000E-03 0. -1.
    9900012    2    1    2    0    0  0.18229124009E+02  0.41252532818E+01  0.11662584479E+01  0.72461579212E+02  0.70000011617E+02 0.  0.
         12    1    1    2    0    0 -0.18229124009E+02 -0.41252532818E+01 -0.11662584479E+01  0.18726420788E+02  0.00000000000E+00 0. -1.
         11    1    3    3    0    0 -0.78717402645E+01 -0.42909430375E+01 -0.55788490739E+01  0.10559358134E+02  0.51100000000E-03 0. -1.
        -11    1    3    3    0    0  0.31870767980E+01 -0.22000700441E+02  0.84501214224E+01  0.23782195667E+02  0.51100000000E-03 0.  1.
         12    1    3    3    0    0  0.22913787475E+02  0.30416896760E+02 -0.17050139007E+01  0.38120025412E+02  0.00000000000E+00 0. -1.
</event>
<event>
 7    1  0.3050261E-013  0.7246159E+02  0.7816164E-02  0.1226708E+00
        -11   -1    0    0    0    0  0.00000000000E+00  0.00000000000E+00  0.45593999997E+02  0.45594000000E+02  0.51100000000E-03 0.  1.
         11   -1    0    0    0    0 -0.00000000000E+00 -0.00000000000E+00 -0.45593999997E+02  0.45594000000E+02  0.51100000000E-03 0. -1.
    9900012    2    1    2    0    0  0.13832346162E+02  0.81606002746E+01 -0.96306399430E+01  0.72461590229E+02  0.70000025969E+02 0.  0.
         12    1    1    2    0    0 -0.13832346162E+02 -0.81606002746E+01  0.96306399430E+01  0.18726409771E+02  0.00000000000E+00 0. -1.
         11    1    3    3    0    0 -0.32375557320E+01  0.53815619423E+01 -0.28789960579E+02  0.29467012174E+02  0.51100000000E-03 0.  1.
        -11    1    3    3    0    0  0.51905823421E+01 -0.10163457848E+02 -0.55391947948E+01  0.12685452287E+02  0.51100000000E-03 0. -1.
        -12    1    3    3    0    0  0.11879319552E+02  0.12942496180E+02  0.24698515431E+02  0.30309125769E+02  0.00000000000E+00 0.  1.
</event>
<event>
 7    1  0.3050261E-013  0.7246156E+02  0.7816164E-02  0.1226708E+00
        -11   -1    0    0    0    0  0.00000000000E+00  0.00000000000E+00  0.45593999997E+02  0.45594000000E+02  0.51100000000E-03 0.  1.
         11   -1    0    0    0    0 -0.00000000000E+00 -0.00000000000E+00 -0.45593999997E+02  0.45594000000E+02  0.51100000000E-03 0. -1.
    9900012    2    1    2    0    0  0.74078631643E+01  0.13912147503E+02  0.10112128907E+02  0.72461563184E+02  0.69999990737E+02 0.  0.
         12    1    1    2    0    0 -0.74078631643E+01 -0.13912147503E+02 -0.10112128907E+02  0.18726436816E+02  0.00000000000E+00 0. -1.
         11    1    3    3    0    0  0.90165634309E+01  0.22541754121E+02 -0.82958978758E+01  0.25656403037E+02  0.51100000000E-03 0. -1.
        -11    1    3    3    0    0  0.45315082435E+01 -0.24558262048E+01 -0.13120390372E+02  0.14096463850E+02  0.51100000000E-03 0.  1.
        -12    1    3    3    0    0 -0.61402085101E+01 -0.61737804136E+01  0.31528417155E+02  0.32708696297E+02  0.00000000000E+00 0.  1.
</event>
<event>
 7    1  0.3050261E-013  0.7246158E+02  0.7816164E-02  0.1226708E+00
        -11   -1    0    0    0    0  0.00000000000E+00  0.00000000000E+00  0.45593999997E+02  0.45594000000E+02  0.51100000000E-03 0. -1.
         11   -1    0    0    0    0 -0.00000000000E+00 -0.00000000000E+00 -0.45593999997E+02  0.45594000000E+02  0.51100000000E-03 0.  1.
    9900012    2    1    2    0    0  0.13008834285E+02  0.13090760142E+02 -0.31750936938E+01  0.72461575074E+02  0.70000006226E+02 0.  0.
         12    1    1    2    0    0 -0.13008834285E+02 -0.13090760142E+02  0.31750936938E+01  0.18726424926E+02  0.00000000000E+00 0. -1.
         11    1    3    3    0    0  0.21273674096E+00 -0.23072360257E+02  0.11479539883E+02  0.25771280545E+02  0.51100000000E-03 0. -1.
        -11    1    3    3    0    0  0.14550368050E+02  0.10788483511E+02 -0.18329178735E+01  0.18206157613E+02  0.51100000000E-03 0.  1.
        -12    1    3    3    0    0 -0.17542705057E+01  0.25374636888E+02 -0.12821715703E+02  0.28484136915E+02  0.00000000000E+00 0.  1.
</event>
<event>
 7    1  0.3050261E-013  0.7246159E+02  0.7816164E-02  0.1226708E+00
        -11   -1    0    0    0    0  0.00000000000E+00  0.00000000000E+00  0.45593999997E+02  0.45594000000E+02  0.51100000000E-03 0.  1.
         11   -1    0    0    0    0 -0.00000000000E+00 -0.00000000000E+00 -0.45593999997E+02  0.45594000000E+02  0.51100000000E-03 0. -1.
    9900012    2    1    2    0    0 -0.82899501670E+01 -0.15493417415E+02  0.64737389273E+01  0.72461586765E+02  0.70000021456E+02 0.  0.
         12    1    1    2    0    0  0.82899501670E+01  0.15493417415E+02 -0.64737389273E+01  0.18726413235E+02  0.00000000000E+00 0. -1.
         11    1    3    3    0    0  0.44240120775E+01 -0.54278360160E+01  0.12212396563E+02  0.14077496822E+02  0.51100000000E-03 0.  1.
        -11    1    3    3    0    0 -0.16265208818E+01 -0.32773087401E+02 -0.25180723568E+01  0.32909899979E+02  0.51100000000E-03 0. -1.
         12    1    3    3    0    0 -0.11087441363E+02  0.22707506002E+02 -0.32205852794E+01  0.25474189965E+02  0.00000000000E+00 0. -1.
</event>
<event>
 7    1  0.3050261E-013  0.7246160E+02  0.7816164E-02  0.1226708E+00
        -11   -1    0    0    0    0  0.00000000000E+00  0.00000000000E+00  0.45593999997E+02  0.45594000000E+02  0.51100000000E-03 0. -1.
         11   -1    0    0    0    0 -0.00000000000E+00 -0.00000000000E+00 -0.45593999997E+02  0.45594000000E+02  0.51100000000E-03 0.  1.
    9900012    2    1    2    0    0  0.54592087200E+00  0.18006440582E+02  0.51135315460E+01  0.72461597865E+02  0.70000035916E+02 0.  0.
         12    1    1    2    0    0 -0.54592087200E+00 -0.18006440582E+02 -0.51135315460E+01  0.18726402135E+02  0.00000000000E+00 0. -1.
         11    1    3    3    0    0 -0.63135064799E+01 -0.56596473785E+01  0.25123623332E+02  0.26515814566E+02  0.51100000000E-03 0. -1.
        -11    1    3    3    0    0 -0.66610983079E+01  0.19832899033E+01  0.62197295463E+01  0.93267735792E+01  0.51100000000E-03 0.  1.
        -12    1    3    3    0    0  0.13520525660E+02  0.21682798057E+02 -0.26229821333E+02  0.36619009720E+02  0.00000000000E+00 0.  1.
</event>
<event>
 7    1  0.3050261E-013  0.7246154E+02  0.7816164E-02  0.1226708E+00
        -11   -1    0    0    0    0  0.00000000000E+00  0.00000000000E+00  0.45593999997E+02  0.45594000000E+02  0.51100000000E-03 0.  1.
         11   -1    0    0    0    0 -0.00000000000E+00 -0.00000000000E+00 -0.45593999997E+02  0.45594000000E+02  0.51100000000E-03 0. -1.
    9900012    2    1    2    0    0  0.14234079877E+02  0.11889791164E+02 -0.25892492116E+01  0.72461538099E+02  0.69999958059E+02 0.  0.
         12    1    1    2    0    0 -0.14234079877E+02 -0.11889791164E+02  0.25892492116E+01  0.18726461901E+02  0.00000000000E+00 0. -1.
         11    1    3    3    0    0 -0.66824233204E+01 -0.10097857100E+01  0.13960220851E+02  0.15510068185E+02  0.51100000000E-03 0. -1.
        -11    1    3    3    0    0  0.14332293775E+02 -0.16715401855E+02  0.74302130911E+00  0.22031145793E+02  0.51100000000E-03 0.  1.
         12    1    3    3    0    0  0.65842094223E+01  0.29614978730E+02 -0.17292491372E+02  0.34920324121E+02  0.00000000000E+00 0. -1.
</event>
<event>
 7    1  0.3050261E-013  0.7246161E+02  0.7816164E-02  0.1226708E+00
        -11   -1    0    0    0    0  0.00000000000E+00  0.00000000000E+00  0.45593999997E+02  0.45594000000E+02  0.51100000000E-03 0. -1.
         11   -1    0    0    0    0 -0.00000000000E+00 -0.00000000000E+00 -0.45593999997E+02  0.45594000000E+02  0.51100000000E-03 0.  1.
    9900012    2    1    2    0    0 -0.12159537777E+00 -0.18377653235E+02  0.35951021546E+01  0.72461609975E+02  0.70000051692E+02 0.  0.
         12    1    1    2    0    0  0.12159537777E+00  0.18377653235E+02 -0.35951021546E+01  0.18726390025E+02  0.00000000000E+00 0. -1.
         11    1    3    3    0    0  0.50775143364E+00 -0.99344667483E+01 -0.98336194318E+00  0.99959212713E+01  0.51100000000E-03 0. -1.
        -11    1    3    3    0    0 -0.88222831261E+01  0.86802808514E+01 -0.24668094783E+02  0.27598819824E+02  0.51100000000E-03 0.  1.
         12    1    3    3    0    0  0.81929363147E+01 -0.17123467338E+02  0.29246558880E+02  0.34866868880E+02  0.00000000000E+00 0. -1.
</event>
<event>
 7    1  0.3050261E-013  0.7246157E+02  0.7816164E-02  0.1226708E+00
        -11   -1    0    0    0    0  0.00000000000E+00  0.00000000000E+00  0.45593999997E+02  0.45594000000E+02  0.51100000000E-03 0.  1.
         11   -1    0    0    0    0 -0.00000000000E+00 -0.00000000000E+00 -0.45593999997E+02  0.45594000000E+02  0.51100000000E-03 0. -1.
    9900012    2    1    2    0    0  0.10763090096E+02  0.79265666814E+01  0.13115054687E+02  0.72461568754E+02  0.69999997993E+02 0.  0.
         12    1    1    2    0    0 -0.10763090096E+02 -0.79265666814E+01 -0.13115054687E+02  0.18726431246E+02  0.00000000000E+00 0. -1.
         11    1    3    3    0    0 -0.75409371707E+01 -0.62006312820E+01 -0.43055473259E+01  0.10670112452E+02  0.51100000000E-03 0. -1.
        -11    1    3    3    0    0  0.10173088559E+02  0.16610362116E+02  0.36238882069E+02  0.41141857449E+02  0.51100000000E-03 0.  1.
         12    1    3    3    0    0  0.81309387083E+01 -0.24831641529E+01 -0.18818280056E+02  0.20649598852E+02  0.00000000000E+00 0. -1.
</event>
<event>
 7    1  0.3050261E-013  0.7246165E+02  0.7816164E-02  0.1226708E+00
        -11   -1    0    0    0    0  0.00000000000E+00  0.00000000000E+00  0.45593999997E+02  0.45594000000E+02  0.51100000000E-03 0.  1.
         11   -1    0    0    0    0 -0.00000000000E+00 -0.00000000000E+00 -0.45593999997E+02  0.45594000000E+02  0.51100000000E-03 0. -1.
    9900012    2    1    2    0    0  0.13775754433E+02  0.10649835171E+02 -0.68909955261E+01  0.72461649082E+02  0.70000102635E+02 0.  0.
         12    1    1    2    0    0 -0.13775754433E+02 -0.10649835171E+02  0.68909955261E+01  0.18726350918E+02  0.00000000000E+00 0. -1.
         11    1    3    3    0    0  0.24911234833E+01 -0.11865874990E+02  0.29877192568E+01  0.12487239571E+02  0.51100000000E-03 0. -1.
        -11    1    3    3    0    0  0.27513612074E+02  0.26623452408E+02  0.36375917867E+01  0.38458277935E+02  0.51100000000E-03 0.  1.
         12    1    3    3    0    0 -0.16228981124E+02 -0.41077422475E+01 -0.13516306570E+02  0.21516131576E+02  0.00000000000E+00 0. -1.
</event>
<event>
 7    1  0.3050261E-013  0.7246158E+02  0.7816164E-02  0.1226708E+00
        -11   -1    0    0    0    0  0.00000000000E+00  0.00000000000E+00  0.45593999997E+02  0.45594000000E+02  0.51100000000E-03 0. -1.
         11   -1    0    0    0    0 -0.00000000000E+00 -0.00000000000E+00 -0.45593999997E+02  0.45594000000E+02  0.51100000000E-03 0.  1.
    9900012    2    1    2    0    0 -0.79714680766E+01 -0.12520449774E+02 -0.11418095475E+02  0.72461578289E+02  0.70000010414E+02 0.  0.
         12    1    1    2    0    0  0.79714680766E+01  0.12520449774E+02  0.11418095475E+02  0.18726421711E+02  0.00000000000E+00 0. -1.
         11    1    3    3    0    0 -0.11681692277E+02  0.13490674580E+01 -0.25628527082E+02  0.28197576458E+02  0.51100000000E-03 0. -1.
        -11    1    3    3    0    0  0.27304056901E+01 -0.22183965140E+02 -0.53539137622E+01  0.22983642388E+02  0.51100000000E-03 0.  1.
         12    1    3    3    0    0  0.97981850977E+00  0.83144479084E+01  0.19564345369E+02  0.21280359443E+02  0.00000000000E+00 0. -1.
</event>
<event>
 7    1  0.3050261E-013  0.7246117E+02  0.7816164E-02  0.1226709E+00
        -11   -1    0    0    0    0  0.00000000000E+00  0.00000000000E+00  0.45593999997E+02  0.45594000000E+02  0.51100000000E-03 0.  1.
         11   -1    0    0    0    0 -0.00000000000E+00 -0.00000000000E+00 -0.45593999997E+02  0.45594000000E+02  0.51100000000E-03 0. -1.
    9900012    2    1    2    0    0  0.93804634472E+00  0.15073254119E+02  0.11072997465E+02  0.72461169154E+02  0.69999477438E+02 0.  0.
         12    1    1    2    0    0 -0.93804634472E+00 -0.15073254119E+02 -0.11072997465E+02  0.18726830846E+02  0.00000000000E+00 0. -1.
         11    1    3    3    0    0 -0.26905089078E+02  0.21324556487E+02  0.16697615557E+02  0.38176313248E+02  0.51100000000E-03 0. -1.
        -11    1    3    3    0    0 -0.13134857799E+01 -0.10734438039E+01 -0.43224859080E+01  0.46434266636E+01  0.51100000000E-03 0.  1.
        -12    1    3    3    0    0  0.29156621203E+02 -0.51778585644E+01 -0.13021321838E+01  0.29641429242E+02  0.00000000000E+00 0.  1.
</event>
<event>
 7    1  0.3050261E-013  0.7246159E+02  0.7816164E-02  0.1226708E+00
        -11   -1    0    0    0    0  0.00000000000E+00  0.00000000000E+00  0.45593999997E+02  0.45594000000E+02  0.51100000000E-03 0. -1.
         11   -1    0    0    0    0 -0.00000000000E+00 -0.00000000000E+00 -0.45593999997E+02  0.45594000000E+02  0.51100000000E-03 0.  1.
    9900012    2    1    2    0    0 -0.65389056413E+01 -0.16712142944E+02 -0.53502808894E+01  0.72461587787E+02  0.70000022788E+02 0.  0.
         12    1    1    2    0    0  0.65389056413E+01  0.16712142944E+02  0.53502808894E+01  0.18726412213E+02  0.00000000000E+00 0. -1.
         11    1    3    3    0    0 -0.17497597461E+02  0.12280299634E+02  0.20333288298E+02  0.29502784433E+02  0.51100000000E-03 0. -1.
        -11    1    3    3    0    0  0.50389547766E+01 -0.84691471495E+00 -0.69817676341E+01  0.86517864821E+01  0.51100000000E-03 0.  1.
        -12    1    3    3    0    0  0.59197370436E+01 -0.28145527863E+02 -0.18701801553E+02  0.34307016872E+02  0.00000000000E+00 0.  1.
</event>
<event>
 7    1  0.3050261E-013  0.7246152E+02  0.7816164E-02  0.1226708E+00
        -11   -1    0    0    0    0  0.00000000000E+00  0.00000000000E+00  0.45593999997E+02  0.45594000000E+02  0.51100000000E-03 0. -1.
         11   -1    0    0    0    0 -0.00000000000E+00 -0.00000000000E+00 -0.45593999997E+02  0.45594000000E+02  0.51100000000E-03 0.  1.
    9900012    2    1    2    0    0 -0.15781713371E+02 -0.98187238842E+01  0.22827881805E+01  0.72461523089E+02  0.69999938506E+02 0.  0.
         12    1    1    2    0    0  0.15781713371E+02  0.98187238842E+01 -0.22827881805E+01  0.18726476911E+02  0.00000000000E+00 0. -1.
         11    1    3    3    0    0  0.13142714434E+02  0.26749934551E+01 -0.20183213005E+01  0.13563191137E+02  0.51100000000E-03 0. -1.
        -11    1    3    3    0    0  0.69738853331E+01  0.12027775911E+02 -0.43579704303E+01  0.14570325203E+02  0.51100000000E-03 0.  1.
         12    1    3    3    0    0 -0.35898313138E+02 -0.24521493250E+02  0.86590799114E+01  0.44328006748E+02  0.00000000000E+00 0. -1.
</event>
<event>
 7    1  0.3050261E-013  0.7246157E+02  0.7816164E-02  0.1226708E+00
        -11   -1    0    0    0    0  0.00000000000E+00  0.00000000000E+00  0.45593999997E+02  0.45594000000E+02  0.51100000000E-03 0.  1.
         11   -1    0    0    0    0 -0.00000000000E+00 -0.00000000000E+00 -0.45593999997E+02  0.45594000000E+02  0.51100000000E-03 0. -1.
    9900012    2    1    2    0    0  0.28935806660E+01 -0.18413433203E+02 -0.18032518312E+01  0.72461573524E+02  0.70000004207E+02 0.  0.
         12    1    1    2    0    0 -0.28935806660E+01  0.18413433203E+02  0.18032518312E+01  0.18726426476E+02  0.00000000000E+00 0. -1.
         11    1    3    3    0    0  0.18942682765E+02 -0.48892015426E+01 -0.14623567850E+02  0.24424951565E+02  0.51100000000E-03 0. -1.
        -11    1    3    3    0    0  0.10654910501E+02 -0.16268715327E+02  0.51523494830E+01  0.20118273327E+02  0.51100000000E-03 0.  1.
         12    1    3    3    0    0 -0.26704012600E+02  0.27444836667E+01  0.76679665353E+01  0.27918348632E+02  0.00000000000E+00 0. -1.
</event>
<event>
 7    1  0.3050261E-013  0.7246168E+02  0.7816164E-02  0.1226708E+00
        -11   -1    0    0    0    0  0.00000000000E+00  0.00000000000E+00  0.45593999997E+02  0.45594000000E+02  0.51100000000E-03 0.  1.
         11   -1    0    0    0    0 -0.00000000000E+00 -0.00000000000E+00 -0.45593999997E+02  0.45594000000E+02  0.51100000000E-03 0. -1.
    9900012    2    1    2    0    0 -0.58562134363E+01  0.85829149803E+01  0.15579257883E+02  0.72461683182E+02  0.70000147057E+02 0.  0.
         12    1    1    2    0    0  0.58562134363E+01 -0.85829149803E+01 -0.15579257883E+02  0.18726316818E+02  0.00000000000E+00 0. -1.
         11    1    3    3    0    0 -0.18906998361E+01  0.86293639279E+01 -0.71783935895E+01  0.11382881993E+02  0.51100000000E-03 0. -1.
        -11    1    3    3    0    0 -0.22434746284E+01  0.28227257971E+02  0.12500728218E+02  0.30952858951E+02  0.51100000000E-03 0.  1.
        -12    1    3    3    0    0 -0.17220389718E+01 -0.28273706918E+02  0.10256923254E+02  0.30125942239E+02  0.00000000000E+00 0.  1.
</event>
<event>
 7    1  0.3050261E-013  0.7246154E+02  0.7816164E-02  0.1226708E+00
        -11   -1    0    0    0    0  0.00000000000E+00  0.00000000000E+00  0.45593999997E+02  0.45594000000E+02  0.51100000000E-03 0.  1.
         11   -1    0    0    0    0 -0.00000000000E+00 -0.00000000000E+00 -0.45593999997E+02  0.45594000000E+02  0.51100000000E-03 0. -1.
    9900012    2    1    2    0    0  0.96782542936E+01  0.48707135407E+01  0.15273762956E+02  0.72461540340E+02  0.69999960979E+02 0.  0.
         12    1    1    2    0    0 -0.96782542936E+01 -0.48707135407E+01 -0.15273762956E+02  0.18726459660E+02  0.00000000000E+00 0. -1.
         11    1    3    3    0    0 -0.20561498593E+02 -0.19802546482E+02 -0.92002663533E+00  0.28561556695E+02  0.51100000000E-03 0. -1.
        -11    1    3    3    0    0 -0.56014633557E+00  0.14200603421E+01 -0.80988083524E+00  0.17280748019E+01  0.51100000000E-03 0.  1.
        -12    1    3    3    0    0  0.30799899222E+02  0.23253199681E+02  0.17003670426E+02  0.42171908843E+02  0.00000000000E+00 0.  1.
</event>
<event>
 7    1  0.3050261E-013  0.7246158E+02  0.7816164E-02  0.1226708E+00
        -11   -1    0    0    0    0  0.00000000000E+00  0.00000000000E+00  0.45593999997E+02  0.45594000000E+02  0.51100000000E-03 0.  1.
         11   -1    0    0    0    0 -0.00000000000E+00 -0.00000000000E+00 -0.45593999997E+02  0.45594000000E+02  0.51100000000E-03 0. -1.
    9900012    2    1    2    0    0 -0.15585709653E+02 -0.92320908863E+01  0.47468789965E+01  0.72461582624E+02  0.70000016062E+02 0.  0.
         12    1    1    2    0    0  0.15585709653E+02  0.92320908863E+01 -0.47468789965E+01  0.18726417376E+02  0.00000000000E+00 0. -1.
         11    1    3    3    0    0 -0.15045077842E+02  0.17975808203E+02 -0.16717944498E+02  0.28791903659E+02  0.51100000000E-03 0. -1.
        -11    1    3    3    0    0 -0.35952615015E+01  0.33796489590E-01  0.15107894183E+02  0.15529826605E+02  0.51100000000E-03 0.  1.
        -12    1    3    3    0    0  0.30546296901E+01 -0.27241695579E+02  0.63569293117E+01  0.28139852360E+02  0.00000000000E+00 0.  1.
</event>
<event>
 7    1  0.3050261E-013  0.7246173E+02  0.7816164E-02  0.1226708E+00
        -11   -1    0    0    0    0  0.00000000000E+00  0.00000000000E+00  0.45593999997E+02  0.45594000000E+02  0.51100000000E-03 0.  1.
         11   -1    0    0    0    0 -0.00000000000E+00 -0.00000000000E+00 -0.45593999997E+02  0.45594000000E+02  0.51100000000E-03 0. -1.
    9900012    2    1    2    0    0 -0.17020420312E+02  0.49416205070E+01  0.60463993969E+01  0.72461727907E+02  0.70000205320E+02 0.  0.
         12    1    1    2    0    0  0.17020420312E+02 -0.49416205070E+01 -0.60463993969E+01  0.18726272093E+02  0.00000000000E+00 0. -1.
         11    1    3    3    0    0  0.45203710516E+01 -0.13296361877E+02 -0.11957880944E+02  0.18444996897E+02  0.51100000000E-03 0. -1.
        -11    1    3    3    0    0  0.51375430217E+01 -0.10463212599E+02  0.28235698545E+01  0.11993569659E+02  0.51100000000E-03 0.  1.
        -12    1    3    3    0    0 -0.26678334385E+02  0.28701194983E+02  0.15180710486E+02  0.42023161351E+02  0.00000000000E+00 0.  1.
</event>
<event>
 7    1  0.3050261E-013  0.7246157E+02  0.7816164E-02  0.1226708E+00
        -11   -1    0    0    0    0  0.00000000000E+00  0.00000000000E+00  0.45593999997E+02  0.45594000000E+02  0.51100000000E-03 0. -1.
         11   -1    0    0    0    0 -0.00000000000E+00 -0.00000000000E+00 -0.45593999997E+02  0.45594000000E+02  0.51100000000E-03 0.  1.
    9900012    2    1    2    0    0 -0.11288743198E+00 -0.11255766090E+02 -0.14965762731E+02  0.72461573006E+02  0.70000003532E+02 0.  0.
         12    1    1    2    0    0  0.11288743198E+00  0.11255766090E+02  0.14965762731E+02  0.18726426994E+02  0.00000000000E+00 0. -1.
         11    1    3    3    0    0  0.69629371657E+01  0.60377624082E+01 -0.17937065408E+02  0.20166194103E+02  0.51100000000E-03 0. -1.
        -11    1    3    3    0    0 -0.24068362721E+02 -0.19426433030E+02 -0.80109546734E+01  0.31950708590E+02  0.51100000000E-03 0.  1.
         12    1    3    3    0    0  0.16992538123E+02  0.21329045318E+01  0.10982257351E+02  0.20344670313E+02  0.00000000000E+00 0. -1.
</event>
<event>
 7    1  0.3050261E-013  0.7246160E+02  0.7816164E-02  0.1226708E+00
        -11   -1    0    0    0    0  0.00000000000E+00  0.00000000000E+00  0.45593999997E+02  0.45594000000E+02  0.51100000000E-03 0.  1.
         11   -1    0    0    0    0 -0.00000000000E+00 -0.00000000000E+00 -0.45593999997E+02  0.45594000000E+02  0.51100000000E-03 0. -1.
    9900012    2    1    2    0    0  0.10996602557E+02 -0.12166722541E+02  0.90401051610E+01  0.72461604017E+02  0.70000043930E+02 0.  0.
         12    1    1    2    0    0 -0.10996602557E+02  0.12166722541E+02 -0.90401051610E+01  0.18726395983E+02  0.00000000000E+00 0. -1.
         11    1    3    3    0    0  0.27249481633E+02 -0.18637900668E+02  0.25334528577E+01  0.33110783352E+02  0.51100000000E-03 0. -1.
        -11    1    3    3    0    0  0.87878674903E+01 -0.59842760819E+01  0.36358157909E+01  0.11236428791E+02  0.51100000000E-03 0.  1.
        -12    1    3    3    0    0 -0.25040746566E+02  0.12455454209E+02  0.28708365123E+01  0.28114391873E+02  0.00000000000E+00 0.  1.
</event>
<event>
 7    1  0.3050261E-013  0.7246151E+02  0.7816164E-02  0.1226708E+00
        -11   -1    0    0    0    0  0.00000000000E+00  0.00000000000E+00  0.45593999997E+02  0.45594000000E+02  0.51100000000E-03 0.  1.
         11   -1    0    0    0    0 -0.00000000000E+00 -0.00000000000E+00 -0.45593999997E+02  0.45594000000E+02  0.51100000000E-03 0. -1.
    9900012    2    1    2    0    0  0.10586403573E+02  0.11988319553E+02  0.97411389327E+01  0.72461507162E+02  0.69999917758E+02 0.  0.
         12    1    1    2    0    0 -0.10586403573E+02 -0.11988319553E+02 -0.97411389327E+01  0.18726492838E+02  0.00000000000E+00 0. -1.
         11    1    3    3    0    0  0.46560167388E+01  0.10291272018E+02 -0.17614378756E+02  0.20924987715E+02  0.51100000000E-03 0. -1.
        -11    1    3    3    0    0  0.14323777345E+02  0.93755541101E+01 -0.45082427290E+01  0.17702990286E+02  0.51100000000E-03 0.  1.
        -12    1    3    3    0    0 -0.83933905108E+01 -0.76785065753E+01  0.31863760418E+02  0.33833529161E+02  0.00000000000E+00 0.  1.
</event>
<event>
 7    1  0.3050261E-013  0.7246157E+02  0.7816164E-02  0.1226708E+00
        -11   -1    0    0    0    0  0.00000000000E+00  0.00000000000E+00  0.45593999997E+02  0.45594000000E+02  0.51100000000E-03 0.  1.
         11   -1    0    0    0    0 -0.00000000000E+00 -0.00000000000E+00 -0.45593999997E+02  0.45594000000E+02  0.51100000000E-03 0. -1.
    9900012    2    1    2    0    0 -0.59729668776E+00 -0.55457116302E+01  0.17876452136E+02  0.72461568899E+02  0.69999998182E+02 0.  0.
         12    1    1    2    0    0  0.59729668776E+00  0.55457116302E+01 -0.17876452136E+02  0.18726431101E+02  0.00000000000E+00 0. -1.
         11    1    3    3    0    0  0.13570821299E+02 -0.52237550940E+01  0.57222672380E+01  0.15626872708E+02  0.51100000000E-03 0. -1.
        -11    1    3    3    0    0  0.17301687027E+02  0.48927783682E+01 -0.73732936310E+01  0.19433299086E+02  0.51100000000E-03 0.  1.
         12    1    3    3    0    0 -0.31469805014E+02 -0.52147349044E+01  0.19527478529E+02  0.37401397105E+02  0.00000000000E+00 0. -1.
</event>
<event>
 7    1  0.3050261E-013  0.7246167E+02  0.7816164E-02  0.1226708E+00
        -11   -1    0    0    0    0  0.00000000000E+00  0.00000000000E+00  0.45593999997E+02  0.45594000000E+02  0.51100000000E-03 0.  1.
         11   -1    0    0    0    0 -0.00000000000E+00 -0.00000000000E+00 -0.45593999997E+02  0.45594000000E+02  0.51100000000E-03 0. -1.
    9900012    2    1    2    0    0  0.13094457823E+02 -0.71394761697E+01  0.11324244585E+02  0.72461669311E+02  0.70000128987E+02 0.  0.
         12    1    1    2    0    0 -0.13094457823E+02  0.71394761697E+01 -0.11324244585E+02  0.18726330689E+02  0.00000000000E+00 0. -1.
         11    1    3    3    0    0 -0.28464633604E+01  0.16447942012E+02  0.82448571379E+01  0.18617594355E+02  0.51100000000E-03 0. -1.
        -11    1    3    3    0    0  0.15213476671E+01 -0.85443177963E+01  0.23265831846E+02  0.24831810185E+02  0.51100000000E-03 0.  1.
         12    1    3    3    0    0  0.14419573517E+02 -0.15043100385E+02 -0.20186444399E+02  0.29012264770E+02  0.00000000000E+00 0. -1.
</event>
<event>
 7    1  0.3050261E-013  0.7246153E+02  0.7816164E-02  0.1226708E+00
        -11   -1    0    0    0    0  0.00000000000E+00  0.00000000000E+00  0.45593999997E+02  0.45594000000E+02  0.51100000000E-03 0.  1.
         11   -1    0    0    0    0 -0.00000000000E+00 -0.00000000000E+00 -0.45593999997E+02  0.45594000000E+02  0.51100000000E-03 0. -1.
    9900012    2    1    2    0    0  0.72303957040E+01 -0.38524424027E+01  0.16839259476E+02  0.72461532255E+02  0.69999950447E+02 0.  0.
         12    1    1    2    0    0 -0.72303957040E+01  0.38524424027E+01 -0.16839259476E+02  0.18726467745E+02  0.00000000000E+00 0. -1.
         11    1    3    3    0    0 -0.48801264637E+01 -0.30976776171E+02  0.17550649179E+02  0.35936076346E+02  0.51100000000E-03 0. -1.
        -11    1    3    3    0    0 -0.37117609210E+00 -0.10411378647E+01  0.50625388688E+01  0.51817988965E+01  0.51100000000E-03 0.  1.
        -12    1    3    3    0    0  0.12481698260E+02  0.28165471633E+02 -0.57739285715E+01  0.31343657013E+02  0.00000000000E+00 0.  1.
</event>
<event>
 7    1  0.3050261E-013  0.7246165E+02  0.7816164E-02  0.1226708E+00
        -11   -1    0    0    0    0  0.00000000000E+00  0.00000000000E+00  0.45593999997E+02  0.45594000000E+02  0.51100000000E-03 0. -1.
         11   -1    0    0    0    0 -0.00000000000E+00 -0.00000000000E+00 -0.45593999997E+02  0.45594000000E+02  0.51100000000E-03 0.  1.
    9900012    2    1    2    0    0  0.90770248932E+01  0.14493341285E+02 -0.76306409522E+01  0.72461654819E+02  0.70000110109E+02 0.  0.
         12    1    1    2    0    0 -0.90770248932E+01 -0.14493341285E+02  0.76306409522E+01  0.18726345181E+02  0.00000000000E+00 0. -1.
         11    1    3    3    0    0 -0.21667526254E+02 -0.45618983807E+01 -0.10646447506E+02  0.24569075188E+02  0.51100000000E-03 0. -1.
        -11    1    3    3    0    0 -0.52471069380E+01  0.48449629947E+01 -0.45451060720E+01  0.84654466572E+01  0.51100000000E-03 0.  1.
        -12    1    3    3    0    0  0.35991658086E+02  0.14210276671E+02  0.75609126257E+01  0.39427132974E+02  0.00000000000E+00 0.  1.
</event>
<event>
 7    1  0.3050261E-013  0.7246162E+02  0.7816164E-02  0.1226708E+00
        -11   -1    0    0    0    0  0.00000000000E+00  0.00000000000E+00  0.45593999997E+02  0.45594000000E+02  0.51100000000E-03 0.  1.
         11   -1    0    0    0    0 -0.00000000000E+00 -0.00000000000E+00 -0.45593999997E+02  0.45594000000E+02  0.51100000000E-03 0. -1.
    9900012    2    1    2    0    0  0.44749433195E+01  0.17656413850E+02  0.43477731478E+01  0.72461622905E+02  0.70000068536E+02 0.  0.
         12    1    1    2    0    0 -0.44749433195E+01 -0.17656413850E+02 -0.43477731478E+01  0.18726377095E+02  0.00000000000E+00 0. -1.
         11    1    3    3    0    0  0.44124176214E+01  0.27363844857E+02  0.26580207943E+00  0.27718587367E+02  0.51100000000E-03 0. -1.
        -11    1    3    3    0    0  0.14483708738E+02  0.10888824060E+02  0.70121936158E+01  0.19429749555E+02  0.51100000000E-03 0.  1.
         12    1    3    3    0    0 -0.14421183040E+02 -0.20596255068E+02 -0.29302225474E+01  0.25313285983E+02  0.00000000000E+00 0. -1.
</event>
<event>
 7    1  0.3050261E-013  0.7246157E+02  0.7816164E-02  0.1226708E+00
        -11   -1    0    0    0    0  0.00000000000E+00  0.00000000000E+00  0.45593999997E+02  0.45594000000E+02  0.51100000000E-03 0. -1.
         11   -1    0    0    0    0 -0.00000000000E+00 -0.00000000000E+00 -0.45593999997E+02  0.45594000000E+02  0.51100000000E-03 0.  1.
    9900012    2    1    2    0    0 -0.39116470150E+01  0.12630345776E+01 -0.18269731116E+02  0.72461566443E+02  0.69999994983E+02 0.  0.
         12    1    1    2    0    0  0.39116470150E+01 -0.12630345776E+01  0.18269731116E+02  0.18726433557E+02  0.00000000000E+00 0. -1.
         11    1    3    3    0    0 -0.88314992118E+01 -0.16019818003E+02 -0.33223220409E+01  0.18592142727E+02  0.51100000000E-03 0. -1.
        -11    1    3    3    0    0  0.12326993130E+02 -0.14418204860E+02 -0.30742006750E+01  0.19216922258E+02  0.51100000000E-03 0.  1.
         12    1    3    3    0    0 -0.74071409331E+01  0.31701057440E+02 -0.11873208400E+02  0.34652501459E+02  0.00000000000E+00 0. -1.
</event>
<event>
 7    1  0.3050261E-013  0.7246155E+02  0.7816164E-02  0.1226708E+00
        -11   -1    0    0    0    0  0.00000000000E+00  0.00000000000E+00  0.45593999997E+02  0.45594000000E+02  0.51100000000E-03 0.  1.
         11   -1    0    0    0    0 -0.00000000000E+00 -0.00000000000E+00 -0.45593999997E+02  0.45594000000E+02  0.51100000000E-03 0. -1.
    9900012    2    1    2    0    0 -0.17340833428E+02 -0.54804581748E+01  0.44654265151E+01  0.72461549195E+02  0.69999972514E+02 0.  0.
         12    1    1    2    0    0  0.17340833428E+02  0.54804581748E+01 -0.44654265151E+01  0.18726450805E+02  0.00000000000E+00 0. -1.
         11    1    3    3    0    0 -0.23976945568E+02 -0.20063617541E+02  0.58210717937E+01  0.31801376459E+02  0.51100000000E-03 0. -1.
        -11    1    3    3    0    0 -0.13247577009E+02 -0.34654291262E+01 -0.17431067401E+01  0.13803837039E+02  0.51100000000E-03 0.  1.
        -12    1    3    3    0    0  0.19883689148E+02  0.18048588492E+02  0.38746146144E+00  0.26856335697E+02  0.00000000000E+00 0.  1.
</event>
<event>
 7    1  0.3050261E-013  0.7246152E+02  0.7816164E-02  0.1226708E+00
        -11   -1    0    0    0    0  0.00000000000E+00  0.00000000000E+00  0.45593999997E+02  0.45594000000E+02  0.51100000000E-03 0. -1.
         11   -1    0    0    0    0 -0.00000000000E+00 -0.00000000000E+00 -0.45593999997E+02  0.45594000000E+02  0.51100000000E-03 0.  1.
    9900012    2    1    2    0    0 -0.63920143045E+01  0.16684651967E+02 -0.56076337836E+01  0.72461521025E+02  0.69999935818E+02 0.  0.
         12    1    1    2    0    0  0.63920143045E+01 -0.16684651967E+02  0.56076337836E+01  0.18726478975E+02  0.00000000000E+00 0. -1.
         11    1    3    3    0    0  0.46805612529E+01  0.25549040720E+01  0.39066377369E+01  0.66103711793E+01  0.51100000000E-03 0. -1.
        -11    1    3    3    0    0 -0.35889905685E+02  0.17530433301E+02 -0.81452468897E+01  0.40764524638E+02  0.51100000000E-03 0.  1.
         12    1    3    3    0    0  0.24817330128E+02 -0.34006854062E+01 -0.13690246308E+01  0.25086625208E+02  0.00000000000E+00 0. -1.
</event>
<event>
 7    1  0.3050261E-013  0.7246152E+02  0.7816164E-02  0.1226708E+00
        -11   -1    0    0    0    0  0.00000000000E+00  0.00000000000E+00  0.45593999997E+02  0.45594000000E+02  0.51100000000E-03 0. -1.
         11   -1    0    0    0    0 -0.00000000000E+00 -0.00000000000E+00 -0.45593999997E+02  0.45594000000E+02  0.51100000000E-03 0.  1.
    9900012    2    1    2    0    0 -0.12627460522E+02  0.13687586520E+02 -0.19692985199E+01  0.72461523540E+02  0.69999939093E+02 0.  0.
         12    1    1    2    0    0  0.12627460522E+02 -0.13687586520E+02  0.19692985199E+01  0.18726476460E+02  0.00000000000E+00 0. -1.
         11    1    3    3    0    0 -0.34076465739E+01 -0.11068530578E+02 -0.89747292152E+00  0.11615932258E+02  0.51100000000E-03 0. -1.
        -11    1    3    3    0    0 -0.14810274178E+02 -0.58852802192E+01 -0.19085577944E+02  0.24864433036E+02  0.51100000000E-03 0.  1.
         12    1    3    3    0    0  0.55904602299E+01  0.30641397317E+02  0.18013752345E+02  0.35981158245E+02  0.00000000000E+00 0. -1.
</event>
<event>
 7    1  0.3050261E-013  0.7246175E+02  0.7816164E-02  0.1226708E+00
        -11   -1    0    0    0    0  0.00000000000E+00  0.00000000000E+00  0.45593999997E+02  0.45594000000E+02  0.51100000000E-03 0. -1.
         11   -1    0    0    0    0 -0.00000000000E+00 -0.00000000000E+00 -0.45593999997E+02  0.45594000000E+02  0.51100000000E-03 0.  1.
    9900012    2    1    2    0    0 -0.70983159772E+01  0.12463518202E+02 -0.12039403437E+02  0.72461745415E+02  0.70000228126E+02 0.  0.
         12    1    1    2    0    0  0.70983159772E+01 -0.12463518202E+02  0.12039403437E+02  0.18726254585E+02  0.00000000000E+00 0. -1.
         11    1    3    3    0    0  0.12844603850E+02  0.17909259462E+02 -0.92052717643E+01  0.23884355781E+02  0.51100000000E-03 0. -1.
        -11    1    3    3    0    0  0.23682686146E+01  0.79581437792E+00 -0.19739810629E+02  0.19897289783E+02  0.51100000000E-03 0.  1.
         12    1    3    3    0    0 -0.22311188442E+02 -0.62415556377E+01  0.16905678957E+02  0.28680099851E+02  0.00000000000E+00 0. -1.
</event>
<event>
 7    1  0.3050261E-013  0.7246157E+02  0.7816164E-02  0.1226708E+00
        -11   -1    0    0    0    0  0.00000000000E+00  0.00000000000E+00  0.45593999997E+02  0.45594000000E+02  0.51100000000E-03 0.  1.
         11   -1    0    0    0    0 -0.00000000000E+00 -0.00000000000E+00 -0.45593999997E+02  0.45594000000E+02  0.51100000000E-03 0. -1.
    9900012    2    1    2    0    0  0.33114436835E+01 -0.15789808135E+02  0.95076609944E+01  0.72461566335E+02  0.69999994843E+02 0.  0.
         12    1    1    2    0    0 -0.33114436835E+01  0.15789808135E+02 -0.95076609944E+01  0.18726433665E+02  0.00000000000E+00 0. -1.
         11    1    3    3    0    0 -0.14876416424E+02 -0.35853527100E+01 -0.72803016898E+01  0.16945952691E+02  0.51100000000E-03 0. -1.
        -11    1    3    3    0    0 -0.59632703469E+01 -0.67069697509E+01 -0.13610962683E+02  0.16303445706E+02  0.51100000000E-03 0.  1.
        -12    1    3    3    0    0  0.24151130454E+02 -0.54974856742E+01  0.30398925367E+02  0.39212167938E+02  0.00000000000E+00 0.  1.
</event>
<event>
 7    1  0.3050261E-013  0.7246159E+02  0.7816164E-02  0.1226708E+00
        -11   -1    0    0    0    0  0.00000000000E+00  0.00000000000E+00  0.45593999997E+02  0.45594000000E+02  0.51100000000E-03 0.  1.
         11   -1    0    0    0    0 -0.00000000000E+00 -0.00000000000E+00 -0.45593999997E+02  0.45594000000E+02  0.51100000000E-03 0. -1.
    9900012    2    1    2    0    0  0.96643409893E+01  0.10858283595E+02  0.11805788782E+02  0.72461589288E+02  0.70000024743E+02 0.  0.
         12    1    1    2    0    0 -0.96643409893E+01 -0.10858283595E+02 -0.11805788782E+02  0.18726410712E+02  0.00000000000E+00 0. -1.
         11    1    3    3    0    0  0.19162961195E+01 -0.27214762766E+01 -0.81370331146E+01  0.87914692805E+01  0.51100000000E-03 0. -1.
        -11    1    3    3    0    0  0.32856867163E+02  0.87200594965E+01  0.59288498236E+01  0.34507454527E+02  0.51100000000E-03 0.  1.
         12    1    3    3    0    0 -0.25108822294E+02  0.48597003746E+01  0.14013972073E+02  0.29162665481E+02  0.00000000000E+00 0. -1.
</event>
<event>
 7    1  0.3050261E-013  0.7246203E+02  0.7816164E-02  0.1226707E+00
        -11   -1    0    0    0    0  0.00000000000E+00  0.00000000000E+00  0.45593999997E+02  0.45594000000E+02  0.51100000000E-03 0. -1.
         11   -1    0    0    0    0 -0.00000000000E+00 -0.00000000000E+00 -0.45593999997E+02  0.45594000000E+02  0.51100000000E-03 0.  1.
    9900012    2    1    2    0    0 -0.14440662065E+02 -0.86787518135E+01 -0.81736435245E+01  0.72462031336E+02  0.70000600590E+02 0.  0.
         12    1    1    2    0    0  0.14440662065E+02  0.86787518135E+01  0.81736435245E+01  0.18725968664E+02  0.00000000000E+00 0. -1.
         11    1    3    3    0    0 -0.93953762405E+01 -0.51700176704E+01 -0.13694955151E+01  0.10810998827E+02  0.51100000000E-03 0. -1.
        -11    1    3    3    0    0  0.31627996064E+01  0.15196589111E+02 -0.28125016709E+02  0.32124074884E+02  0.51100000000E-03 0.  1.
         12    1    3    3    0    0 -0.82080854311E+01 -0.18705323254E+02  0.21320868700E+02  0.29526957626E+02  0.00000000000E+00 0. -1.
</event>
<event>
 7    1  0.3050261E-013  0.7246159E+02  0.7816164E-02  0.1226708E+00
        -11   -1    0    0    0    0  0.00000000000E+00  0.00000000000E+00  0.45593999997E+02  0.45594000000E+02  0.51100000000E-03 0.  1.
         11   -1    0    0    0    0 -0.00000000000E+00 -0.00000000000E+00 -0.45593999997E+02  0.45594000000E+02  0.51100000000E-03 0. -1.
    9900012    2    1    2    0    0  0.71006543684E+01 -0.19711243028E+01  0.17215513234E+02  0.72461587653E+02  0.70000022613E+02 0.  0.
         12    1    1    2    0    0 -0.71006543684E+01  0.19711243028E+01 -0.17215513234E+02  0.18726412347E+02  0.00000000000E+00 0. -1.
         11    1    3    3    0    0 -0.12924890194E+02 -0.75181164317E+01 -0.71763197146E+01  0.16585367831E+02  0.51100000000E-03 0. -1.
        -11    1    3    3    0    0 -0.80867205603E+01  0.18451556284E+01  0.26182348693E+02  0.27464796232E+02  0.51100000000E-03 0.  1.
        -12    1    3    3    0    0  0.28112265122E+02  0.37018365005E+01 -0.17905157443E+01  0.28411423590E+02  0.00000000000E+00 0.  1.
</event>
<event>
 7    1  0.3050261E-013  0.7246151E+02  0.7816164E-02  0.1226708E+00
        -11   -1    0    0    0    0  0.00000000000E+00  0.00000000000E+00  0.45593999997E+02  0.45594000000E+02  0.51100000000E-03 0. -1.
         11   -1    0    0    0    0 -0.00000000000E+00 -0.00000000000E+00 -0.45593999997E+02  0.45594000000E+02  0.51100000000E-03 0.  1.
    9900012    2    1    2    0    0  0.15825114714E+02  0.90903777589E+01 -0.41966980857E+01  0.72461508115E+02  0.69999919000E+02 0.  0.
         12    1    1    2    0    0 -0.15825114714E+02 -0.90903777589E+01  0.41966980857E+01  0.18726491885E+02  0.00000000000E+00 0. -1.
         11    1    3    3    0    0 -0.32727430070E+01 -0.95422242779E+01 -0.58760241169E+01  0.11674440057E+02  0.51100000000E-03 0. -1.
        -11    1    3    3    0    0  0.35915592801E+01 -0.19328823808E+02  0.21599449500E+01  0.19777969823E+02  0.51100000000E-03 0.  1.
        -12    1    3    3    0    0  0.15506298440E+02  0.37961425845E+02 -0.48061891877E+00  0.41009098235E+02  0.00000000000E+00 0.  1.
</event>
<event>
 7    1  0.3050261E-013  0.7246155E+02  0.7816164E-02  0.1226708E+00
        -11   -1    0    0    0    0  0.00000000000E+00  0.00000000000E+00  0.45593999997E+02  0.45594000000E+02  0.51100000000E-03 0.  1.
         11   -1    0    0    0    0 -0.00000000000E+00 -0.00000000000E+00 -0.45593999997E+02  0.45594000000E+02  0.51100000000E-03 0. -1.
    9900012    2    1    2    0    0  0.13856911650E+02  0.66959818112E+01  0.10669110842E+02  0.72461545476E+02  0.69999967669E+02 0.  0.
         12    1    1    2    0    0 -0.13856911650E+02 -0.66959818112E+01 -0.10669110842E+02  0.18726454524E+02  0.00000000000E+00 0. -1.
         11    1    3    3    0    0 -0.19179951816E+02 -0.86640505506E+01 -0.13039925129E+01  0.21086410798E+02  0.51100000000E-03 0. -1.
        -11    1    3    3    0    0 -0.70428326976E+01  0.38553592889E+01  0.38026885321E+01  0.88840153076E+01  0.51100000000E-03 0.  1.
        -12    1    3    3    0    0  0.40079696163E+02  0.11504673073E+02  0.81704148227E+01  0.42491119371E+02  0.00000000000E+00 0.  1.
</event>
<event>
 7    1  0.3050261E-013  0.7246159E+02  0.7816164E-02  0.1226708E+00
        -11   -1    0    0    0    0  0.00000000000E+00  0.00000000000E+00  0.45593999997E+02  0.45594000000E+02  0.51100000000E-03 0.  1.
         11   -1    0    0    0    0 -0.00000000000E+00 -0.00000000000E+00 -0.45593999997E+02  0.45594000000E+02  0.51100000000E-03 0. -1.
    9900012    2    1    2    0    0 -0.11935783558E+02  0.97984160917E+01  0.10592758190E+02  0.72461590491E+02  0.70000026309E+02 0.  0.
         12    1    1    2    0    0  0.11935783558E+02 -0.97984160917E+01 -0.10592758190E+02  0.18726409509E+02  0.00000000000E+00 0. -1.
         11    1    3    3    0    0 -0.24681751625E+01 -0.71970768767E+01 -0.81547957100E+00  0.76521115644E+01  0.51100000000E-03 0. -1.
        -11    1    3    3    0    0 -0.26460697838E+02 -0.24778502900E+01  0.24225262496E+02  0.35960695424E+02  0.51100000000E-03 0.  1.
         12    1    3    3    0    0  0.16993089443E+02  0.19473343258E+02 -0.12817024735E+02  0.28848783502E+02  0.00000000000E+00 0. -1.
</event>
<event>
 7    1  0.3050261E-013  0.7246157E+02  0.7816164E-02  0.1226708E+00
        -11   -1    0    0    0    0  0.00000000000E+00  0.00000000000E+00  0.45593999997E+02  0.45594000000E+02  0.51100000000E-03 0.  1.
         11   -1    0    0    0    0 -0.00000000000E+00 -0.00000000000E+00 -0.45593999997E+02  0.45594000000E+02  0.51100000000E-03 0. -1.
    9900012    2    1    2    0    0 -0.32190810282E+01 -0.11274042394E+02  0.14601801738E+02  0.72461571388E+02  0.70000001425E+02 0.  0.
         12    1    1    2    0    0  0.32190810282E+01  0.11274042394E+02 -0.14601801738E+02  0.18726428612E+02  0.00000000000E+00 0. -1.
         11    1    3    3    0    0  0.19942571030E+02 -0.17685867232E+02  0.10286147094E+02  0.28570979356E+02  0.51100000000E-03 0. -1.
        -11    1    3    3    0    0 -0.64716630727E+01  0.11973157424E+02  0.17309850495E+02  0.22019760354E+02  0.51100000000E-03 0.  1.
        -12    1    3    3    0    0 -0.16689988985E+02 -0.55613325859E+01 -0.12994195852E+02  0.21870831678E+02  0.00000000000E+00 0.  1.
</event>
<event>
 7    1  0.3050261E-013  0.7246157E+02  0.7816164E-02  0.1226708E+00
        -11   -1    0    0    0    0  0.00000000000E+00  0.00000000000E+00  0.45593999997E+02  0.45594000000E+02  0.51100000000E-03 0.  1.
         11   -1    0    0    0    0 -0.00000000000E+00 -0.00000000000E+00 -0.45593999997E+02  0.45594000000E+02  0.51100000000E-03 0. -1.
    9900012    2    1    2    0    0  0.16349477613E+02 -0.84700151652E+01 -0.34106379308E+01  0.72461574121E+02  0.70000004984E+02 0.  0.
         12    1    1    2    0    0 -0.16349477613E+02  0.84700151652E+01  0.34106379308E+01  0.18726425879E+02  0.00000000000E+00 0. -1.
         11    1    3    3    0    0  0.15420302746E+02 -0.33113518678E+02 -0.27419642220E-02  0.36527946339E+02  0.51100000000E-03 0. -1.
        -11    1    3    3    0    0 -0.59234725819E+01  0.42944009886E+01 -0.10955364807E+02  0.13173815908E+02  0.51100000000E-03 0.  1.
        -12    1    3    3    0    0  0.68526474492E+01  0.20349102524E+02  0.75474688400E+01  0.22759811873E+02  0.00000000000E+00 0.  1.
</event>
<event>
 7    1  0.3050261E-013  0.7246149E+02  0.7816164E-02  0.1226708E+00
        -11   -1    0    0    0    0  0.00000000000E+00  0.00000000000E+00  0.45593999997E+02  0.45594000000E+02  0.51100000000E-03 0.  1.
         11   -1    0    0    0    0 -0.00000000000E+00 -0.00000000000E+00 -0.45593999997E+02  0.45594000000E+02  0.51100000000E-03 0. -1.
    9900012    2    1    2    0    0  0.15376129995E+02 -0.65732045780E+01  0.84290991199E+01  0.72461491943E+02  0.69999897932E+02 0.  0.
         12    1    1    2    0    0 -0.15376129995E+02  0.65732045780E+01 -0.84290991199E+01  0.18726508057E+02  0.00000000000E+00 0. -1.
         11    1    3    3    0    0 -0.12118875064E+02 -0.75203573991E+01 -0.41954590066E+01  0.14866902326E+02  0.51100000000E-03 0. -1.
        -11    1    3    3    0    0 -0.12144477104E+02 -0.40105368200E+01  0.12154043757E+02  0.17643511828E+02  0.51100000000E-03 0.  1.
         12    1    3    3    0    0  0.39639482163E+02  0.49576896412E+01  0.47051436975E+00  0.39951077789E+02  0.00000000000E+00 0. -1.
</event>
<event>
 7    1  0.3050261E-013  0.7246158E+02  0.7816164E-02  0.1226708E+00
        -11   -1    0    0    0    0  0.00000000000E+00  0.00000000000E+00  0.45593999997E+02  0.45594000000E+02  0.51100000000E-03 0.  1.
         11   -1    0    0    0    0 -0.00000000000E+00 -0.00000000000E+00 -0.45593999997E+02  0.45594000000E+02  0.51100000000E-03 0. -1.
    9900012    2    1    2    0    0  0.13057084086E+02 -0.12087440062E+02  0.58382520725E+01  0.72461579110E+02  0.70000011485E+02 0.  0.
         12    1    1    2    0    0 -0.13057084086E+02  0.12087440062E+02 -0.58382520725E+01  0.18726420890E+02  0.00000000000E+00 0. -1.
         11    1    3    3    0    0 -0.27522604364E+01  0.55942322686E+01 -0.19739784549E+02  0.20700953275E+02  0.51100000000E-03 0. -1.
        -11    1    3    3    0    0 -0.66528249338E+01 -0.49156347646E+01 -0.65369320879E+01  0.10543008400E+02  0.51100000000E-03 0.  1.
        -12    1    3    3    0    0  0.22462169456E+02 -0.12766037566E+02  0.32114968710E+02  0.41217617435E+02  0.00000000000E+00 0.  1.
</event>
<event>
 7    1  0.3050261E-013  0.7246156E+02  0.7816164E-02  0.1226708E+00
        -11   -1    0    0    0    0  0.00000000000E+00  0.00000000000E+00  0.45593999997E+02  0.45594000000E+02  0.51100000000E-03 0.  1.
         11   -1    0    0    0    0 -0.00000000000E+00 -0.00000000000E+00 -0.45593999997E+02  0.45594000000E+02  0.51100000000E-03 0. -1.
    9900012    2    1    2    0    0  0.11834109078E+02 -0.77341570951E+01  0.12280720210E+02  0.72461563806E+02  0.69999991548E+02 0.  0.
         12    1    1    2    0    0 -0.11834109078E+02  0.77341570951E+01 -0.12280720210E+02  0.18726436194E+02  0.00000000000E+00 0. -1.
         11    1    3    3    0    0  0.14176173596E+02 -0.46223614042E+00  0.10631141656E+02  0.17725651843E+02  0.51100000000E-03 0. -1.
        -11    1    3    3    0    0  0.38921447943E+01 -0.21196083983E+02  0.21003043206E+02  0.30092367661E+02  0.51100000000E-03 0.  1.
         12    1    3    3    0    0 -0.62342093127E+01  0.13924163028E+02 -0.19353464651E+02  0.24643544303E+02  0.00000000000E+00 0. -1.
</event>
<event>
 7    1  0.3050261E-013  0.7246154E+02  0.7816164E-02  0.1226708E+00
        -11   -1    0    0    0    0  0.00000000000E+00  0.00000000000E+00  0.45593999997E+02  0.45594000000E+02  0.51100000000E-03 0.  1.
         11   -1    0    0    0    0 -0.00000000000E+00 -0.00000000000E+00 -0.45593999997E+02  0.45594000000E+02  0.51100000000E-03 0. -1.
    9900012    2    1    2    0    0 -0.17497713808E+02 -0.45947804128E+01 -0.48371737767E+01  0.72461541560E+02  0.69999962568E+02 0.  0.
         12    1    1    2    0    0  0.17497713808E+02  0.45947804128E+01  0.48371737767E+01  0.18726458440E+02  0.00000000000E+00 0. -1.
         11    1    3    3    0    0 -0.18324799521E+02  0.20218170601E+02 -0.19867667243E+02  0.33753472442E+02  0.51100000000E-03 0. -1.
        -11    1    3    3    0    0  0.48823374796E+01  0.14934844349E+01 -0.35750304504E+01  0.62328611411E+01  0.51100000000E-03 0.  1.
        -12    1    3    3    0    0 -0.40552517673E+01 -0.26306435449E+02  0.18605523917E+02  0.32475207977E+02  0.00000000000E+00 0.  1.
</event>
<event>
 7    1  0.3050261E-013  0.7246165E+02  0.7816164E-02  0.1226708E+00
        -11   -1    0    0    0    0  0.00000000000E+00  0.00000000000E+00  0.45593999997E+02  0.45594000000E+02  0.51100000000E-03 0.  1.
         11   -1    0    0    0    0 -0.00000000000E+00 -0.00000000000E+00 -0.45593999997E+02  0.45594000000E+02  0.51100000000E-03 0. -1.
    9900012    2    1    2    0    0 -0.17400022816E+01  0.12694243676E+02  0.13656675569E+02  0.72461649100E+02  0.70000102659E+02 0.  0.
         12    1    1    2    0    0  0.17400022816E+01 -0.12694243676E+02 -0.13656675569E+02  0.18726350900E+02  0.00000000000E+00 0. -1.
         11    1    3    3    0    0 -0.31775924918E+02 -0.26652481328E+00  0.12754817206E+02  0.34241287974E+02  0.51100000000E-03 0. -1.
        -11    1    3    3    0    0  0.96039933679E+01 -0.51532926775E+01  0.54012234277E+00  0.10912600352E+02  0.51100000000E-03 0.  1.
        -12    1    3    3    0    0  0.20431929268E+02  0.18114061166E+02  0.36173602020E+00  0.27307760774E+02  0.00000000000E+00 0.  1.
</event>
<event>
 7    1  0.3050261E-013  0.7246161E+02  0.7816164E-02  0.1226708E+00
        -11   -1    0    0    0    0  0.00000000000E+00  0.00000000000E+00  0.45593999997E+02  0.45594000000E+02  0.51100000000E-03 0.  1.
         11   -1    0    0    0    0 -0.00000000000E+00 -0.00000000000E+00 -0.45593999997E+02  0.45594000000E+02  0.51100000000E-03 0. -1.
    9900012    2    1    2    0    0 -0.32240440890E+01  0.85123016539E+01  0.16365326453E+02  0.72461610875E+02  0.70000052864E+02 0.  0.
         12    1    1    2    0    0  0.32240440890E+01 -0.85123016539E+01 -0.16365326453E+02  0.18726389125E+02  0.00000000000E+00 0. -1.
         11    1    3    3    0    0 -0.16979840946E+02  0.11243988470E+02 -0.47500253740E-01  0.20365277602E+02  0.51100000000E-03 0. -1.
        -11    1    3    3    0    0 -0.12923867869E+02  0.12602107686E+02  0.10095582454E+02  0.20682366020E+02  0.51100000000E-03 0.  1.
        -12    1    3    3    0    0  0.26679664725E+02 -0.15333794502E+02  0.63172442526E+01  0.31413967254E+02  0.00000000000E+00 0.  1.
</event>
<event>
 7    1  0.3050261E-013  0.7246161E+02  0.7816164E-02  0.1226708E+00
        -11   -1    0    0    0    0  0.00000000000E+00  0.00000000000E+00  0.45593999997E+02  0.45594000000E+02  0.51100000000E-03 0.  1.
         11   -1    0    0    0    0 -0.00000000000E+00 -0.00000000000E+00 -0.45593999997E+02  0.45594000000E+02  0.51100000000E-03 0. -1.
    9900012    2    1    2    0    0 -0.16587949513E+02 -0.68522256420E+01 -0.53445874510E+01  0.72461610056E+02  0.70000051797E+02 0.  0.
         12    1    1    2    0    0  0.16587949513E+02  0.68522256420E+01  0.53445874510E+01  0.18726389944E+02  0.00000000000E+00 0. -1.
         11    1    3    3    0    0  0.12072499570E+01  0.11326678805E+02 -0.16984180563E+02  0.20450268822E+02  0.51100000000E-03 0. -1.
        -11    1    3    3    0    0  0.13944214633E+02 -0.11442100217E+02  0.19165968442E+01  0.18139352878E+02  0.51100000000E-03 0.  1.
        -12    1    3    3    0    0 -0.31739414103E+02 -0.67368042294E+01  0.97229962681E+01  0.33871988357E+02  0.00000000000E+00 0.  1.
</event>
<event>
 7    1  0.3050261E-013  0.7246159E+02  0.7816164E-02  0.1226708E+00
        -11   -1    0    0    0    0  0.00000000000E+00  0.00000000000E+00  0.45593999997E+02  0.45594000000E+02  0.51100000000E-03 0.  1.
         11   -1    0    0    0    0 -0.00000000000E+00 -0.00000000000E+00 -0.45593999997E+02  0.45594000000E+02  0.51100000000E-03 0. -1.
    9900012    2    1    2    0    0 -0.97415950278E+01 -0.11158984179E+02  0.11456737448E+02  0.72461589918E+02  0.70000025564E+02 0.  0.
         12    1    1    2    0    0  0.97415950278E+01  0.11158984179E+02 -0.11456737448E+02  0.18726410082E+02  0.00000000000E+00 0. -1.
         11    1    3    3    0    0  0.10963714319E+01  0.15570949780E+02 -0.10424963701E+02  0.18770625343E+02  0.51100000000E-03 0. -1.
        -11    1    3    3    0    0  0.70649631938E+01 -0.15787841190E+02 -0.64289518080E+01  0.18452670700E+02  0.51100000000E-03 0.  1.
        -12    1    3    3    0    0 -0.17902929653E+02 -0.10942092769E+02  0.28310652957E+02  0.35238293875E+02  0.00000000000E+00 0.  1.
</event>
<event>
 7    1  0.3050261E-013  0.7246155E+02  0.7816164E-02  0.1226708E+00
        -11   -1    0    0    0    0  0.00000000000E+00  0.00000000000E+00  0.45593999997E+02  0.45594000000E+02  0.51100000000E-03 0.  1.
         11   -1    0    0    0    0 -0.00000000000E+00 -0.00000000000E+00 -0.45593999997E+02  0.45594000000E+02  0.51100000000E-03 0. -1.
    9900012    2    1    2    0    0  0.17452791032E+02  0.35572633079E+01  0.57814976662E+01  0.72461554734E+02  0.69999979730E+02 0.  0.
         12    1    1    2    0    0 -0.17452791032E+02 -0.35572633079E+01 -0.57814976662E+01  0.18726445266E+02  0.00000000000E+00 0. -1.
         11    1    3    3    0    0  0.10319048880E+02  0.69406023657E+01  0.13170381441E+02  0.18113908429E+02  0.51100000000E-03 0. -1.
        -11    1    3    3    0    0  0.15506170562E+02  0.20392752591E+02 -0.12689884885E+02  0.28589138889E+02  0.51100000000E-03 0.  1.
         12    1    3    3    0    0 -0.83724284108E+01 -0.23776091649E+02  0.53010011098E+01  0.25758507417E+02  0.00000000000E+00 0. -1.
</event>
<event>
 7    1  0.3050261E-013  0.7246164E+02  0.7816164E-02  0.1226708E+00
        -11   -1    0    0    0    0  0.00000000000E+00  0.00000000000E+00  0.45593999997E+02  0.45594000000E+02  0.51100000000E-03 0.  1.
         11   -1    0    0    0    0 -0.00000000000E+00 -0.00000000000E+00 -0.45593999997E+02  0.45594000000E+02  0.51100000000E-03 0. -1.
    9900012    2    1    2    0    0 -0.67332254203E+01 -0.15603566745E+01  0.17404183127E+02  0.72461638159E+02  0.70000088406E+02 0.  0.
         12    1    1    2    0    0  0.67332254203E+01  0.15603566745E+01 -0.17404183127E+02  0.18726361841E+02  0.00000000000E+00 0. -1.
         11    1    3    3    0    0  0.49687452276E+01 -0.79847561388E+01 -0.20546344215E+02  0.22596393974E+02  0.51100000000E-03 0. -1.
        -11    1    3    3    0    0  0.94998153997E+01 -0.14258179372E+01  0.93193639512E+01  0.13383945387E+02  0.51100000000E-03 0.  1.
         12    1    3    3    0    0 -0.21201786048E+02  0.78502174015E+01  0.28631163391E+02  0.36481298798E+02  0.00000000000E+00 0. -1.
</event>
<event>
 7    1  0.3050261E-013  0.7246157E+02  0.7816164E-02  0.1226708E+00
        -11   -1    0    0    0    0  0.00000000000E+00  0.00000000000E+00  0.45593999997E+02  0.45594000000E+02  0.51100000000E-03 0.  1.
         11   -1    0    0    0    0 -0.00000000000E+00 -0.00000000000E+00 -0.45593999997E+02  0.45594000000E+02  0.51100000000E-03 0. -1.
    9900012    2    1    2    0    0  0.10832795387E+02 -0.13287213241E+02  0.75352366672E+01  0.72461567258E+02  0.69999996044E+02 0.  0.
         12    1    1    2    0    0 -0.10832795387E+02  0.13287213241E+02 -0.75352366672E+01  0.18726432742E+02  0.00000000000E+00 0. -1.
         11    1    3    3    0    0 -0.21154403928E+02  0.36160371610E+01  0.19286689342E+01  0.21547721327E+02  0.51100000000E-03 0. -1.
        -11    1    3    3    0    0  0.75979506708E+01  0.94440576052E+01  0.86367993710E+01  0.14883325639E+02  0.51100000000E-03 0.  1.
        -12    1    3    3    0    0  0.24389248644E+02 -0.26347308007E+02 -0.30302316380E+01  0.36030520291E+02  0.00000000000E+00 0.  1.
</event>
<event>
 7    1  0.3050261E-013  0.7246154E+02  0.7816164E-02  0.1226708E+00
        -11   -1    0    0    0    0  0.00000000000E+00  0.00000000000E+00  0.45593999997E+02  0.45594000000E+02  0.51100000000E-03 0.  1.
         11   -1    0    0    0    0 -0.00000000000E+00 -0.00000000000E+00 -0.45593999997E+02  0.45594000000E+02  0.51100000000E-03 0. -1.
    9900012    2    1    2    0    0  0.14861861921E+02 -0.90833835201E+01  0.68773175933E+01  0.72461540291E+02  0.69999960916E+02 0.  0.
         12    1    1    2    0    0 -0.14861861921E+02  0.90833835201E+01 -0.68773175933E+01  0.18726459709E+02  0.00000000000E+00 0. -1.
         11    1    3    3    0    0  0.29597612103E+01  0.14568252601E+02 -0.34981799966E+01  0.15271916508E+02  0.51100000000E-03 0. -1.
        -11    1    3    3    0    0  0.20690290971E+02 -0.50748225596E+01 -0.13858952228E+02  0.25414809100E+02  0.51100000000E-03 0.  1.
        -12    1    3    3    0    0 -0.87881902604E+01 -0.18576813562E+02  0.24234449818E+02  0.31774814683E+02  0.00000000000E+00 0.  1.
</event>
<event>
 7    1  0.3050261E-013  0.7246163E+02  0.7816164E-02  0.1226708E+00
        -11   -1    0    0    0    0  0.00000000000E+00  0.00000000000E+00  0.45593999997E+02  0.45594000000E+02  0.51100000000E-03 0. -1.
         11   -1    0    0    0    0 -0.00000000000E+00 -0.00000000000E+00 -0.45593999997E+02  0.45594000000E+02  0.51100000000E-03 0.  1.
    9900012    2    1    2    0    0 -0.19554718390E+01  0.47149577357E+01 -0.18017279488E+02  0.72461626707E+02  0.70000073487E+02 0.  0.
         12    1    1    2    0    0  0.19554718390E+01 -0.47149577357E+01  0.18017279488E+02  0.18726373293E+02  0.00000000000E+00 0. -1.
         11    1    3    3    0    0  0.16226984573E+01  0.11386663543E+02  0.22170889600E+02  0.24976741237E+02  0.51100000000E-03 0. -1.
        -11    1    3    3    0    0 -0.21146889677E+01  0.65299320926E+01 -0.21473898014E+01  0.71918847171E+01  0.51100000000E-03 0.  1.
        -12    1    3    3    0    0 -0.14634813285E+01 -0.13201637900E+02 -0.38040779287E+02  0.40293000752E+02  0.00000000000E+00 0.  1.
</event>
<event>
 7    1  0.3050261E-013  0.7246159E+02  0.7816164E-02  0.1226708E+00
        -11   -1    0    0    0    0  0.00000000000E+00  0.00000000000E+00  0.45593999997E+02  0.45594000000E+02  0.51100000000E-03 0. -1.
         11   -1    0    0    0    0 -0.00000000000E+00 -0.00000000000E+00 -0.45593999997E+02  0.45594000000E+02  0.51100000000E-03 0.  1.
    9900012    2    1    2    0    0  0.67351964511E+01 -0.65348322571E+01 -0.16205298609E+02  0.72461585317E+02  0.70000019570E+02 0.  0.
         12    1    1    2    0    0 -0.67351964511E+01  0.65348322571E+01  0.16205298609E+02  0.18726414683E+02  0.00000000000E+00 0. -1.
         11    1    3    3    0    0  0.23158408315E+02  0.59475923898E+00  0.35901789413E+01  0.23442589433E+02  0.51100000000E-03 0. -1.
        -11    1    3    3    0    0  0.81152676772E+01  0.98416057252E+01  0.77496996317E+00  0.12779489482E+02  0.51100000000E-03 0.  1.
         12    1    3    3    0    0 -0.24538479541E+02 -0.16971197221E+02 -0.20570447514E+02  0.36239506402E+02  0.00000000000E+00 0. -1.
</event>
<event>
 7    1  0.3050261E-013  0.7246151E+02  0.7816164E-02  0.1226708E+00
        -11   -1    0    0    0    0  0.00000000000E+00  0.00000000000E+00  0.45593999997E+02  0.45594000000E+02  0.51100000000E-03 0. -1.
         11   -1    0    0    0    0 -0.00000000000E+00 -0.00000000000E+00 -0.45593999997E+02  0.45594000000E+02  0.51100000000E-03 0.  1.
    9900012    2    1    2    0    0 -0.66144519811E+00  0.11331435376E+02 -0.14894376440E+02  0.72461511088E+02  0.69999922873E+02 0.  0.
         12    1    1    2    0    0  0.66144519811E+00 -0.11331435376E+02  0.14894376440E+02  0.18726488912E+02  0.00000000000E+00 0. -1.
         11    1    3    3    0    0 -0.17554723153E+02  0.34253515297E+01  0.18365385919E+01  0.17979827929E+02  0.51100000000E-03 0. -1.
        -11    1    3    3    0    0 -0.18527877945E+01 -0.11611382730E+02  0.10736470647E+02  0.15922588789E+02  0.51100000000E-03 0.  1.
        -12    1    3    3    0    0  0.18746065749E+02  0.19517466577E+02 -0.27467385679E+02  0.38559094371E+02  0.00000000000E+00 0.  1.
</event>
<event>
 7    1  0.3050261E-013  0.7246160E+02  0.7816164E-02  0.1226708E+00
        -11   -1    0    0    0    0  0.00000000000E+00  0.00000000000E+00  0.45593999997E+02  0.45594000000E+02  0.51100000000E-03 0. -1.
         11   -1    0    0    0    0 -0.00000000000E+00 -0.00000000000E+00 -0.45593999997E+02  0.45594000000E+02  0.51100000000E-03 0.  1.
    9900012    2    1    2    0    0 -0.10339861652E+02  0.14641116350E+02 -0.54224667549E+01  0.72461596910E+02  0.70000034672E+02 0.  0.
         12    1    1    2    0    0  0.10339861652E+02 -0.14641116350E+02  0.54224667549E+01  0.18726403090E+02  0.00000000000E+00 0. -1.
         11    1    3    3    0    0  0.44623219471E+01 -0.51842294568E+01  0.80249907797E+01  0.10544620880E+02  0.51100000000E-03 0. -1.
        -11    1    3    3    0    0 -0.21956194040E+02  0.16916247007E+01 -0.29396526414E+02  0.36729985248E+02  0.51100000000E-03 0.  1.
         12    1    3    3    0    0  0.71540104408E+01  0.18133721107E+02  0.15949068879E+02  0.25186990783E+02  0.00000000000E+00 0. -1.
</event>
<event>
 7    1  0.3050261E-013  0.7246159E+02  0.7816164E-02  0.1226708E+00
        -11   -1    0    0    0    0  0.00000000000E+00  0.00000000000E+00  0.45593999997E+02  0.45594000000E+02  0.51100000000E-03 0. -1.
         11   -1    0    0    0    0 -0.00000000000E+00 -0.00000000000E+00 -0.45593999997E+02  0.45594000000E+02  0.51100000000E-03 0.  1.
    9900012    2    1    2    0    0 -0.55717355983E+01  0.10947012751E+02  0.14134960538E+02  0.72461589902E+02  0.70000025543E+02 0.  0.
         12    1    1    2    0    0  0.55717355983E+01 -0.10947012751E+02 -0.14134960538E+02  0.18726410098E+02  0.00000000000E+00 0. -1.
         11    1    3    3    0    0 -0.26639206011E+01 -0.11761371287E+02  0.52613801302E+01  0.13157068391E+02  0.51100000000E-03 0. -1.
        -11    1    3    3    0    0 -0.16084397654E+02 -0.13316029983E+01  0.23286223369E+02  0.28332476304E+02  0.51100000000E-03 0.  1.
        -12    1    3    3    0    0  0.13176582657E+02  0.24039987036E+02 -0.14412642962E+02  0.30972045207E+02  0.00000000000E+00 0.  1.
</event>
<event>
 7    1  0.3050261E-013  0.7246143E+02  0.7816164E-02  0.1226708E+00
        -11   -1    0    0    0    0  0.00000000000E+00  0.00000000000E+00  0.45593999997E+02  0.45594000000E+02  0.51100000000E-03 0. -1.
         11   -1    0    0    0    0 -0.00000000000E+00 -0.00000000000E+00 -0.45593999997E+02  0.45594000000E+02  0.51100000000E-03 0.  1.
    9900012    2    1    2    0    0  0.38350482176E+01 -0.17266951529E+02  0.61505355831E+01  0.72461433366E+02  0.69999821626E+02 0.  0.
         12    1    1    2    0    0 -0.38350482176E+01  0.17266951529E+02 -0.61505355831E+01  0.18726566634E+02  0.00000000000E+00 0. -1.
         11    1    3    3    0    0  0.11166031900E+02  0.11748763039E+02 -0.24530405448E+01  0.16393020146E+02  0.51100000000E-03 0. -1.
        -11    1    3    3    0    0  0.17856001648E+02 -0.40751021385E+01 -0.34338490846E+01  0.18634231192E+02  0.51100000000E-03 0.  1.
        -12    1    3    3    0    0 -0.25186985331E+02 -0.24940612429E+02  0.12037425212E+02  0.37434182028E+02  0.00000000000E+00 0.  1.
</event>
<event>
 7    1  0.3050261E-013  0.7246159E+02  0.7816164E-02  0.1226708E+00
        -11   -1    0    0    0    0  0.00000000000E+00  0.00000000000E+00  0.45593999997E+02  0.45594000000E+02  0.51100000000E-03 0.  1.
         11   -1    0    0    0    0 -0.00000000000E+00 -0.00000000000E+00 -0.45593999997E+02  0.45594000000E+02  0.51100000000E-03 0. -1.
    9900012    2    1    2    0    0  0.11493697629E+02  0.90066429326E+01 -0.11724065585E+02  0.72461590415E+02  0.70000026211E+02 0.  0.
         12    1    1    2    0    0 -0.11493697629E+02 -0.90066429326E+01  0.11724065585E+02  0.18726409585E+02  0.00000000000E+00 0. -1.
         11    1    3    3    0    0 -0.20068513512E+01  0.16600399951E+02 -0.19569662369E+02  0.25740482055E+02  0.51100000000E-03 0. -1.
        -11    1    3    3    0    0 -0.64535140376E+01 -0.13340063533E+02 -0.11175858846E+02  0.18560844800E+02  0.51100000000E-03 0.  1.
        -12    1    3    3    0    0  0.19954063018E+02  0.57463065141E+01  0.19021455631E+02  0.28160263560E+02  0.00000000000E+00 0.  1.
</event>
<event>
 7    1  0.3050261E-013  0.7246153E+02  0.7816164E-02  0.1226708E+00
        -11   -1    0    0    0    0  0.00000000000E+00  0.00000000000E+00  0.45593999997E+02  0.45594000000E+02  0.51100000000E-03 0. -1.
         11   -1    0    0    0    0 -0.00000000000E+00 -0.00000000000E+00 -0.45593999997E+02  0.45594000000E+02  0.51100000000E-03 0.  1.
    9900012    2    1    2    0    0  0.62104063412E+01 -0.15861561943E+02 -0.77796041692E+01  0.72461533830E+02  0.69999952499E+02 0.  0.
         12    1    1    2    0    0 -0.62104063412E+01  0.15861561943E+02  0.77796041692E+01  0.18726466170E+02  0.00000000000E+00 0. -1.
         11    1    3    3    0    0  0.11416412013E+02 -0.11242985812E+02  0.27458730657E+02  0.31791839878E+02  0.51100000000E-03 0. -1.
        -11    1    3    3    0    0 -0.75907089804E+01 -0.43526178394E+01 -0.45029113414E+01  0.98407497525E+01  0.51100000000E-03 0.  1.
        -12    1    3    3    0    0  0.23847033086E+01 -0.26595829124E+00 -0.30735423485E+02  0.30828944200E+02  0.00000000000E+00 0.  1.
</event>
<event>
 7    1  0.3050261E-013  0.7246146E+02  0.7816164E-02  0.1226708E+00
        -11   -1    0    0    0    0  0.00000000000E+00  0.00000000000E+00  0.45593999997E+02  0.45594000000E+02  0.51100000000E-03 0. -1.
         11   -1    0    0    0    0 -0.00000000000E+00 -0.00000000000E+00 -0.45593999997E+02  0.45594000000E+02  0.51100000000E-03 0.  1.
    9900012    2    1    2    0    0 -0.13815742473E+01 -0.94756339670E+01 -0.16093064842E+02  0.72461464749E+02  0.69999862508E+02 0.  0.
         12    1    1    2    0    0  0.13815742473E+01  0.94756339670E+01  0.16093064842E+02  0.18726535251E+02  0.00000000000E+00 0. -1.
         11    1    3    3    0    0 -0.77232688583E+01 -0.93996139961E+01 -0.63530060975E+01  0.13724514996E+02  0.51100000000E-03 0. -1.
        -11    1    3    3    0    0  0.95700444381E+00 -0.28076803216E+02 -0.11061830244E+02  0.30192496169E+02  0.51100000000E-03 0.  1.
         12    1    3    3    0    0  0.53846901671E+01  0.28000783245E+02  0.13217714992E+01  0.28544453584E+02  0.00000000000E+00 0. -1.
</event>
<event>
 7    1  0.3050261E-013  0.7246156E+02  0.7816164E-02  0.1226708E+00
        -11   -1    0    0    0    0  0.00000000000E+00  0.00000000000E+00  0.45593999997E+02  0.45594000000E+02  0.51100000000E-03 0. -1.
         11   -1    0    0    0    0 -0.00000000000E+00 -0.00000000000E+00 -0.45593999997E+02  0.45594000000E+02  0.51100000000E-03 0.  1.
    9900012    2    1    2    0    0  0.65804679114E+01  0.13065992969E+02 -0.11690030345E+02  0.72461560411E+02  0.69999987125E+02 0.  0.
         12    1    1    2    0    0 -0.65804679114E+01 -0.13065992969E+02  0.11690030345E+02  0.18726439589E+02  0.00000000000E+00 0. -1.
         11    1    3    3    0    0 -0.10321073563E+01 -0.20764966607E+02 -0.15092507435E+02  0.25691104778E+02  0.51100000000E-03 0. -1.
        -11    1    3    3    0    0  0.84007904065E+01 -0.48116790742E+00  0.86301911137E+01  0.12053422789E+02  0.51100000000E-03 0.  1.
        -12    1    3    3    0    0 -0.78821513890E+00  0.34312127484E+02 -0.52277140242E+01  0.34717032844E+02  0.00000000000E+00 0.  1.
</event>
<event>
 7    1  0.3050261E-013  0.7246153E+02  0.7816164E-02  0.1226708E+00
        -11   -1    0    0    0    0  0.00000000000E+00  0.00000000000E+00  0.45593999997E+02  0.45594000000E+02  0.51100000000E-03 0.  1.
         11   -1    0    0    0    0 -0.00000000000E+00 -0.00000000000E+00 -0.45593999997E+02  0.45594000000E+02  0.51100000000E-03 0. -1.
    9900012    2    1    2    0    0  0.93190782110E+01  0.11578495780E+02  0.11391841443E+02  0.72461525834E+02  0.69999942082E+02 0.  0.
         12    1    1    2    0    0 -0.93190782110E+01 -0.11578495780E+02 -0.11391841443E+02  0.18726474166E+02  0.00000000000E+00 0. -1.
         11    1    3    3    0    0  0.27595324837E+02  0.14939447835E+02  0.17049095261E+02  0.35712192652E+02  0.51100000000E-03 0.  1.
        -11    1    3    3    0    0 -0.18491774266E+01 -0.12021067203E+02 -0.12039079592E+02  0.17113297506E+02  0.51100000000E-03 0. -1.
        -12    1    3    3    0    0 -0.16427069200E+02  0.86601151479E+01  0.63818257737E+01  0.19636035676E+02  0.00000000000E+00 0.  1.
</event>
<event>
 7    1  0.3050261E-013  0.7246161E+02  0.7816164E-02  0.1226708E+00
        -11   -1    0    0    0    0  0.00000000000E+00  0.00000000000E+00  0.45593999997E+02  0.45594000000E+02  0.51100000000E-03 0.  1.
         11   -1    0    0    0    0 -0.00000000000E+00 -0.00000000000E+00 -0.45593999997E+02  0.45594000000E+02  0.51100000000E-03 0. -1.
    9900012    2    1    2    0    0 -0.80062616135E+01  0.62039866763E+00  0.16917229967E+02  0.72461607147E+02  0.70000048007E+02 0.  0.
         12    1    1    2    0    0  0.80062616135E+01 -0.62039866763E+00 -0.16917229967E+02  0.18726392853E+02  0.00000000000E+00 0. -1.
         11    1    3    3    0    0 -0.18106382772E+02  0.49775666908E+01 -0.35935754124E+00  0.18781544275E+02  0.51100000000E-03 0.  1.
        -11    1    3    3    0    0  0.24138161848E+02  0.10668975506E+01  0.26632530196E+02  0.35959432597E+02  0.51100000000E-03 0. -1.
         12    1    3    3    0    0 -0.14038040689E+02 -0.54240655738E+01 -0.93559426880E+01  0.17720630274E+02  0.00000000000E+00 0. -1.
</event>
<event>
 7    1  0.3050261E-013  0.7246156E+02  0.7816164E-02  0.1226708E+00
        -11   -1    0    0    0    0  0.00000000000E+00  0.00000000000E+00  0.45593999997E+02  0.45594000000E+02  0.51100000000E-03 0.  1.
         11   -1    0    0    0    0 -0.00000000000E+00 -0.00000000000E+00 -0.45593999997E+02  0.45594000000E+02  0.51100000000E-03 0. -1.
    9900012    2    1    2    0    0 -0.17435835229E+01 -0.63167225123E+01  0.17542472550E+02  0.72461563874E+02  0.69999991636E+02 0.  0.
         12    1    1    2    0    0  0.17435835229E+01  0.63167225123E+01 -0.17542472550E+02  0.18726436126E+02  0.00000000000E+00 0. -1.
         11    1    3    3    0    0  0.39829674599E+01  0.62736919931E+01 -0.43739066820E+00  0.74440951008E+01  0.51100000000E-03 0. -1.
        -11    1    3    3    0    0 -0.29912992945E+01  0.24786440739E+02  0.83143385438E+01  0.26314325788E+02  0.51100000000E-03 0.  1.
         12    1    3    3    0    0 -0.27352516882E+01 -0.37376855244E+02  0.96655246747E+01  0.38703142986E+02  0.00000000000E+00 0. -1.
</event>
<event>
 7    1  0.3821977E-013  0.7246155E+02  0.7816164E-02  0.1226708E+00
        -11   -1    0    0    0    0  0.00000000000E+00  0.00000000000E+00  0.45593999997E+02  0.45594000000E+02  0.51100000000E-03 0. -1.
         11   -1    0    0    0    0 -0.00000000000E+00 -0.00000000000E+00 -0.45593999997E+02  0.45594000000E+02  0.51100000000E-03 0.  1.
    9900012    2    1    2    0    0  0.58421134091E+01  0.29040915442E+01 -0.17553230631E+02  0.72461549659E+02  0.69999973119E+02 0.  0.
         12    1    1    2    0    0 -0.58421134091E+01 -0.29040915442E+01  0.17553230631E+02  0.18726450341E+02  0.00000000000E+00 0. -1.
         11    1    3    3    0    0 -0.79057254765E+01  0.49591920284E+01 -0.42964097680E+01  0.10273909579E+02  0.51100000000E-03 0. -1.
        -11    1    3    3    0    0 -0.15291536172E+02 -0.69502733536E+01 -0.25302474310E+02  0.30370258225E+02  0.51100000000E-03 0.  1.
         12    1    3    3    0    0  0.29039375058E+02  0.48951728694E+01  0.12045653446E+02  0.31817381855E+02  0.00000000000E+00 0. -1.
</event>
<event>
 7    1  0.3050261E-013  0.7246158E+02  0.7816164E-02  0.1226708E+00
        -11   -1    0    0    0    0  0.00000000000E+00  0.00000000000E+00  0.45593999997E+02  0.45594000000E+02  0.51100000000E-03 0. -1.
         11   -1    0    0    0    0 -0.00000000000E+00 -0.00000000000E+00 -0.45593999997E+02  0.45594000000E+02  0.51100000000E-03 0.  1.
    9900012    2    1    2    0    0  0.78119826075E+01  0.46041320649E+01 -0.16384551302E+02  0.72461584815E+02  0.70000018915E+02 0.  0.
         12    1    1    2    0    0 -0.78119826075E+01 -0.46041320649E+01  0.16384551302E+02  0.18726415185E+02  0.00000000000E+00 0. -1.
         11    1    3    3    0    0 -0.38164098004E+01  0.10682039740E+02  0.14607514671E+02  0.18494605751E+02  0.51100000000E-03 0. -1.
        -11    1    3    3    0    0  0.19910500904E+02 -0.11306660253E+02 -0.15623114704E+01  0.22950150974E+02  0.51100000000E-03 0.  1.
         12    1    3    3    0    0 -0.82821084962E+01  0.52287525781E+01 -0.29429754502E+02  0.31016828089E+02  0.00000000000E+00 0. -1.
</event>
<event>
 7    1  0.3050261E-013  0.7246161E+02  0.7816164E-02  0.1226708E+00
        -11   -1    0    0    0    0  0.00000000000E+00  0.00000000000E+00  0.45593999997E+02  0.45594000000E+02  0.51100000000E-03 0. -1.
         11   -1    0    0    0    0 -0.00000000000E+00 -0.00000000000E+00 -0.45593999997E+02  0.45594000000E+02  0.51100000000E-03 0.  1.
    9900012    2    1    2    0    0 -0.11570879999E+01 -0.14732260728E+02 -0.11502147302E+02  0.72461608159E+02  0.70000049326E+02 0.  0.
         12    1    1    2    0    0  0.11570879999E+01  0.14732260728E+02  0.11502147302E+02  0.18726391841E+02  0.00000000000E+00 0. -1.
         11    1    3    3    0    0  0.52082912592E+01  0.11918793884E+02 -0.55673420698E+01  0.14148471419E+02  0.51100000000E-03 0. -1.
        -11    1    3    3    0    0 -0.63239555298E+01  0.12522169527E+02 -0.12262169232E+02  0.18632174799E+02  0.51100000000E-03 0.  1.
        -12    1    3    3    0    0 -0.41423729380E-01 -0.39173224140E+02  0.63273639996E+01  0.39680961942E+02  0.00000000000E+00 0.  1.
</event>
<event>
 7    1  0.3050261E-013  0.7246154E+02  0.7816164E-02  0.1226708E+00
        -11   -1    0    0    0    0  0.00000000000E+00  0.00000000000E+00  0.45593999997E+02  0.45594000000E+02  0.51100000000E-03 0.  1.
         11   -1    0    0    0    0 -0.00000000000E+00 -0.00000000000E+00 -0.45593999997E+02  0.45594000000E+02  0.51100000000E-03 0. -1.
    9900012    2    1    2    0    0  0.18018667008E+02  0.22410763931E+01  0.45810152882E+01  0.72461535165E+02  0.69999954238E+02 0.  0.
         12    1    1    2    0    0 -0.18018667008E+02 -0.22410763931E+01 -0.45810152882E+01  0.18726464835E+02  0.00000000000E+00 0. -1.
         11    1    3    3    0    0  0.13004565217E+02  0.16117186431E+02 -0.23694311363E+02  0.31469076983E+02  0.51100000000E-03 0. -1.
        -11    1    3    3    0    0  0.47512112541E-01 -0.11492365470E+01 -0.49427201094E+01  0.50747890973E+01  0.51100000000E-03 0.  1.
        -12    1    3    3    0    0  0.49665896788E+01 -0.12726873490E+02  0.33218046761E+02  0.35917669085E+02  0.00000000000E+00 0.  1.
</event>
<event>
 7    1  0.3050261E-013  0.7246161E+02  0.7816164E-02  0.1226708E+00
        -11   -1    0    0    0    0  0.00000000000E+00  0.00000000000E+00  0.45593999997E+02  0.45594000000E+02  0.51100000000E-03 0. -1.
         11   -1    0    0    0    0 -0.00000000000E+00 -0.00000000000E+00 -0.45593999997E+02  0.45594000000E+02  0.51100000000E-03 0.  1.
    9900012    2    1    2    0    0 -0.11182314065E+02  0.14849401642E+02 -0.22646943091E+01  0.72461609069E+02  0.70000050511E+02 0.  0.
         12    1    1    2    0    0  0.11182314065E+02 -0.14849401642E+02  0.22646943091E+01  0.18726390931E+02  0.00000000000E+00 0. -1.
         11    1    3    3    0    0  0.11028735626E+02 -0.13016668202E+02 -0.63197069349E+00  0.17072376747E+02  0.51100000000E-03 0. -1.
        -11    1    3    3    0    0 -0.33165271671E+02  0.10714721766E+02  0.10073980564E+01  0.34867683585E+02  0.51100000000E-03 0.  1.
        -12    1    3    3    0    0  0.10954221980E+02  0.17151348078E+02 -0.26401216720E+01  0.20521548736E+02  0.00000000000E+00 0.  1.
</event>
<event>
 7    1  0.3050261E-013  0.7246158E+02  0.7816164E-02  0.1226708E+00
        -11   -1    0    0    0    0  0.00000000000E+00  0.00000000000E+00  0.45593999997E+02  0.45594000000E+02  0.51100000000E-03 0. -1.
         11   -1    0    0    0    0 -0.00000000000E+00 -0.00000000000E+00 -0.45593999997E+02  0.45594000000E+02  0.51100000000E-03 0.  1.
    9900012    2    1    2    0    0 -0.25899027696E+01  0.13057656676E+02 -0.13170754136E+02  0.72461581262E+02  0.70000014288E+02 0.  0.
         12    1    1    2    0    0  0.25899027696E+01 -0.13057656676E+02  0.13170754136E+02  0.18726418738E+02  0.00000000000E+00 0. -1.
         11    1    3    3    0    0  0.45273486795E+01  0.31726487058E+02 -0.90134757271E+01  0.33291284325E+02  0.51100000000E-03 0. -1.
        -11    1    3    3    0    0  0.12023651352E+02 -0.25981846253E+01  0.39102182542E+01  0.12907693916E+02  0.51100000000E-03 0.  1.
        -12    1    3    3    0    0 -0.19140902801E+02 -0.16070645756E+02 -0.80674966628E+01  0.26262603021E+02  0.00000000000E+00 0.  1.
</event>
<event>
 7    1  0.3050261E-013  0.7246165E+02  0.7816164E-02  0.1226708E+00
        -11   -1    0    0    0    0  0.00000000000E+00  0.00000000000E+00  0.45593999997E+02  0.45594000000E+02  0.51100000000E-03 0.  1.
         11   -1    0    0    0    0 -0.00000000000E+00 -0.00000000000E+00 -0.45593999997E+02  0.45594000000E+02  0.51100000000E-03 0. -1.
    9900012    2    1    2    0    0  0.50880513029E+01  0.73198890172E+01  0.16468368242E+02  0.72461649746E+02  0.70000103500E+02 0.  0.
         12    1    1    2    0    0 -0.50880513029E+01 -0.73198890172E+01 -0.16468368242E+02  0.18726350254E+02  0.00000000000E+00 0. -1.
         11    1    3    3    0    0 -0.44949314635E+01  0.30455813903E+00  0.14633291208E+02  0.15311119370E+02  0.51100000000E-03 0. -1.
        -11    1    3    3    0    0  0.90921852883E+01  0.85511476042E+01  0.28146444438E+02  0.30789808272E+02  0.51100000000E-03 0.  1.
         12    1    3    3    0    0  0.49079747805E+00 -0.15358167261E+01 -0.26311367404E+02  0.26360722104E+02  0.00000000000E+00 0. -1.
</event>
<event>
 7    1  0.3050261E-013  0.7246153E+02  0.7816164E-02  0.1226708E+00
        -11   -1    0    0    0    0  0.00000000000E+00  0.00000000000E+00  0.45593999997E+02  0.45594000000E+02  0.51100000000E-03 0. -1.
         11   -1    0    0    0    0 -0.00000000000E+00 -0.00000000000E+00 -0.45593999997E+02  0.45594000000E+02  0.51100000000E-03 0.  1.
    9900012    2    1    2    0    0 -0.45453785079E+01 -0.22321141293E+01 -0.18028802369E+02  0.72461534393E+02  0.69999953232E+02 0.  0.
         12    1    1    2    0    0  0.45453785079E+01  0.22321141293E+01  0.18028802369E+02  0.18726465607E+02  0.00000000000E+00 0. -1.
         11    1    3    3    0    0  0.44689897901E+01  0.13807141755E+00 -0.49357941944E+01  0.66598046557E+01  0.51100000000E-03 0.  1.
        -11    1    3    3    0    0 -0.37506648202E+01  0.17070673495E+02  0.20310883186E+02  0.26795659279E+02  0.51100000000E-03 0. -1.
         12    1    3    3    0    0 -0.52637034779E+01 -0.19440859041E+02 -0.33403891360E+02  0.39006070458E+02  0.00000000000E+00 0. -1.
</event>
<event>
 7    1  0.3050261E-013  0.7246158E+02  0.7816164E-02  0.1226708E+00
        -11   -1    0    0    0    0  0.00000000000E+00  0.00000000000E+00  0.45593999997E+02  0.45594000000E+02  0.51100000000E-03 0.  1.
         11   -1    0    0    0    0 -0.00000000000E+00 -0.00000000000E+00 -0.45593999997E+02  0.45594000000E+02  0.51100000000E-03 0. -1.
    9900012    2    1    2    0    0 -0.84643000794E+01 -0.89617379041E+01 -0.14096865319E+02  0.72461581925E+02  0.70000015151E+02 0.  0.
         12    1    1    2    0    0  0.84643000794E+01  0.89617379041E+01  0.14096865319E+02  0.18726418075E+02  0.00000000000E+00 0. -1.
         11    1    3    3    0    0  0.23911541584E+02  0.43313403953E+01 -0.21403750764E+02  0.32382755867E+02  0.51100000000E-03 0. -1.
        -11    1    3    3    0    0  0.22908944805E+01 -0.14000018782E+01  0.11253000668E+01  0.29111000122E+01  0.51100000000E-03 0.  1.
        -12    1    3    3    0    0 -0.34666736143E+02 -0.11893076421E+02  0.61815853778E+01  0.37167726045E+02  0.00000000000E+00 0.  1.
</event>
<event>
 7    1  0.3050261E-013  0.7246160E+02  0.7816164E-02  0.1226708E+00
        -11   -1    0    0    0    0  0.00000000000E+00  0.00000000000E+00  0.45593999997E+02  0.45594000000E+02  0.51100000000E-03 0. -1.
         11   -1    0    0    0    0 -0.00000000000E+00 -0.00000000000E+00 -0.45593999997E+02  0.45594000000E+02  0.51100000000E-03 0.  1.
    9900012    2    1    2    0    0 -0.12441470410E+02 -0.13407735604E+02  0.40150201567E+01  0.72461602940E+02  0.70000042527E+02 0.  0.
         12    1    1    2    0    0  0.12441470410E+02  0.13407735604E+02 -0.40150201567E+01  0.18726397060E+02  0.00000000000E+00 0. -1.
         11    1    3    3    0    0 -0.79499187197E+01 -0.83123444690E-02 -0.31685412947E+01  0.85580915479E+01  0.51100000000E-03 0.  1.
        -11    1    3    3    0    0  0.80056748186E+01 -0.11809342165E+02  0.32572918558E+02  0.35560461405E+02  0.51100000000E-03 0. -1.
         12    1    3    3    0    0 -0.12497226509E+02 -0.15900810947E+01 -0.25389357106E+02  0.28343049987E+02  0.00000000000E+00 0. -1.
</event>
<event>
 7    1  0.3050261E-013  0.7246165E+02  0.7816164E-02  0.1226708E+00
        -11   -1    0    0    0    0  0.00000000000E+00  0.00000000000E+00  0.45593999997E+02  0.45594000000E+02  0.51100000000E-03 0. -1.
         11   -1    0    0    0    0 -0.00000000000E+00 -0.00000000000E+00 -0.45593999997E+02  0.45594000000E+02  0.51100000000E-03 0.  1.
    9900012    2    1    2    0    0 -0.56774823785E+01 -0.17448200393E+02  0.37420213445E+01  0.72461648864E+02  0.70000102352E+02 0.  0.
         12    1    1    2    0    0  0.56774823785E+01  0.17448200393E+02 -0.37420213445E+01  0.18726351136E+02  0.00000000000E+00 0. -1.
         11    1    3    3    0    0  0.18864579711E+02  0.49730454092E+01 -0.63592850332E+01  0.20519358048E+02  0.51100000000E-03 0. -1.
        -11    1    3    3    0    0 -0.11333351802E+02 -0.15516951181E+02 -0.13882025713E+02  0.23705089648E+02  0.51100000000E-03 0.  1.
        -12    1    3    3    0    0 -0.13208710287E+02 -0.69042946210E+01  0.23983332091E+02  0.28237201169E+02  0.00000000000E+00 0.  1.
</event>
<event>
 7    1  0.3050261E-013  0.7246173E+02  0.7816164E-02  0.1226708E+00
        -11   -1    0    0    0    0  0.00000000000E+00  0.00000000000E+00  0.45593999997E+02  0.45594000000E+02  0.51100000000E-03 0.  1.
         11   -1    0    0    0    0 -0.00000000000E+00 -0.00000000000E+00 -0.45593999997E+02  0.45594000000E+02  0.51100000000E-03 0. -1.
    9900012    2    1    2    0    0  0.17257249159E+02  0.70901685180E+01  0.16093132725E+01  0.72461734292E+02  0.70000213637E+02 0.  0.
         12    1    1    2    0    0 -0.17257249159E+02 -0.70901685180E+01 -0.16093132725E+01  0.18726265708E+02  0.00000000000E+00 0. -1.
         11    1    3    3    0    0  0.35263571122E+01  0.25422895803E+01 -0.73395373444E+01  0.85303715912E+01  0.51100000000E-03 0. -1.
        -11    1    3    3    0    0 -0.16231954661E+02  0.16783649602E+02  0.18934193630E+02  0.30061119985E+02  0.51100000000E-03 0.  1.
         12    1    3    3    0    0  0.29962846708E+02 -0.12235770664E+02 -0.99853430131E+01  0.33870242716E+02  0.00000000000E+00 0. -1.
</event>
<event>
 7    1  0.3050261E-013  0.7246163E+02  0.7816164E-02  0.1226708E+00
        -11   -1    0    0    0    0  0.00000000000E+00  0.00000000000E+00  0.45593999997E+02  0.45594000000E+02  0.51100000000E-03 0. -1.
         11   -1    0    0    0    0 -0.00000000000E+00 -0.00000000000E+00 -0.45593999997E+02  0.45594000000E+02  0.51100000000E-03 0.  1.
    9900012    2    1    2    0    0  0.17360081983E+02  0.12769907746E+01 -0.69046193544E+01  0.72461630349E+02  0.70000078232E+02 0.  0.
         12    1    1    2    0    0 -0.17360081983E+02 -0.12769907746E+01  0.69046193544E+01  0.18726369651E+02  0.00000000000E+00 0. -1.
         11    1    3    3    0    0 -0.90285104904E+01  0.27021445669E+01  0.15888459225E+02  0.18473189322E+02  0.51100000000E-03 0. -1.
        -11    1    3    3    0    0  0.44761189124E+00 -0.17694289644E+02 -0.12558956668E+02  0.21702894628E+02  0.51100000000E-03 0.  1.
         12    1    3    3    0    0  0.25940980582E+02  0.16269135851E+02 -0.10234121912E+02  0.32285546398E+02  0.00000000000E+00 0. -1.
</event>
<event>
 7    1  0.3050261E-013  0.7246162E+02  0.7816164E-02  0.1226708E+00
        -11   -1    0    0    0    0  0.00000000000E+00  0.00000000000E+00  0.45593999997E+02  0.45594000000E+02  0.51100000000E-03 0. -1.
         11   -1    0    0    0    0 -0.00000000000E+00 -0.00000000000E+00 -0.45593999997E+02  0.45594000000E+02  0.51100000000E-03 0.  1.
    9900012    2    1    2    0    0 -0.86711037809E+01  0.11837494101E+02 -0.11634567864E+02  0.72461615492E+02  0.70000058878E+02 0.  0.
         12    1    1    2    0    0  0.86711037809E+01 -0.11837494101E+02  0.11634567864E+02  0.18726384508E+02  0.00000000000E+00 0. -1.
         11    1    3    3    0    0 -0.11212976924E+02 -0.24735905281E+02 -0.28214465748E+01  0.27304879099E+02  0.51100000000E-03 0. -1.
        -11    1    3    3    0    0  0.12535472365E+02  0.12157238508E+02 -0.66507296874E+01  0.18686056866E+02  0.51100000000E-03 0.  1.
        -12    1    3    3    0    0 -0.99935992215E+01  0.24416160874E+02 -0.21623916019E+01  0.26470679527E+02  0.00000000000E+00 0.  1.
</event>
<event>
 7    1  0.3050261E-013  0.7246159E+02  0.7816164E-02  0.1226708E+00
        -11   -1    0    0    0    0  0.00000000000E+00  0.00000000000E+00  0.45593999997E+02  0.45594000000E+02  0.51100000000E-03 0.  1.
         11   -1    0    0    0    0 -0.00000000000E+00 -0.00000000000E+00 -0.45593999997E+02  0.45594000000E+02  0.51100000000E-03 0. -1.
    9900012    2    1    2    0    0 -0.29334019859E+01  0.11917715618E+02  0.14143612783E+02  0.72461586160E+02  0.70000020668E+02 0.  0.
         12    1    1    2    0    0  0.29334019859E+01 -0.11917715618E+02 -0.14143612783E+02  0.18726413840E+02  0.00000000000E+00 0. -1.
         11    1    3    3    0    0 -0.15367939137E+02 -0.26772631375E+00  0.56859084353E+00  0.15380784327E+02  0.51100000000E-03 0. -1.
        -11    1    3    3    0    0 -0.23287538568E+01  0.53903861127E+01  0.31987365943E+02  0.32521853225E+02  0.51100000000E-03 0.  1.
         12    1    3    3    0    0  0.14763291008E+02  0.67950558190E+01 -0.18412344004E+02  0.24558948607E+02  0.00000000000E+00 0. -1.
</event>
<event>
 7    1  0.3050261E-013  0.7246151E+02  0.7816164E-02  0.1226708E+00
        -11   -1    0    0    0    0  0.00000000000E+00  0.00000000000E+00  0.45593999997E+02  0.45594000000E+02  0.51100000000E-03 0. -1.
         11   -1    0    0    0    0 -0.00000000000E+00 -0.00000000000E+00 -0.45593999997E+02  0.45594000000E+02  0.51100000000E-03 0.  1.
    9900012    2    1    2    0    0  0.37724857143E+01 -0.15510451216E+02 -0.97916187282E+01  0.72461506930E+02  0.69999917456E+02 0.  0.
         12    1    1    2    0    0 -0.37724857143E+01  0.15510451216E+02  0.97916187282E+01  0.18726493070E+02  0.00000000000E+00 0. -1.
         11    1    3    3    0    0  0.24926559082E+02  0.10500091022E+02  0.46570197721E+01  0.27445821040E+02  0.51100000000E-03 0. -1.
        -11    1    3    3    0    0 -0.88179542246E+00 -0.13508083861E+02 -0.16226780440E+02  0.21131831356E+02  0.51100000000E-03 0.  1.
        -12    1    3    3    0    0 -0.20272277946E+02 -0.12502458378E+02  0.17781419398E+01  0.23883854533E+02  0.00000000000E+00 0.  1.
</event>
<event>
 7    1  0.3050261E-013  0.7246158E+02  0.7816164E-02  0.1226708E+00
        -11   -1    0    0    0    0  0.00000000000E+00  0.00000000000E+00  0.45593999997E+02  0.45594000000E+02  0.51100000000E-03 0. -1.
         11   -1    0    0    0    0 -0.00000000000E+00 -0.00000000000E+00 -0.45593999997E+02  0.45594000000E+02  0.51100000000E-03 0.  1.
    9900012    2    1    2    0    0  0.12499654174E+02 -0.73997983890E+01 -0.11818641381E+02  0.72461584038E+02  0.70000017904E+02 0.  0.
         12    1    1    2    0    0 -0.12499654174E+02  0.73997983890E+01  0.11818641381E+02  0.18726415962E+02  0.00000000000E+00 0. -1.
         11    1    3    3    0    0  0.80095594344E+01  0.25588436327E+01  0.21486566882E+01  0.86785626053E+01  0.51100000000E-03 0. -1.
        -11    1    3    3    0    0  0.26405545928E+02  0.13432698027E+02 -0.10961438623E+02  0.31588658866E+02  0.51100000000E-03 0.  1.
         12    1    3    3    0    0 -0.21915451188E+02 -0.23391340049E+02 -0.30058594471E+01  0.32194362567E+02  0.00000000000E+00 0. -1.
</event>
<event>
 7    1  0.3050261E-013  0.7246167E+02  0.7816164E-02  0.1226708E+00
        -11   -1    0    0    0    0  0.00000000000E+00  0.00000000000E+00  0.45593999997E+02  0.45594000000E+02  0.51100000000E-03 0.  1.
         11   -1    0    0    0    0 -0.00000000000E+00 -0.00000000000E+00 -0.45593999997E+02  0.45594000000E+02  0.51100000000E-03 0. -1.
    9900012    2    1    2    0    0  0.12908806592E+02 -0.50528677901E+01  0.12589945809E+02  0.72461668378E+02  0.70000127773E+02 0.  0.
         12    1    1    2    0    0 -0.12908806592E+02  0.50528677901E+01 -0.12589945809E+02  0.18726331622E+02  0.00000000000E+00 0. -1.
         11    1    3    3    0    0  0.85244769113E+01 -0.72798601681E+00 -0.17350600165E+02  0.19345283575E+02  0.51100000000E-03 0. -1.
        -11    1    3    3    0    0 -0.19605282457E+01  0.81846411355E+01 -0.86421575642E+01  0.12063121866E+02  0.51100000000E-03 0.  1.
        -12    1    3    3    0    0  0.63448579260E+01 -0.12509522909E+02  0.38582703538E+02  0.41053262938E+02  0.00000000000E+00 0.  1.
</event>
<event>
 7    1  0.3050261E-013  0.7246166E+02  0.7816164E-02  0.1226708E+00
        -11   -1    0    0    0    0  0.00000000000E+00  0.00000000000E+00  0.45593999997E+02  0.45594000000E+02  0.51100000000E-03 0.  1.
         11   -1    0    0    0    0 -0.00000000000E+00 -0.00000000000E+00 -0.45593999997E+02  0.45594000000E+02  0.51100000000E-03 0. -1.
    9900012    2    1    2    0    0  0.12319286017E+02  0.93709040811E+01  0.10540260060E+02  0.72461662040E+02  0.70000119515E+02 0.  0.
         12    1    1    2    0    0 -0.12319286017E+02 -0.93709040811E+01 -0.10540260060E+02  0.18726337960E+02  0.00000000000E+00 0. -1.
         11    1    3    3    0    0  0.82329491860E+01 -0.18882771227E+02  0.16601641544E+02  0.26456662748E+02  0.51100000000E-03 0. -1.
        -11    1    3    3    0    0  0.70689628014E+01 -0.68775957963E+01  0.14142954269E+01  0.99635230135E+01  0.51100000000E-03 0.  1.
         12    1    3    3    0    0 -0.29826259704E+01  0.35131271104E+02 -0.74756769113E+01  0.36041476279E+02  0.00000000000E+00 0. -1.
</event>
<event>
 7    1  0.3050261E-013  0.7246141E+02  0.7816164E-02  0.1226708E+00
        -11   -1    0    0    0    0  0.00000000000E+00  0.00000000000E+00  0.45593999997E+02  0.45594000000E+02  0.51100000000E-03 0. -1.
         11   -1    0    0    0    0 -0.00000000000E+00 -0.00000000000E+00 -0.45593999997E+02  0.45594000000E+02  0.51100000000E-03 0.  1.
    9900012    2    1    2    0    0 -0.13291505182E+02  0.14234775280E+01 -0.13114683950E+02  0.72461405718E+02  0.69999785609E+02 0.  0.
         12    1    1    2    0    0  0.13291505182E+02 -0.14234775280E+01  0.13114683950E+02  0.18726594282E+02  0.00000000000E+00 0. -1.
         11    1    3    3    0    0 -0.78491301626E+01 -0.13171294361E+01  0.10060313483E+02  0.12827844008E+02  0.51100000000E-03 0. -1.
        -11    1    3    3    0    0 -0.24670622054E+02  0.48219438386E+01  0.48319259309E+01  0.25597621831E+02  0.51100000000E-03 0.  1.
         12    1    3    3    0    0  0.19228247034E+02 -0.20813368745E+01 -0.28006923363E+02  0.34035939880E+02  0.00000000000E+00 0. -1.
</event>
<event>
 7    1  0.3050261E-013  0.7246158E+02  0.7816164E-02  0.1226708E+00
        -11   -1    0    0    0    0  0.00000000000E+00  0.00000000000E+00  0.45593999997E+02  0.45594000000E+02  0.51100000000E-03 0. -1.
         11   -1    0    0    0    0 -0.00000000000E+00 -0.00000000000E+00 -0.45593999997E+02  0.45594000000E+02  0.51100000000E-03 0.  1.
    9900012    2    1    2    0    0 -0.12283200009E+02  0.13943962689E+02  0.23168027203E+01  0.72461583558E+02  0.70000017278E+02 0.  0.
         12    1    1    2    0    0  0.12283200009E+02 -0.13943962689E+02 -0.23168027203E+01  0.18726416442E+02  0.00000000000E+00 0. -1.
         11    1    3    3    0    0  0.16881604965E+01  0.59457013742E+01 -0.19228371748E+02  0.20197314946E+02  0.51100000000E-03 0. -1.
        -11    1    3    3    0    0  0.13088406321E+02  0.11068076613E+02 -0.61824201328E+00  0.17151994735E+02  0.51100000000E-03 0.  1.
         12    1    3    3    0    0 -0.27059766826E+02 -0.30698152980E+01  0.22163416482E+02  0.35112273877E+02  0.00000000000E+00 0. -1.
</event>
<event>
 7    1  0.3050261E-013  0.7246159E+02  0.7816164E-02  0.1226708E+00
        -11   -1    0    0    0    0  0.00000000000E+00  0.00000000000E+00  0.45593999997E+02  0.45594000000E+02  0.51100000000E-03 0. -1.
         11   -1    0    0    0    0 -0.00000000000E+00 -0.00000000000E+00 -0.45593999997E+02  0.45594000000E+02  0.51100000000E-03 0.  1.
    9900012    2    1    2    0    0  0.12431068423E+02  0.12612909522E+02 -0.60878262915E+01  0.72461586096E+02  0.70000020585E+02 0.  0.
         12    1    1    2    0    0 -0.12431068423E+02 -0.12612909522E+02  0.60878262915E+01  0.18726413904E+02  0.00000000000E+00 0. -1.
         11    1    3    3    0    0  0.10402835400E+02  0.19792561179E+02 -0.12622687270E+02  0.25676773484E+02  0.51100000000E-03 0. -1.
        -11    1    3    3    0    0  0.13280055522E+02  0.24380652975E+01 -0.15299886714E+02  0.20405650462E+02  0.51100000000E-03 0.  1.
         12    1    3    3    0    0 -0.11251822498E+02 -0.96177169551E+01  0.21834747692E+02  0.26379162150E+02  0.00000000000E+00 0. -1.
</event>
<event>
 7    1  0.3050261E-013  0.7246159E+02  0.7816164E-02  0.1226708E+00
        -11   -1    0    0    0    0  0.00000000000E+00  0.00000000000E+00  0.45593999997E+02  0.45594000000E+02  0.51100000000E-03 0. -1.
         11   -1    0    0    0    0 -0.00000000000E+00 -0.00000000000E+00 -0.45593999997E+02  0.45594000000E+02  0.51100000000E-03 0.  1.
    9900012    2    1    2    0    0  0.23150003734E+00 -0.31064007128E+01 -0.18465510407E+02  0.72461591048E+02  0.70000027035E+02 0.  0.
         12    1    1    2    0    0 -0.23150003734E+00  0.31064007128E+01  0.18465510407E+02  0.18726408952E+02  0.00000000000E+00 0. -1.
         11    1    3    3    0    0 -0.13897262924E+02  0.13322336065E+02 -0.11705842766E+02  0.22530985556E+02  0.51100000000E-03 0. -1.
        -11    1    3    3    0    0  0.10477212855E+02  0.66635779952E+01  0.13965847735E+02  0.18687433320E+02  0.51100000000E-03 0.  1.
        -12    1    3    3    0    0  0.36515501073E+01 -0.23092314772E+02 -0.20725515376E+02  0.31243172171E+02  0.00000000000E+00 0.  1.
</event>
<event>
 7    1  0.3050261E-013  0.7246151E+02  0.7816164E-02  0.1226708E+00
        -11   -1    0    0    0    0  0.00000000000E+00  0.00000000000E+00  0.45593999997E+02  0.45594000000E+02  0.51100000000E-03 0.  1.
         11   -1    0    0    0    0 -0.00000000000E+00 -0.00000000000E+00 -0.45593999997E+02  0.45594000000E+02  0.51100000000E-03 0. -1.
    9900012    2    1    2    0    0  0.63648143900E+01  0.13782951921E+02  0.10963612179E+02  0.72461510263E+02  0.69999921797E+02 0.  0.
         12    1    1    2    0    0 -0.63648143900E+01 -0.13782951921E+02 -0.10963612179E+02  0.18726489737E+02  0.00000000000E+00 0. -1.
         11    1    3    3    0    0  0.11782012676E+00  0.13250143233E+02 -0.17158749679E+02  0.21679549536E+02  0.51100000000E-03 0. -1.
        -11    1    3    3    0    0  0.12974607075E+02 -0.60404078478E+01 -0.59023633408E+01  0.15481112653E+02  0.51100000000E-03 0.  1.
        -12    1    3    3    0    0 -0.67276128118E+01  0.65732165359E+01  0.34024725199E+02  0.35300848073E+02  0.00000000000E+00 0.  1.
</event>
<event>
 7    1  0.3050261E-013  0.7246163E+02  0.7816164E-02  0.1226708E+00
        -11   -1    0    0    0    0  0.00000000000E+00  0.00000000000E+00  0.45593999997E+02  0.45594000000E+02  0.51100000000E-03 0. -1.
         11   -1    0    0    0    0 -0.00000000000E+00 -0.00000000000E+00 -0.45593999997E+02  0.45594000000E+02  0.51100000000E-03 0.  1.
    9900012    2    1    2    0    0 -0.14724293172E+02  0.15575495020E+01 -0.11465005173E+02  0.72461625191E+02  0.70000071513E+02 0.  0.
         12    1    1    2    0    0  0.14724293172E+02 -0.15575495020E+01  0.11465005173E+02  0.18726374809E+02  0.00000000000E+00 0. -1.
         11    1    3    3    0    0  0.80517946530E+01  0.88734446220E+01  0.20107954366E+02  0.23407247716E+02  0.51100000000E-03 0. -1.
        -11    1    3    3    0    0  0.52675451075E+01 -0.19215839138E+01  0.10426692070E+01  0.57032162447E+01  0.51100000000E-03 0.  1.
        -12    1    3    3    0    0 -0.28043632933E+02 -0.53943112062E+01 -0.32615628747E+02  0.43351161230E+02  0.00000000000E+00 0.  1.
</event>
<event>
 7    1  0.3050261E-013  0.7246150E+02  0.7816164E-02  0.1226708E+00
        -11   -1    0    0    0    0  0.00000000000E+00  0.00000000000E+00  0.45593999997E+02  0.45594000000E+02  0.51100000000E-03 0.  1.
         11   -1    0    0    0    0 -0.00000000000E+00 -0.00000000000E+00 -0.45593999997E+02  0.45594000000E+02  0.51100000000E-03 0. -1.
    9900012    2    1    2    0    0 -0.11313555379E+02  0.13736594277E+02  0.58302030045E+01  0.72461499400E+02  0.69999907647E+02 0.  0.
         12    1    1    2    0    0  0.11313555379E+02 -0.13736594277E+02 -0.58302030045E+01  0.18726500600E+02  0.00000000000E+00 0. -1.
         11    1    3    3    0    0 -0.13566655234E+02 -0.21894842281E+01 -0.14978569930E+02  0.20327457609E+02  0.51100000000E-03 0. -1.
        -11    1    3    3    0    0 -0.19645001528E+02  0.55645342613E+01  0.34311504175E+00  0.20420770181E+02  0.51100000000E-03 0.  1.
         12    1    3    3    0    0  0.21898101383E+02  0.10361544244E+02  0.20465657893E+02  0.31713271611E+02  0.00000000000E+00 0. -1.
</event>
<event>
 7    1  0.3050261E-013  0.7246205E+02  0.7816164E-02  0.1226707E+00
        -11   -1    0    0    0    0  0.00000000000E+00  0.00000000000E+00  0.45593999997E+02  0.45594000000E+02  0.51100000000E-03 0.  1.
         11   -1    0    0    0    0 -0.00000000000E+00 -0.00000000000E+00 -0.45593999997E+02  0.45594000000E+02  0.51100000000E-03 0. -1.
    9900012    2    1    2    0    0 -0.10771489043E+02 -0.11235409747E+02  0.10411616001E+02  0.72462051262E+02  0.70000626547E+02 0.  0.
         12    1    1    2    0    0  0.10771489043E+02  0.11235409747E+02 -0.10411616001E+02  0.18725948738E+02  0.00000000000E+00 0. -1.
         11    1    3    3    0    0  0.14693485554E+02 -0.27718972579E+02  0.90842098991E+01  0.32661335372E+02  0.51100000000E-03 0.  1.
        -11    1    3    3    0    0 -0.25735844554E+01  0.70806115777E+01 -0.10052474315E+02  0.12562270391E+02  0.51100000000E-03 0. -1.
        -12    1    3    3    0    0 -0.22891390142E+02  0.94029512544E+01  0.11379880417E+02  0.27238445499E+02  0.00000000000E+00 0.  1.
</event>
<event>
 7    1  0.3050261E-013  0.7246160E+02  0.7816164E-02  0.1226708E+00
        -11   -1    0    0    0    0  0.00000000000E+00  0.00000000000E+00  0.45593999997E+02  0.45594000000E+02  0.51100000000E-03 0. -1.
         11   -1    0    0    0    0 -0.00000000000E+00 -0.00000000000E+00 -0.45593999997E+02  0.45594000000E+02  0.51100000000E-03 0.  1.
    9900012    2    1    2    0    0  0.17229223111E+02  0.67260018085E+01  0.29313399157E+01  0.72461601974E+02  0.70000041268E+02 0.  0.
         12    1    1    2    0    0 -0.17229223111E+02 -0.67260018085E+01 -0.29313399157E+01  0.18726398026E+02  0.00000000000E+00 0. -1.
         11    1    3    3    0    0  0.33571193018E+01 -0.49776686713E+01  0.10120842476E+02  0.11767705302E+02  0.51100000000E-03 0. -1.
        -11    1    3    3    0    0  0.35482271477E+02  0.40606496560E+01 -0.11189154031E+02  0.37425628024E+02  0.51100000000E-03 0.  1.
         12    1    3    3    0    0 -0.21610167668E+02  0.76430208238E+01  0.39996514714E+01  0.23268268647E+02  0.00000000000E+00 0. -1.
</event>
<event>
 7    1  0.3050261E-013  0.7246155E+02  0.7816164E-02  0.1226708E+00
        -11   -1    0    0    0    0  0.00000000000E+00  0.00000000000E+00  0.45593999997E+02  0.45594000000E+02  0.51100000000E-03 0.  1.
         11   -1    0    0    0    0 -0.00000000000E+00 -0.00000000000E+00 -0.45593999997E+02  0.45594000000E+02  0.51100000000E-03 0. -1.
    9900012    2    1    2    0    0  0.95841029877E+01  0.13495810158E+02  0.87571587040E+01  0.72461554783E+02  0.69999979794E+02 0.  0.
         12    1    1    2    0    0 -0.95841029877E+01 -0.13495810158E+02 -0.87571587040E+01  0.18726445217E+02  0.00000000000E+00 0. -1.
         11    1    3    3    0    0 -0.57290751727E+01 -0.67537726624E+01  0.19666464148E+02  0.21568624431E+02  0.51100000000E-03 0. -1.
        -11    1    3    3    0    0 -0.94825763939E+01  0.45769831279E+01  0.10273098569E+02  0.14710696247E+02  0.51100000000E-03 0.  1.
         12    1    3    3    0    0  0.24795754554E+02  0.15672599692E+02 -0.21182404013E+02  0.36182234104E+02  0.00000000000E+00 0. -1.
</event>
<event>
 7    1  0.3050261E-013  0.7246164E+02  0.7816164E-02  0.1226708E+00
        -11   -1    0    0    0    0  0.00000000000E+00  0.00000000000E+00  0.45593999997E+02  0.45594000000E+02  0.51100000000E-03 0.  1.
         11   -1    0    0    0    0 -0.00000000000E+00 -0.00000000000E+00 -0.45593999997E+02  0.45594000000E+02  0.51100000000E-03 0. -1.
    9900012    2    1    2    0    0  0.14472628289E+02  0.87736063087E+01  0.80151903540E+01  0.72461643877E+02  0.70000095855E+02 0.  0.
         12    1    1    2    0    0 -0.14472628289E+02 -0.87736063087E+01 -0.80151903540E+01  0.18726356123E+02  0.00000000000E+00 0. -1.
         11    1    3    3    0    0  0.64480711612E+01  0.77319067431E+01 -0.87826576257E+01  0.13360205044E+02  0.51100000000E-03 0. -1.
        -11    1    3    3    0    0  0.13528293775E+02  0.24966667117E+02  0.19435084646E+02  0.34410343137E+02  0.51100000000E-03 0.  1.
        -12    1    3    3    0    0 -0.55037366474E+01 -0.23924967551E+02 -0.26372366658E+01  0.24691095696E+02  0.00000000000E+00 0.  1.
</event>
<event>
 7    1  0.3050261E-013  0.7246157E+02  0.7816164E-02  0.1226708E+00
        -11   -1    0    0    0    0  0.00000000000E+00  0.00000000000E+00  0.45593999997E+02  0.45594000000E+02  0.51100000000E-03 0. -1.
         11   -1    0    0    0    0 -0.00000000000E+00 -0.00000000000E+00 -0.45593999997E+02  0.45594000000E+02  0.51100000000E-03 0.  1.
    9900012    2    1    2    0    0 -0.15300534222E+02 -0.47888390534E+01  0.96767705871E+01  0.72461569055E+02  0.69999998385E+02 0.  0.
         12    1    1    2    0    0  0.15300534222E+02  0.47888390534E+01 -0.96767705871E+01  0.18726430945E+02  0.00000000000E+00 0. -1.
         11    1    3    3    0    0  0.87640573036E+01 -0.70605199080E+00 -0.77636380282E+01  0.11729504914E+02  0.51100000000E-03 0.  1.
        -11    1    3    3    0    0 -0.25666522422E+02 -0.63861537172E+00 -0.13877267398E+02  0.29184871998E+02  0.51100000000E-03 0. -1.
         12    1    3    3    0    0  0.16019308966E+01 -0.34441716909E+01  0.31317676013E+02  0.31547192143E+02  0.00000000000E+00 0. -1.
</event>
<event>
 7    1  0.3050261E-013  0.7246116E+02  0.7816164E-02  0.1226709E+00
        -11   -1    0    0    0    0  0.00000000000E+00  0.00000000000E+00  0.45593999997E+02  0.45594000000E+02  0.51100000000E-03 0. -1.
         11   -1    0    0    0    0 -0.00000000000E+00 -0.00000000000E+00 -0.45593999997E+02  0.45594000000E+02  0.51100000000E-03 0.  1.
    9900012    2    1    2    0    0  0.95867109445E+01 -0.11971752601E+02 -0.10745546351E+02  0.72461156874E+02  0.69999461442E+02 0.  0.
         12    1    1    2    0    0 -0.95867109445E+01  0.11971752601E+02  0.10745546351E+02  0.18726843126E+02  0.00000000000E+00 0. -1.
         11    1    3    3    0    0  0.15018616749E+02 -0.16751995680E+01  0.11049659053E+02  0.18720579801E+02  0.51100000000E-03 0. -1.
        -11    1    3    3    0    0  0.82059714801E+01 -0.16937310364E+02  0.78876154387E+01  0.20406492297E+02  0.51100000000E-03 0.  1.
        -12    1    3    3    0    0 -0.13637877284E+02  0.66407573310E+01 -0.29682820842E+02  0.33334084776E+02  0.00000000000E+00 0.  1.
</event>
<event>
 7    1  0.3050261E-013  0.7246168E+02  0.7816164E-02  0.1226708E+00
        -11   -1    0    0    0    0  0.00000000000E+00  0.00000000000E+00  0.45593999997E+02  0.45594000000E+02  0.51100000000E-03 0. -1.
         11   -1    0    0    0    0 -0.00000000000E+00 -0.00000000000E+00 -0.45593999997E+02  0.45594000000E+02  0.51100000000E-03 0.  1.
    9900012    2    1    2    0    0  0.12049096886E+02 -0.13829302876E+02 -0.37742362394E+01  0.72461675935E+02  0.70000137616E+02 0.  0.
         12    1    1    2    0    0 -0.12049096886E+02  0.13829302876E+02  0.37742362394E+01  0.18726324065E+02  0.00000000000E+00 0. -1.
         11    1    3    3    0    0 -0.86743151188E+01 -0.74739738141E+01  0.63082442898E+01  0.13072795173E+02  0.51100000000E-03 0. -1.
        -11    1    3    3    0    0  0.31370499549E+02 -0.19247747920E+02  0.46584277095E+01  0.37098315204E+02  0.51100000000E-03 0.  1.
        -12    1    3    3    0    0 -0.10647087545E+02  0.12892418858E+02 -0.14740908239E+02  0.22290565558E+02  0.00000000000E+00 0.  1.
</event>
<event>
 7    1  0.3050261E-013  0.7246158E+02  0.7816164E-02  0.1226708E+00
        -11   -1    0    0    0    0  0.00000000000E+00  0.00000000000E+00  0.45593999997E+02  0.45594000000E+02  0.51100000000E-03 0. -1.
         11   -1    0    0    0    0 -0.00000000000E+00 -0.00000000000E+00 -0.45593999997E+02  0.45594000000E+02  0.51100000000E-03 0.  1.
    9900012    2    1    2    0    0 -0.92911465008E+01 -0.13950292665E+02 -0.83512065396E+01  0.72461582312E+02  0.70000015655E+02 0.  0.
         12    1    1    2    0    0  0.92911465008E+01  0.13950292665E+02  0.83512065396E+01  0.18726417688E+02  0.00000000000E+00 0. -1.
         11    1    3    3    0    0 -0.11037815304E+02  0.49302876832E+01  0.14785243210E+02  0.19098285797E+02  0.51100000000E-03 0. -1.
        -11    1    3    3    0    0 -0.48158121774E+00 -0.35073448220E+01  0.13295032908E+02  0.13758317064E+02  0.51100000000E-03 0.  1.
        -12    1    3    3    0    0  0.22282500213E+01 -0.15373235527E+02 -0.36431482657E+02  0.39604979451E+02  0.00000000000E+00 0.  1.
</event>
<event>
 7    1  0.3050261E-013  0.7246180E+02  0.7816164E-02  0.1226707E+00
        -11   -1    0    0    0    0  0.00000000000E+00  0.00000000000E+00  0.45593999997E+02  0.45594000000E+02  0.51100000000E-03 0. -1.
         11   -1    0    0    0    0 -0.00000000000E+00 -0.00000000000E+00 -0.45593999997E+02  0.45594000000E+02  0.51100000000E-03 0.  1.
    9900012    2    1    2    0    0  0.18637252213E+02 -0.15831505699E+01 -0.90389830431E+00  0.72461799961E+02  0.70000299183E+02 0.  0.
         12    1    1    2    0    0 -0.18637252213E+02  0.15831505699E+01  0.90389830431E+00  0.18726200039E+02  0.00000000000E+00 0. -1.
         11    1    3    3    0    0 -0.36568176538E+01 -0.27559491122E+01 -0.19404253736E+01  0.49732104072E+01  0.51100000000E-03 0. -1.
        -11    1    3    3    0    0 -0.18526306473E+02  0.15561893035E+02  0.69924722922E+00  0.24205071645E+02  0.51100000000E-03 0.  1.
         12    1    3    3    0    0  0.40820376340E+02 -0.14389094493E+02  0.33727984006E+00  0.43283517909E+02  0.00000000000E+00 0. -1.
</event>
<event>
 7    1  0.3050261E-013  0.7246163E+02  0.7816164E-02  0.1226708E+00
        -11   -1    0    0    0    0  0.00000000000E+00  0.00000000000E+00  0.45593999997E+02  0.45594000000E+02  0.51100000000E-03 0. -1.
         11   -1    0    0    0    0 -0.00000000000E+00 -0.00000000000E+00 -0.45593999997E+02  0.45594000000E+02  0.51100000000E-03 0.  1.
    9900012    2    1    2    0    0 -0.55779219780E+01  0.94110200362E+01 -0.15198560532E+02  0.72461634790E+02  0.70000084018E+02 0.  0.
         12    1    1    2    0    0  0.55779219780E+01 -0.94110200362E+01  0.15198560532E+02  0.18726365210E+02  0.00000000000E+00 0. -1.
         11    1    3    3    0    0 -0.93488355539E+01  0.75356932788E+01  0.54789318114E+01  0.13198715599E+02  0.51100000000E-03 0. -1.
        -11    1    3    3    0    0 -0.32552465408E+01  0.20011207072E+02 -0.31155002221E+02  0.37170945672E+02  0.51100000000E-03 0.  1.
        -12    1    3    3    0    0  0.70261601167E+01 -0.18135880315E+02  0.10477509877E+02  0.22091973520E+02  0.00000000000E+00 0.  1.
</event>
<event>
 7    1  0.3050261E-013  0.7246155E+02  0.7816164E-02  0.1226708E+00
        -11   -1    0    0    0    0  0.00000000000E+00  0.00000000000E+00  0.45593999997E+02  0.45594000000E+02  0.51100000000E-03 0. -1.
         11   -1    0    0    0    0 -0.00000000000E+00 -0.00000000000E+00 -0.45593999997E+02  0.45594000000E+02  0.51100000000E-03 0.  1.
    9900012    2    1    2    0    0 -0.46926174375E+01  0.12616976905E+02 -0.13018112787E+02  0.72461547448E+02  0.69999970239E+02 0.  0.
         12    1    1    2    0    0  0.46926174375E+01 -0.12616976905E+02  0.13018112787E+02  0.18726452552E+02  0.00000000000E+00 0. -1.
         11    1    3    3    0    0  0.32245500317E+01 -0.12135768598E+01  0.83765119188E+01  0.90573971917E+01  0.51100000000E-03 0. -1.
        -11    1    3    3    0    0 -0.32702442126E+02  0.37250385146E+01 -0.12220532258E+02  0.35109358324E+02  0.51100000000E-03 0.  1.
         12    1    3    3    0    0  0.24785274657E+02  0.10105515250E+02 -0.91740924475E+01  0.28294791933E+02  0.00000000000E+00 0. -1.
</event>
<event>
 7    1  0.3050261E-013  0.7246155E+02  0.7816164E-02  0.1226708E+00
        -11   -1    0    0    0    0  0.00000000000E+00  0.00000000000E+00  0.45593999997E+02  0.45594000000E+02  0.51100000000E-03 0.  1.
         11   -1    0    0    0    0 -0.00000000000E+00 -0.00000000000E+00 -0.45593999997E+02  0.45594000000E+02  0.51100000000E-03 0. -1.
    9900012    2    1    2    0    0 -0.16466025802E+02  0.11286928431E+01  0.88473670499E+01  0.72461551939E+02  0.69999976089E+02 0.  0.
         12    1    1    2    0    0  0.16466025802E+02 -0.11286928431E+01 -0.88473670499E+01  0.18726448061E+02  0.00000000000E+00 0. -1.
         11    1    3    3    0    0 -0.77831345322E+01 -0.41919326038E+01 -0.15679977534E+02  0.18000310492E+02  0.51100000000E-03 0. -1.
        -11    1    3    3    0    0 -0.27887939609E+02 -0.18876905268E+01  0.11949179546E+02  0.30398740817E+02  0.51100000000E-03 0.  1.
        -12    1    3    3    0    0  0.19205048339E+02  0.72083159737E+01  0.12578165037E+02  0.24062500630E+02  0.00000000000E+00 0.  1.
</event>
<event>
 7    1  0.3050261E-013  0.7246160E+02  0.7816164E-02  0.1226708E+00
        -11   -1    0    0    0    0  0.00000000000E+00  0.00000000000E+00  0.45593999997E+02  0.45594000000E+02  0.51100000000E-03 0. -1.
         11   -1    0    0    0    0 -0.00000000000E+00 -0.00000000000E+00 -0.45593999997E+02  0.45594000000E+02  0.51100000000E-03 0.  1.
    9900012    2    1    2    0    0  0.10216719237E+02  0.18348397838E+01 -0.15586210418E+02  0.72461603011E+02  0.70000042619E+02 0.  0.
         12    1    1    2    0    0 -0.10216719237E+02 -0.18348397838E+01  0.15586210418E+02  0.18726396989E+02  0.00000000000E+00 0. -1.
         11    1    3    3    0    0 -0.53961525155E+01 -0.21630735693E+02 -0.91346571966E+01  0.24092512342E+02  0.51100000000E-03 0. -1.
        -11    1    3    3    0    0  0.60690447919E+01  0.61837838480E+01 -0.21737719165E+02  0.23400874388E+02  0.51100000000E-03 0.  1.
         12    1    3    3    0    0  0.95438269606E+01  0.17281791629E+02  0.15286165943E+02  0.24968216280E+02  0.00000000000E+00 0. -1.
</event>
<event>
 7    1  0.3050261E-013  0.7246158E+02  0.7816164E-02  0.1226708E+00
        -11   -1    0    0    0    0  0.00000000000E+00  0.00000000000E+00  0.45593999997E+02  0.45594000000E+02  0.51100000000E-03 0. -1.
         11   -1    0    0    0    0 -0.00000000000E+00 -0.00000000000E+00 -0.45593999997E+02  0.45594000000E+02  0.51100000000E-03 0.  1.
    9900012    2    1    2    0    0  0.11974556156E+02 -0.64266659704E+01 -0.12883580508E+02  0.72461583436E+02  0.70000017119E+02 0.  0.
         12    1    1    2    0    0 -0.11974556156E+02  0.64266659704E+01  0.12883580508E+02  0.18726416564E+02  0.00000000000E+00 0. -1.
         11    1    3    3    0    0  0.70201479205E+01 -0.10309664667E+02 -0.35624914789E+00  0.12477923549E+02  0.51100000000E-03 0. -1.
        -11    1    3    3    0    0  0.21135629169E+02  0.18774372357E+02  0.85383638315E+01  0.29531263687E+02  0.51100000000E-03 0.  1.
         12    1    3    3    0    0 -0.16181220934E+02 -0.14891373660E+02 -0.21065695192E+02  0.30452396200E+02  0.00000000000E+00 0. -1.
</event>
<event>
 7    1  0.3050261E-013  0.7246151E+02  0.7816164E-02  0.1226708E+00
        -11   -1    0    0    0    0  0.00000000000E+00  0.00000000000E+00  0.45593999997E+02  0.45594000000E+02  0.51100000000E-03 0. -1.
         11   -1    0    0    0    0 -0.00000000000E+00 -0.00000000000E+00 -0.45593999997E+02  0.45594000000E+02  0.51100000000E-03 0.  1.
    9900012    2    1    2    0    0 -0.10254039522E+02  0.14589720725E+02  0.57163103012E+01  0.72461508583E+02  0.69999919609E+02 0.  0.
         12    1    1    2    0    0  0.10254039522E+02 -0.14589720725E+02 -0.57163103012E+01  0.18726491417E+02  0.00000000000E+00 0. -1.
         11    1    3    3    0    0 -0.63789639364E+01 -0.17445298187E+01  0.18280175185E+01  0.68612107896E+01  0.51100000000E-03 0. -1.
        -11    1    3    3    0    0  0.16152071415E+02 -0.18942805798E+02  0.23647824891E+01  0.25006229203E+02  0.51100000000E-03 0.  1.
         12    1    3    3    0    0 -0.20027147000E+02  0.35277056341E+02  0.15235102936E+01  0.40594068590E+02  0.00000000000E+00 0. -1.
</event>
<event>
 7    1  0.3050261E-013  0.7246154E+02  0.7816164E-02  0.1226708E+00
        -11   -1    0    0    0    0  0.00000000000E+00  0.00000000000E+00  0.45593999997E+02  0.45594000000E+02  0.51100000000E-03 0. -1.
         11   -1    0    0    0    0 -0.00000000000E+00 -0.00000000000E+00 -0.45593999997E+02  0.45594000000E+02  0.51100000000E-03 0.  1.
    9900012    2    1    2    0    0 -0.10217883153E+02 -0.11944142602E+02  0.10179031233E+02  0.72461538629E+02  0.69999958750E+02 0.  0.
         12    1    1    2    0    0  0.10217883153E+02  0.11944142602E+02 -0.10179031233E+02  0.18726461371E+02  0.00000000000E+00 0. -1.
         11    1    3    3    0    0  0.47961629247E+01  0.15127046532E+02  0.23683321259E+02  0.28508427205E+02  0.51100000000E-03 0. -1.
        -11    1    3    3    0    0 -0.15669703976E+02 -0.16778214405E+01 -0.14193005087E+01  0.15823056648E+02  0.51100000000E-03 0.  1.
        -12    1    3    3    0    0  0.65565789767E+00 -0.25393367693E+02 -0.12084989518E+02  0.28130054777E+02  0.00000000000E+00 0.  1.
</event>
<event>
 7    1  0.3050261E-013  0.7246159E+02  0.7816164E-02  0.1226708E+00
        -11   -1    0    0    0    0  0.00000000000E+00  0.00000000000E+00  0.45593999997E+02  0.45594000000E+02  0.51100000000E-03 0.  1.
         11   -1    0    0    0    0 -0.00000000000E+00 -0.00000000000E+00 -0.45593999997E+02  0.45594000000E+02  0.51100000000E-03 0. -1.
    9900012    2    1    2    0    0  0.83243189835E+01  0.35850801215E+01  0.16386928386E+02  0.72461587958E+02  0.70000023010E+02 0.  0.
         12    1    1    2    0    0 -0.83243189835E+01 -0.35850801215E+01 -0.16386928386E+02  0.18726412042E+02  0.00000000000E+00 0. -1.
         11    1    3    3    0    0  0.19260789040E+02 -0.41780809048E+01 -0.60959156831E+01  0.20629942869E+02  0.51100000000E-03 0. -1.
        -11    1    3    3    0    0  0.88028589030E+00 -0.16787392827E+02  0.17251754377E+02  0.24087641863E+02  0.51100000000E-03 0.  1.
         12    1    3    3    0    0 -0.11816755947E+02  0.24550553853E+02  0.52310896923E+01  0.27744003226E+02  0.00000000000E+00 0. -1.
</event>
<event>
 7    1  0.3050261E-013  0.7246158E+02  0.7816164E-02  0.1226708E+00
        -11   -1    0    0    0    0  0.00000000000E+00  0.00000000000E+00  0.45593999997E+02  0.45594000000E+02  0.51100000000E-03 0. -1.
         11   -1    0    0    0    0 -0.00000000000E+00 -0.00000000000E+00 -0.45593999997E+02  0.45594000000E+02  0.51100000000E-03 0.  1.
    9900012    2    1    2    0    0 -0.16964272070E+02  0.28166600212E+01  0.74134165501E+01  0.72461578946E+02  0.70000011270E+02 0.  0.
         12    1    1    2    0    0  0.16964272070E+02 -0.28166600212E+01 -0.74134165501E+01  0.18726421054E+02  0.00000000000E+00 0. -1.
         11    1    3    3    0    0 -0.98104493309E+01 -0.20557823803E+02 -0.14341638896E+02  0.26917496950E+02  0.51100000000E-03 0. -1.
        -11    1    3    3    0    0 -0.74224778869E+01 -0.13667205248E+01 -0.50377800894E+01  0.90741573419E+01  0.51100000000E-03 0.  1.
        -12    1    3    3    0    0  0.26865514755E+00  0.24741204349E+02  0.26792835535E+02  0.36469924654E+02  0.00000000000E+00 0.  1.
</event>
<event>
 7    1  0.3050261E-013  0.7246148E+02  0.7816164E-02  0.1226708E+00
        -11   -1    0    0    0    0  0.00000000000E+00  0.00000000000E+00  0.45593999997E+02  0.45594000000E+02  0.51100000000E-03 0.  1.
         11   -1    0    0    0    0 -0.00000000000E+00 -0.00000000000E+00 -0.45593999997E+02  0.45594000000E+02  0.51100000000E-03 0. -1.
    9900012    2    1    2    0    0 -0.13243312998E+01  0.64277063753E+01  0.17538905555E+02  0.72461482152E+02  0.69999885178E+02 0.  0.
         12    1    1    2    0    0  0.13243312998E+01 -0.64277063753E+01 -0.17538905555E+02  0.18726517848E+02  0.00000000000E+00 0. -1.
         11    1    3    3    0    0  0.31264997022E+01  0.22290567543E+02 -0.15341170878E+01  0.22560982188E+02  0.51100000000E-03 0. -1.
        -11    1    3    3    0    0  0.24424855183E+01  0.14248985843E+02  0.10420026196E+02  0.17820670000E+02  0.51100000000E-03 0.  1.
         12    1    3    3    0    0 -0.68933165202E+01 -0.30111847010E+02  0.86529964473E+01  0.32079829964E+02  0.00000000000E+00 0. -1.
</event>
<event>
 7    1  0.3050261E-013  0.7246158E+02  0.7816164E-02  0.1226708E+00
        -11   -1    0    0    0    0  0.00000000000E+00  0.00000000000E+00  0.45593999997E+02  0.45594000000E+02  0.51100000000E-03 0.  1.
         11   -1    0    0    0    0 -0.00000000000E+00 -0.00000000000E+00 -0.45593999997E+02  0.45594000000E+02  0.51100000000E-03 0. -1.
    9900012    2    1    2    0    0 -0.17914169931E+02  0.26436745293E+01  0.47720317804E+01  0.72461580517E+02  0.70000013317E+02 0.  0.
         12    1    1    2    0    0  0.17914169931E+02 -0.26436745293E+01 -0.47720317804E+01  0.18726419483E+02  0.00000000000E+00 0. -1.
         11    1    3    3    0    0 -0.22232389994E+02 -0.40744149588E+01  0.12989970881E+02  0.26069510272E+02  0.51100000000E-03 0. -1.
        -11    1    3    3    0    0  0.13709313978E+02 -0.43147947021E+01  0.13871830387E+02  0.19974744594E+02  0.51100000000E-03 0.  1.
         12    1    3    3    0    0 -0.93910939155E+01  0.11032884190E+02 -0.22089769488E+02  0.26417325650E+02  0.00000000000E+00 0. -1.
</event>
<event>
 7    1  0.3050261E-013  0.7246112E+02  0.7816164E-02  0.1226709E+00
        -11   -1    0    0    0    0  0.00000000000E+00  0.00000000000E+00  0.45593999997E+02  0.45594000000E+02  0.51100000000E-03 0.  1.
         11   -1    0    0    0    0 -0.00000000000E+00 -0.00000000000E+00 -0.45593999997E+02  0.45594000000E+02  0.51100000000E-03 0. -1.
    9900012    2    1    2    0    0 -0.14753787547E+02 -0.65811580477E+01  0.94715379265E+01  0.72461123087E+02  0.69999417426E+02 0.  0.
         12    1    1    2    0    0  0.14753787547E+02  0.65811580477E+01 -0.94715379265E+01  0.18726876913E+02  0.00000000000E+00 0. -1.
         11    1    3    3    0    0 -0.78266371179E+01 -0.22775571296E+00  0.28807154310E+01  0.83430595644E+01  0.51100000000E-03 0. -1.
        -11    1    3    3    0    0  0.11122298164E+02 -0.19588772453E+02  0.26064839521E+02  0.34449983776E+02  0.51100000000E-03 0.  1.
         12    1    3    3    0    0 -0.18049448593E+02  0.13235370118E+02 -0.19474017026E+02  0.29668079746E+02  0.00000000000E+00 0. -1.
</event>
<event>
 7    1  0.3050261E-013  0.7246200E+02  0.7816164E-02  0.1226707E+00
        -11   -1    0    0    0    0  0.00000000000E+00  0.00000000000E+00  0.45593999997E+02  0.45594000000E+02  0.51100000000E-03 0.  1.
         11   -1    0    0    0    0 -0.00000000000E+00 -0.00000000000E+00 -0.45593999997E+02  0.45594000000E+02  0.51100000000E-03 0. -1.
    9900012    2    1    2    0    0 -0.15591470463E+02 -0.10076986585E+02 -0.24542976427E+01  0.72461997043E+02  0.70000555917E+02 0.  0.
         12    1    1    2    0    0  0.15591470463E+02  0.10076986585E+02  0.24542976427E+01  0.18726002957E+02  0.00000000000E+00 0. -1.
         11    1    3    3    0    0 -0.83339282581E+01  0.55843135906E+01  0.84322841750E+01  0.13105049987E+02  0.51100000000E-03 0. -1.
        -11    1    3    3    0    0 -0.22829816379E+02  0.12554561000E+02 -0.34422003968E+01  0.26280530086E+02  0.51100000000E-03 0.  1.
         12    1    3    3    0    0  0.15572274174E+02 -0.28215861175E+02 -0.74443814209E+01  0.33076416970E+02  0.00000000000E+00 0. -1.
</event>
<event>
 7    1  0.3050261E-013  0.7246157E+02  0.7816164E-02  0.1226708E+00
        -11   -1    0    0    0    0  0.00000000000E+00  0.00000000000E+00  0.45593999997E+02  0.45594000000E+02  0.51100000000E-03 0.  1.
         11   -1    0    0    0    0 -0.00000000000E+00 -0.00000000000E+00 -0.45593999997E+02  0.45594000000E+02  0.51100000000E-03 0. -1.
    9900012    2    1    2    0    0 -0.14208196139E+02 -0.11962761113E+02  0.23871903532E+01  0.72461570315E+02  0.70000000026E+02 0.  0.
         12    1    1    2    0    0  0.14208196139E+02  0.11962761113E+02 -0.23871903532E+01  0.18726429685E+02  0.00000000000E+00 0. -1.
         11    1    3    3    0    0  0.12621869455E+02  0.96810696887E+01 -0.93472420118E+01  0.18450084888E+02  0.51100000000E-03 0. -1.
        -11    1    3    3    0    0 -0.77795812377E+01 -0.84581866422E+01 -0.14831050268E+02  0.18762272192E+02  0.51100000000E-03 0.  1.
        -12    1    3    3    0    0 -0.19050484357E+02 -0.13185644159E+02  0.26565482633E+02  0.35249213235E+02  0.00000000000E+00 0.  1.
</event>
<event>
 7    1  0.3050261E-013  0.7246152E+02  0.7816164E-02  0.1226708E+00
        -11   -1    0    0    0    0  0.00000000000E+00  0.00000000000E+00  0.45593999997E+02  0.45594000000E+02  0.51100000000E-03 0. -1.
         11   -1    0    0    0    0 -0.00000000000E+00 -0.00000000000E+00 -0.45593999997E+02  0.45594000000E+02  0.51100000000E-03 0.  1.
    9900012    2    1    2    0    0  0.14614352936E+02 -0.10653873385E+02  0.48576517013E+01  0.72461518486E+02  0.69999932510E+02 0.  0.
         12    1    1    2    0    0 -0.14614352936E+02  0.10653873385E+02 -0.48576517013E+01  0.18726481514E+02  0.00000000000E+00 0. -1.
         11    1    3    3    0    0  0.39495824365E+01  0.16221041840E+02  0.96972977999E+01  0.19306967257E+02  0.51100000000E-03 0. -1.
        -11    1    3    3    0    0 -0.85032969055E+01  0.35038098067E+01  0.10619799465E+02  0.14048590049E+02  0.51100000000E-03 0.  1.
        -12    1    3    3    0    0  0.19168067405E+02 -0.30378725031E+02 -0.15459445564E+02  0.39105961179E+02  0.00000000000E+00 0.  1.
</event>
<event>
 7    1  0.3050261E-013  0.7246160E+02  0.7816164E-02  0.1226708E+00
        -11   -1    0    0    0    0  0.00000000000E+00  0.00000000000E+00  0.45593999997E+02  0.45594000000E+02  0.51100000000E-03 0.  1.
         11   -1    0    0    0    0 -0.00000000000E+00 -0.00000000000E+00 -0.45593999997E+02  0.45594000000E+02  0.51100000000E-03 0. -1.
    9900012    2    1    2    0    0  0.61778175324E+01 -0.94961316992E+01  0.14910933509E+02  0.72461604596E+02  0.70000044684E+02 0.  0.
         12    1    1    2    0    0 -0.61778175324E+01  0.94961316992E+01 -0.14910933509E+02  0.18726395404E+02  0.00000000000E+00 0. -1.
         11    1    3    3    0    0 -0.13224308153E+02  0.54576562979E+01  0.13105576319E+02  0.19401661509E+02  0.51100000000E-03 0. -1.
        -11    1    3    3    0    0 -0.11094404428E+02 -0.73347821301E+01  0.14030619847E+02  0.19332437303E+02  0.51100000000E-03 0.  1.
         12    1    3    3    0    0  0.30496530114E+02 -0.76190058671E+01 -0.12225262657E+02  0.33727505784E+02  0.00000000000E+00 0. -1.
</event>
<event>
 7    1  0.3050261E-013  0.7246176E+02  0.7816164E-02  0.1226708E+00
        -11   -1    0    0    0    0  0.00000000000E+00  0.00000000000E+00  0.45593999997E+02  0.45594000000E+02  0.51100000000E-03 0.  1.
         11   -1    0    0    0    0 -0.00000000000E+00 -0.00000000000E+00 -0.45593999997E+02  0.45594000000E+02  0.51100000000E-03 0. -1.
    9900012    2    1    2    0    0 -0.88243458890E+01 -0.40461607156E+01  0.16013480175E+02  0.72461760542E+02  0.70000247833E+02 0.  0.
         12    1    1    2    0    0  0.88243458890E+01  0.40461607156E+01 -0.16013480175E+02  0.18726239458E+02  0.00000000000E+00 0. -1.
         11    1    3    3    0    0 -0.23155523300E+02  0.61288472536E+01  0.19131446004E-01  0.23952899495E+02  0.51100000000E-03 0. -1.
        -11    1    3    3    0    0 -0.21488889688E+00  0.15327880862E+02  0.56019159001E+00  0.15339619416E+02  0.51100000000E-03 0.  1.
         12    1    3    3    0    0  0.14546066308E+02 -0.25502888831E+02  0.15434157139E+02  0.33169241631E+02  0.00000000000E+00 0. -1.
</event>
<event>
 7    1  0.3050261E-013  0.7246154E+02  0.7816164E-02  0.1226708E+00
        -11   -1    0    0    0    0  0.00000000000E+00  0.00000000000E+00  0.45593999997E+02  0.45594000000E+02  0.51100000000E-03 0.  1.
         11   -1    0    0    0    0 -0.00000000000E+00 -0.00000000000E+00 -0.45593999997E+02  0.45594000000E+02  0.51100000000E-03 0. -1.
    9900012    2    1    2    0    0  0.10623900157E+02 -0.12782776232E+02  0.86263380762E+01  0.72461539274E+02  0.69999959590E+02 0.  0.
         12    1    1    2    0    0 -0.10623900157E+02  0.12782776232E+02 -0.86263380762E+01  0.18726460726E+02  0.00000000000E+00 0. -1.
         11    1    3    3    0    0  0.19647725547E+02 -0.16071546180E+01 -0.29674535897E+01  0.19935441961E+02  0.51100000000E-03 0. -1.
        -11    1    3    3    0    0  0.50445529550E+01 -0.83549858823E+00  0.28062735825E+02  0.28524773700E+02  0.51100000000E-03 0.  1.
        -12    1    3    3    0    0 -0.14068378345E+02 -0.10340123026E+02 -0.16468944159E+02  0.24001323612E+02  0.00000000000E+00 0.  1.
</event>
<event>
 7    1  0.3050261E-013  0.7246154E+02  0.7816164E-02  0.1226708E+00
        -11   -1    0    0    0    0  0.00000000000E+00  0.00000000000E+00  0.45593999997E+02  0.45594000000E+02  0.51100000000E-03 0.  1.
         11   -1    0    0    0    0 -0.00000000000E+00 -0.00000000000E+00 -0.45593999997E+02  0.45594000000E+02  0.51100000000E-03 0. -1.
    9900012    2    1    2    0    0  0.14333387578E+02  0.85532141977E+01 -0.84898081338E+01  0.72461539717E+02  0.69999960167E+02 0.  0.
         12    1    1    2    0    0 -0.14333387578E+02 -0.85532141977E+01  0.84898081338E+01  0.18726460283E+02  0.00000000000E+00 0. -1.
         11    1    3    3    0    0  0.21830668437E+02  0.15348110740E+02  0.82442453584E+01  0.27930452368E+02  0.51100000000E-03 0. -1.
        -11    1    3    3    0    0  0.86790909604E+01 -0.10626081123E+01  0.96716703527E+01  0.13038288368E+02  0.51100000000E-03 0.  1.
         12    1    3    3    0    0 -0.16176371819E+02 -0.57322884302E+01 -0.26405723845E+02  0.31492798981E+02  0.00000000000E+00 0. -1.
</event>
<event>
 7    1  0.3050261E-013  0.7246149E+02  0.7816164E-02  0.1226708E+00
        -11   -1    0    0    0    0  0.00000000000E+00  0.00000000000E+00  0.45593999997E+02  0.45594000000E+02  0.51100000000E-03 0.  1.
         11   -1    0    0    0    0 -0.00000000000E+00 -0.00000000000E+00 -0.45593999997E+02  0.45594000000E+02  0.51100000000E-03 0. -1.
    9900012    2    1    2    0    0 -0.12052370587E+01 -0.21450068634E+01  0.18564175407E+02  0.72461487795E+02  0.69999892529E+02 0.  0.
         12    1    1    2    0    0  0.12052370587E+01  0.21450068634E+01 -0.18564175407E+02  0.18726512205E+02  0.00000000000E+00 0. -1.
         11    1    3    3    0    0 -0.33217374065E+01 -0.30501303755E+02 -0.26788487538E+01  0.30798371727E+02  0.51100000000E-03 0. -1.
        -11    1    3    3    0    0  0.10393743595E+02  0.60406857888E+01  0.65136327757E+01  0.13672863743E+02  0.51100000000E-03 0.  1.
        -12    1    3    3    0    0 -0.82772432475E+01  0.22315611102E+02  0.14729391385E+02  0.27990252325E+02  0.00000000000E+00 0.  1.
</event>
<event>
 7    1  0.3050261E-013  0.7246160E+02  0.7816164E-02  0.1226708E+00
        -11   -1    0    0    0    0  0.00000000000E+00  0.00000000000E+00  0.45593999997E+02  0.45594000000E+02  0.51100000000E-03 0.  1.
         11   -1    0    0    0    0 -0.00000000000E+00 -0.00000000000E+00 -0.45593999997E+02  0.45594000000E+02  0.51100000000E-03 0. -1.
    9900012    2    1    2    0    0  0.16491039193E+02  0.37178013109E+01  0.80561568378E+01  0.72461599298E+02  0.70000037783E+02 0.  0.
         12    1    1    2    0    0 -0.16491039193E+02 -0.37178013109E+01 -0.80561568378E+01  0.18726400702E+02  0.00000000000E+00 0. -1.
         11    1    3    3    0    0  0.87032779434E+01 -0.14394506837E+02  0.21797257884E+02  0.27533058775E+02  0.51100000000E-03 0. -1.
        -11    1    3    3    0    0  0.19783613798E+02  0.13867154190E+02  0.25084146556E+01  0.24289534466E+02  0.51100000000E-03 0.  1.
         12    1    3    3    0    0 -0.11995852549E+02  0.42451539578E+01 -0.16249515701E+02  0.20639006057E+02  0.00000000000E+00 0. -1.
</event>
<event>
 7    1  0.3050261E-013  0.7246157E+02  0.7816164E-02  0.1226708E+00
        -11   -1    0    0    0    0  0.00000000000E+00  0.00000000000E+00  0.45593999997E+02  0.45594000000E+02  0.51100000000E-03 0. -1.
         11   -1    0    0    0    0 -0.00000000000E+00 -0.00000000000E+00 -0.45593999997E+02  0.45594000000E+02  0.51100000000E-03 0.  1.
    9900012    2    1    2    0    0  0.90002011851E+01 -0.11285104216E+02  0.11929870168E+02  0.72461574800E+02  0.70000005870E+02 0.  0.
         12    1    1    2    0    0 -0.90002011851E+01  0.11285104216E+02 -0.11929870168E+02  0.18726425200E+02  0.00000000000E+00 0. -1.
         11    1    3    3    0    0  0.28095586159E+02 -0.15563329746E+02 -0.65765471300E+01  0.32784602587E+02  0.51100000000E-03 0. -1.
        -11    1    3    3    0    0  0.55990059470E+01  0.81804794406E+01  0.71216033211E+01  0.12205996297E+02  0.51100000000E-03 0.  1.
        -12    1    3    3    0    0 -0.24694390921E+02 -0.39022539108E+01  0.11384813977E+02  0.27470975917E+02  0.00000000000E+00 0.  1.
</event>
<event>
 7    1  0.3050261E-013  0.7246157E+02  0.7816164E-02  0.1226708E+00
        -11   -1    0    0    0    0  0.00000000000E+00  0.00000000000E+00  0.45593999997E+02  0.45594000000E+02  0.51100000000E-03 0.  1.
         11   -1    0    0    0    0 -0.00000000000E+00 -0.00000000000E+00 -0.45593999997E+02  0.45594000000E+02  0.51100000000E-03 0. -1.
    9900012    2    1    2    0    0  0.17311899064E+02  0.71036149933E+01  0.71823114058E+00  0.72461573455E+02  0.70000004117E+02 0.  0.
         12    1    1    2    0    0 -0.17311899064E+02 -0.71036149933E+01 -0.71823114058E+00  0.18726426545E+02  0.00000000000E+00 0. -1.
         11    1    3    3    0    0 -0.13925316611E+02 -0.13169470731E+02  0.75958645005E+01  0.20616657339E+02  0.51100000000E-03 0. -1.
        -11    1    3    3    0    0  0.11632792196E+02  0.25399047347E+02  0.49658265051E+01  0.28374158904E+02  0.51100000000E-03 0.  1.
        -12    1    3    3    0    0  0.19604423479E+02 -0.51259616221E+01 -0.11843459865E+02  0.23470757212E+02  0.00000000000E+00 0.  1.
</event>
<event>
 7    1  0.3050261E-013  0.7246155E+02  0.7816164E-02  0.1226708E+00
        -11   -1    0    0    0    0  0.00000000000E+00  0.00000000000E+00  0.45593999997E+02  0.45594000000E+02  0.51100000000E-03 0. -1.
         11   -1    0    0    0    0 -0.00000000000E+00 -0.00000000000E+00 -0.45593999997E+02  0.45594000000E+02  0.51100000000E-03 0.  1.
    9900012    2    1    2    0    0 -0.12352183639E+02  0.28495700217E+01 -0.13783444501E+02  0.72461552599E+02  0.69999976948E+02 0.  0.
         12    1    1    2    0    0  0.12352183639E+02 -0.28495700217E+01  0.13783444501E+02  0.18726447401E+02  0.00000000000E+00 0. -1.
         11    1    3    3    0    0  0.17813789498E+02  0.12880166947E+02  0.67090897879E+00  0.21992724160E+02  0.51100000000E-03 0. -1.
        -11    1    3    3    0    0 -0.69632836697E+01  0.60662415441E+00  0.11886789589E+02  0.13789527886E+02  0.51100000000E-03 0.  1.
        -12    1    3    3    0    0 -0.23202689468E+02 -0.10637221080E+02 -0.26341143069E+02  0.36679300552E+02  0.00000000000E+00 0.  1.
</event>
<event>
 7    1  0.3050261E-013  0.7246156E+02  0.7816164E-02  0.1226708E+00
        -11   -1    0    0    0    0  0.00000000000E+00  0.00000000000E+00  0.45593999997E+02  0.45594000000E+02  0.51100000000E-03 0. -1.
         11   -1    0    0    0    0 -0.00000000000E+00 -0.00000000000E+00 -0.45593999997E+02  0.45594000000E+02  0.51100000000E-03 0.  1.
    9900012    2    1    2    0    0 -0.12661611661E+02  0.11553619248E+02 -0.75416951783E+01  0.72461556298E+02  0.69999981767E+02 0.  0.
         12    1    1    2    0    0  0.12661611661E+02 -0.11553619248E+02  0.75416951783E+01  0.18726443702E+02  0.00000000000E+00 0. -1.
         11    1    3    3    0    0  0.18714528387E+01  0.23330257577E-01 -0.10983071367E+02  0.11141397441E+02  0.51100000000E-03 0. -1.
        -11    1    3    3    0    0  0.16598924547E+02  0.14454258123E+02  0.16424472813E+02  0.27462941967E+02  0.51100000000E-03 0.  1.
         12    1    3    3    0    0 -0.31131989047E+02 -0.29239691330E+01 -0.12983096625E+02  0.33857216889E+02  0.00000000000E+00 0. -1.
</event>
<event>
 7    1  0.3050261E-013  0.7246162E+02  0.7816164E-02  0.1226708E+00
        -11   -1    0    0    0    0  0.00000000000E+00  0.00000000000E+00  0.45593999997E+02  0.45594000000E+02  0.51100000000E-03 0.  1.
         11   -1    0    0    0    0 -0.00000000000E+00 -0.00000000000E+00 -0.45593999997E+02  0.45594000000E+02  0.51100000000E-03 0. -1.
    9900012    2    1    2    0    0  0.13989195748E+02  0.12397247809E+02 -0.11349145588E+01  0.72461618023E+02  0.70000062175E+02 0.  0.
         12    1    1    2    0    0 -0.13989195748E+02 -0.12397247809E+02  0.11349145588E+01  0.18726381977E+02  0.00000000000E+00 0. -1.
         11    1    3    3    0    0  0.71777291073E+01 -0.14716559479E+01  0.67162784988E+01  0.99395152548E+01  0.51100000000E-03 0. -1.
        -11    1    3    3    0    0  0.30628892333E+02  0.10697555600E+02  0.84020134355E+01  0.33513587862E+02  0.51100000000E-03 0.  1.
         12    1    3    3    0    0 -0.23817425693E+02  0.31713481564E+01 -0.16253206493E+02  0.29008514906E+02  0.00000000000E+00 0. -1.
</event>
<event>
 7    1  0.3050261E-013  0.7246148E+02  0.7816164E-02  0.1226708E+00
        -11   -1    0    0    0    0  0.00000000000E+00  0.00000000000E+00  0.45593999997E+02  0.45594000000E+02  0.51100000000E-03 0.  1.
         11   -1    0    0    0    0 -0.00000000000E+00 -0.00000000000E+00 -0.45593999997E+02  0.45594000000E+02  0.51100000000E-03 0. -1.
    9900012    2    1    2    0    0  0.12626957999E+02  0.97376211471E+01 -0.98194337574E+01  0.72461478347E+02  0.69999880221E+02 0.  0.
         12    1    1    2    0    0 -0.12626957999E+02 -0.97376211471E+01  0.98194337574E+01  0.18726521653E+02  0.00000000000E+00 0. -1.
         11    1    3    3    0    0  0.11837711808E+02 -0.20281615114E+02 -0.21692037327E+02  0.31969044655E+02  0.51100000000E-03 0. -1.
        -11    1    3    3    0    0  0.25372648124E+01  0.10425227811E+01  0.11119947783E+02  0.11453287975E+02  0.51100000000E-03 0.  1.
        -12    1    3    3    0    0 -0.17480186215E+01  0.28976713481E+02  0.75265578601E+00  0.29039145717E+02  0.00000000000E+00 0.  1.
</event>
<event>
 7    1  0.3050261E-013  0.7246157E+02  0.7816164E-02  0.1226708E+00
        -11   -1    0    0    0    0  0.00000000000E+00  0.00000000000E+00  0.45593999997E+02  0.45594000000E+02  0.51100000000E-03 0. -1.
         11   -1    0    0    0    0 -0.00000000000E+00 -0.00000000000E+00 -0.45593999997E+02  0.45594000000E+02  0.51100000000E-03 0.  1.
    9900012    2    1    2    0    0 -0.15167104808E+02 -0.96699423238E+01  0.52086729849E+01  0.72461571428E+02  0.70000001477E+02 0.  0.
         12    1    1    2    0    0  0.15167104808E+02  0.96699423238E+01 -0.52086729849E+01  0.18726428572E+02  0.00000000000E+00 0. -1.
         11    1    3    3    0    0 -0.47020285669E+01 -0.11015544344E+02 -0.42303357509E+01  0.12702245103E+02  0.51100000000E-03 0. -1.
        -11    1    3    3    0    0  0.11319770714E+02 -0.10430822152E+02 -0.17406376417E+02  0.23236204510E+02  0.51100000000E-03 0.  1.
         12    1    3    3    0    0 -0.21784846955E+02  0.11776424172E+02  0.26845385153E+02  0.36523121815E+02  0.00000000000E+00 0. -1.
</event>
<event>
 7    1  0.3050261E-013  0.7246158E+02  0.7816164E-02  0.1226708E+00
        -11   -1    0    0    0    0  0.00000000000E+00  0.00000000000E+00  0.45593999997E+02  0.45594000000E+02  0.51100000000E-03 0.  1.
         11   -1    0    0    0    0 -0.00000000000E+00 -0.00000000000E+00 -0.45593999997E+02  0.45594000000E+02  0.51100000000E-03 0. -1.
    9900012    2    1    2    0    0 -0.27994322247E+01 -0.40699026817E+01  0.18063164886E+02  0.72461578711E+02  0.70000010964E+02 0.  0.
         12    1    1    2    0    0  0.27994322247E+01  0.40699026817E+01 -0.18063164886E+02  0.18726421289E+02  0.00000000000E+00 0. -1.
         11    1    3    3    0    0 -0.17084110890E+02  0.35533029140E+01  0.81598299136E+01  0.19263323467E+02  0.51100000000E-03 0. -1.
        -11    1    3    3    0    0 -0.96629697676E+01  0.15780528400E+02  0.61725359815E+01  0.19506364654E+02  0.51100000000E-03 0.  1.
         12    1    3    3    0    0  0.23947648433E+02 -0.23403733995E+02  0.37307989907E+01  0.33691890590E+02  0.00000000000E+00 0. -1.
</event>
<event>
 7    1  0.3143779E-013  0.7246160E+02  0.7816164E-02  0.1226708E+00
        -11   -1    0    0    0    0  0.00000000000E+00  0.00000000000E+00  0.45593999997E+02  0.45594000000E+02  0.51100000000E-03 0.  1.
         11   -1    0    0    0    0 -0.00000000000E+00 -0.00000000000E+00 -0.45593999997E+02  0.45594000000E+02  0.51100000000E-03 0. -1.
    9900012    2    1    2    0    0  0.18266957803E+02 -0.12525070773E+00  0.41207361733E+01  0.72461604145E+02  0.70000044096E+02 0.  0.
         12    1    1    2    0    0 -0.18266957803E+02  0.12525070773E+00 -0.41207361733E+01  0.18726395855E+02  0.00000000000E+00 0. -1.
         11    1    3    3    0    0  0.17996802278E+01  0.18487550022E+02  0.70428854929E+01  0.19865311250E+02  0.51100000000E-03 0. -1.
        -11    1    3    3    0    0  0.14172949963E+02 -0.16454224727E+02  0.19961377740E+02  0.29496959565E+02  0.51100000000E-03 0.  1.
         12    1    3    3    0    0  0.22943276119E+01 -0.21585760028E+01 -0.22883527060E+02  0.23099333329E+02  0.00000000000E+00 0. -1.
</event>
<event>
 7    1  0.3050261E-013  0.7246166E+02  0.7816164E-02  0.1226708E+00
        -11   -1    0    0    0    0  0.00000000000E+00  0.00000000000E+00  0.45593999997E+02  0.45594000000E+02  0.51100000000E-03 0.  1.
         11   -1    0    0    0    0 -0.00000000000E+00 -0.00000000000E+00 -0.45593999997E+02  0.45594000000E+02  0.51100000000E-03 0. -1.
    9900012    2    1    2    0    0 -0.36415374900E+01 -0.16374172020E+02  0.83247450918E+01  0.72461663319E+02  0.70000121182E+02 0.  0.
         12    1    1    2    0    0  0.36415374900E+01  0.16374172020E+02 -0.83247450918E+01  0.18726336681E+02  0.00000000000E+00 0. -1.
         11    1    3    3    0    0  0.19382042127E+01 -0.14579495898E+02  0.37492109540E+01  0.15178106576E+02  0.51100000000E-03 0. -1.
        -11    1    3    3    0    0  0.17929594245E+02  0.13550053155E+02  0.15347017388E+02  0.27214063153E+02  0.51100000000E-03 0.  1.
         12    1    3    3    0    0 -0.23509335948E+02 -0.15344729278E+02 -0.10771483250E+02  0.30069493590E+02  0.00000000000E+00 0. -1.
</event>
<event>
 7    1  0.3050261E-013  0.7246109E+02  0.7816164E-02  0.1226709E+00
        -11   -1    0    0    0    0  0.00000000000E+00  0.00000000000E+00  0.45593999997E+02  0.45594000000E+02  0.51100000000E-03 0.  1.
         11   -1    0    0    0    0 -0.00000000000E+00 -0.00000000000E+00 -0.45593999997E+02  0.45594000000E+02  0.51100000000E-03 0. -1.
    9900012    2    1    2    0    0 -0.12904648688E+02  0.76312544272E+01  0.11221912208E+02  0.72461085799E+02  0.69999368852E+02 0.  0.
         12    1    1    2    0    0  0.12904648688E+02 -0.76312544272E+01 -0.11221912208E+02  0.18726914201E+02  0.00000000000E+00 0. -1.
         11    1    3    3    0    0 -0.82627077949E+01 -0.22615484397E+01  0.13742495687E+02  0.16193922607E+02  0.51100000000E-03 0. -1.
        -11    1    3    3    0    0 -0.36147678232E+01 -0.15616502428E+02  0.17567600124E+02  0.23781553122E+02  0.51100000000E-03 0.  1.
         12    1    3    3    0    0 -0.10271730701E+01  0.25509305295E+02 -0.20088183603E+02  0.32485610070E+02  0.00000000000E+00 0. -1.
</event>
<event>
 7    1  0.3050261E-013  0.7246159E+02  0.7816164E-02  0.1226708E+00
        -11   -1    0    0    0    0  0.00000000000E+00  0.00000000000E+00  0.45593999997E+02  0.45594000000E+02  0.51100000000E-03 0.  1.
         11   -1    0    0    0    0 -0.00000000000E+00 -0.00000000000E+00 -0.45593999997E+02  0.45594000000E+02  0.51100000000E-03 0. -1.
    9900012    2    1    2    0    0  0.21406537262E+01  0.18583376235E+02 -0.86846123100E+00  0.72461588289E+02  0.70000023441E+02 0.  0.
         12    1    1    2    0    0 -0.21406537262E+01 -0.18583376235E+02  0.86846123100E+00  0.18726411711E+02  0.00000000000E+00 0. -1.
         11    1    3    3    0    0  0.12677459534E+02 -0.89672947745E+01 -0.12017719425E+02  0.19635578327E+02  0.51100000000E-03 0. -1.
        -11    1    3    3    0    0  0.11503897873E+02  0.88493494416E+01 -0.94609443670E+01  0.17325129737E+02  0.51100000000E-03 0.  1.
         12    1    3    3    0    0 -0.22040703681E+02  0.18701321568E+02  0.20610202561E+02  0.35500880225E+02  0.00000000000E+00 0. -1.
</event>
<event>
 7    1  0.3050261E-013  0.7246181E+02  0.7816164E-02  0.1226707E+00
        -11   -1    0    0    0    0  0.00000000000E+00  0.00000000000E+00  0.45593999997E+02  0.45594000000E+02  0.51100000000E-03 0. -1.
         11   -1    0    0    0    0 -0.00000000000E+00 -0.00000000000E+00 -0.45593999997E+02  0.45594000000E+02  0.51100000000E-03 0.  1.
    9900012    2    1    2    0    0 -0.18550775869E+02  0.20396736834E+01  0.15423228191E+01  0.72461806747E+02  0.70000308023E+02 0.  0.
         12    1    1    2    0    0  0.18550775869E+02 -0.20396736834E+01 -0.15423228191E+01  0.18726193253E+02  0.00000000000E+00 0. -1.
         11    1    3    3    0    0 -0.88790284303E+00 -0.21504680374E+02  0.13637482038E+01  0.21566164677E+02  0.51100000000E-03 0. -1.
        -11    1    3    3    0    0 -0.24525977805E+02 -0.47449570374E+00  0.59837575872E+01  0.25249833437E+02  0.51100000000E-03 0.  1.
        -12    1    3    3    0    0  0.68631047799E+01  0.24018849762E+02 -0.58051829718E+01  0.25645808633E+02  0.00000000000E+00 0.  1.
</event>
<event>
 7    1  0.3050261E-013  0.7246154E+02  0.7816164E-02  0.1226708E+00
        -11   -1    0    0    0    0  0.00000000000E+00  0.00000000000E+00  0.45593999997E+02  0.45594000000E+02  0.51100000000E-03 0. -1.
         11   -1    0    0    0    0 -0.00000000000E+00 -0.00000000000E+00 -0.45593999997E+02  0.45594000000E+02  0.51100000000E-03 0.  1.
    9900012    2    1    2    0    0  0.16460140230E+01  0.14334573883E+02 -0.11936964004E+02  0.72461535299E+02  0.69999954412E+02 0.  0.
         12    1    1    2    0    0 -0.16460140230E+01 -0.14334573883E+02  0.11936964004E+02  0.18726464701E+02  0.00000000000E+00 0. -1.
         11    1    3    3    0    0  0.46604289310E+01  0.11660635387E+02 -0.25988503188E+02  0.28863338575E+02  0.51100000000E-03 0. -1.
        -11    1    3    3    0    0 -0.14113241832E+02  0.16712159948E+02  0.18783717003E+01  0.21954684366E+02  0.51100000000E-03 0.  1.
         12    1    3    3    0    0  0.11098826924E+02 -0.14038221452E+02  0.12173167484E+02  0.21643512358E+02  0.00000000000E+00 0. -1.
</event>
<event>
 7    1  0.3050261E-013  0.7246155E+02  0.7816164E-02  0.1226708E+00
        -11   -1    0    0    0    0  0.00000000000E+00  0.00000000000E+00  0.45593999997E+02  0.45594000000E+02  0.51100000000E-03 0.  1.
         11   -1    0    0    0    0 -0.00000000000E+00 -0.00000000000E+00 -0.45593999997E+02  0.45594000000E+02  0.51100000000E-03 0. -1.
    9900012    2    1    2    0    0 -0.16240827778E+02 -0.58851104615E+01  0.72305460337E+01  0.72461553246E+02  0.69999977792E+02 0.  0.
         12    1    1    2    0    0  0.16240827778E+02  0.58851104615E+01 -0.72305460337E+01  0.18726446754E+02  0.00000000000E+00 0. -1.
         11    1    3    3    0    0  0.41803326549E+01 -0.33631871470E+02  0.66977556876E+01  0.34546170427E+02  0.51100000000E-03 0. -1.
        -11    1    3    3    0    0  0.22611253752E+01  0.60583934956E+01 -0.72776610221E+00  0.65074160364E+01  0.51100000000E-03 0.  1.
        -12    1    3    3    0    0 -0.22682285808E+02  0.21688367513E+02  0.12605564483E+01  0.31407966783E+02  0.00000000000E+00 0.  1.
</event>
<event>
 7    1  0.3050261E-013  0.7246156E+02  0.7816164E-02  0.1226708E+00
        -11   -1    0    0    0    0  0.00000000000E+00  0.00000000000E+00  0.45593999997E+02  0.45594000000E+02  0.51100000000E-03 0.  1.
         11   -1    0    0    0    0 -0.00000000000E+00 -0.00000000000E+00 -0.45593999997E+02  0.45594000000E+02  0.51100000000E-03 0. -1.
    9900012    2    1    2    0    0  0.88579796425E+01 -0.16342012223E+02  0.22703033248E+01  0.72461562965E+02  0.69999990453E+02 0.  0.
         12    1    1    2    0    0 -0.88579796425E+01  0.16342012223E+02 -0.22703033248E+01  0.18726437035E+02  0.00000000000E+00 0. -1.
         11    1    3    3    0    0  0.14268413350E+02  0.70470803694E+01 -0.34899923234E+01  0.16291992141E+02  0.51100000000E-03 0. -1.
        -11    1    3    3    0    0 -0.18567034343E+02  0.88020888836E+01 -0.16462414198E+01  0.20613627630E+02  0.51100000000E-03 0.  1.
         12    1    3    3    0    0  0.13156600636E+02 -0.32191181476E+02  0.74065370680E+01  0.35555943194E+02  0.00000000000E+00 0. -1.
</event>
<event>
 7    1  0.3050261E-013  0.7246160E+02  0.7816164E-02  0.1226708E+00
        -11   -1    0    0    0    0  0.00000000000E+00  0.00000000000E+00  0.45593999997E+02  0.45594000000E+02  0.51100000000E-03 0. -1.
         11   -1    0    0    0    0 -0.00000000000E+00 -0.00000000000E+00 -0.45593999997E+02  0.45594000000E+02  0.51100000000E-03 0.  1.
    9900012    2    1    2    0    0 -0.29216136436E+01 -0.96710467881E+01 -0.15767467459E+02  0.72461601459E+02  0.70000040598E+02 0.  0.
         12    1    1    2    0    0  0.29216136436E+01  0.96710467881E+01  0.15767467459E+02  0.18726398541E+02  0.00000000000E+00 0. -1.
         11    1    3    3    0    0 -0.69243246193E+01  0.14735096064E+01 -0.83643549273E+00  0.71286132304E+01  0.51100000000E-03 0. -1.
        -11    1    3    3    0    0 -0.12650191835E+01 -0.38288860196E+01 -0.39219110224E+02  0.39425870297E+02  0.51100000000E-03 0.  1.
         12    1    3    3    0    0  0.52677301592E+01 -0.73156703749E+01  0.24288078258E+02  0.25907117931E+02  0.00000000000E+00 0. -1.
</event>
<event>
 7    1  0.3050261E-013  0.7246155E+02  0.7816164E-02  0.1226708E+00
        -11   -1    0    0    0    0  0.00000000000E+00  0.00000000000E+00  0.45593999997E+02  0.45594000000E+02  0.51100000000E-03 0. -1.
         11   -1    0    0    0    0 -0.00000000000E+00 -0.00000000000E+00 -0.45593999997E+02  0.45594000000E+02  0.51100000000E-03 0.  1.
    9900012    2    1    2    0    0 -0.87214267302E+01 -0.59835801495E+01 -0.15453593165E+02  0.72461546590E+02  0.69999969120E+02 0.  0.
         12    1    1    2    0    0  0.87214267302E+01  0.59835801495E+01  0.15453593165E+02  0.18726453410E+02  0.00000000000E+00 0. -1.
         11    1    3    3    0    0  0.26321404160E+02 -0.65633997251E+01  0.24963408984E+01  0.27241994256E+02  0.51100000000E-03 0. -1.
        -11    1    3    3    0    0 -0.56291117736E+01 -0.73426985053E+01 -0.10232534550E+02  0.13795176123E+02  0.51100000000E-03 0.  1.
        -12    1    3    3    0    0 -0.29413719116E+02  0.79225180808E+01 -0.77173995133E+01  0.31424376211E+02  0.00000000000E+00 0.  1.
</event>
<event>
 7    1  0.3050261E-013  0.7246180E+02  0.7816164E-02  0.1226707E+00
        -11   -1    0    0    0    0  0.00000000000E+00  0.00000000000E+00  0.45593999997E+02  0.45594000000E+02  0.51100000000E-03 0. -1.
         11   -1    0    0    0    0 -0.00000000000E+00 -0.00000000000E+00 -0.45593999997E+02  0.45594000000E+02  0.51100000000E-03 0.  1.
    9900012    2    1    2    0    0 -0.26216900319E+01  0.14269899987E+02  0.11839221471E+02  0.72461802594E+02  0.70000302613E+02 0.  0.
         12    1    1    2    0    0  0.26216900319E+01 -0.14269899987E+02 -0.11839221471E+02  0.18726197406E+02  0.00000000000E+00 0. -1.
         11    1    3    3    0    0 -0.35271548203E+01  0.97924050653E+01 -0.30608659952E+01  0.10849005438E+02  0.51100000000E-03 0. -1.
        -11    1    3    3    0    0  0.22715112884E+02  0.14331364877E+02  0.23990006702E+02  0.36012286714E+02  0.51100000000E-03 0.  1.
         12    1    3    3    0    0 -0.21809648096E+02 -0.98538699560E+01 -0.90899192361E+01  0.25600510442E+02  0.00000000000E+00 0. -1.
</event>
<event>
 7    1  0.3050261E-013  0.7246150E+02  0.7816164E-02  0.1226708E+00
        -11   -1    0    0    0    0  0.00000000000E+00  0.00000000000E+00  0.45593999997E+02  0.45594000000E+02  0.51100000000E-03 0.  1.
         11   -1    0    0    0    0 -0.00000000000E+00 -0.00000000000E+00 -0.45593999997E+02  0.45594000000E+02  0.51100000000E-03 0. -1.
    9900012    2    1    2    0    0  0.87383645681E+01 -0.15528362286E+02 -0.57613225511E+01  0.72461497707E+02  0.69999905441E+02 0.  0.
         12    1    1    2    0    0 -0.87383645681E+01  0.15528362286E+02  0.57613225511E+01  0.18726502293E+02  0.00000000000E+00 0. -1.
         11    1    3    3    0    0  0.17528239935E+02 -0.94487036473E+01 -0.21828801226E+02  0.29546806241E+02  0.51100000000E-03 0. -1.
        -11    1    3    3    0    0  0.14267550140E+02  0.36188904028E+01  0.70945337207E+01  0.16339882610E+02  0.51100000000E-03 0.  1.
        -12    1    3    3    0    0 -0.23057425507E+02 -0.96985490415E+01  0.89729449542E+01  0.26574808855E+02  0.00000000000E+00 0.  1.
</event>
<event>
 7    1  0.3050261E-013  0.7246158E+02  0.7816164E-02  0.1226708E+00
        -11   -1    0    0    0    0  0.00000000000E+00  0.00000000000E+00  0.45593999997E+02  0.45594000000E+02  0.51100000000E-03 0.  1.
         11   -1    0    0    0    0 -0.00000000000E+00 -0.00000000000E+00 -0.45593999997E+02  0.45594000000E+02  0.51100000000E-03 0. -1.
    9900012    2    1    2    0    0  0.64587668834E+01 -0.45970809705E+01  0.16965553956E+02  0.72461578982E+02  0.70000011318E+02 0.  0.
         12    1    1    2    0    0 -0.64587668834E+01  0.45970809705E+01 -0.16965553956E+02  0.18726421018E+02  0.00000000000E+00 0. -1.
         11    1    3    3    0    0  0.99670377615E+01 -0.49549987908E+01 -0.52839667462E+00  0.11143296553E+02  0.51100000000E-03 0. -1.
        -11    1    3    3    0    0  0.15478948601E+02  0.22869423046E+02  0.15809319446E+02  0.31820479913E+02  0.51100000000E-03 0.  1.
         12    1    3    3    0    0 -0.18987219479E+02 -0.22511505226E+02  0.16846311842E+01  0.29497802517E+02  0.00000000000E+00 0. -1.
</event>
<event>
 7    1  0.3050261E-013  0.7246159E+02  0.7816164E-02  0.1226708E+00
        -11   -1    0    0    0    0  0.00000000000E+00  0.00000000000E+00  0.45593999997E+02  0.45594000000E+02  0.51100000000E-03 0. -1.
         11   -1    0    0    0    0 -0.00000000000E+00 -0.00000000000E+00 -0.45593999997E+02  0.45594000000E+02  0.51100000000E-03 0.  1.
    9900012    2    1    2    0    0 -0.78091410880E+01  0.88241009173E+01 -0.14554419850E+02  0.72461586069E+02  0.70000020550E+02 0.  0.
         12    1    1    2    0    0  0.78091410880E+01 -0.88241009173E+01  0.14554419850E+02  0.18726413931E+02  0.00000000000E+00 0. -1.
         11    1    3    3    0    0 -0.45665247174E+01 -0.19347872489E+01  0.78490077269E+01  0.92845825028E+01  0.51100000000E-03 0. -1.
        -11    1    3    3    0    0  0.11420409907E+02  0.19689442863E+02  0.11255257202E+02  0.25392533108E+02  0.51100000000E-03 0.  1.
        -12    1    3    3    0    0 -0.14663026278E+02 -0.89305546969E+01 -0.33658684779E+02  0.37784470459E+02  0.00000000000E+00 0.  1.
</event>
<event>
 7    1  0.3050261E-013  0.7246160E+02  0.7816164E-02  0.1226708E+00
        -11   -1    0    0    0    0  0.00000000000E+00  0.00000000000E+00  0.45593999997E+02  0.45594000000E+02  0.51100000000E-03 0.  1.
         11   -1    0    0    0    0 -0.00000000000E+00 -0.00000000000E+00 -0.45593999997E+02  0.45594000000E+02  0.51100000000E-03 0. -1.
    9900012    2    1    2    0    0  0.13187462003E+02 -0.81949786591E+01  0.10469545748E+02  0.72461595714E+02  0.70000033114E+02 0.  0.
         12    1    1    2    0    0 -0.13187462003E+02  0.81949786591E+01 -0.10469545748E+02  0.18726404286E+02  0.00000000000E+00 0. -1.
         11    1    3    3    0    0 -0.62935410134E+01 -0.73993273788E+01  0.13029094089E+02  0.16251645984E+02  0.51100000000E-03 0. -1.
        -11    1    3    3    0    0  0.58953746369E+01  0.62397661019E+01  0.24038741115E+02  0.25525500930E+02  0.51100000000E-03 0.  1.
         12    1    3    3    0    0  0.13585628379E+02 -0.70354173822E+01 -0.26598289456E+02  0.30684448800E+02  0.00000000000E+00 0. -1.
</event>
<event>
 7    1  0.3050261E-013  0.7246151E+02  0.7816164E-02  0.1226708E+00
        -11   -1    0    0    0    0  0.00000000000E+00  0.00000000000E+00  0.45593999997E+02  0.45594000000E+02  0.51100000000E-03 0.  1.
         11   -1    0    0    0    0 -0.00000000000E+00 -0.00000000000E+00 -0.45593999997E+02  0.45594000000E+02  0.51100000000E-03 0. -1.
    9900012    2    1    2    0    0  0.11965389747E+02  0.86251331295E+01  0.11537681687E+02  0.72461506148E+02  0.69999916437E+02 0.  0.
         12    1    1    2    0    0 -0.11965389747E+02 -0.86251331295E+01 -0.11537681687E+02  0.18726493852E+02  0.00000000000E+00 0. -1.
         11    1    3    3    0    0  0.62722577857E+01  0.26375158624E+01 -0.97985476470E+01  0.11929343817E+02  0.51100000000E-03 0. -1.
        -11    1    3    3    0    0  0.11455667013E+02 -0.53790884577E+01 -0.16392379349E+02  0.20709345725E+02  0.51100000000E-03 0.  1.
        -12    1    3    3    0    0 -0.57625350521E+01  0.11366705725E+02  0.37728608683E+02  0.39822816606E+02  0.00000000000E+00 0.  1.
</event>
<event>
 7    1  0.3050261E-013  0.7246158E+02  0.7816164E-02  0.1226708E+00
        -11   -1    0    0    0    0  0.00000000000E+00  0.00000000000E+00  0.45593999997E+02  0.45594000000E+02  0.51100000000E-03 0. -1.
         11   -1    0    0    0    0 -0.00000000000E+00 -0.00000000000E+00 -0.45593999997E+02  0.45594000000E+02  0.51100000000E-03 0.  1.
    9900012    2    1    2    0    0 -0.18750934314E+01  0.23716029292E+01 -0.18480756865E+02  0.72461578822E+02  0.70000011109E+02 0.  0.
         12    1    1    2    0    0  0.18750934314E+01 -0.23716029292E+01  0.18480756865E+02  0.18726421178E+02  0.00000000000E+00 0. -1.
         11    1    3    3    0    0 -0.78628312190E+01  0.21950536963E+02 -0.64811813835E+00  0.23325313398E+02  0.51100000000E-03 0. -1.
        -11    1    3    3    0    0  0.61954587583E+01  0.11703647412E+02 -0.23778327652E+00  0.13244455939E+02  0.51100000000E-03 0.  1.
        -12    1    3    3    0    0 -0.20772097067E+00 -0.31282581445E+02 -0.17594855450E+02  0.35891809486E+02  0.00000000000E+00 0.  1.
</event>
<event>
 7    1  0.3050261E-013  0.7246152E+02  0.7816164E-02  0.1226708E+00
        -11   -1    0    0    0    0  0.00000000000E+00  0.00000000000E+00  0.45593999997E+02  0.45594000000E+02  0.51100000000E-03 0.  1.
         11   -1    0    0    0    0 -0.00000000000E+00 -0.00000000000E+00 -0.45593999997E+02  0.45594000000E+02  0.51100000000E-03 0. -1.
    9900012    2    1    2    0    0 -0.11416231534E+01 -0.44901217603E+01  0.18144329259E+02  0.72461516584E+02  0.69999930033E+02 0.  0.
         12    1    1    2    0    0  0.11416231534E+01  0.44901217603E+01 -0.18144329259E+02  0.18726483416E+02  0.00000000000E+00 0. -1.
         11    1    3    3    0    0 -0.13792963469E+02  0.14689338992E+01  0.27408587802E+02  0.30718631051E+02  0.51100000000E-03 0. -1.
        -11    1    3    3    0    0  0.79035594707E+01 -0.21023117603E+02  0.16873274835E+01  0.22522983825E+02  0.51100000000E-03 0.  1.
         12    1    3    3    0    0  0.47477808452E+01  0.15064061944E+02 -0.10951586027E+02  0.19219901709E+02  0.00000000000E+00 0. -1.
</event>
<event>
 7    1  0.3050261E-013  0.7246154E+02  0.7816164E-02  0.1226708E+00
        -11   -1    0    0    0    0  0.00000000000E+00  0.00000000000E+00  0.45593999997E+02  0.45594000000E+02  0.51100000000E-03 0.  1.
         11   -1    0    0    0    0 -0.00000000000E+00 -0.00000000000E+00 -0.45593999997E+02  0.45594000000E+02  0.51100000000E-03 0. -1.
    9900012    2    1    2    0    0 -0.11517382919E+01 -0.16233577364E+02  0.92641756843E+01  0.72461535138E+02  0.69999954202E+02 0.  0.
         12    1    1    2    0    0  0.11517382919E+01  0.16233577364E+02 -0.92641756843E+01  0.18726464862E+02  0.00000000000E+00 0. -1.
         11    1    3    3    0    0  0.73723401989E+00  0.12889039124E+02 -0.16109160061E+01  0.13010222680E+02  0.51100000000E-03 0. -1.
        -11    1    3    3    0    0  0.17125078908E+02 -0.39500455628E+01 -0.11296927111E+02  0.20892384976E+02  0.51100000000E-03 0.  1.
        -12    1    3    3    0    0 -0.19014051220E+02 -0.25172570926E+02  0.22172018802E+02  0.38558927482E+02  0.00000000000E+00 0.  1.
</event>
<event>
 7    1  0.3050261E-013  0.7246158E+02  0.7816164E-02  0.1226708E+00
        -11   -1    0    0    0    0  0.00000000000E+00  0.00000000000E+00  0.45593999997E+02  0.45594000000E+02  0.51100000000E-03 0.  1.
         11   -1    0    0    0    0 -0.00000000000E+00 -0.00000000000E+00 -0.45593999997E+02  0.45594000000E+02  0.51100000000E-03 0. -1.
    9900012    2    1    2    0    0 -0.27717515341E+01  0.14028522599E+02  0.12091192300E+02  0.72461575244E+02  0.70000006449E+02 0.  0.
         12    1    1    2    0    0  0.27717515341E+01 -0.14028522599E+02 -0.12091192300E+02  0.18726424756E+02  0.00000000000E+00 0. -1.
         11    1    3    3    0    0  0.50362391013E+01  0.83408172196E+01 -0.81213925574E+01  0.12684240360E+02  0.51100000000E-03 0. -1.
        -11    1    3    3    0    0 -0.22735366504E+02  0.23685837839E+02  0.12939089353E+02  0.35289316198E+02  0.51100000000E-03 0.  1.
        -12    1    3    3    0    0  0.14927375869E+02 -0.17998132459E+02  0.72734955050E+01  0.24488018687E+02  0.00000000000E+00 0.  1.
</event>
<event>
 7    1  0.3050261E-013  0.7246158E+02  0.7816164E-02  0.1226708E+00
        -11   -1    0    0    0    0  0.00000000000E+00  0.00000000000E+00  0.45593999997E+02  0.45594000000E+02  0.51100000000E-03 0.  1.
         11   -1    0    0    0    0 -0.00000000000E+00 -0.00000000000E+00 -0.45593999997E+02  0.45594000000E+02  0.51100000000E-03 0. -1.
    9900012    2    1    2    0    0  0.12278546574E+02 -0.63674272945E+00  0.14124826210E+02  0.72461578486E+02  0.70000010671E+02 0.  0.
         12    1    1    2    0    0 -0.12278546574E+02  0.63674272945E+00 -0.14124826210E+02  0.18726421514E+02  0.00000000000E+00 0. -1.
         11    1    3    3    0    0  0.23835697213E+02  0.18790589745E+02 -0.54551515932E+01  0.30838051232E+02  0.51100000000E-03 0. -1.
        -11    1    3    3    0    0 -0.27163842365E+01 -0.74404552259E+01 -0.73779080500E+01  0.10824631391E+02  0.51100000000E-03 0.  1.
        -12    1    3    3    0    0 -0.88407664026E+01 -0.11986877249E+02  0.26957885853E+02  0.30798895864E+02  0.00000000000E+00 0.  1.
</event>
<event>
 7    1  0.3050261E-013  0.7246155E+02  0.7816164E-02  0.1226708E+00
        -11   -1    0    0    0    0  0.00000000000E+00  0.00000000000E+00  0.45593999997E+02  0.45594000000E+02  0.51100000000E-03 0.  1.
         11   -1    0    0    0    0 -0.00000000000E+00 -0.00000000000E+00 -0.45593999997E+02  0.45594000000E+02  0.51100000000E-03 0. -1.
    9900012    2    1    2    0    0  0.10543077836E+02  0.11537559821E+02  0.10315435233E+02  0.72461548630E+02  0.69999971778E+02 0.  0.
         12    1    1    2    0    0 -0.10543077836E+02 -0.11537559821E+02 -0.10315435233E+02  0.18726451370E+02  0.00000000000E+00 0. -1.
         11    1    3    3    0    0 -0.34687011738E+01 -0.23529243240E+02  0.82956253252E+01  0.25188778753E+02  0.51100000000E-03 0. -1.
        -11    1    3    3    0    0 -0.34187558035E+01  0.14999372684E+01  0.81426147902E+01  0.89576715131E+01  0.51100000000E-03 0.  1.
        -12    1    3    3    0    0  0.17430534813E+02  0.33566865792E+02 -0.61228048827E+01  0.38315098364E+02  0.00000000000E+00 0.  1.
</event>
<event>
 7    1  0.3050261E-013  0.7246157E+02  0.7816164E-02  0.1226708E+00
        -11   -1    0    0    0    0  0.00000000000E+00  0.00000000000E+00  0.45593999997E+02  0.45594000000E+02  0.51100000000E-03 0.  1.
         11   -1    0    0    0    0 -0.00000000000E+00 -0.00000000000E+00 -0.45593999997E+02  0.45594000000E+02  0.51100000000E-03 0. -1.
    9900012    2    1    2    0    0 -0.87992884737E+01 -0.15470317476E+02 -0.58241738736E+01  0.72461569434E+02  0.69999998879E+02 0.  0.
         12    1    1    2    0    0  0.87992884737E+01  0.15470317476E+02  0.58241738736E+01  0.18726430566E+02  0.00000000000E+00 0. -1.
         11    1    3    3    0    0 -0.73693968496E+01 -0.74566786339E+01  0.95854496430E+01  0.14205312784E+02  0.51100000000E-03 0. -1.
        -11    1    3    3    0    0 -0.15161230898E+02  0.88211210467E+01  0.13471267953E+02  0.22116739348E+02  0.51100000000E-03 0.  1.
         12    1    3    3    0    0  0.13731339273E+02 -0.16834759889E+02 -0.28880891469E+02  0.36139517302E+02  0.00000000000E+00 0. -1.
</event>
<event>
 7    1  0.3050261E-013  0.7246152E+02  0.7816164E-02  0.1226708E+00
        -11   -1    0    0    0    0  0.00000000000E+00  0.00000000000E+00  0.45593999997E+02  0.45594000000E+02  0.51100000000E-03 0.  1.
         11   -1    0    0    0    0 -0.00000000000E+00 -0.00000000000E+00 -0.45593999997E+02  0.45594000000E+02  0.51100000000E-03 0. -1.
    9900012    2    1    2    0    0  0.12174500429E+02 -0.40266184145E+01  0.13647299607E+02  0.72461524007E+02  0.69999939703E+02 0.  0.
         12    1    1    2    0    0 -0.12174500429E+02  0.40266184145E+01 -0.13647299607E+02  0.18726475993E+02  0.00000000000E+00 0. -1.
         11    1    3    3    0    0  0.46711009953E+01 -0.38780975806E+01  0.10078165211E+01  0.61542277951E+01  0.51100000000E-03 0. -1.
        -11    1    3    3    0    0  0.15672402385E+01 -0.13765380931E+01  0.39102889278E+02  0.39158486299E+02  0.51100000000E-03 0.  1.
         12    1    3    3    0    0  0.59361591949E+01  0.12280172592E+01 -0.26463406193E+02  0.27148809913E+02  0.00000000000E+00 0. -1.
</event>
<event>
 7    1  0.3050261E-013  0.7246156E+02  0.7816164E-02  0.1226708E+00
        -11   -1    0    0    0    0  0.00000000000E+00  0.00000000000E+00  0.45593999997E+02  0.45594000000E+02  0.51100000000E-03 0. -1.
         11   -1    0    0    0    0 -0.00000000000E+00 -0.00000000000E+00 -0.45593999997E+02  0.45594000000E+02  0.51100000000E-03 0.  1.
    9900012    2    1    2    0    0  0.78362656485E+01 -0.13313178012E+02 -0.10584505177E+02  0.72461560992E+02  0.69999987882E+02 0.  0.
         12    1    1    2    0    0 -0.78362656485E+01  0.13313178012E+02  0.10584505177E+02  0.18726439008E+02  0.00000000000E+00 0. -1.
         11    1    3    3    0    0  0.25783190666E+01 -0.10163861099E+01  0.13870192801E+02  0.14144363490E+02  0.51100000000E-03 0. -1.
        -11    1    3    3    0    0 -0.15834438869E+02 -0.21045910346E+02 -0.21964190767E+01  0.26428848889E+02  0.51100000000E-03 0.  1.
        -12    1    3    3    0    0  0.21092385451E+02  0.87491184441E+01 -0.22258278902E+02  0.31888348612E+02  0.00000000000E+00 0.  1.
</event>
<event>
 7    1  0.3050261E-013  0.7246162E+02  0.7816164E-02  0.1226708E+00
        -11   -1    0    0    0    0  0.00000000000E+00  0.00000000000E+00  0.45593999997E+02  0.45594000000E+02  0.51100000000E-03 0. -1.
         11   -1    0    0    0    0 -0.00000000000E+00 -0.00000000000E+00 -0.45593999997E+02  0.45594000000E+02  0.51100000000E-03 0.  1.
    9900012    2    1    2    0    0 -0.96870780689E+01  0.93685659156E+01 -0.13002607820E+02  0.72461619705E+02  0.70000064366E+02 0.  0.
         12    1    1    2    0    0  0.96870780689E+01 -0.93685659156E+01  0.13002607820E+02  0.18726380295E+02  0.00000000000E+00 0. -1.
         11    1    3    3    0    0  0.63783112599E+01 -0.13743637616E+02  0.81266320258E+01  0.17193387618E+02  0.51100000000E-03 0. -1.
        -11    1    3    3    0    0  0.58749086375E+01  0.13325640881E+02 -0.26874534232E+02  0.30566776847E+02  0.51100000000E-03 0.  1.
         12    1    3    3    0    0 -0.21940297966E+02  0.97865626505E+01  0.57452943857E+01  0.24701455239E+02  0.00000000000E+00 0. -1.
</event>
<event>
 7    1  0.3050261E-013  0.7246158E+02  0.7816164E-02  0.1226708E+00
        -11   -1    0    0    0    0  0.00000000000E+00  0.00000000000E+00  0.45593999997E+02  0.45594000000E+02  0.51100000000E-03 0.  1.
         11   -1    0    0    0    0 -0.00000000000E+00 -0.00000000000E+00 -0.45593999997E+02  0.45594000000E+02  0.51100000000E-03 0. -1.
    9900012    2    1    2    0    0  0.75136298123E+01  0.94142059747E+00  0.17127110279E+02  0.72461579835E+02  0.70000012428E+02 0.  0.
         12    1    1    2    0    0 -0.75136298123E+01 -0.94142059747E+00 -0.17127110279E+02  0.18726420165E+02  0.00000000000E+00 0. -1.
         11    1    3    3    0    0 -0.10778456230E+02 -0.64819877735E+01  0.20451241549E+02  0.24009259992E+02  0.51100000000E-03 0. -1.
        -11    1    3    3    0    0  0.22172677696E+02  0.99470476433E+01  0.15661090742E+02  0.28910917601E+02  0.51100000000E-03 0.  1.
         12    1    3    3    0    0 -0.38805916541E+01 -0.25236392723E+01 -0.18985222012E+02  0.19541402242E+02  0.00000000000E+00 0. -1.
</event>
<event>
 7    1  0.3050261E-013  0.7246156E+02  0.7816164E-02  0.1226708E+00
        -11   -1    0    0    0    0  0.00000000000E+00  0.00000000000E+00  0.45593999997E+02  0.45594000000E+02  0.51100000000E-03 0.  1.
         11   -1    0    0    0    0 -0.00000000000E+00 -0.00000000000E+00 -0.45593999997E+02  0.45594000000E+02  0.51100000000E-03 0. -1.
    9900012    2    1    2    0    0  0.14402731167E+02 -0.87623432743E+01  0.81524448371E+01  0.72461556623E+02  0.69999982191E+02 0.  0.
         12    1    1    2    0    0 -0.14402731167E+02  0.87623432743E+01 -0.81524448371E+01  0.18726443377E+02  0.00000000000E+00 0. -1.
         11    1    3    3    0    0 -0.32646007519E+01 -0.16790068880E+02 -0.78897894168E+01  0.18836475477E+02  0.51100000000E-03 0. -1.
        -11    1    3    3    0    0 -0.42034201995E+01 -0.11510194076E+02  0.20577518911E+02  0.23949688805E+02  0.51100000000E-03 0.  1.
        -12    1    3    3    0    0  0.21870752118E+02  0.19537919682E+02 -0.45352846569E+01  0.29675392342E+02  0.00000000000E+00 0.  1.
</event>
<event>
 7    1  0.3050261E-013  0.7246155E+02  0.7816164E-02  0.1226708E+00
        -11   -1    0    0    0    0  0.00000000000E+00  0.00000000000E+00  0.45593999997E+02  0.45594000000E+02  0.51100000000E-03 0. -1.
         11   -1    0    0    0    0 -0.00000000000E+00 -0.00000000000E+00 -0.45593999997E+02  0.45594000000E+02  0.51100000000E-03 0.  1.
    9900012    2    1    2    0    0  0.37712309323E+01 -0.65711350902E+01 -0.17125363990E+02  0.72461545693E+02  0.69999967952E+02 0.  0.
         12    1    1    2    0    0 -0.37712309323E+01  0.65711350902E+01  0.17125363990E+02  0.18726454307E+02  0.00000000000E+00 0. -1.
         11    1    3    3    0    0  0.11789813835E+02  0.10050919893E+02  0.65285935619E+01  0.16811996762E+02  0.51100000000E-03 0. -1.
        -11    1    3    3    0    0  0.79198126661E+01  0.11756050192E+02 -0.17507800939E+02  0.22526678467E+02  0.51100000000E-03 0.  1.
         12    1    3    3    0    0 -0.15938395569E+02 -0.28378105175E+02 -0.61461566123E+01  0.33122870464E+02  0.00000000000E+00 0. -1.
</event>
<event>
 7    1  0.3050261E-013  0.7246157E+02  0.7816164E-02  0.1226708E+00
        -11   -1    0    0    0    0  0.00000000000E+00  0.00000000000E+00  0.45593999997E+02  0.45594000000E+02  0.51100000000E-03 0. -1.
         11   -1    0    0    0    0 -0.00000000000E+00 -0.00000000000E+00 -0.45593999997E+02  0.45594000000E+02  0.51100000000E-03 0.  1.
    9900012    2    1    2    0    0 -0.19002855871E+01 -0.56546917200E+01 -0.17750845645E+02  0.72461570953E+02  0.70000000858E+02 0.  0.
         12    1    1    2    0    0  0.19002855871E+01  0.56546917200E+01  0.17750845645E+02  0.18726429047E+02  0.00000000000E+00 0. -1.
         11    1    3    3    0    0  0.13176427213E+02 -0.53430882642E+01 -0.98707711852E+01  0.17308926898E+02  0.51100000000E-03 0. -1.
        -11    1    3    3    0    0 -0.43558925069E+01  0.25787344423E+02 -0.62580844986E+01  0.26890975322E+02  0.51100000000E-03 0.  1.
         12    1    3    3    0    0 -0.10720820293E+02 -0.26098947879E+02 -0.16219899608E+01  0.28261668733E+02  0.00000000000E+00 0. -1.
</event>
<event>
 7    1  0.3050261E-013  0.7246158E+02  0.7816164E-02  0.1226708E+00
        -11   -1    0    0    0    0  0.00000000000E+00  0.00000000000E+00  0.45593999997E+02  0.45594000000E+02  0.51100000000E-03 0.  1.
         11   -1    0    0    0    0 -0.00000000000E+00 -0.00000000000E+00 -0.45593999997E+02  0.45594000000E+02  0.51100000000E-03 0. -1.
    9900012    2    1    2    0    0 -0.10354707486E+02  0.15403758937E+02  0.24865528354E+01  0.72461582790E+02  0.70000016279E+02 0.  0.
         12    1    1    2    0    0  0.10354707486E+02 -0.15403758937E+02 -0.24865528354E+01  0.18726417210E+02  0.00000000000E+00 0. -1.
         11    1    3    3    0    0 -0.13573296141E+02  0.18085355511E+02 -0.16730685882E+02  0.28128816228E+02  0.51100000000E-03 0. -1.
        -11    1    3    3    0    0  0.24403290043E+01  0.60201659857E+01 -0.11056536760E+02  0.12823595811E+02  0.51100000000E-03 0.  1.
        -12    1    3    3    0    0  0.77825965022E+00 -0.87017625598E+01  0.30273775477E+02  0.31509170751E+02  0.00000000000E+00 0.  1.
</event>
<event>
 7    1  0.3050261E-013  0.7246157E+02  0.7816164E-02  0.1226708E+00
        -11   -1    0    0    0    0  0.00000000000E+00  0.00000000000E+00  0.45593999997E+02  0.45594000000E+02  0.51100000000E-03 0.  1.
         11   -1    0    0    0    0 -0.00000000000E+00 -0.00000000000E+00 -0.45593999997E+02  0.45594000000E+02  0.51100000000E-03 0. -1.
    9900012    2    1    2    0    0 -0.11876973175E+02  0.67122975736E+01  0.12828158271E+02  0.72461572814E+02  0.70000003282E+02 0.  0.
         12    1    1    2    0    0  0.11876973175E+02 -0.67122975736E+01 -0.12828158271E+02  0.18726427186E+02  0.00000000000E+00 0. -1.
         11    1    3    3    0    0 -0.21690910106E+01  0.90528596772E+00 -0.19252186369E+02  0.19395132863E+02  0.51100000000E-03 0. -1.
        -11    1    3    3    0    0  0.76127640312E+01 -0.89133961327E+01 -0.22077901744E+01  0.11927998345E+02  0.51100000000E-03 0.  1.
        -12    1    3    3    0    0 -0.17320646196E+02  0.14720407739E+02  0.34288134815E+02  0.41138441606E+02  0.00000000000E+00 0.  1.
</event>
<event>
 7    1  0.3050261E-013  0.7246159E+02  0.7816164E-02  0.1226708E+00
        -11   -1    0    0    0    0  0.00000000000E+00  0.00000000000E+00  0.45593999997E+02  0.45594000000E+02  0.51100000000E-03 0.  1.
         11   -1    0    0    0    0 -0.00000000000E+00 -0.00000000000E+00 -0.45593999997E+02  0.45594000000E+02  0.51100000000E-03 0. -1.
    9900012    2    1    2    0    0 -0.92680405601E+01 -0.15189391897E+02  0.58364578313E+01  0.72461589719E+02  0.70000025304E+02 0.  0.
         12    1    1    2    0    0  0.92680405601E+01  0.15189391897E+02 -0.58364578313E+01  0.18726410281E+02  0.00000000000E+00 0. -1.
         11    1    3    3    0    0  0.17312226894E+02 -0.21736046642E+02 -0.10281793972E+02  0.29629110874E+02  0.51100000000E-03 0. -1.
        -11    1    3    3    0    0  0.62152556028E+00 -0.68977975226E+01  0.95330224001E+01  0.11783226257E+02  0.51100000000E-03 0.  1.
        -12    1    3    3    0    0 -0.27201793014E+02  0.13444452268E+02  0.65852294035E+01  0.31049252588E+02  0.00000000000E+00 0.  1.
</event>
<event>
 7    1  0.3050261E-013  0.7246171E+02  0.7816164E-02  0.1226708E+00
        -11   -1    0    0    0    0  0.00000000000E+00  0.00000000000E+00  0.45593999997E+02  0.45594000000E+02  0.51100000000E-03 0.  1.
         11   -1    0    0    0    0 -0.00000000000E+00 -0.00000000000E+00 -0.45593999997E+02  0.45594000000E+02  0.51100000000E-03 0. -1.
    9900012    2    1    2    0    0  0.12254712436E+02  0.14157302647E+02  0.25861147793E+00  0.72461706319E+02  0.70000177197E+02 0.  0.
         12    1    1    2    0    0 -0.12254712436E+02 -0.14157302647E+02 -0.25861147793E+00  0.18726293681E+02  0.00000000000E+00 0. -1.
         11    1    3    3    0    0 -0.22959803433E+02  0.15398558952E+01 -0.85862181297E+01  0.24561084502E+02  0.51100000000E-03 0. -1.
        -11    1    3    3    0    0  0.97562650773E+01  0.10089091859E+02  0.16051042624E+02  0.21321595916E+02  0.51100000000E-03 0.  1.
        -12    1    3    3    0    0  0.25458250792E+02  0.25283548924E+01 -0.72062130166E+01  0.26579025902E+02  0.00000000000E+00 0.  1.
</event>
<event>
 7    1  0.3050261E-013  0.7246157E+02  0.7816164E-02  0.1226708E+00
        -11   -1    0    0    0    0  0.00000000000E+00  0.00000000000E+00  0.45593999997E+02  0.45594000000E+02  0.51100000000E-03 0.  1.
         11   -1    0    0    0    0 -0.00000000000E+00 -0.00000000000E+00 -0.45593999997E+02  0.45594000000E+02  0.51100000000E-03 0. -1.
    9900012    2    1    2    0    0 -0.10652223934E+01  0.72089666445E+01  0.17250374871E+02  0.72461565956E+02  0.69999994348E+02 0.  0.
         12    1    1    2    0    0  0.10652223934E+01 -0.72089666445E+01 -0.17250374871E+02  0.18726434044E+02  0.00000000000E+00 0. -1.
         11    1    3    3    0    0 -0.36347445299E+01  0.15006186311E+02 -0.22526193430E+01  0.15603566566E+02  0.51100000000E-03 0. -1.
        -11    1    3    3    0    0  0.12882753155E+02 -0.17415903416E+02  0.31576638688E+02  0.38293121206E+02  0.51100000000E-03 0.  1.
         12    1    3    3    0    0 -0.10313231019E+02  0.96186837488E+01 -0.12073644473E+02  0.18564878184E+02  0.00000000000E+00 0. -1.
</event>
<event>
 7    1  0.3050261E-013  0.7246167E+02  0.7816164E-02  0.1226708E+00
        -11   -1    0    0    0    0  0.00000000000E+00  0.00000000000E+00  0.45593999997E+02  0.45594000000E+02  0.51100000000E-03 0.  1.
         11   -1    0    0    0    0 -0.00000000000E+00 -0.00000000000E+00 -0.45593999997E+02  0.45594000000E+02  0.51100000000E-03 0. -1.
    9900012    2    1    2    0    0  0.15083648629E+02 -0.10620859254E+02  0.32181258455E+01  0.72461669841E+02  0.70000129678E+02 0.  0.
         12    1    1    2    0    0 -0.15083648629E+02  0.10620859254E+02 -0.32181258455E+01  0.18726330159E+02  0.00000000000E+00 0. -1.
         11    1    3    3    0    0 -0.56324488478E+01  0.29123456899E+01 -0.18818669213E+01  0.66142014493E+01  0.51100000000E-03 0. -1.
        -11    1    3    3    0    0 -0.66095063137E+01 -0.31425001132E+02 -0.28287482241E+01  0.32236905662E+02  0.51100000000E-03 0.  1.
         12    1    3    3    0    0  0.27325603790E+02  0.17891796188E+02  0.79287409909E+01  0.33610562730E+02  0.00000000000E+00 0. -1.
</event>
<event>
 7    1  0.3050261E-013  0.7246152E+02  0.7816164E-02  0.1226708E+00
        -11   -1    0    0    0    0  0.00000000000E+00  0.00000000000E+00  0.45593999997E+02  0.45594000000E+02  0.51100000000E-03 0.  1.
         11   -1    0    0    0    0 -0.00000000000E+00 -0.00000000000E+00 -0.45593999997E+02  0.45594000000E+02  0.51100000000E-03 0. -1.
    9900012    2    1    2    0    0 -0.10365642297E+02 -0.10450413423E+02  0.11576848123E+02  0.72461518927E+02  0.69999933084E+02 0.  0.
         12    1    1    2    0    0  0.10365642297E+02  0.10450413423E+02 -0.11576848123E+02  0.18726481073E+02  0.00000000000E+00 0. -1.
         11    1    3    3    0    0  0.36419298845E+00  0.43800498905E+01  0.17050343588E+02  0.17607716783E+02  0.51100000000E-03 0. -1.
        -11    1    3    3    0    0 -0.84595839109E+01 -0.10656059332E+02  0.22600829568E+02  0.26380175470E+02  0.51100000000E-03 0.  1.
         12    1    3    3    0    0 -0.22702513745E+01 -0.41744039811E+01 -0.28074325033E+02  0.28473626674E+02  0.00000000000E+00 0. -1.
</event>
<event>
 7    1  0.3050261E-013  0.7246155E+02  0.7816164E-02  0.1226708E+00
        -11   -1    0    0    0    0  0.00000000000E+00  0.00000000000E+00  0.45593999997E+02  0.45594000000E+02  0.51100000000E-03 0.  1.
         11   -1    0    0    0    0 -0.00000000000E+00 -0.00000000000E+00 -0.45593999997E+02  0.45594000000E+02  0.51100000000E-03 0. -1.
    9900012    2    1    2    0    0 -0.13466385173E+01  0.12199505557E+02  0.14143495071E+02  0.72461552820E+02  0.69999977237E+02 0.  0.
         12    1    1    2    0    0  0.13466385173E+01 -0.12199505557E+02 -0.14143495071E+02  0.18726447180E+02  0.00000000000E+00 0. -1.
         11    1    3    3    0    0  0.12368593882E+02  0.25084062201E+02  0.32991302755E+02  0.43250645647E+02  0.51100000000E-03 0.  1.
        -11    1    3    3    0    0 -0.35354503265E+00 -0.75453041064E+01 -0.91212680527E+01  0.11842894042E+02  0.51100000000E-03 0. -1.
        -12    1    3    3    0    0 -0.13361687366E+02 -0.53392525376E+01 -0.97265396307E+01  0.17368013131E+02  0.00000000000E+00 0.  1.
</event>
<event>
 7    1  0.3050261E-013  0.7246156E+02  0.7816164E-02  0.1226708E+00
        -11   -1    0    0    0    0  0.00000000000E+00  0.00000000000E+00  0.45593999997E+02  0.45594000000E+02  0.51100000000E-03 0. -1.
         11   -1    0    0    0    0 -0.00000000000E+00 -0.00000000000E+00 -0.45593999997E+02  0.45594000000E+02  0.51100000000E-03 0.  1.
    9900012    2    1    2    0    0  0.16134506198E+02 -0.76781458997E+01  0.56038810197E+01  0.72461556205E+02  0.69999981646E+02 0.  0.
         12    1    1    2    0    0 -0.16134506198E+02  0.76781458997E+01 -0.56038810197E+01  0.18726443795E+02  0.00000000000E+00 0. -1.
         11    1    3    3    0    0 -0.12225191536E+02 -0.71627802781E+01 -0.18617422662E+01  0.14290794727E+02  0.51100000000E-03 0. -1.
        -11    1    3    3    0    0  0.12649641432E+02  0.23188811322E+02 -0.53956146563E+01  0.26960101200E+02  0.51100000000E-03 0.  1.
        -12    1    3    3    0    0  0.15710056302E+02 -0.23704176944E+02  0.12861237942E+02  0.31210660279E+02  0.00000000000E+00 0.  1.
</event>
<event>
 7    1  0.3050261E-013  0.7246159E+02  0.7816164E-02  0.1226708E+00
        -11   -1    0    0    0    0  0.00000000000E+00  0.00000000000E+00  0.45593999997E+02  0.45594000000E+02  0.51100000000E-03 0.  1.
         11   -1    0    0    0    0 -0.00000000000E+00 -0.00000000000E+00 -0.45593999997E+02  0.45594000000E+02  0.51100000000E-03 0. -1.
    9900012    2    1    2    0    0  0.31792099112E+01  0.71700983208E+01  0.17004729751E+02  0.72461587650E+02  0.70000022610E+02 0.  0.
         12    1    1    2    0    0 -0.31792099112E+01 -0.71700983208E+01 -0.17004729751E+02  0.18726412350E+02  0.00000000000E+00 0. -1.
         11    1    3    3    0    0 -0.10325806867E+02  0.12165357748E+02 -0.16947211379E+02  0.23277160273E+02  0.51100000000E-03 0. -1.
        -11    1    3    3    0    0  0.35307177834E+01  0.13559034273E+02  0.95943508464E+01  0.16981311696E+02  0.51100000000E-03 0.  1.
        -12    1    3    3    0    0  0.99742989948E+01 -0.18554293701E+02  0.24357590283E+02  0.32203115681E+02  0.00000000000E+00 0.  1.
</event>
<event>
 7    1  0.3050261E-013  0.7246154E+02  0.7816164E-02  0.1226708E+00
        -11   -1    0    0    0    0  0.00000000000E+00  0.00000000000E+00  0.45593999997E+02  0.45594000000E+02  0.51100000000E-03 0.  1.
         11   -1    0    0    0    0 -0.00000000000E+00 -0.00000000000E+00 -0.45593999997E+02  0.45594000000E+02  0.51100000000E-03 0. -1.
    9900012    2    1    2    0    0  0.11192625767E+02 -0.18874203725E+01  0.14894392111E+02  0.72461544287E+02  0.69999966121E+02 0.  0.
         12    1    1    2    0    0 -0.11192625767E+02  0.18874203725E+01 -0.14894392111E+02  0.18726455713E+02  0.00000000000E+00 0. -1.
         11    1    3    3    0    0 -0.11462443155E+01 -0.43866457739E+01 -0.90511105397E+00  0.46233930676E+01  0.51100000000E-03 0. -1.
        -11    1    3    3    0    0  0.21350713842E+02 -0.25914023585E+02 -0.10582573882E+01  0.33593295595E+02  0.51100000000E-03 0.  1.
         12    1    3    3    0    0 -0.90118437598E+01  0.28413248987E+02  0.16857760553E+02  0.34244855625E+02  0.00000000000E+00 0. -1.
</event>
<event>
 7    1  0.3050261E-013  0.7246152E+02  0.7816164E-02  0.1226708E+00
        -11   -1    0    0    0    0  0.00000000000E+00  0.00000000000E+00  0.45593999997E+02  0.45594000000E+02  0.51100000000E-03 0. -1.
         11   -1    0    0    0    0 -0.00000000000E+00 -0.00000000000E+00 -0.45593999997E+02  0.45594000000E+02  0.51100000000E-03 0.  1.
    9900012    2    1    2    0    0  0.13967537864E+02 -0.86678641772E+01 -0.89697761748E+01  0.72461524944E+02  0.69999940923E+02 0.  0.
         12    1    1    2    0    0 -0.13967537864E+02  0.86678641772E+01  0.89697761748E+01  0.18726475056E+02  0.00000000000E+00 0. -1.
         11    1    3    3    0    0  0.21508039026E+02  0.17764651997E+02 -0.23180535013E+02  0.36270040075E+02  0.51100000000E-03 0. -1.
        -11    1    3    3    0    0 -0.64504576353E+01  0.16985427814E+00  0.12216548813E+01  0.65673202367E+01  0.51100000000E-03 0.  1.
        -12    1    3    3    0    0 -0.10900435258E+01 -0.26602370453E+02  0.12989103956E+02  0.29624164633E+02  0.00000000000E+00 0.  1.
</event>
<event>
 7    1  0.3050261E-013  0.7246155E+02  0.7816164E-02  0.1226708E+00
        -11   -1    0    0    0    0  0.00000000000E+00  0.00000000000E+00  0.45593999997E+02  0.45594000000E+02  0.51100000000E-03 0.  1.
         11   -1    0    0    0    0 -0.00000000000E+00 -0.00000000000E+00 -0.45593999997E+02  0.45594000000E+02  0.51100000000E-03 0. -1.
    9900012    2    1    2    0    0  0.72415303989E+01  0.12178495788E+02  0.12244368974E+02  0.72461545617E+02  0.69999967854E+02 0.  0.
         12    1    1    2    0    0 -0.72415303989E+01 -0.12178495788E+02 -0.12244368974E+02  0.18726454383E+02  0.00000000000E+00 0. -1.
         11    1    3    3    0    0  0.15332936144E+02  0.13462934523E+02  0.22258754229E+02  0.30196053995E+02  0.51100000000E-03 0. -1.
        -11    1    3    3    0    0  0.42962696456E+01 -0.93298604104E+01  0.11974272056E+02  0.15776166191E+02  0.51100000000E-03 0.  1.
         12    1    3    3    0    0 -0.12387675391E+02  0.80454216751E+01 -0.21988657311E+02  0.26489325432E+02  0.00000000000E+00 0. -1.
</event>
<event>
 7    1  0.3050261E-013  0.7246159E+02  0.7816164E-02  0.1226708E+00
        -11   -1    0    0    0    0  0.00000000000E+00  0.00000000000E+00  0.45593999997E+02  0.45594000000E+02  0.51100000000E-03 0. -1.
         11   -1    0    0    0    0 -0.00000000000E+00 -0.00000000000E+00 -0.45593999997E+02  0.45594000000E+02  0.51100000000E-03 0.  1.
    9900012    2    1    2    0    0  0.13505471458E+02  0.16717263994E+01 -0.12864136348E+02  0.72461589974E+02  0.70000025637E+02 0.  0.
         12    1    1    2    0    0 -0.13505471458E+02 -0.16717263994E+01  0.12864136348E+02  0.18726410026E+02  0.00000000000E+00 0. -1.
         11    1    3    3    0    0 -0.11095760950E+02 -0.86710827672E+01 -0.25722756201E+02  0.29325138947E+02  0.51100000000E-03 0. -1.
        -11    1    3    3    0    0 -0.47017890145E+01 -0.58520166150E+01  0.79452600062E+00  0.75487873348E+01  0.51100000000E-03 0.  1.
        -12    1    3    3    0    0  0.29303021423E+02  0.16194825782E+02  0.12064093852E+02  0.35587663692E+02  0.00000000000E+00 0.  1.
</event>
<event>
 7    1  0.3050261E-013  0.7246156E+02  0.7816164E-02  0.1226708E+00
        -11   -1    0    0    0    0  0.00000000000E+00  0.00000000000E+00  0.45593999997E+02  0.45594000000E+02  0.51100000000E-03 0.  1.
         11   -1    0    0    0    0 -0.00000000000E+00 -0.00000000000E+00 -0.45593999997E+02  0.45594000000E+02  0.51100000000E-03 0. -1.
    9900012    2    1    2    0    0 -0.10130569356E+02  0.87797425518E+01  0.13075444269E+02  0.72461559933E+02  0.69999986502E+02 0.  0.
         12    1    1    2    0    0  0.10130569356E+02 -0.87797425518E+01 -0.13075444269E+02  0.18726440067E+02  0.00000000000E+00 0. -1.
         11    1    3    3    0    0  0.24518508011E+02 -0.62469339016E+01  0.85974119805E+01  0.26722591777E+02  0.51100000000E-03 0. -1.
        -11    1    3    3    0    0 -0.14679277379E+02  0.44447141195E+01  0.14417184926E+02  0.21049747966E+02  0.51100000000E-03 0.  1.
        -12    1    3    3    0    0 -0.19969799989E+02  0.10581962334E+02 -0.99391526376E+01  0.24689220190E+02  0.00000000000E+00 0.  1.
</event>
<event>
 7    1  0.3050261E-013  0.7246157E+02  0.7816164E-02  0.1226708E+00
        -11   -1    0    0    0    0  0.00000000000E+00  0.00000000000E+00  0.45593999997E+02  0.45594000000E+02  0.51100000000E-03 0.  1.
         11   -1    0    0    0    0 -0.00000000000E+00 -0.00000000000E+00 -0.45593999997E+02  0.45594000000E+02  0.51100000000E-03 0. -1.
    9900012    2    1    2    0    0  0.12276019162E+01  0.18680417779E+02  0.46273308199E+00  0.72461571169E+02  0.70000001139E+02 0.  0.
         12    1    1    2    0    0 -0.12276019162E+01 -0.18680417779E+02 -0.46273308199E+00  0.18726428831E+02  0.00000000000E+00 0. -1.
         11    1    3    3    0    0 -0.45094535015E+01  0.17575405112E+01 -0.11187637360E+01  0.49674693848E+01  0.51100000000E-03 0. -1.
        -11    1    3    3    0    0 -0.10059423262E+02  0.38878779510E+02 -0.20068308337E+01  0.40209188786E+02  0.51100000000E-03 0.  1.
         12    1    3    3    0    0  0.15796478680E+02 -0.21955902243E+02  0.35883276518E+01  0.27284912998E+02  0.00000000000E+00 0. -1.
</event>
<event>
 7    1  0.3050261E-013  0.7246147E+02  0.7816164E-02  0.1226708E+00
        -11   -1    0    0    0    0  0.00000000000E+00  0.00000000000E+00  0.45593999997E+02  0.45594000000E+02  0.51100000000E-03 0. -1.
         11   -1    0    0    0    0 -0.00000000000E+00 -0.00000000000E+00 -0.45593999997E+02  0.45594000000E+02  0.51100000000E-03 0.  1.
    9900012    2    1    2    0    0  0.13768921687E+02  0.55384441278E+01 -0.11420392079E+02  0.72461470076E+02  0.69999869446E+02 0.  0.
         12    1    1    2    0    0 -0.13768921687E+02 -0.55384441278E+01  0.11420392079E+02  0.18726529924E+02  0.00000000000E+00 0. -1.
         11    1    3    3    0    0 -0.12744113250E+02 -0.50775263104E+01 -0.32551686496E+01  0.14099284349E+02  0.51100000000E-03 0. -1.
        -11    1    3    3    0    0 -0.14954071291E+02  0.51552519666E+01 -0.40294390334E+00  0.15822870633E+02  0.51100000000E-03 0.  1.
        -12    1    3    3    0    0  0.41467106228E+02  0.54607184715E+01 -0.77622795257E+01  0.42539315093E+02  0.00000000000E+00 0.  1.
</event>
<event>
 7    1  0.3050261E-013  0.7246155E+02  0.7816164E-02  0.1226708E+00
        -11   -1    0    0    0    0  0.00000000000E+00  0.00000000000E+00  0.45593999997E+02  0.45594000000E+02  0.51100000000E-03 0.  1.
         11   -1    0    0    0    0 -0.00000000000E+00 -0.00000000000E+00 -0.45593999997E+02  0.45594000000E+02  0.51100000000E-03 0. -1.
    9900012    2    1    2    0    0 -0.17963030702E+02 -0.23467271971E+01 -0.47436554587E+01  0.72461551654E+02  0.69999975717E+02 0.  0.
         12    1    1    2    0    0  0.17963030702E+02  0.23467271971E+01  0.47436554587E+01  0.18726448346E+02  0.00000000000E+00 0. -1.
         11    1    3    3    0    0 -0.12732073503E+02 -0.14722375434E+02 -0.47010141868E+01  0.20023825028E+02  0.51100000000E-03 0. -1.
        -11    1    3    3    0    0  0.19564664697E+02 -0.55137135308E+01 -0.61943901553E+01  0.21249649673E+02  0.51100000000E-03 0.  1.
        -12    1    3    3    0    0 -0.24795621896E+02  0.17889361768E+02  0.61517488835E+01  0.31188076952E+02  0.00000000000E+00 0.  1.
</event>
<event>
 7    1  0.3050261E-013  0.7246145E+02  0.7816164E-02  0.1226708E+00
        -11   -1    0    0    0    0  0.00000000000E+00  0.00000000000E+00  0.45593999997E+02  0.45594000000E+02  0.51100000000E-03 0.  1.
         11   -1    0    0    0    0 -0.00000000000E+00 -0.00000000000E+00 -0.45593999997E+02  0.45594000000E+02  0.51100000000E-03 0. -1.
    9900012    2    1    2    0    0 -0.72670703113E+01 -0.14041851927E+02  0.10034921303E+02  0.72461453014E+02  0.69999847220E+02 0.  0.
         12    1    1    2    0    0  0.72670703113E+01  0.14041851927E+02 -0.10034921303E+02  0.18726546986E+02  0.00000000000E+00 0. -1.
         11    1    3    3    0    0 -0.28580001502E+01 -0.19911835530E+02  0.61013797196E+00  0.20125149133E+02  0.51100000000E-03 0. -1.
        -11    1    3    3    0    0 -0.63993298095E+01 -0.20831165028E+02  0.12919752609E+02  0.25333946912E+02  0.51100000000E-03 0.  1.
         12    1    3    3    0    0  0.19902596484E+01  0.26701148630E+02 -0.34949692774E+01  0.27002356969E+02  0.00000000000E+00 0. -1.
</event>
<event>
 7    1  0.3050261E-013  0.7246154E+02  0.7816164E-02  0.1226708E+00
        -11   -1    0    0    0    0  0.00000000000E+00  0.00000000000E+00  0.45593999997E+02  0.45594000000E+02  0.51100000000E-03 0. -1.
         11   -1    0    0    0    0 -0.00000000000E+00 -0.00000000000E+00 -0.45593999997E+02  0.45594000000E+02  0.51100000000E-03 0.  1.
    9900012    2    1    2    0    0  0.44664320038E+01 -0.50719212328E+01 -0.17464446476E+02  0.72461540363E+02  0.69999961009E+02 0.  0.
         12    1    1    2    0    0 -0.44664320038E+01  0.50719212328E+01  0.17464446476E+02  0.18726459637E+02  0.00000000000E+00 0. -1.
         11    1    3    3    0    0 -0.45030927763E+01  0.29001904969E+01 -0.52807252281E+00  0.53821752406E+01  0.51100000000E-03 0. -1.
        -11    1    3    3    0    0  0.97849160795E+01 -0.31884550829E+02 -0.25161393620E+02  0.41778761272E+02  0.51100000000E-03 0.  1.
         12    1    3    3    0    0 -0.81539129937E+00  0.23912439100E+02  0.82250196669E+01  0.25300603850E+02  0.00000000000E+00 0. -1.
</event>
<event>
 7    1  0.3050261E-013  0.7246162E+02  0.7816164E-02  0.1226708E+00
        -11   -1    0    0    0    0  0.00000000000E+00  0.00000000000E+00  0.45593999997E+02  0.45594000000E+02  0.51100000000E-03 0.  1.
         11   -1    0    0    0    0 -0.00000000000E+00 -0.00000000000E+00 -0.45593999997E+02  0.45594000000E+02  0.51100000000E-03 0. -1.
    9900012    2    1    2    0    0  0.46946152488E+01 -0.15962696805E+02  0.85924586449E+01  0.72461616281E+02  0.70000059907E+02 0.  0.
         12    1    1    2    0    0 -0.46946152488E+01  0.15962696805E+02 -0.85924586449E+01  0.18726383719E+02  0.00000000000E+00 0. -1.
         11    1    3    3    0    0  0.99086332608E+01 -0.12845131508E+01 -0.15318092637E+02  0.18288656305E+02  0.51100000000E-03 0. -1.
        -11    1    3    3    0    0  0.84389341104E+01 -0.13578079369E+02 -0.91268599728E+01  0.18408677886E+02  0.51100000000E-03 0.  1.
        -12    1    3    3    0    0 -0.13652952122E+02 -0.11001042845E+01  0.33037411255E+02  0.35764282091E+02  0.00000000000E+00 0.  1.
</event>
<event>
 7    1  0.3050261E-013  0.7246186E+02  0.7816164E-02  0.1226707E+00
        -11   -1    0    0    0    0  0.00000000000E+00  0.00000000000E+00  0.45593999997E+02  0.45594000000E+02  0.51100000000E-03 0. -1.
         11   -1    0    0    0    0 -0.00000000000E+00 -0.00000000000E+00 -0.45593999997E+02  0.45594000000E+02  0.51100000000E-03 0.  1.
    9900012    2    1    2    0    0  0.18353037027E+02  0.25293632594E+01 -0.27270284320E+01  0.72461859696E+02  0.70000376998E+02 0.  0.
         12    1    1    2    0    0 -0.18353037027E+02 -0.25293632594E+01  0.27270284320E+01  0.18726140304E+02  0.00000000000E+00 0. -1.
         11    1    3    3    0    0  0.24940760112E+01  0.28878724650E+02  0.36023610146E+01  0.29209213575E+02  0.51100000000E-03 0. -1.
        -11    1    3    3    0    0 -0.27107033306E+01  0.49654547316E+01  0.18242640508E+01  0.59440384274E+01  0.51100000000E-03 0.  1.
        -12    1    3    3    0    0  0.18569664347E+02 -0.31314816122E+02 -0.81536534974E+01  0.37308607694E+02  0.00000000000E+00 0.  1.
</event>
<event>
 7    1  0.3050261E-013  0.7246159E+02  0.7816164E-02  0.1226708E+00
        -11   -1    0    0    0    0  0.00000000000E+00  0.00000000000E+00  0.45593999997E+02  0.45594000000E+02  0.51100000000E-03 0.  1.
         11   -1    0    0    0    0 -0.00000000000E+00 -0.00000000000E+00 -0.45593999997E+02  0.45594000000E+02  0.51100000000E-03 0. -1.
    9900012    2    1    2    0    0  0.10412535281E+02  0.56015466106E+01  0.14521708971E+02  0.72461594930E+02  0.70000032093E+02 0.  0.
         12    1    1    2    0    0 -0.10412535281E+02 -0.56015466106E+01 -0.14521708971E+02  0.18726405070E+02  0.00000000000E+00 0. -1.
         11    1    3    3    0    0 -0.13538308035E+02  0.78092674312E+01 -0.19373796813E+02  0.24892055871E+02  0.51100000000E-03 0. -1.
        -11    1    3    3    0    0  0.10485594625E+02 -0.55469971199E+01  0.10433061907E+01  0.11908205564E+02  0.51100000000E-03 0.  1.
        -12    1    3    3    0    0  0.13465248691E+02  0.33392762993E+01  0.32852199593E+02  0.35661333495E+02  0.00000000000E+00 0.  1.
</event>
<event>
 7    1  0.3050261E-013  0.7246156E+02  0.7816164E-02  0.1226708E+00
        -11   -1    0    0    0    0  0.00000000000E+00  0.00000000000E+00  0.45593999997E+02  0.45594000000E+02  0.51100000000E-03 0.  1.
         11   -1    0    0    0    0 -0.00000000000E+00 -0.00000000000E+00 -0.45593999997E+02  0.45594000000E+02  0.51100000000E-03 0. -1.
    9900012    2    1    2    0    0  0.70720149463E+01 -0.10552469203E+02  0.13759048456E+02  0.72461563711E+02  0.69999991424E+02 0.  0.
         12    1    1    2    0    0 -0.70720149463E+01  0.10552469203E+02 -0.13759048456E+02  0.18726436289E+02  0.00000000000E+00 0. -1.
         11    1    3    3    0    0  0.27427564555E+02 -0.81679351423E+01  0.95287813225E+01  0.30162628130E+02  0.51100000000E-03 0.  1.
        -11    1    3    3    0    0 -0.63718477956E+01  0.15730301740E+02  0.85604973430E+01  0.19008549450E+02  0.51100000000E-03 0. -1.
        -12    1    3    3    0    0 -0.13983701813E+02 -0.18114835801E+02 -0.43302302097E+01  0.23290386132E+02  0.00000000000E+00 0.  1.
</event>
<event>
 7    1  0.3050261E-013  0.7246161E+02  0.7816164E-02  0.1226708E+00
        -11   -1    0    0    0    0  0.00000000000E+00  0.00000000000E+00  0.45593999997E+02  0.45594000000E+02  0.51100000000E-03 0. -1.
         11   -1    0    0    0    0 -0.00000000000E+00 -0.00000000000E+00 -0.45593999997E+02  0.45594000000E+02  0.51100000000E-03 0.  1.
    9900012    2    1    2    0    0  0.17913076151E+02  0.46723599685E+01 -0.28228234239E+01  0.72461612817E+02  0.70000055393E+02 0.  0.
         12    1    1    2    0    0 -0.17913076151E+02 -0.46723599685E+01  0.28228234239E+01  0.18726387183E+02  0.00000000000E+00 0. -1.
         11    1    3    3    0    0  0.71252755064E+01  0.18788273945E+02  0.39780495640E+01  0.20483985634E+02  0.51100000000E-03 0. -1.
        -11    1    3    3    0    0 -0.11046252072E+01  0.17606142668E+02 -0.28620879077E+01  0.17871429824E+02  0.51100000000E-03 0.  1.
        -12    1    3    3    0    0  0.11892425851E+02 -0.31722056644E+02 -0.39387850801E+01  0.34106197359E+02  0.00000000000E+00 0.  1.
</event>
<event>
 7    1  0.3050261E-013  0.7246159E+02  0.7816164E-02  0.1226708E+00
        -11   -1    0    0    0    0  0.00000000000E+00  0.00000000000E+00  0.45593999997E+02  0.45594000000E+02  0.51100000000E-03 0.  1.
         11   -1    0    0    0    0 -0.00000000000E+00 -0.00000000000E+00 -0.45593999997E+02  0.45594000000E+02  0.51100000000E-03 0. -1.
    9900012    2    1    2    0    0 -0.10654116946E+02 -0.73130485092E+00  0.15382893352E+02  0.72461590238E+02  0.70000025980E+02 0.  0.
         12    1    1    2    0    0  0.10654116946E+02  0.73130485092E+00 -0.15382893352E+02  0.18726409762E+02  0.00000000000E+00 0. -1.
         11    1    3    3    0    0  0.13953820218E+02 -0.24192760488E+00 -0.46377253389E+01  0.14706329393E+02  0.51100000000E-03 0. -1.
        -11    1    3    3    0    0  0.11470120846E+02 -0.29888431367E+01  0.17977060085E+02  0.21533033810E+02  0.51100000000E-03 0.  1.
        -12    1    3    3    0    0 -0.36078058010E+02  0.24994658907E+01  0.20435586059E+01  0.36222227034E+02  0.00000000000E+00 0.  1.
</event>
<event>
 7    1  0.3050261E-013  0.7246165E+02  0.7816164E-02  0.1226708E+00
        -11   -1    0    0    0    0  0.00000000000E+00  0.00000000000E+00  0.45593999997E+02  0.45594000000E+02  0.51100000000E-03 0.  1.
         11   -1    0    0    0    0 -0.00000000000E+00 -0.00000000000E+00 -0.45593999997E+02  0.45594000000E+02  0.51100000000E-03 0. -1.
    9900012    2    1    2    0    0  0.49410806888E+01 -0.13510647814E+02  0.11988509732E+02  0.72461648291E+02  0.70000101605E+02 0.  0.
         12    1    1    2    0    0 -0.49410806888E+01  0.13510647814E+02 -0.11988509732E+02  0.18726351709E+02  0.00000000000E+00 0. -1.
         11    1    3    3    0    0  0.11902231366E+02  0.15138257665E+01 -0.60954517582E+01  0.13457685995E+02  0.51100000000E-03 0. -1.
        -11    1    3    3    0    0  0.11659056133E+02 -0.30208098985E+01  0.31071203290E+02  0.33323843664E+02  0.51100000000E-03 0.  1.
         12    1    3    3    0    0 -0.18620206810E+02 -0.12003663682E+02 -0.12987241800E+02  0.25680118633E+02  0.00000000000E+00 0. -1.
</event>
<event>
 7    1  0.3050261E-013  0.7246158E+02  0.7816164E-02  0.1226708E+00
        -11   -1    0    0    0    0  0.00000000000E+00  0.00000000000E+00  0.45593999997E+02  0.45594000000E+02  0.51100000000E-03 0.  1.
         11   -1    0    0    0    0 -0.00000000000E+00 -0.00000000000E+00 -0.45593999997E+02  0.45594000000E+02  0.51100000000E-03 0. -1.
    9900012    2    1    2    0    0  0.14517279747E+02 -0.77805789207E+01  0.89101110009E+01  0.72461577553E+02  0.70000009456E+02 0.  0.
         12    1    1    2    0    0 -0.14517279747E+02  0.77805789207E+01 -0.89101110009E+01  0.18726422447E+02  0.00000000000E+00 0. -1.
         11    1    3    3    0    0  0.24486201415E+02 -0.19179351973E+02  0.87913829420E+01  0.32321974199E+02  0.51100000000E-03 0. -1.
        -11    1    3    3    0    0  0.12733703563E+02  0.16787686431E+01  0.68314408716E+01  0.14547647756E+02  0.51100000000E-03 0.  1.
         12    1    3    3    0    0 -0.22702625230E+02  0.97200044092E+01 -0.67127128127E+01  0.25591955599E+02  0.00000000000E+00 0. -1.
</event>
<event>
 7    1  0.3050261E-013  0.7246158E+02  0.7816164E-02  0.1226708E+00
        -11   -1    0    0    0    0  0.00000000000E+00  0.00000000000E+00  0.45593999997E+02  0.45594000000E+02  0.51100000000E-03 0. -1.
         11   -1    0    0    0    0 -0.00000000000E+00 -0.00000000000E+00 -0.45593999997E+02  0.45594000000E+02  0.51100000000E-03 0.  1.
    9900012    2    1    2    0    0 -0.15359394682E+02 -0.42314346176E+01 -0.98418808573E+01  0.72461583826E+02  0.70000017628E+02 0.  0.
         12    1    1    2    0    0  0.15359394682E+02  0.42314346176E+01  0.98418808573E+01  0.18726416174E+02  0.00000000000E+00 0. -1.
         11    1    3    3    0    0  0.61159835177E+01  0.23629503276E+02  0.13334879609E+02  0.27813264712E+02  0.51100000000E-03 0. -1.
        -11    1    3    3    0    0 -0.29930325452E+01 -0.29336527751E+01  0.20414440026E+01  0.46617653629E+01  0.51100000000E-03 0.  1.
        -12    1    3    3    0    0 -0.18482345654E+02 -0.24927285119E+02 -0.25218204469E+02  0.39986553751E+02  0.00000000000E+00 0.  1.
</event>
<event>
 7    1  0.3050261E-013  0.7246149E+02  0.7816164E-02  0.1226708E+00
        -11   -1    0    0    0    0  0.00000000000E+00  0.00000000000E+00  0.45593999997E+02  0.45594000000E+02  0.51100000000E-03 0.  1.
         11   -1    0    0    0    0 -0.00000000000E+00 -0.00000000000E+00 -0.45593999997E+02  0.45594000000E+02  0.51100000000E-03 0. -1.
    9900012    2    1    2    0    0 -0.12832343226E+02 -0.10353425535E+02  0.88780553516E+01  0.72461486181E+02  0.69999890427E+02 0.  0.
         12    1    1    2    0    0  0.12832343226E+02  0.10353425535E+02 -0.88780553516E+01  0.18726513819E+02  0.00000000000E+00 0. -1.
         11    1    3    3    0    0 -0.18079856630E+02  0.11150380552E+02  0.33133717260E+01  0.21498619367E+02  0.51100000000E-03 0. -1.
        -11    1    3    3    0    0 -0.61051480079E-01  0.74940507374E+01  0.17593706706E+02  0.19123363712E+02  0.51100000000E-03 0.  1.
         12    1    3    3    0    0  0.53085648843E+01 -0.28997856824E+02 -0.12029023080E+02  0.31839503102E+02  0.00000000000E+00 0. -1.
</event>
<event>
 7    1  0.3050261E-013  0.7246133E+02  0.7816164E-02  0.1226709E+00
        -11   -1    0    0    0    0  0.00000000000E+00  0.00000000000E+00  0.45593999997E+02  0.45594000000E+02  0.51100000000E-03 0.  1.
         11   -1    0    0    0    0 -0.00000000000E+00 -0.00000000000E+00 -0.45593999997E+02  0.45594000000E+02  0.51100000000E-03 0. -1.
    9900012    2    1    2    0    0  0.94308093705E+01  0.12298190526E+02 -0.10512011102E+02  0.72461333639E+02  0.69999691712E+02 0.  0.
         12    1    1    2    0    0 -0.94308093705E+01 -0.12298190526E+02  0.10512011102E+02  0.18726666361E+02  0.00000000000E+00 0. -1.
         11    1    3    3    0    0 -0.17286437431E+02  0.10966378162E+02  0.48943640847E+00  0.20477351325E+02  0.51100000000E-03 0.  1.
        -11    1    3    3    0    0  0.10018148697E+01  0.17390861243E+02  0.44165866752E+01  0.17970863250E+02  0.51100000000E-03 0. -1.
        -12    1    3    3    0    0  0.25715431931E+02 -0.16059048880E+02 -0.15418034186E+02  0.34013119064E+02  0.00000000000E+00 0.  1.
</event>
<event>
 7    1  0.3050261E-013  0.7246154E+02  0.7816164E-02  0.1226708E+00
        -11   -1    0    0    0    0  0.00000000000E+00  0.00000000000E+00  0.45593999997E+02  0.45594000000E+02  0.51100000000E-03 0.  1.
         11   -1    0    0    0    0 -0.00000000000E+00 -0.00000000000E+00 -0.45593999997E+02  0.45594000000E+02  0.51100000000E-03 0. -1.
    9900012    2    1    2    0    0  0.51247864958E+01 -0.17976514450E+02  0.11233079035E+01  0.72461539335E+02  0.69999959670E+02 0.  0.
         12    1    1    2    0    0 -0.51247864958E+01  0.17976514450E+02 -0.11233079035E+01  0.18726460665E+02  0.00000000000E+00 0. -1.
         11    1    3    3    0    0  0.14016445569E+02  0.21177539602E+02  0.13509826944E+02  0.28765680147E+02  0.51100000000E-03 0. -1.
        -11    1    3    3    0    0 -0.64643728521E-01 -0.59988140993E+01 -0.65687286553E+01  0.88959623323E+01  0.51100000000E-03 0.  1.
        -12    1    3    3    0    0 -0.88270153451E+01 -0.33155239952E+02 -0.58177903855E+01  0.34799896856E+02  0.00000000000E+00 0.  1.
</event>
<event>
 7    1  0.3050261E-013  0.7246162E+02  0.7816164E-02  0.1226708E+00
        -11   -1    0    0    0    0  0.00000000000E+00  0.00000000000E+00  0.45593999997E+02  0.45594000000E+02  0.51100000000E-03 0. -1.
         11   -1    0    0    0    0 -0.00000000000E+00 -0.00000000000E+00 -0.45593999997E+02  0.45594000000E+02  0.51100000000E-03 0.  1.
    9900012    2    1    2    0    0  0.18536131138E+02 -0.19906657831E+01 -0.17681963269E+01  0.72461616844E+02  0.70000060640E+02 0.  0.
         12    1    1    2    0    0 -0.18536131138E+02  0.19906657831E+01  0.17681963269E+01  0.18726383156E+02  0.00000000000E+00 0. -1.
         11    1    3    3    0    0  0.40172903111E+01  0.16991049960E+01  0.33404163443E+01  0.54939931604E+01  0.51100000000E-03 0. -1.
        -11    1    3    3    0    0 -0.34571274850E+01  0.26901653328E+02  0.92981315283E+01  0.28672389723E+02  0.51100000000E-03 0.  1.
        -12    1    3    3    0    0  0.17975968312E+02 -0.30591424108E+02 -0.14406744200E+02  0.38295233961E+02  0.00000000000E+00 0.  1.
</event>
<event>
 7    1  0.3050261E-013  0.7246147E+02  0.7816164E-02  0.1226708E+00
        -11   -1    0    0    0    0  0.00000000000E+00  0.00000000000E+00  0.45593999997E+02  0.45594000000E+02  0.51100000000E-03 0.  1.
         11   -1    0    0    0    0 -0.00000000000E+00 -0.00000000000E+00 -0.45593999997E+02  0.45594000000E+02  0.51100000000E-03 0. -1.
    9900012    2    1    2    0    0 -0.17321097601E+02 -0.59413695851E+01 -0.39195257085E+01  0.72461468649E+02  0.69999867588E+02 0.  0.
         12    1    1    2    0    0  0.17321097601E+02  0.59413695851E+01  0.39195257085E+01  0.18726531351E+02  0.00000000000E+00 0. -1.
         11    1    3    3    0    0 -0.20026485121E+02  0.35975474614E+01 -0.14325186625E+02  0.24883999400E+02  0.51100000000E-03 0. -1.
        -11    1    3    3    0    0  0.94322890341E+01  0.43017566028E+01 -0.14785507513E+02  0.18057807701E+02  0.51100000000E-03 0.  1.
        -12    1    3    3    0    0 -0.67269015146E+01 -0.13840673649E+02  0.25191168430E+02  0.29519661548E+02  0.00000000000E+00 0.  1.
</event>
<event>
 7    1  0.3050261E-013  0.7246161E+02  0.7816164E-02  0.1226708E+00
        -11   -1    0    0    0    0  0.00000000000E+00  0.00000000000E+00  0.45593999997E+02  0.45594000000E+02  0.51100000000E-03 0.  1.
         11   -1    0    0    0    0 -0.00000000000E+00 -0.00000000000E+00 -0.45593999997E+02  0.45594000000E+02  0.51100000000E-03 0. -1.
    9900012    2    1    2    0    0 -0.11072049940E+02  0.10729036167E+02  0.10628980900E+02  0.72461608412E+02  0.70000049655E+02 0.  0.
         12    1    1    2    0    0  0.11072049940E+02 -0.10729036167E+02 -0.10628980900E+02  0.18726391588E+02  0.00000000000E+00 0. -1.
         11    1    3    3    0    0  0.14855677024E+02 -0.12996811892E+02  0.13851020692E+02  0.24113461670E+02  0.51100000000E-03 0. -1.
        -11    1    3    3    0    0  0.20029649472E+01  0.36826316645E+01  0.10520555943E+02  0.11325005173E+02  0.51100000000E-03 0.  1.
        -12    1    3    3    0    0 -0.27930691912E+02  0.20043216394E+02 -0.13742595735E+02  0.37023141569E+02  0.00000000000E+00 0.  1.
</event>
<event>
 7    1  0.3050261E-013  0.7246160E+02  0.7816164E-02  0.1226708E+00
        -11   -1    0    0    0    0  0.00000000000E+00  0.00000000000E+00  0.45593999997E+02  0.45594000000E+02  0.51100000000E-03 0. -1.
         11   -1    0    0    0    0 -0.00000000000E+00 -0.00000000000E+00 -0.45593999997E+02  0.45594000000E+02  0.51100000000E-03 0.  1.
    9900012    2    1    2    0    0 -0.13088592643E+02  0.69187104880E+01 -0.11467273517E+02  0.72461596873E+02  0.70000034623E+02 0.  0.
         12    1    1    2    0    0  0.13088592643E+02 -0.69187104880E+01  0.11467273517E+02  0.18726403127E+02  0.00000000000E+00 0. -1.
         11    1    3    3    0    0 -0.18317683543E+02  0.23393242982E+01 -0.11430838332E+02  0.21718057781E+02  0.51100000000E-03 0. -1.
        -11    1    3    3    0    0  0.77357829075E+01 -0.45213620308E+01 -0.23662142047E+02  0.25301818479E+02  0.51100000000E-03 0.  1.
        -12    1    3    3    0    0 -0.25066920069E+01  0.91007482206E+01  0.23625706862E+02  0.25441720613E+02  0.00000000000E+00 0.  1.
</event>
<event>
 7    1  0.3050261E-013  0.7246156E+02  0.7816164E-02  0.1226708E+00
        -11   -1    0    0    0    0  0.00000000000E+00  0.00000000000E+00  0.45593999997E+02  0.45594000000E+02  0.51100000000E-03 0.  1.
         11   -1    0    0    0    0 -0.00000000000E+00 -0.00000000000E+00 -0.45593999997E+02  0.45594000000E+02  0.51100000000E-03 0. -1.
    9900012    2    1    2    0    0 -0.16170700883E+02  0.33682289465E+01  0.88228588929E+01  0.72461564879E+02  0.69999992946E+02 0.  0.
         12    1    1    2    0    0  0.16170700883E+02 -0.33682289465E+01 -0.88228588929E+01  0.18726435121E+02  0.00000000000E+00 0. -1.
         11    1    3    3    0    0 -0.12942509875E+02  0.15835762726E+02 -0.15360100693E+02  0.25577580740E+02  0.51100000000E-03 0. -1.
        -11    1    3    3    0    0 -0.10746871809E+02  0.62670595529E+01  0.23611986690E+02  0.26688896658E+02  0.51100000000E-03 0.  1.
        -12    1    3    3    0    0  0.75186808002E+01 -0.18734593333E+02  0.57097289506E+00  0.20195087481E+02  0.00000000000E+00 0.  1.
</event>
<event>
 7    1  0.3050261E-013  0.7246157E+02  0.7816164E-02  0.1226708E+00
        -11   -1    0    0    0    0  0.00000000000E+00  0.00000000000E+00  0.45593999997E+02  0.45594000000E+02  0.51100000000E-03 0. -1.
         11   -1    0    0    0    0 -0.00000000000E+00 -0.00000000000E+00 -0.45593999997E+02  0.45594000000E+02  0.51100000000E-03 0.  1.
    9900012    2    1    2    0    0 -0.11249644947E+02 -0.44307370799E+01 -0.14300117324E+02  0.72461566864E+02  0.69999995531E+02 0.  0.
         12    1    1    2    0    0  0.11249644947E+02  0.44307370799E+01  0.14300117324E+02  0.18726433136E+02  0.00000000000E+00 0. -1.
         11    1    3    3    0    0  0.13953194682E+01  0.19834405044E+02 -0.17427837121E+02  0.26440121914E+02  0.51100000000E-03 0. -1.
        -11    1    3    3    0    0  0.67218855555E+00  0.95484800363E+01  0.79741023087E+00  0.96052679189E+01  0.51100000000E-03 0.  1.
        -12    1    3    3    0    0 -0.13317152971E+02 -0.33813622160E+02  0.23303095656E+01  0.36416177031E+02  0.00000000000E+00 0.  1.
</event>
<event>
 7    1  0.3050261E-013  0.7246168E+02  0.7816164E-02  0.1226708E+00
        -11   -1    0    0    0    0  0.00000000000E+00  0.00000000000E+00  0.45593999997E+02  0.45594000000E+02  0.51100000000E-03 0.  1.
         11   -1    0    0    0    0 -0.00000000000E+00 -0.00000000000E+00 -0.45593999997E+02  0.45594000000E+02  0.51100000000E-03 0. -1.
    9900012    2    1    2    0    0  0.47987250116E+01  0.77070210731E+01  0.16378314021E+02  0.72461678799E+02  0.70000141348E+02 0.  0.
         12    1    1    2    0    0 -0.47987250116E+01 -0.77070210731E+01 -0.16378314021E+02  0.18726321201E+02  0.00000000000E+00 0. -1.
         11    1    3    3    0    0  0.91345516278E+01 -0.68194364381E+01 -0.63133990731E+01  0.13030876981E+02  0.51100000000E-03 0. -1.
        -11    1    3    3    0    0  0.18111547461E+02 -0.10669676498E+02  0.10946640219E+02  0.23700191568E+02  0.51100000000E-03 0.  1.
        -12    1    3    3    0    0 -0.22447374078E+02  0.25196134009E+02  0.11745072875E+02  0.35730610250E+02  0.00000000000E+00 0.  1.
</event>
<event>
 7    1  0.3050261E-013  0.7246156E+02  0.7816164E-02  0.1226708E+00
        -11   -1    0    0    0    0  0.00000000000E+00  0.00000000000E+00  0.45593999997E+02  0.45594000000E+02  0.51100000000E-03 0.  1.
         11   -1    0    0    0    0 -0.00000000000E+00 -0.00000000000E+00 -0.45593999997E+02  0.45594000000E+02  0.51100000000E-03 0. -1.
    9900012    2    1    2    0    0 -0.93153604830E+00  0.15585930596E+02  0.10338781587E+02  0.72461564229E+02  0.69999992099E+02 0.  0.
         12    1    1    2    0    0  0.93153604830E+00 -0.15585930596E+02 -0.10338781587E+02  0.18726435771E+02  0.00000000000E+00 0. -1.
         11    1    3    3    0    0  0.23882163711E+02 -0.59454570219E+01  0.12555886161E+01  0.24643106658E+02  0.51100000000E-03 0. -1.
        -11    1    3    3    0    0  0.75450245776E+01  0.83193328697E+01 -0.14244391643E+01  0.11321118428E+02  0.51100000000E-03 0.  1.
         12    1    3    3    0    0 -0.32358724337E+02  0.13212054749E+02  0.10507632136E+02  0.36497339143E+02  0.00000000000E+00 0. -1.
</event>
<event>
 7    1  0.3050261E-013  0.7246154E+02  0.7816164E-02  0.1226708E+00
        -11   -1    0    0    0    0  0.00000000000E+00  0.00000000000E+00  0.45593999997E+02  0.45594000000E+02  0.51100000000E-03 0. -1.
         11   -1    0    0    0    0 -0.00000000000E+00 -0.00000000000E+00 -0.45593999997E+02  0.45594000000E+02  0.51100000000E-03 0.  1.
    9900012    2    1    2    0    0  0.25847537319E+00  0.18250532328E+02  0.41870513672E+01  0.72461544411E+02  0.69999966282E+02 0.  0.
         12    1    1    2    0    0 -0.25847537319E+00 -0.18250532328E+02 -0.41870513672E+01  0.18726455589E+02  0.00000000000E+00 0. -1.
         11    1    3    3    0    0  0.12418398885E+01  0.58563319723E+01  0.96134738871E+01  0.11325090327E+02  0.51100000000E-03 0. -1.
        -11    1    3    3    0    0 -0.63437600864E+00  0.35609269478E+02 -0.10970022233E+02  0.37266122601E+02  0.51100000000E-03 0.  1.
         12    1    3    3    0    0 -0.34898850667E+00 -0.23215069122E+02  0.55435997135E+01  0.23870331483E+02  0.00000000000E+00 0. -1.
</event>
<event>
 7    1  0.3050261E-013  0.7246156E+02  0.7816164E-02  0.1226708E+00
        -11   -1    0    0    0    0  0.00000000000E+00  0.00000000000E+00  0.45593999997E+02  0.45594000000E+02  0.51100000000E-03 0.  1.
         11   -1    0    0    0    0 -0.00000000000E+00 -0.00000000000E+00 -0.45593999997E+02  0.45594000000E+02  0.51100000000E-03 0. -1.
    9900012    2    1    2    0    0 -0.16875456470E+01  0.10370640173E+02  0.15501023697E+02  0.72461555501E+02  0.69999980729E+02 0.  0.
         12    1    1    2    0    0  0.16875456470E+01 -0.10370640173E+02 -0.15501023697E+02  0.18726444499E+02  0.00000000000E+00 0. -1.
         11    1    3    3    0    0  0.49140790393E+01  0.18884095171E+02 -0.18871847809E+02  0.27145973241E+02  0.51100000000E-03 0. -1.
        -11    1    3    3    0    0  0.29186851920E+01 -0.10843620089E+02  0.18916284178E+01  0.11387760018E+02  0.51100000000E-03 0.  1.
        -12    1    3    3    0    0 -0.95203098783E+01  0.23301650919E+01  0.32481243088E+02  0.33927822242E+02  0.00000000000E+00 0.  1.
</event>
<event>
 7    1  0.3050261E-013  0.7246159E+02  0.7816164E-02  0.1226708E+00
        -11   -1    0    0    0    0  0.00000000000E+00  0.00000000000E+00  0.45593999997E+02  0.45594000000E+02  0.51100000000E-03 0.  1.
         11   -1    0    0    0    0 -0.00000000000E+00 -0.00000000000E+00 -0.45593999997E+02  0.45594000000E+02  0.51100000000E-03 0. -1.
    9900012    2    1    2    0    0  0.17438738811E+02  0.50774670602E+01 -0.45594058791E+01  0.72461589104E+02  0.70000024503E+02 0.  0.
         12    1    1    2    0    0 -0.17438738811E+02 -0.50774670602E+01  0.45594058791E+01  0.18726410896E+02  0.00000000000E+00 0. -1.
         11    1    3    3    0    0  0.33214284773E+02  0.18579072441E+02 -0.13235904643E+02  0.40293421519E+02  0.51100000000E-03 0. -1.
        -11    1    3    3    0    0 -0.49526021939E+01 -0.12670959598E+02 -0.51878323959E+01  0.14560051197E+02  0.51100000000E-03 0.  1.
        -12    1    3    3    0    0 -0.10822943768E+02 -0.83064578201E+00  0.13864331159E+02  0.17608116388E+02  0.00000000000E+00 0.  1.
</event>
<event>
 7    1  0.3050261E-013  0.7246149E+02  0.7816164E-02  0.1226708E+00
        -11   -1    0    0    0    0  0.00000000000E+00  0.00000000000E+00  0.45593999997E+02  0.45594000000E+02  0.51100000000E-03 0. -1.
         11   -1    0    0    0    0 -0.00000000000E+00 -0.00000000000E+00 -0.45593999997E+02  0.45594000000E+02  0.51100000000E-03 0.  1.
    9900012    2    1    2    0    0  0.44167311381E+01  0.14845397413E+02 -0.10525625098E+02  0.72461491463E+02  0.69999897307E+02 0.  0.
         12    1    1    2    0    0 -0.44167311381E+01 -0.14845397413E+02  0.10525625098E+02  0.18726508537E+02  0.00000000000E+00 0. -1.
         11    1    3    3    0    0  0.40282113553E+00  0.14992291622E+02  0.10695147361E+02  0.18420565960E+02  0.51100000000E-03 0. -1.
        -11    1    3    3    0    0  0.26384660340E+02  0.98375782721E-01 -0.16672755520E+02  0.31211228043E+02  0.51100000000E-03 0.  1.
         12    1    3    3    0    0 -0.22370750337E+02 -0.24526999202E+00 -0.45480169399E+01  0.22829697460E+02  0.00000000000E+00 0. -1.
</event>
<event>
 7    1  0.3050261E-013  0.7246158E+02  0.7816164E-02  0.1226708E+00
        -11   -1    0    0    0    0  0.00000000000E+00  0.00000000000E+00  0.45593999997E+02  0.45594000000E+02  0.51100000000E-03 0.  1.
         11   -1    0    0    0    0 -0.00000000000E+00 -0.00000000000E+00 -0.45593999997E+02  0.45594000000E+02  0.51100000000E-03 0. -1.
    9900012    2    1    2    0    0 -0.10160664815E+02 -0.14421680106E+02  0.62813160762E+01  0.72461577538E+02  0.70000009436E+02 0.  0.
         12    1    1    2    0    0  0.10160664815E+02  0.14421680106E+02 -0.62813160762E+01  0.18726422462E+02  0.00000000000E+00 0. -1.
         11    1    3    3    0    0 -0.11172900149E+02 -0.17556401677E+02  0.25073229312E+02  0.32584164344E+02  0.51100000000E-03 0. -1.
        -11    1    3    3    0    0  0.58147599599E+01 -0.12429678612E+02  0.15588427001E+01  0.13810804995E+02  0.51100000000E-03 0.  1.
         12    1    3    3    0    0 -0.48025246258E+01  0.15564400183E+02 -0.20350755936E+02  0.26066608199E+02  0.00000000000E+00 0. -1.
</event>
<event>
 7    1  0.3050261E-013  0.7246156E+02  0.7816164E-02  0.1226708E+00
        -11   -1    0    0    0    0  0.00000000000E+00  0.00000000000E+00  0.45593999997E+02  0.45594000000E+02  0.51100000000E-03 0. -1.
         11   -1    0    0    0    0 -0.00000000000E+00 -0.00000000000E+00 -0.45593999997E+02  0.45594000000E+02  0.51100000000E-03 0.  1.
    9900012    2    1    2    0    0 -0.11581366568E+02  0.11761325625E+02  0.88443523701E+01  0.72461564117E+02  0.69999991952E+02 0.  0.
         12    1    1    2    0    0  0.11581366568E+02 -0.11761325625E+02 -0.88443523701E+01  0.18726435883E+02  0.00000000000E+00 0. -1.
         11    1    3    3    0    0  0.23375812245E+02  0.66807727923E+01  0.60879365733E+01  0.25062408009E+02  0.51100000000E-03 0. -1.
        -11    1    3    3    0    0  0.15984581263E+01 -0.75627734547E+01  0.39905390760E+01  0.86991386405E+01  0.51100000000E-03 0.  1.
        -12    1    3    3    0    0 -0.36555636940E+02  0.12643326288E+02 -0.12341232792E+01  0.38700017467E+02  0.00000000000E+00 0.  1.
</event>
<event>
 7    1  0.3050261E-013  0.7246140E+02  0.7816164E-02  0.1226708E+00
        -11   -1    0    0    0    0  0.00000000000E+00  0.00000000000E+00  0.45593999997E+02  0.45594000000E+02  0.51100000000E-03 0.  1.
         11   -1    0    0    0    0 -0.00000000000E+00 -0.00000000000E+00 -0.45593999997E+02  0.45594000000E+02  0.51100000000E-03 0. -1.
    9900012    2    1    2    0    0 -0.52345413362E+01  0.10414187690E+02  0.14657070317E+02  0.72461402911E+02  0.69999781952E+02 0.  0.
         12    1    1    2    0    0  0.52345413362E+01 -0.10414187690E+02 -0.14657070317E+02  0.18726597089E+02  0.00000000000E+00 0. -1.
         11    1    3    3    0    0 -0.15308516999E+02  0.69528959950E+01 -0.16452332870E+02  0.23523875373E+02  0.51100000000E-03 0. -1.
        -11    1    3    3    0    0 -0.11372899032E+02  0.13566880460E+01  0.23395422797E+02  0.26048593877E+02  0.51100000000E-03 0.  1.
        -12    1    3    3    0    0  0.21446874695E+02  0.21046036493E+01  0.77139803897E+01  0.22888933661E+02  0.00000000000E+00 0.  1.
</event>
<event>
 7    1  0.3050261E-013  0.7246156E+02  0.7816164E-02  0.1226708E+00
        -11   -1    0    0    0    0  0.00000000000E+00  0.00000000000E+00  0.45593999997E+02  0.45594000000E+02  0.51100000000E-03 0.  1.
         11   -1    0    0    0    0 -0.00000000000E+00 -0.00000000000E+00 -0.45593999997E+02  0.45594000000E+02  0.51100000000E-03 0. -1.
    9900012    2    1    2    0    0  0.10997958245E+02 -0.14718024598E+02 -0.36199993690E+01  0.72461555354E+02  0.69999980538E+02 0.  0.
         12    1    1    2    0    0 -0.10997958245E+02  0.14718024598E+02  0.36199993690E+01  0.18726444646E+02  0.00000000000E+00 0. -1.
         11    1    3    3    0    0  0.30301283238E+01 -0.70075413854E+01 -0.88685280829E+00  0.76859496545E+01  0.51100000000E-03 0. -1.
        -11    1    3    3    0    0  0.23217168916E+02 -0.10497890573E+02  0.23266883395E+02  0.34504934461E+02  0.51100000000E-03 0.  1.
         12    1    3    3    0    0 -0.15249338995E+02  0.27874073603E+01 -0.26000029956E+02  0.30270671239E+02  0.00000000000E+00 0. -1.
</event>
<event>
 7    1  0.3050261E-013  0.7246207E+02  0.7816164E-02  0.1226707E+00
        -11   -1    0    0    0    0  0.00000000000E+00  0.00000000000E+00  0.45593999997E+02  0.45594000000E+02  0.51100000000E-03 0.  1.
         11   -1    0    0    0    0 -0.00000000000E+00 -0.00000000000E+00 -0.45593999997E+02  0.45594000000E+02  0.51100000000E-03 0. -1.
    9900012    2    1    2    0    0 -0.17749478295E+02 -0.16765586110E+01  0.57276138799E+01  0.72462071738E+02  0.70000653220E+02 0.  0.
         12    1    1    2    0    0  0.17749478295E+02  0.16765586110E+01 -0.57276138799E+01  0.18725928262E+02  0.00000000000E+00 0. -1.
         11    1    3    3    0    0  0.54393116112E+00 -0.25713912955E+02 -0.15447586215E+02  0.30002151601E+02  0.51100000000E-03 0. -1.
        -11    1    3    3    0    0 -0.19537799110E+02  0.15048676577E+02  0.70118148747E+01  0.25638912007E+02  0.51100000000E-03 0.  1.
        -12    1    3    3    0    0  0.12443896538E+01  0.89886777662E+01  0.14163385220E+02  0.16821008130E+02  0.00000000000E+00 0.  1.
</event>
<event>
 7    1  0.3050261E-013  0.7246155E+02  0.7816164E-02  0.1226708E+00
        -11   -1    0    0    0    0  0.00000000000E+00  0.00000000000E+00  0.45593999997E+02  0.45594000000E+02  0.51100000000E-03 0. -1.
         11   -1    0    0    0    0 -0.00000000000E+00 -0.00000000000E+00 -0.45593999997E+02  0.45594000000E+02  0.51100000000E-03 0.  1.
    9900012    2    1    2    0    0  0.15105133668E+01  0.16091182551E+02 -0.94589634808E+01  0.72461553550E+02  0.69999978187E+02 0.  0.
         12    1    1    2    0    0 -0.15105133668E+01 -0.16091182551E+02  0.94589634808E+01  0.18726446450E+02  0.00000000000E+00 0. -1.
         11    1    3    3    0    0  0.13454090180E+02  0.45651194110E+01  0.19056946727E+02  0.23770150959E+02  0.51100000000E-03 0. -1.
        -11    1    3    3    0    0  0.12133353988E+02  0.81908190340E+01 -0.69869759179E+01  0.16221147561E+02  0.51100000000E-03 0.  1.
        -12    1    3    3    0    0 -0.24076930801E+02  0.33352441058E+01 -0.21528934290E+02  0.32470255030E+02  0.00000000000E+00 0.  1.
</event>
<event>
 7    1  0.3050261E-013  0.7246157E+02  0.7816164E-02  0.1226708E+00
        -11   -1    0    0    0    0  0.00000000000E+00  0.00000000000E+00  0.45593999997E+02  0.45594000000E+02  0.51100000000E-03 0. -1.
         11   -1    0    0    0    0 -0.00000000000E+00 -0.00000000000E+00 -0.45593999997E+02  0.45594000000E+02  0.51100000000E-03 0.  1.
    9900012    2    1    2    0    0 -0.89600065844E+01  0.14362369274E+02 -0.80074776744E+01  0.72461573008E+02  0.70000003535E+02 0.  0.
         12    1    1    2    0    0  0.89600065844E+01 -0.14362369274E+02  0.80074776744E+01  0.18726426992E+02  0.00000000000E+00 0. -1.
         11    1    3    3    0    0 -0.49050780664E+01  0.78525976189E+01 -0.10010701719E+02  0.13635880220E+02  0.51100000000E-03 0. -1.
        -11    1    3    3    0    0  0.20037889655E+02  0.14008052423E+02 -0.14735240573E+02  0.28545925620E+02  0.51100000000E-03 0.  1.
         12    1    3    3    0    0 -0.24092818173E+02 -0.74982807673E+01  0.16738464618E+02  0.30279767168E+02  0.00000000000E+00 0. -1.
</event>
<event>
 7    1  0.3050261E-013  0.7246153E+02  0.7816164E-02  0.1226708E+00
        -11   -1    0    0    0    0  0.00000000000E+00  0.00000000000E+00  0.45593999997E+02  0.45594000000E+02  0.51100000000E-03 0.  1.
         11   -1    0    0    0    0 -0.00000000000E+00 -0.00000000000E+00 -0.45593999997E+02  0.45594000000E+02  0.51100000000E-03 0. -1.
    9900012    2    1    2    0    0 -0.13080396132E+01 -0.65806296414E+01  0.17483275263E+02  0.72461532954E+02  0.69999951357E+02 0.  0.
         12    1    1    2    0    0  0.13080396132E+01  0.65806296414E+01 -0.17483275263E+02  0.18726467046E+02  0.00000000000E+00 0. -1.
         11    1    3    3    0    0  0.18538909393E+02 -0.14061630431E+01 -0.11815291788E+02  0.22028835110E+02  0.51100000000E-03 0. -1.
        -11    1    3    3    0    0 -0.31887045811E+01 -0.16132045550E+02  0.19096171862E+01  0.16554678148E+02  0.51100000000E-03 0.  1.
        -12    1    3    3    0    0 -0.16658244426E+02  0.10957578951E+02  0.27388949865E+02  0.33878019696E+02  0.00000000000E+00 0.  1.
</event>
<event>
 7    1  0.3050261E-013  0.7246157E+02  0.7816164E-02  0.1226708E+00
        -11   -1    0    0    0    0  0.00000000000E+00  0.00000000000E+00  0.45593999997E+02  0.45594000000E+02  0.51100000000E-03 0.  1.
         11   -1    0    0    0    0 -0.00000000000E+00 -0.00000000000E+00 -0.45593999997E+02  0.45594000000E+02  0.51100000000E-03 0. -1.
    9900012    2    1    2    0    0  0.12946150505E+02 -0.56927304627E+00  0.13518592629E+02  0.72461568643E+02  0.69999997849E+02 0.  0.
         12    1    1    2    0    0 -0.12946150505E+02  0.56927304627E+00 -0.13518592629E+02  0.18726431357E+02  0.00000000000E+00 0. -1.
         11    1    3    3    0    0  0.28484123149E+02  0.17606637438E+02 -0.86606664395E+01  0.34588236394E+02  0.51100000000E-03 0. -1.
        -11    1    3    3    0    0 -0.12575163790E+01 -0.37056284643E+01 -0.34104022395E+01  0.51907488338E+01  0.51100000000E-03 0.  1.
        -12    1    3    3    0    0 -0.14280456264E+02 -0.14470282020E+02  0.25589661308E+02  0.32682583415E+02  0.00000000000E+00 0.  1.
</event>
<event>
 7    1  0.3050261E-013  0.7246159E+02  0.7816164E-02  0.1226708E+00
        -11   -1    0    0    0    0  0.00000000000E+00  0.00000000000E+00  0.45593999997E+02  0.45594000000E+02  0.51100000000E-03 0.  1.
         11   -1    0    0    0    0 -0.00000000000E+00 -0.00000000000E+00 -0.45593999997E+02  0.45594000000E+02  0.51100000000E-03 0. -1.
    9900012    2    1    2    0    0  0.67440892979E+00  0.76464020347E+01  0.17080869258E+02  0.72461591212E+02  0.70000027249E+02 0.  0.
         12    1    1    2    0    0 -0.67440892979E+00 -0.76464020347E+01 -0.17080869258E+02  0.18726408788E+02  0.00000000000E+00 0. -1.
         11    1    3    3    0    0 -0.11797220140E+02  0.21050298461E+02  0.97731487359E+00  0.24150457821E+02  0.51100000000E-03 0. -1.
        -11    1    3    3    0    0 -0.13968493466E+02 -0.32023863385E+01  0.13771677928E+02  0.19875442164E+02  0.51100000000E-03 0.  1.
        -12    1    3    3    0    0  0.26440122536E+02 -0.10201510088E+02  0.23318764564E+01  0.28435691228E+02  0.00000000000E+00 0.  1.
</event>
<event>
 7    1  0.3050261E-013  0.7246159E+02  0.7816164E-02  0.1226708E+00
        -11   -1    0    0    0    0  0.00000000000E+00  0.00000000000E+00  0.45593999997E+02  0.45594000000E+02  0.51100000000E-03 0.  1.
         11   -1    0    0    0    0 -0.00000000000E+00 -0.00000000000E+00 -0.45593999997E+02  0.45594000000E+02  0.51100000000E-03 0. -1.
    9900012    2    1    2    0    0 -0.61678799483E+01 -0.17340169824E+02  0.34575043496E+01  0.72461586331E+02  0.70000020890E+02 0.  0.
         12    1    1    2    0    0  0.61678799483E+01  0.17340169824E+02 -0.34575043496E+01  0.18726413669E+02  0.00000000000E+00 0. -1.
         11    1    3    3    0    0 -0.95360679001E+01 -0.76432505652E+01  0.14544661158E+02  0.18997448215E+02  0.51100000000E-03 0. -1.
        -11    1    3    3    0    0 -0.14420236303E+00  0.31154648310E+01  0.19693474913E+02  0.19938903427E+02  0.51100000000E-03 0.  1.
         12    1    3    3    0    0  0.35123903148E+01 -0.12812384090E+02 -0.30780631722E+02  0.33525234689E+02  0.00000000000E+00 0. -1.
</event>
<event>
 7    1  0.3050261E-013  0.7246199E+02  0.7816164E-02  0.1226707E+00
        -11   -1    0    0    0    0  0.00000000000E+00  0.00000000000E+00  0.45593999997E+02  0.45594000000E+02  0.51100000000E-03 0. -1.
         11   -1    0    0    0    0 -0.00000000000E+00 -0.00000000000E+00 -0.45593999997E+02  0.45594000000E+02  0.51100000000E-03 0.  1.
    9900012    2    1    2    0    0  0.37271581064E+01 -0.11958621174E+02  0.13919882471E+02  0.72461989855E+02  0.70000546554E+02 0.  0.
         12    1    1    2    0    0 -0.37271581064E+01  0.11958621174E+02 -0.13919882471E+02  0.18726010145E+02  0.00000000000E+00 0. -1.
         11    1    3    3    0    0  0.99287482204E+01 -0.12769874002E+02  0.15952082912E+01  0.16254058355E+02  0.51100000000E-03 0.  1.
        -11    1    3    3    0    0 -0.81564868574E+01 -0.23620647297E+02  0.18308048864E+02  0.30978184422E+02  0.51100000000E-03 0. -1.
        -12    1    3    3    0    0  0.19548967434E+01  0.24431900125E+02 -0.59833746849E+01  0.25229747078E+02  0.00000000000E+00 0.  1.
</event>
<event>
 7    1  0.3050261E-013  0.7246158E+02  0.7816164E-02  0.1226708E+00
        -11   -1    0    0    0    0  0.00000000000E+00  0.00000000000E+00  0.45593999997E+02  0.45594000000E+02  0.51100000000E-03 0. -1.
         11   -1    0    0    0    0 -0.00000000000E+00 -0.00000000000E+00 -0.45593999997E+02  0.45594000000E+02  0.51100000000E-03 0.  1.
    9900012    2    1    2    0    0  0.12018957622E+02  0.14325489384E+02 -0.10019868790E+01  0.72461575725E+02  0.70000007075E+02 0.  0.
         12    1    1    2    0    0 -0.12018957622E+02 -0.14325489384E+02  0.10019868790E+01  0.18726424275E+02  0.00000000000E+00 0. -1.
         11    1    3    3    0    0 -0.43318852104E+01  0.15359607528E+02  0.10859423675E+02  0.19303104821E+02  0.51100000000E-03 0. -1.
        -11    1    3    3    0    0 -0.47658533253E+00 -0.36361014717E+01  0.18223703950E+02  0.18589022390E+02  0.51100000000E-03 0.  1.
        -12    1    3    3    0    0  0.16827428165E+02  0.26019833273E+01 -0.30085114504E+02  0.34569448515E+02  0.00000000000E+00 0.  1.
</event>
<event>
 7    1  0.3050261E-013  0.7246133E+02  0.7816164E-02  0.1226709E+00
        -11   -1    0    0    0    0  0.00000000000E+00  0.00000000000E+00  0.45593999997E+02  0.45594000000E+02  0.51100000000E-03 0.  1.
         11   -1    0    0    0    0 -0.00000000000E+00 -0.00000000000E+00 -0.45593999997E+02  0.45594000000E+02  0.51100000000E-03 0. -1.
    9900012    2    1    2    0    0  0.42534124747E+01  0.14411274933E+02  0.11176393613E+02  0.72461330860E+02  0.69999688092E+02 0.  0.
         12    1    1    2    0    0 -0.42534124747E+01 -0.14411274933E+02 -0.11176393613E+02  0.18726669140E+02  0.00000000000E+00 0. -1.
         11    1    3    3    0    0  0.12675946065E+02 -0.19265840814E+02 -0.70646401965E+01  0.24119729938E+02  0.51100000000E-03 0. -1.
        -11    1    3    3    0    0  0.72860664265E+01  0.64439955783E+01 -0.32542758773E+01  0.10256810164E+02  0.51100000000E-03 0.  1.
        -12    1    3    3    0    0 -0.15708600017E+02  0.27233120168E+02  0.21495309687E+02  0.38084790759E+02  0.00000000000E+00 0.  1.
</event>
<event>
 7    1  0.3050261E-013  0.7246155E+02  0.7816164E-02  0.1226708E+00
        -11   -1    0    0    0    0  0.00000000000E+00  0.00000000000E+00  0.45593999997E+02  0.45594000000E+02  0.51100000000E-03 0.  1.
         11   -1    0    0    0    0 -0.00000000000E+00 -0.00000000000E+00 -0.45593999997E+02  0.45594000000E+02  0.51100000000E-03 0. -1.
    9900012    2    1    2    0    0  0.37281479005E+01  0.27446153822E+01  0.18145190140E+02  0.72461550107E+02  0.69999973703E+02 0.  0.
         12    1    1    2    0    0 -0.37281479005E+01 -0.27446153822E+01 -0.18145190140E+02  0.18726449893E+02  0.00000000000E+00 0. -1.
         11    1    3    3    0    0  0.46719111529E+01 -0.12021373461E+02  0.16339056504E+02  0.20815978031E+02  0.51100000000E-03 0. -1.
        -11    1    3    3    0    0 -0.98274307439E+01 -0.15063014512E+02 -0.70006786701E+01  0.19299800603E+02  0.51100000000E-03 0.  1.
        -12    1    3    3    0    0  0.88836674915E+01  0.29829003354E+02  0.88068123063E+01  0.32345771474E+02  0.00000000000E+00 0.  1.
</event>
<event>
 7    1  0.3050261E-013  0.7246156E+02  0.7816164E-02  0.1226708E+00
        -11   -1    0    0    0    0  0.00000000000E+00  0.00000000000E+00  0.45593999997E+02  0.45594000000E+02  0.51100000000E-03 0. -1.
         11   -1    0    0    0    0 -0.00000000000E+00 -0.00000000000E+00 -0.45593999997E+02  0.45594000000E+02  0.51100000000E-03 0.  1.
    9900012    2    1    2    0    0  0.16556935857E+01  0.12359518297E+02 -0.13970700382E+02  0.72461561926E+02  0.69999989098E+02 0.  0.
         12    1    1    2    0    0 -0.16556935857E+01 -0.12359518297E+02  0.13970700382E+02  0.18726438074E+02  0.00000000000E+00 0. -1.
         11    1    3    3    0    0  0.44246555340E+00 -0.62795329085E+01 -0.13657959101E+01  0.64415609944E+01  0.51100000000E-03 0.  1.
        -11    1    3    3    0    0 -0.65595273483E+01  0.39748761721E+02 -0.15849438562E+02  0.43291987254E+02  0.51100000000E-03 0. -1.
         12    1    3    3    0    0  0.77727553806E+01 -0.21109710515E+02  0.32445340902E+01  0.22728013677E+02  0.00000000000E+00 0. -1.
</event>
<event>
 7    1  0.3050261E-013  0.7246192E+02  0.7816164E-02  0.1226707E+00
        -11   -1    0    0    0    0  0.00000000000E+00  0.00000000000E+00  0.45593999997E+02  0.45594000000E+02  0.51100000000E-03 0. -1.
         11   -1    0    0    0    0 -0.00000000000E+00 -0.00000000000E+00 -0.45593999997E+02  0.45594000000E+02  0.51100000000E-03 0.  1.
    9900012    2    1    2    0    0 -0.61766053374E+01 -0.17652939988E+02  0.94299275918E+00  0.72461922486E+02  0.70000458794E+02 0.  0.
         12    1    1    2    0    0  0.61766053374E+01  0.17652939988E+02 -0.94299275918E+00  0.18726077514E+02  0.00000000000E+00 0. -1.
         11    1    3    3    0    0 -0.23736837991E+02 -0.83921972299E+01 -0.47851895012E+01  0.25627416783E+02  0.51100000000E-03 0. -1.
        -11    1    3    3    0    0 -0.77594321499E+00 -0.91627423005E+01 -0.15968722981E+02  0.18427100918E+02  0.51100000000E-03 0.  1.
         12    1    3    3    0    0  0.18336175868E+02 -0.98000457219E-01  0.21696905242E+02  0.28407404785E+02  0.00000000000E+00 0. -1.
</event>
<event>
 7    1  0.3050261E-013  0.7246156E+02  0.7816164E-02  0.1226708E+00
        -11   -1    0    0    0    0  0.00000000000E+00  0.00000000000E+00  0.45593999997E+02  0.45594000000E+02  0.51100000000E-03 0. -1.
         11   -1    0    0    0    0 -0.00000000000E+00 -0.00000000000E+00 -0.45593999997E+02  0.45594000000E+02  0.51100000000E-03 0.  1.
    9900012    2    1    2    0    0  0.15718946150E+02 -0.36924637680E+01 -0.94847250217E+01  0.72461559722E+02  0.69999986228E+02 0.  0.
         12    1    1    2    0    0 -0.15718946150E+02  0.36924637680E+01  0.94847250217E+01  0.18726440278E+02  0.00000000000E+00 0. -1.
         11    1    3    3    0    0 -0.56996923474E+01 -0.67911442640E+01 -0.72964439615E+01  0.11482344186E+02  0.51100000000E-03 0. -1.
        -11    1    3    3    0    0 -0.44343318616E+01  0.19708221670E+02 -0.17427295589E+02  0.26679354046E+02  0.51100000000E-03 0.  1.
         12    1    3    3    0    0  0.25852970359E+02 -0.16609541174E+02  0.15239014529E+02  0.34299861490E+02  0.00000000000E+00 0. -1.
</event>
<event>
 7    1  0.3050261E-013  0.7246154E+02  0.7816164E-02  0.1226708E+00
        -11   -1    0    0    0    0  0.00000000000E+00  0.00000000000E+00  0.45593999997E+02  0.45594000000E+02  0.51100000000E-03 0.  1.
         11   -1    0    0    0    0 -0.00000000000E+00 -0.00000000000E+00 -0.45593999997E+02  0.45594000000E+02  0.51100000000E-03 0. -1.
    9900012    2    1    2    0    0 -0.81512182168E+01  0.61605528877E+01 -0.15693489001E+02  0.72461538313E+02  0.69999958338E+02 0.  0.
         12    1    1    2    0    0  0.81512182168E+01 -0.61605528877E+01  0.15693489001E+02  0.18726461687E+02  0.00000000000E+00 0. -1.
         11    1    3    3    0    0  0.32606831126E+01 -0.52558580967E+01  0.14752530219E+01  0.63586531933E+01  0.51100000000E-03 0. -1.
        -11    1    3    3    0    0 -0.23972662276E+02  0.31840552199E+02 -0.10559319962E+02  0.41231159810E+02  0.51100000000E-03 0.  1.
         12    1    3    3    0    0  0.12560760947E+02 -0.20424141214E+02 -0.66094220611E+01  0.24871725310E+02  0.00000000000E+00 0. -1.
</event>
<event>
 7    1  0.3050261E-013  0.7246154E+02  0.7816164E-02  0.1226708E+00
        -11   -1    0    0    0    0  0.00000000000E+00  0.00000000000E+00  0.45593999997E+02  0.45594000000E+02  0.51100000000E-03 0. -1.
         11   -1    0    0    0    0 -0.00000000000E+00 -0.00000000000E+00 -0.45593999997E+02  0.45594000000E+02  0.51100000000E-03 0.  1.
    9900012    2    1    2    0    0 -0.12704036454E+01 -0.18394258484E+02  0.32737783151E+01  0.72461540243E+02  0.69999960852E+02 0.  0.
         12    1    1    2    0    0  0.12704036454E+01  0.18394258484E+02 -0.32737783151E+01  0.18726459757E+02  0.00000000000E+00 0. -1.
         11    1    3    3    0    0 -0.42788766317E+01 -0.66454741890E+00  0.27910527577E+02  0.28244432343E+02  0.51100000000E-03 0. -1.
        -11    1    3    3    0    0 -0.14456206635E+02 -0.99163370564E+01 -0.10579721114E+02  0.20475501215E+02  0.51100000000E-03 0.  1.
        -12    1    3    3    0    0  0.17464679621E+02 -0.78133740083E+01 -0.14057028147E+02  0.23741606685E+02  0.00000000000E+00 0.  1.
</event>
<event>
 7    1  0.3050261E-013  0.7246156E+02  0.7816164E-02  0.1226708E+00
        -11   -1    0    0    0    0  0.00000000000E+00  0.00000000000E+00  0.45593999997E+02  0.45594000000E+02  0.51100000000E-03 0. -1.
         11   -1    0    0    0    0 -0.00000000000E+00 -0.00000000000E+00 -0.45593999997E+02  0.45594000000E+02  0.51100000000E-03 0.  1.
    9900012    2    1    2    0    0  0.11987197504E+00  0.18610621404E+02 -0.20760662253E+01  0.72461557484E+02  0.69999983313E+02 0.  0.
         12    1    1    2    0    0 -0.11987197504E+00 -0.18610621404E+02  0.20760662253E+01  0.18726442516E+02  0.00000000000E+00 0. -1.
         11    1    3    3    0    0  0.88120733392E+01 -0.44299005697E+01  0.14601626717E+02  0.17620560679E+02  0.51100000000E-03 0. -1.
        -11    1    3    3    0    0  0.11779644072E+02  0.28616133545E+02 -0.83969082392E+01  0.32064796612E+02  0.51100000000E-03 0.  1.
        -12    1    3    3    0    0 -0.20471845436E+02 -0.55756115713E+01 -0.82807847029E+01  0.22776200194E+02  0.00000000000E+00 0.  1.
</event>
<event>
 7    1  0.3050261E-013  0.7246157E+02  0.7816164E-02  0.1226708E+00
        -11   -1    0    0    0    0  0.00000000000E+00  0.00000000000E+00  0.45593999997E+02  0.45594000000E+02  0.51100000000E-03 0.  1.
         11   -1    0    0    0    0 -0.00000000000E+00 -0.00000000000E+00 -0.45593999997E+02  0.45594000000E+02  0.51100000000E-03 0. -1.
    9900012    2    1    2    0    0  0.65668728456E+01 -0.99233694933E+01  0.14459673085E+02  0.72461568765E+02  0.69999998008E+02 0.  0.
         12    1    1    2    0    0 -0.65668728456E+01  0.99233694933E+01 -0.14459673085E+02  0.18726431235E+02  0.00000000000E+00 0. -1.
         11    1    3    3    0    0 -0.44745185923E+01 -0.79928031683E+01  0.27373307890E+02  0.28865276791E+02  0.51100000000E-03 0. -1.
        -11    1    3    3    0    0 -0.58594957800E+01  0.13039011399E+02  0.46061227395E+01  0.15018850688E+02  0.51100000000E-03 0.  1.
         12    1    3    3    0    0  0.16900887218E+02 -0.14969577724E+02 -0.17519757545E+02  0.28577441285E+02  0.00000000000E+00 0. -1.
</event>
<event>
 7    1  0.3050261E-013  0.7246159E+02  0.7816164E-02  0.1226708E+00
        -11   -1    0    0    0    0  0.00000000000E+00  0.00000000000E+00  0.45593999997E+02  0.45594000000E+02  0.51100000000E-03 0.  1.
         11   -1    0    0    0    0 -0.00000000000E+00 -0.00000000000E+00 -0.45593999997E+02  0.45594000000E+02  0.51100000000E-03 0. -1.
    9900012    2    1    2    0    0 -0.13467822260E+02 -0.11763304246E+02  0.55606393139E+01  0.72461594237E+02  0.70000031190E+02 0.  0.
         12    1    1    2    0    0  0.13467822260E+02  0.11763304246E+02 -0.55606393139E+01  0.18726405763E+02  0.00000000000E+00 0. -1.
         11    1    3    3    0    0  0.10392855267E+02  0.13382160715E+02  0.84158053517E+01  0.18918759103E+02  0.51100000000E-03 0. -1.
        -11    1    3    3    0    0  0.79011885316E+01 -0.53315231019E+01 -0.11685635463E+02  0.15080052893E+02  0.51100000000E-03 0.  1.
        -12    1    3    3    0    0 -0.31761866059E+02 -0.19813941858E+02  0.88304694256E+01  0.38462782242E+02  0.00000000000E+00 0.  1.
</event>
<event>
 7    1  0.3050261E-013  0.7246157E+02  0.7816164E-02  0.1226708E+00
        -11   -1    0    0    0    0  0.00000000000E+00  0.00000000000E+00  0.45593999997E+02  0.45594000000E+02  0.51100000000E-03 0. -1.
         11   -1    0    0    0    0 -0.00000000000E+00 -0.00000000000E+00 -0.45593999997E+02  0.45594000000E+02  0.51100000000E-03 0.  1.
    9900012    2    1    2    0    0  0.10295484186E+02  0.45705523671E+01  0.14959691203E+02  0.72461566692E+02  0.69999995307E+02 0.  0.
         12    1    1    2    0    0 -0.10295484186E+02 -0.45705523671E+01 -0.14959691203E+02  0.18726433308E+02  0.00000000000E+00 0. -1.
         11    1    3    3    0    0 -0.53067396276E+01  0.77050701798E+01 -0.16090276809E+01  0.94930797053E+01  0.51100000000E-03 0. -1.
        -11    1    3    3    0    0  0.33570762493E+02 -0.12169428397E+02  0.22245168784E+02  0.42070638412E+02  0.51100000000E-03 0.  1.
         12    1    3    3    0    0 -0.17968538680E+02  0.90349105847E+01 -0.56764499004E+01  0.20897848574E+02  0.00000000000E+00 0. -1.
</event>
<event>
 7    1  0.3050261E-013  0.7246151E+02  0.7816164E-02  0.1226708E+00
        -11   -1    0    0    0    0  0.00000000000E+00  0.00000000000E+00  0.45593999997E+02  0.45594000000E+02  0.51100000000E-03 0.  1.
         11   -1    0    0    0    0 -0.00000000000E+00 -0.00000000000E+00 -0.45593999997E+02  0.45594000000E+02  0.51100000000E-03 0. -1.
    9900012    2    1    2    0    0  0.81976136265E+00  0.82628505969E+01  0.16784950057E+02  0.72461514556E+02  0.69999927390E+02 0.  0.
         12    1    1    2    0    0 -0.81976136265E+00 -0.82628505969E+01 -0.16784950057E+02  0.18726485444E+02  0.00000000000E+00 0. -1.
         11    1    3    3    0    0 -0.46013224394E+01 -0.84693068954E+01 -0.81412697285E+01  0.12616719088E+02  0.51100000000E-03 0. -1.
        -11    1    3    3    0    0  0.46673974977E+00  0.12235373375E+02 -0.14999393927E+02  0.19362438536E+02  0.51100000000E-03 0.  1.
         12    1    3    3    0    0  0.49543440522E+01  0.44967841179E+01  0.39925613713E+02  0.40482356932E+02  0.00000000000E+00 0. -1.
</event>
<event>
 7    1  0.3050261E-013  0.7246155E+02  0.7816164E-02  0.1226708E+00
        -11   -1    0    0    0    0  0.00000000000E+00  0.00000000000E+00  0.45593999997E+02  0.45594000000E+02  0.51100000000E-03 0. -1.
         11   -1    0    0    0    0 -0.00000000000E+00 -0.00000000000E+00 -0.45593999997E+02  0.45594000000E+02  0.51100000000E-03 0.  1.
    9900012    2    1    2    0    0 -0.17570989889E+02 -0.64632453642E+01 -0.40823516829E+00  0.72461551264E+02  0.69999975209E+02 0.  0.
         12    1    1    2    0    0  0.17570989889E+02  0.64632453642E+01  0.40823516829E+00  0.18726448736E+02  0.00000000000E+00 0. -1.
         11    1    3    3    0    0  0.14610848062E+02  0.69903373460E+01  0.13069024685E+02  0.20812042278E+02  0.51100000000E-03 0. -1.
        -11    1    3    3    0    0 -0.20896502877E+01  0.10749768403E+02 -0.53401169840E+01  0.12183636925E+02  0.51100000000E-03 0.  1.
        -12    1    3    3    0    0 -0.30092187663E+02 -0.24203351114E+02 -0.81371428695E+01  0.39465872061E+02  0.00000000000E+00 0.  1.
</event>
<event>
 7    1  0.3050261E-013  0.7246164E+02  0.7816164E-02  0.1226708E+00
        -11   -1    0    0    0    0  0.00000000000E+00  0.00000000000E+00  0.45593999997E+02  0.45594000000E+02  0.51100000000E-03 0.  1.
         11   -1    0    0    0    0 -0.00000000000E+00 -0.00000000000E+00 -0.45593999997E+02  0.45594000000E+02  0.51100000000E-03 0. -1.
    9900012    2    1    2    0    0  0.13871957914E+02  0.67633351805E+01  0.10606724012E+02  0.72461641214E+02  0.70000092385E+02 0.  0.
         12    1    1    2    0    0 -0.13871957914E+02 -0.67633351805E+01 -0.10606724012E+02  0.18726358786E+02  0.00000000000E+00 0. -1.
         11    1    3    3    0    0 -0.15160948695E+02 -0.17097828723E+01  0.16065162229E+01  0.15341402068E+02  0.51100000000E-03 0. -1.
        -11    1    3    3    0    0  0.13311846671E+01 -0.15319439863E+02 -0.74292370510E+01  0.17077788316E+02  0.51100000000E-03 0.  1.
        -12    1    3    3    0    0  0.27701721942E+02  0.23792557916E+02  0.16429444840E+02  0.40042450830E+02  0.00000000000E+00 0.  1.
</event>
<event>
 7    1  0.3050261E-013  0.7246155E+02  0.7816164E-02  0.1226708E+00
        -11   -1    0    0    0    0  0.00000000000E+00  0.00000000000E+00  0.45593999997E+02  0.45594000000E+02  0.51100000000E-03 0.  1.
         11   -1    0    0    0    0 -0.00000000000E+00 -0.00000000000E+00 -0.45593999997E+02  0.45594000000E+02  0.51100000000E-03 0. -1.
    9900012    2    1    2    0    0  0.64017840786E+01 -0.17113414815E+02 -0.41021969800E+01  0.72461552764E+02  0.69999977164E+02 0.  0.
         12    1    1    2    0    0 -0.64017840786E+01  0.17113414815E+02  0.41021969800E+01  0.18726447236E+02  0.00000000000E+00 0. -1.
         11    1    3    3    0    0  0.95214359984E+01 -0.31457440275E+02  0.41582899554E+01  0.33128834386E+02  0.51100000000E-03 0. -1.
        -11    1    3    3    0    0  0.14829113776E+01 -0.11212518964E+02  0.18609507230E+01  0.11462231263E+02  0.51100000000E-03 0.  1.
        -12    1    3    3    0    0 -0.46025632974E+01  0.25556544424E+02 -0.10121437658E+02  0.27870487116E+02  0.00000000000E+00 0.  1.
</event>
<event>
 7    1  0.3050261E-013  0.7246154E+02  0.7816164E-02  0.1226708E+00
        -11   -1    0    0    0    0  0.00000000000E+00  0.00000000000E+00  0.45593999997E+02  0.45594000000E+02  0.51100000000E-03 0.  1.
         11   -1    0    0    0    0 -0.00000000000E+00 -0.00000000000E+00 -0.45593999997E+02  0.45594000000E+02  0.51100000000E-03 0. -1.
    9900012    2    1    2    0    0 -0.10463180645E+02  0.63027604377E+01  0.14194265706E+02  0.72461544989E+02  0.69999967035E+02 0.  0.
         12    1    1    2    0    0  0.10463180645E+02 -0.63027604377E+01 -0.14194265706E+02  0.18726455011E+02  0.00000000000E+00 0. -1.
         11    1    3    3    0    0 -0.80610128368E+01  0.77528737813E+01 -0.86910805562E+01  0.14164104678E+02  0.51100000000E-03 0. -1.
        -11    1    3    3    0    0 -0.23328087654E+02 -0.11192842850E+01  0.28287534739E+02  0.36682926447E+02  0.51100000000E-03 0.  1.
         12    1    3    3    0    0  0.20925919846E+02 -0.33082905856E+00 -0.54021884760E+01  0.21614513864E+02  0.00000000000E+00 0. -1.
</event>
<event>
 7    1  0.3050261E-013  0.7246158E+02  0.7816164E-02  0.1226708E+00
        -11   -1    0    0    0    0  0.00000000000E+00  0.00000000000E+00  0.45593999997E+02  0.45594000000E+02  0.51100000000E-03 0.  1.
         11   -1    0    0    0    0 -0.00000000000E+00 -0.00000000000E+00 -0.45593999997E+02  0.45594000000E+02  0.51100000000E-03 0. -1.
    9900012    2    1    2    0    0  0.82798591218E+01 -0.14154681721E+02  0.90425567627E+01  0.72461577103E+02  0.70000008870E+02 0.  0.
         12    1    1    2    0    0 -0.82798591218E+01  0.14154681721E+02 -0.90425567627E+01  0.18726422897E+02  0.00000000000E+00 0. -1.
         11    1    3    3    0    0  0.36628260622E+01 -0.22115415028E+02 -0.12944160798E+02  0.25885501263E+02  0.51100000000E-03 0. -1.
        -11    1    3    3    0    0  0.12362219028E+02 -0.13359469761E+02  0.76647583499E+01  0.19749643349E+02  0.51100000000E-03 0.  1.
         12    1    3    3    0    0 -0.77451859689E+01  0.21320203068E+02  0.14321959211E+02  0.26826432491E+02  0.00000000000E+00 0. -1.
</event>
<event>
 7    1  0.3050261E-013  0.7246159E+02  0.7816164E-02  0.1226708E+00
        -11   -1    0    0    0    0  0.00000000000E+00  0.00000000000E+00  0.45593999997E+02  0.45594000000E+02  0.51100000000E-03 0.  1.
         11   -1    0    0    0    0 -0.00000000000E+00 -0.00000000000E+00 -0.45593999997E+02  0.45594000000E+02  0.51100000000E-03 0. -1.
    9900012    2    1    2    0    0  0.16088256455E+02  0.36905355052E+01  0.88445702730E+01  0.72461588935E+02  0.70000024283E+02 0.  0.
         12    1    1    2    0    0 -0.16088256455E+02 -0.36905355052E+01 -0.88445702730E+01  0.18726411065E+02  0.00000000000E+00 0. -1.
         11    1    3    3    0    0 -0.88239714809E+00 -0.73390791306E+01 -0.12617245313E+02  0.14623118230E+02  0.51100000000E-03 0. -1.
        -11    1    3    3    0    0  0.33597960306E+02  0.74834605564E+01  0.61660350605E+01  0.34969202268E+02  0.51100000000E-03 0.  1.
         12    1    3    3    0    0 -0.16627306703E+02  0.35461540793E+01  0.15295780526E+02  0.22869268437E+02  0.00000000000E+00 0. -1.
</event>
<event>
 7    1  0.3050261E-013  0.7246160E+02  0.7816164E-02  0.1226708E+00
        -11   -1    0    0    0    0  0.00000000000E+00  0.00000000000E+00  0.45593999997E+02  0.45594000000E+02  0.51100000000E-03 0.  1.
         11   -1    0    0    0    0 -0.00000000000E+00 -0.00000000000E+00 -0.45593999997E+02  0.45594000000E+02  0.51100000000E-03 0. -1.
    9900012    2    1    2    0    0 -0.14082836175E+02 -0.14301481088E+01  0.12259952117E+02  0.72461600874E+02  0.70000039835E+02 0.  0.
         12    1    1    2    0    0  0.14082836175E+02  0.14301481088E+01 -0.12259952117E+02  0.18726399126E+02  0.00000000000E+00 0. -1.
         11    1    3    3    0    0  0.80377337729E+01  0.87636907652E+01 -0.17291494697E+02  0.20985786360E+02  0.51100000000E-03 0. -1.
        -11    1    3    3    0    0  0.78152073195E+01 -0.24459348603E+01 -0.69751206796E+00  0.82186730153E+01  0.51100000000E-03 0.  1.
        -12    1    3    3    0    0 -0.29935777267E+02 -0.77479040138E+01  0.30248958882E+02  0.43257141498E+02  0.00000000000E+00 0.  1.
</event>
<event>
 7    1  0.3050261E-013  0.7246156E+02  0.7816164E-02  0.1226708E+00
        -11   -1    0    0    0    0  0.00000000000E+00  0.00000000000E+00  0.45593999997E+02  0.45594000000E+02  0.51100000000E-03 0. -1.
         11   -1    0    0    0    0 -0.00000000000E+00 -0.00000000000E+00 -0.45593999997E+02  0.45594000000E+02  0.51100000000E-03 0.  1.
    9900012    2    1    2    0    0 -0.62506254876E+01  0.75131317675E+01 -0.15973795566E+02  0.72461558461E+02  0.69999984585E+02 0.  0.
         12    1    1    2    0    0  0.62506254876E+01 -0.75131317675E+01  0.15973795566E+02  0.18726441539E+02  0.00000000000E+00 0. -1.
         11    1    3    3    0    0  0.51343074533E+01 -0.48965255327E+01  0.13711382042E+02  0.15438234131E+02  0.51100000000E-03 0. -1.
        -11    1    3    3    0    0  0.17257596157E+02  0.89039437674E+01 -0.83596990996E+01  0.21142124043E+02  0.51100000000E-03 0.  1.
        -12    1    3    3    0    0 -0.28642529098E+02  0.35057135328E+01 -0.21325478508E+02  0.35881200288E+02  0.00000000000E+00 0.  1.
</event>
<event>
 7    1  0.3050261E-013  0.7246151E+02  0.7816164E-02  0.1226708E+00
        -11   -1    0    0    0    0  0.00000000000E+00  0.00000000000E+00  0.45593999997E+02  0.45594000000E+02  0.51100000000E-03 0. -1.
         11   -1    0    0    0    0 -0.00000000000E+00 -0.00000000000E+00 -0.45593999997E+02  0.45594000000E+02  0.51100000000E-03 0.  1.
    9900012    2    1    2    0    0  0.12288699684E+02  0.77308927221E+01 -0.11828039778E+02  0.72461511616E+02  0.69999923561E+02 0.  0.
         12    1    1    2    0    0 -0.12288699684E+02 -0.77308927221E+01  0.11828039778E+02  0.18726488384E+02  0.00000000000E+00 0. -1.
         11    1    3    3    0    0 -0.87892230496E+01 -0.64857777151E+01 -0.13708640723E+02  0.17528336633E+02  0.51100000000E-03 0.  1.
        -11    1    3    3    0    0 -0.13243488949E+02 -0.33329797438E+01  0.81130254664E+01  0.15884581707E+02  0.51100000000E-03 0. -1.
        -12    1    3    3    0    0  0.34321411683E+02  0.17549650181E+02 -0.62324245206E+01  0.39048593276E+02  0.00000000000E+00 0.  1.
</event>
<event>
 7    1  0.3050261E-013  0.7246158E+02  0.7816164E-02  0.1226708E+00
        -11   -1    0    0    0    0  0.00000000000E+00  0.00000000000E+00  0.45593999997E+02  0.45594000000E+02  0.51100000000E-03 0.  1.
         11   -1    0    0    0    0 -0.00000000000E+00 -0.00000000000E+00 -0.45593999997E+02  0.45594000000E+02  0.51100000000E-03 0. -1.
    9900012    2    1    2    0    0 -0.60424966956E+01 -0.17724305241E+02  0.12724395189E+00  0.72461576059E+02  0.70000007510E+02 0.  0.
         12    1    1    2    0    0  0.60424966956E+01  0.17724305241E+02 -0.12724395189E+00  0.18726423941E+02  0.00000000000E+00 0. -1.
         11    1    3    3    0    0 -0.51043774026E+00  0.19594692521E+02 -0.13698741184E+01  0.19649149525E+02  0.51100000000E-03 0. -1.
        -11    1    3    3    0    0  0.85721194828E+01 -0.20977723300E+02  0.15160709411E+02  0.27265238260E+02  0.51100000000E-03 0.  1.
        -12    1    3    3    0    0 -0.14104178438E+02 -0.16341274462E+02 -0.13663591340E+02  0.25547188275E+02  0.00000000000E+00 0.  1.
</event>
<event>
 7    1  0.3050261E-013  0.7246157E+02  0.7816164E-02  0.1226708E+00
        -11   -1    0    0    0    0  0.00000000000E+00  0.00000000000E+00  0.45593999997E+02  0.45594000000E+02  0.51100000000E-03 0.  1.
         11   -1    0    0    0    0 -0.00000000000E+00 -0.00000000000E+00 -0.45593999997E+02  0.45594000000E+02  0.51100000000E-03 0. -1.
    9900012    2    1    2    0    0  0.92881191152E+00  0.38771679192E+01  0.18297100434E+02  0.72461574635E+02  0.70000005655E+02 0.  0.
         12    1    1    2    0    0 -0.92881191152E+00 -0.38771679192E+01 -0.18297100434E+02  0.18726425365E+02  0.00000000000E+00 0. -1.
         11    1    3    3    0    0  0.22628478018E+02 -0.18312688391E+01 -0.10890263350E+02  0.25179344691E+02  0.51100000000E-03 0. -1.
        -11    1    3    3    0    0  0.33572964697E+01  0.47096279809E+01 -0.29709978760E+01  0.65022199243E+01  0.51100000000E-03 0.  1.
        -12    1    3    3    0    0 -0.25056962576E+02  0.99880877736E+00  0.32158361660E+02  0.40780010020E+02  0.00000000000E+00 0.  1.
</event>
<event>
 7    1  0.3050261E-013  0.7246155E+02  0.7816164E-02  0.1226708E+00
        -11   -1    0    0    0    0  0.00000000000E+00  0.00000000000E+00  0.45593999997E+02  0.45594000000E+02  0.51100000000E-03 0. -1.
         11   -1    0    0    0    0 -0.00000000000E+00 -0.00000000000E+00 -0.45593999997E+02  0.45594000000E+02  0.51100000000E-03 0.  1.
    9900012    2    1    2    0    0  0.13917888428E+02 -0.12110679222E+02 -0.32099333094E+01  0.72461552356E+02  0.69999976632E+02 0.  0.
         12    1    1    2    0    0 -0.13917888428E+02  0.12110679222E+02  0.32099333094E+01  0.18726447644E+02  0.00000000000E+00 0. -1.
         11    1    3    3    0    0 -0.91622220493E+01 -0.29721340276E+02  0.17280341117E+02  0.35579693226E+02  0.51100000000E-03 0. -1.
        -11    1    3    3    0    0  0.39593566579E+01  0.86124334784E+01 -0.73808870386E+01  0.12013659280E+02  0.51100000000E-03 0.  1.
        -12    1    3    3    0    0  0.19120753819E+02  0.89982275755E+01 -0.13109387388E+02  0.24868199850E+02  0.00000000000E+00 0.  1.
</event>
<event>
 7    1  0.3050261E-013  0.7246160E+02  0.7816164E-02  0.1226708E+00
        -11   -1    0    0    0    0  0.00000000000E+00  0.00000000000E+00  0.45593999997E+02  0.45594000000E+02  0.51100000000E-03 0.  1.
         11   -1    0    0    0    0 -0.00000000000E+00 -0.00000000000E+00 -0.45593999997E+02  0.45594000000E+02  0.51100000000E-03 0. -1.
    9900012    2    1    2    0    0  0.29599741447E+01 -0.12575752503E+02  0.13556065684E+02  0.72461603796E+02  0.70000043642E+02 0.  0.
         12    1    1    2    0    0 -0.29599741447E+01  0.12575752503E+02 -0.13556065684E+02  0.18726396204E+02  0.00000000000E+00 0. -1.
         11    1    3    3    0    0  0.24375691616E+02 -0.62183415509E+01 -0.45090815905E+01  0.25557267664E+02  0.51100000000E-03 0. -1.
        -11    1    3    3    0    0  0.72298420098E+01 -0.11049318263E+02  0.10599355166E+02  0.16932347142E+02  0.51100000000E-03 0.  1.
         12    1    3    3    0    0 -0.28645559481E+02  0.46919073105E+01  0.74657921085E+01  0.29971988990E+02  0.00000000000E+00 0. -1.
</event>
<event>
 7    1  0.3050261E-013  0.7246155E+02  0.7816164E-02  0.1226708E+00
        -11   -1    0    0    0    0  0.00000000000E+00  0.00000000000E+00  0.45593999997E+02  0.45594000000E+02  0.51100000000E-03 0. -1.
         11   -1    0    0    0    0 -0.00000000000E+00 -0.00000000000E+00 -0.45593999997E+02  0.45594000000E+02  0.51100000000E-03 0.  1.
    9900012    2    1    2    0    0 -0.10226124535E+00  0.10628878897E+02 -0.15417407072E+02  0.72461549060E+02  0.69999972338E+02 0.  0.
         12    1    1    2    0    0  0.10226124535E+00 -0.10628878897E+02  0.15417407072E+02  0.18726450940E+02  0.00000000000E+00 0. -1.
         11    1    3    3    0    0 -0.55414320432E+01  0.86531086308E+01  0.55580214339E+01  0.11682266928E+02  0.51100000000E-03 0. -1.
        -11    1    3    3    0    0 -0.16621579846E+02  0.19390827777E+02 -0.20367035048E+02  0.32666454282E+02  0.51100000000E-03 0.  1.
         12    1    3    3    0    0  0.22060750644E+02 -0.17415057511E+02 -0.60839345822E+00  0.28112827849E+02  0.00000000000E+00 0. -1.
</event>
<event>
 7    1  0.3050261E-013  0.7246170E+02  0.7816164E-02  0.1226708E+00
        -11   -1    0    0    0    0  0.00000000000E+00  0.00000000000E+00  0.45593999997E+02  0.45594000000E+02  0.51100000000E-03 0.  1.
         11   -1    0    0    0    0 -0.00000000000E+00 -0.00000000000E+00 -0.45593999997E+02  0.45594000000E+02  0.51100000000E-03 0. -1.
    9900012    2    1    2    0    0 -0.11674097997E+02  0.12625668798E+02 -0.74150032687E+01  0.72461698975E+02  0.70000167630E+02 0.  0.
         12    1    1    2    0    0  0.11674097997E+02 -0.12625668798E+02  0.74150032687E+01  0.18726301025E+02  0.00000000000E+00 0. -1.
         11    1    3    3    0    0  0.79057218986E+01 -0.16306597178E+02  0.37012798847E-01  0.18122001007E+02  0.51100000000E-03 0. -1.
        -11    1    3    3    0    0 -0.24202186075E+02  0.10235076160E+02  0.10225531921E+02  0.28196881000E+02  0.51100000000E-03 0.  1.
         12    1    3    3    0    0  0.46223661798E+01  0.18697189816E+02 -0.17677547989E+02  0.26142816968E+02  0.00000000000E+00 0. -1.
</event>
<event>
 7    1  0.3050261E-013  0.7246157E+02  0.7816164E-02  0.1226708E+00
        -11   -1    0    0    0    0  0.00000000000E+00  0.00000000000E+00  0.45593999997E+02  0.45594000000E+02  0.51100000000E-03 0. -1.
         11   -1    0    0    0    0 -0.00000000000E+00 -0.00000000000E+00 -0.45593999997E+02  0.45594000000E+02  0.51100000000E-03 0.  1.
    9900012    2    1    2    0    0 -0.15152285105E+02  0.99712335054E+01  0.46542378960E+01  0.72461570231E+02  0.69999999917E+02 0.  0.
         12    1    1    2    0    0  0.15152285105E+02 -0.99712335054E+01 -0.46542378960E+01  0.18726429769E+02  0.00000000000E+00 0. -1.
         11    1    3    3    0    0 -0.47838816744E+01 -0.30490608071E+01  0.20376138448E+01  0.60277828528E+01  0.51100000000E-03 0. -1.
        -11    1    3    3    0    0 -0.27075611029E+02  0.31276087224E+02 -0.12510350948E+01  0.41386561028E+02  0.51100000000E-03 0.  1.
         12    1    3    3    0    0  0.16707207599E+02 -0.18255792912E+02  0.38676591460E+01  0.25047226350E+02  0.00000000000E+00 0. -1.
</event>
<event>
 7    1  0.3050261E-013  0.7246115E+02  0.7816164E-02  0.1226709E+00
        -11   -1    0    0    0    0  0.00000000000E+00  0.00000000000E+00  0.45593999997E+02  0.45594000000E+02  0.51100000000E-03 0. -1.
         11   -1    0    0    0    0 -0.00000000000E+00 -0.00000000000E+00 -0.45593999997E+02  0.45594000000E+02  0.51100000000E-03 0.  1.
    9900012    2    1    2    0    0 -0.14606113653E+02 -0.11190171551E+02 -0.34837272002E+01  0.72461151611E+02  0.69999454585E+02 0.  0.
         12    1    1    2    0    0  0.14606113653E+02  0.11190171551E+02  0.34837272002E+01  0.18726848389E+02  0.00000000000E+00 0. -1.
         11    1    3    3    0    0  0.18332001630E+01 -0.61534035344E+01 -0.20624989210E+01  0.67438045609E+01  0.51100000000E-03 0. -1.
        -11    1    3    3    0    0 -0.36832764849E+02 -0.18547479499E+02 -0.86388003989E+00  0.41248125426E+02  0.51100000000E-03 0.  1.
         12    1    3    3    0    0  0.20393451033E+02  0.13510711483E+02 -0.55734823929E+00  0.24469221623E+02  0.00000000000E+00 0. -1.
</event>
<event>
 7    1  0.3050261E-013  0.7246159E+02  0.7816164E-02  0.1226708E+00
        -11   -1    0    0    0    0  0.00000000000E+00  0.00000000000E+00  0.45593999997E+02  0.45594000000E+02  0.51100000000E-03 0.  1.
         11   -1    0    0    0    0 -0.00000000000E+00 -0.00000000000E+00 -0.45593999997E+02  0.45594000000E+02  0.51100000000E-03 0. -1.
    9900012    2    1    2    0    0 -0.10386828567E+02 -0.12341523599E+02  0.95120544470E+01  0.72461585708E+02  0.70000020080E+02 0.  0.
         12    1    1    2    0    0  0.10386828567E+02  0.12341523599E+02 -0.95120544470E+01  0.18726414292E+02  0.00000000000E+00 0. -1.
         11    1    3    3    0    0  0.50572583099E+01  0.10329935392E+02  0.12668038470E+02  0.17110307588E+02  0.51100000000E-03 0. -1.
        -11    1    3    3    0    0  0.50316488578E+01 -0.13508022811E+01  0.18169251363E+02  0.18901424613E+02  0.51100000000E-03 0.  1.
        -12    1    3    3    0    0 -0.20475735735E+02 -0.21320656709E+02 -0.21325235387E+02  0.36449853507E+02  0.00000000000E+00 0.  1.
</event>
<event>
 7    1  0.3050261E-013  0.7246154E+02  0.7816164E-02  0.1226708E+00
        -11   -1    0    0    0    0  0.00000000000E+00  0.00000000000E+00  0.45593999997E+02  0.45594000000E+02  0.51100000000E-03 0. -1.
         11   -1    0    0    0    0 -0.00000000000E+00 -0.00000000000E+00 -0.45593999997E+02  0.45594000000E+02  0.51100000000E-03 0.  1.
    9900012    2    1    2    0    0 -0.88757619050E+01 -0.12938185527E+02 -0.10222737257E+02  0.72461544085E+02  0.69999965857E+02 0.  0.
         12    1    1    2    0    0  0.88757619050E+01  0.12938185527E+02  0.10222737257E+02  0.18726455915E+02  0.00000000000E+00 0. -1.
         11    1    3    3    0    0 -0.14748426537E+02 -0.14114537090E+02  0.13288873636E+02  0.24358374440E+02  0.51100000000E-03 0. -1.
        -11    1    3    3    0    0  0.13373474484E+02 -0.35033020930E+01  0.75887585450E+01  0.15770611968E+02  0.51100000000E-03 0.  1.
        -12    1    3    3    0    0 -0.75008098515E+01  0.46796536564E+01 -0.31100369438E+02  0.32332557677E+02  0.00000000000E+00 0.  1.
</event>
<event>
 7    1  0.3050261E-013  0.7246156E+02  0.7816164E-02  0.1226708E+00
        -11   -1    0    0    0    0  0.00000000000E+00  0.00000000000E+00  0.45593999997E+02  0.45594000000E+02  0.51100000000E-03 0.  1.
         11   -1    0    0    0    0 -0.00000000000E+00 -0.00000000000E+00 -0.45593999997E+02  0.45594000000E+02  0.51100000000E-03 0. -1.
    9900012    2    1    2    0    0  0.13922200197E+02  0.30271395771E+00  0.12520392107E+02  0.72461561135E+02  0.69999988068E+02 0.  0.
         12    1    1    2    0    0 -0.13922200197E+02 -0.30271395771E+00 -0.12520392107E+02  0.18726438865E+02  0.00000000000E+00 0. -1.
         11    1    3    3    0    0 -0.45579195784E+00  0.20921730857E+02  0.14173542049E+02  0.25274806880E+02  0.51100000000E-03 0. -1.
        -11    1    3    3    0    0  0.22252581205E+00  0.11626663653E+02 -0.27661092722E+01  0.11953250027E+02  0.51100000000E-03 0.  1.
        -12    1    3    3    0    0  0.14155466343E+02 -0.32245680553E+02  0.11129593310E+01  0.35233504227E+02  0.00000000000E+00 0.  1.
</event>
<event>
 7    1  0.3050261E-013  0.7246150E+02  0.7816164E-02  0.1226708E+00
        -11   -1    0    0    0    0  0.00000000000E+00  0.00000000000E+00  0.45593999997E+02  0.45594000000E+02  0.51100000000E-03 0.  1.
         11   -1    0    0    0    0 -0.00000000000E+00 -0.00000000000E+00 -0.45593999997E+02  0.45594000000E+02  0.51100000000E-03 0. -1.
    9900012    2    1    2    0    0  0.15408768607E+02 -0.10129558802E+02  0.32624403808E+01  0.72461504633E+02  0.69999914463E+02 0.  0.
         12    1    1    2    0    0 -0.15408768607E+02  0.10129558802E+02 -0.32624403808E+01  0.18726495367E+02  0.00000000000E+00 0. -1.
         11    1    3    3    0    0  0.10899073709E+02  0.26205105498E+01 -0.13318718095E+01  0.11288523643E+02  0.51100000000E-03 0. -1.
        -11    1    3    3    0    0  0.22776957273E+02  0.12458526816E+02  0.12846851475E+02  0.28966295347E+02  0.51100000000E-03 0.  1.
         12    1    3    3    0    0 -0.18267262375E+02 -0.25208596168E+02 -0.82525392848E+01  0.32206685643E+02  0.00000000000E+00 0. -1.
</event>
<event>
 7    1  0.3050261E-013  0.7246156E+02  0.7816164E-02  0.1226708E+00
        -11   -1    0    0    0    0  0.00000000000E+00  0.00000000000E+00  0.45593999997E+02  0.45594000000E+02  0.51100000000E-03 0.  1.
         11   -1    0    0    0    0 -0.00000000000E+00 -0.00000000000E+00 -0.45593999997E+02  0.45594000000E+02  0.51100000000E-03 0. -1.
    9900012    2    1    2    0    0  0.18682581912E+02  0.72399808242E+00  0.10566933737E+01  0.72461557705E+02  0.69999983600E+02 0.  0.
         12    1    1    2    0    0 -0.18682581912E+02 -0.72399808242E+00 -0.10566933737E+01  0.18726442295E+02  0.00000000000E+00 0. -1.
         11    1    3    3    0    0  0.28623594833E+01 -0.20315405170E+02  0.23947970650E+01  0.20655358682E+02  0.51100000000E-03 0. -1.
        -11    1    3    3    0    0 -0.46698777062E+01 -0.10079867062E+02  0.76373456702E+01  0.13481117422E+02  0.51100000000E-03 0.  1.
         12    1    3    3    0    0  0.20490100135E+02  0.31119270315E+02 -0.89754493615E+01  0.38325081601E+02  0.00000000000E+00 0. -1.
</event>
<event>
 7    1  0.3050261E-013  0.7246160E+02  0.7816164E-02  0.1226708E+00
        -11   -1    0    0    0    0  0.00000000000E+00  0.00000000000E+00  0.45593999997E+02  0.45594000000E+02  0.51100000000E-03 0. -1.
         11   -1    0    0    0    0 -0.00000000000E+00 -0.00000000000E+00 -0.45593999997E+02  0.45594000000E+02  0.51100000000E-03 0.  1.
    9900012    2    1    2    0    0 -0.63965279324E+01  0.12391707011E+01 -0.17556389633E+02  0.72461603375E+02  0.70000043094E+02 0.  0.
         12    1    1    2    0    0  0.63965279324E+01 -0.12391707011E+01  0.17556389633E+02  0.18726396625E+02  0.00000000000E+00 0. -1.
         11    1    3    3    0    0 -0.21050889415E+02  0.46815971811E+01  0.11344581194E+02  0.24367125806E+02  0.51100000000E-03 0. -1.
        -11    1    3    3    0    0 -0.20491178077E+01 -0.40841779734E+01  0.70763974058E+01  0.84234668643E+01  0.51100000000E-03 0.  1.
        -12    1    3    3    0    0  0.16703479291E+02  0.64175149338E+00 -0.35977368232E+02  0.39671010704E+02  0.00000000000E+00 0.  1.
</event>
<event>
 7    1  0.3050261E-013  0.7246158E+02  0.7816164E-02  0.1226708E+00
        -11   -1    0    0    0    0  0.00000000000E+00  0.00000000000E+00  0.45593999997E+02  0.45594000000E+02  0.51100000000E-03 0. -1.
         11   -1    0    0    0    0 -0.00000000000E+00 -0.00000000000E+00 -0.45593999997E+02  0.45594000000E+02  0.51100000000E-03 0.  1.
    9900012    2    1    2    0    0 -0.18717665454E+02  0.31343333602E+00 -0.47912048885E+00  0.72461580242E+02  0.70000012959E+02 0.  0.
         12    1    1    2    0    0  0.18717665454E+02 -0.31343333602E+00  0.47912048885E+00  0.18726419758E+02  0.00000000000E+00 0. -1.
         11    1    3    3    0    0 -0.20339525957E+02  0.28054036569E+02  0.50325481305E+01  0.35015022847E+02  0.51100000000E-03 0. -1.
        -11    1    3    3    0    0  0.38857604156E+01  0.28639284464E+01  0.28938185272E+01  0.56280908027E+01  0.51100000000E-03 0.  1.
        -12    1    3    3    0    0 -0.22638999124E+01 -0.30604531680E+02 -0.84054871465E+01  0.31818466593E+02  0.00000000000E+00 0.  1.
</event>
<event>
 7    1  0.3050261E-013  0.7246155E+02  0.7816164E-02  0.1226708E+00
        -11   -1    0    0    0    0  0.00000000000E+00  0.00000000000E+00  0.45593999997E+02  0.45594000000E+02  0.51100000000E-03 0. -1.
         11   -1    0    0    0    0 -0.00000000000E+00 -0.00000000000E+00 -0.45593999997E+02  0.45594000000E+02  0.51100000000E-03 0.  1.
    9900012    2    1    2    0    0  0.10056479989E+02 -0.76401666738E-01 -0.15796873149E+02  0.72461552706E+02  0.69999977087E+02 0.  0.
         12    1    1    2    0    0 -0.10056479989E+02  0.76401666738E-01  0.15796873149E+02  0.18726447294E+02  0.00000000000E+00 0. -1.
         11    1    3    3    0    0 -0.78788987915E+01 -0.38122949072E+01  0.98573570493E+01  0.13182493197E+02  0.51100000000E-03 0. -1.
        -11    1    3    3    0    0  0.30625439268E+02 -0.69378531529E+01 -0.34848044801E+01  0.31594227309E+02  0.51100000000E-03 0.  1.
         12    1    3    3    0    0 -0.12690060487E+02  0.10673746393E+02 -0.22169425718E+02  0.27684832199E+02  0.00000000000E+00 0. -1.
</event>
<event>
 7    1  0.3050261E-013  0.7246155E+02  0.7816164E-02  0.1226708E+00
        -11   -1    0    0    0    0  0.00000000000E+00  0.00000000000E+00  0.45593999997E+02  0.45594000000E+02  0.51100000000E-03 0.  1.
         11   -1    0    0    0    0 -0.00000000000E+00 -0.00000000000E+00 -0.45593999997E+02  0.45594000000E+02  0.51100000000E-03 0. -1.
    9900012    2    1    2    0    0  0.17962783823E+02  0.49084458595E+01  0.19813229262E+01  0.72461545879E+02  0.69999968194E+02 0.  0.
         12    1    1    2    0    0 -0.17962783823E+02 -0.49084458595E+01 -0.19813229262E+01  0.18726454121E+02  0.00000000000E+00 0. -1.
         11    1    3    3    0    0 -0.62487941370E+01 -0.10859836625E+02  0.14416436277E+02  0.19100186252E+02  0.51100000000E-03 0. -1.
        -11    1    3    3    0    0 -0.29495792480E+01  0.17220855537E+02 -0.18549956956E+02  0.25482519234E+02  0.51100000000E-03 0.  1.
         12    1    3    3    0    0  0.27161157208E+02 -0.14525730528E+01  0.61148436056E+01  0.27878840393E+02  0.00000000000E+00 0. -1.
</event>
<event>
 7    1  0.4126030E-013  0.7246159E+02  0.7816164E-02  0.1226708E+00
        -11   -1    0    0    0    0  0.00000000000E+00  0.00000000000E+00  0.45593999997E+02  0.45594000000E+02  0.51100000000E-03 0. -1.
         11   -1    0    0    0    0 -0.00000000000E+00 -0.00000000000E+00 -0.45593999997E+02  0.45594000000E+02  0.51100000000E-03 0.  1.
    9900012    2    1    2    0    0 -0.13869417530E+01  0.92137698451E+01 -0.16243810642E+02  0.72461586933E+02  0.70000021675E+02 0.  0.
         12    1    1    2    0    0  0.13869417530E+01 -0.92137698451E+01  0.16243810642E+02  0.18726413067E+02  0.00000000000E+00 0. -1.
         11    1    3    3    0    0 -0.94191844084E+01 -0.75910199854E+01 -0.31356393987E+01  0.12497073819E+02  0.51100000000E-03 0. -1.
        -11    1    3    3    0    0  0.73143275698E+01  0.12806077566E+02 -0.34852291881E+02  0.37844117906E+02  0.51100000000E-03 0.  1.
         12    1    3    3    0    0  0.71791508559E+00  0.39987122650E+01  0.21744120638E+02  0.22120395208E+02  0.00000000000E+00 0. -1.
</event>
<event>
 7    1  0.3050261E-013  0.7246161E+02  0.7816164E-02  0.1226708E+00
        -11   -1    0    0    0    0  0.00000000000E+00  0.00000000000E+00  0.45593999997E+02  0.45594000000E+02  0.51100000000E-03 0.  1.
         11   -1    0    0    0    0 -0.00000000000E+00 -0.00000000000E+00 -0.45593999997E+02  0.45594000000E+02  0.51100000000E-03 0. -1.
    9900012    2    1    2    0    0  0.18135441916E+01 -0.17536732182E+02  0.63128201580E+01  0.72461611760E+02  0.70000054017E+02 0.  0.
         12    1    1    2    0    0 -0.18135441916E+01  0.17536732182E+02 -0.63128201580E+01  0.18726388240E+02  0.00000000000E+00 0. -1.
         11    1    3    3    0    0 -0.72833146425E+01 -0.23778080470E+02 -0.81070072768E+01  0.26156592865E+02  0.51100000000E-03 0. -1.
        -11    1    3    3    0    0 -0.38071579599E+00 -0.16716548372E+02  0.13432613996E+02  0.21448148009E+02  0.51100000000E-03 0.  1.
         12    1    3    3    0    0  0.94775746301E+01  0.22957896660E+02  0.98721343897E+00  0.24856870887E+02  0.00000000000E+00 0. -1.
</event>
<event>
 7    1  0.3050261E-013  0.7246158E+02  0.7816164E-02  0.1226708E+00
        -11   -1    0    0    0    0  0.00000000000E+00  0.00000000000E+00  0.45593999997E+02  0.45594000000E+02  0.51100000000E-03 0.  1.
         11   -1    0    0    0    0 -0.00000000000E+00 -0.00000000000E+00 -0.45593999997E+02  0.45594000000E+02  0.51100000000E-03 0. -1.
    9900012    2    1    2    0    0 -0.13937862829E+02 -0.37589172327E+01  0.11928334718E+02  0.72461584215E+02  0.70000018134E+02 0.  0.
         12    1    1    2    0    0  0.13937862829E+02  0.37589172327E+01 -0.11928334718E+02  0.18726415785E+02  0.00000000000E+00 0. -1.
         11    1    3    3    0    0  0.10525340176E+02  0.11092294101E+02  0.45590917750E+01  0.15956412263E+02  0.51100000000E-03 0. -1.
        -11    1    3    3    0    0 -0.51629858524E+01  0.22018779570E+01  0.24786386382E+02  0.25413965444E+02  0.51100000000E-03 0.  1.
         12    1    3    3    0    0 -0.19300217153E+02 -0.17053089291E+02 -0.17417143439E+02  0.31091206507E+02  0.00000000000E+00 0. -1.
</event>
<event>
 7    1  0.3050261E-013  0.7246159E+02  0.7816164E-02  0.1226708E+00
        -11   -1    0    0    0    0  0.00000000000E+00  0.00000000000E+00  0.45593999997E+02  0.45594000000E+02  0.51100000000E-03 0. -1.
         11   -1    0    0    0    0 -0.00000000000E+00 -0.00000000000E+00 -0.45593999997E+02  0.45594000000E+02  0.51100000000E-03 0.  1.
    9900012    2    1    2    0    0  0.10247591821E+02  0.14953945068E+02 -0.46951988408E+01  0.72461588081E+02  0.70000023170E+02 0.  0.
         12    1    1    2    0    0 -0.10247591821E+02 -0.14953945068E+02  0.46951988408E+01  0.18726411919E+02  0.00000000000E+00 0. -1.
         11    1    3    3    0    0 -0.22202210327E+02  0.10251110424E+02 -0.18450855552E+01  0.24524023921E+02  0.51100000000E-03 0. -1.
        -11    1    3    3    0    0 -0.33495157993E+01 -0.68591003774E+01 -0.66531552059E+01  0.10125758665E+02  0.51100000000E-03 0.  1.
        -12    1    3    3    0    0  0.35799317947E+02  0.11561935021E+02  0.38030419203E+01  0.37811805495E+02  0.00000000000E+00 0.  1.
</event>
<event>
 7    1  0.3050261E-013  0.7246142E+02  0.7816164E-02  0.1226708E+00
        -11   -1    0    0    0    0  0.00000000000E+00  0.00000000000E+00  0.45593999997E+02  0.45594000000E+02  0.51100000000E-03 0.  1.
         11   -1    0    0    0    0 -0.00000000000E+00 -0.00000000000E+00 -0.45593999997E+02  0.45594000000E+02  0.51100000000E-03 0. -1.
    9900012    2    1    2    0    0 -0.98169172314E+01  0.10096308102E+02  0.12344134232E+02  0.72461415924E+02  0.69999798904E+02 0.  0.
         12    1    1    2    0    0  0.98169172314E+01 -0.10096308102E+02 -0.12344134232E+02  0.18726584076E+02  0.00000000000E+00 0. -1.
         11    1    3    3    0    0  0.30326132469E+01 -0.11275740027E+02  0.33958505939E+02  0.35909875830E+02  0.51100000000E-03 0.  1.
        -11    1    3    3    0    0 -0.43208789849E+00  0.15681299500E+02 -0.98408931253E+01  0.18518451116E+02  0.51100000000E-03 0. -1.
        -12    1    3    3    0    0 -0.12417442580E+02  0.56907486293E+01 -0.11773478582E+02  0.18033088978E+02  0.00000000000E+00 0.  1.
</event>
<event>
 7    1  0.3050261E-013  0.7246153E+02  0.7816164E-02  0.1226708E+00
        -11   -1    0    0    0    0  0.00000000000E+00  0.00000000000E+00  0.45593999997E+02  0.45594000000E+02  0.51100000000E-03 0.  1.
         11   -1    0    0    0    0 -0.00000000000E+00 -0.00000000000E+00 -0.45593999997E+02  0.45594000000E+02  0.51100000000E-03 0. -1.
    9900012    2    1    2    0    0 -0.17843434844E+02 -0.53661911862E+01 -0.18699384664E+01  0.72461525565E+02  0.69999941732E+02 0.  0.
         12    1    1    2    0    0  0.17843434844E+02  0.53661911862E+01  0.18699384664E+01  0.18726474435E+02  0.00000000000E+00 0. -1.
         11    1    3    3    0    0 -0.54859985826E+01 -0.18517324744E+02 -0.23304850918E+02  0.30267202922E+02  0.51100000000E-03 0. -1.
        -11    1    3    3    0    0  0.24352957027E+01  0.90124393742E+01 -0.57538707547E+01  0.10966392185E+02  0.51100000000E-03 0.  1.
        -12    1    3    3    0    0 -0.14792731964E+02  0.41386941839E+01  0.27188783206E+02  0.31227930459E+02  0.00000000000E+00 0.  1.
</event>
<event>
 7    1  0.3050261E-013  0.7246158E+02  0.7816164E-02  0.1226708E+00
        -11   -1    0    0    0    0  0.00000000000E+00  0.00000000000E+00  0.45593999997E+02  0.45594000000E+02  0.51100000000E-03 0. -1.
         11   -1    0    0    0    0 -0.00000000000E+00 -0.00000000000E+00 -0.45593999997E+02  0.45594000000E+02  0.51100000000E-03 0.  1.
    9900012    2    1    2    0    0 -0.17034171709E+02 -0.30087519793E+01  0.71737831764E+01  0.72461581246E+02  0.70000014267E+02 0.  0.
         12    1    1    2    0    0  0.17034171709E+02  0.30087519793E+01 -0.71737831764E+01  0.18726418754E+02  0.00000000000E+00 0. -1.
         11    1    3    3    0    0  0.82014682806E+01  0.62461877250E+01  0.83310617591E+01  0.13254641955E+02  0.51100000000E-03 0. -1.
        -11    1    3    3    0    0 -0.92773619115E+01 -0.22104218863E+02 -0.20114970583E+02  0.31293417477E+02  0.51100000000E-03 0.  1.
         12    1    3    3    0    0 -0.15958278078E+02  0.12849279158E+02  0.18957692000E+02  0.27913521814E+02  0.00000000000E+00 0. -1.
</event>
<event>
 7    1  0.3050261E-013  0.7246156E+02  0.7816164E-02  0.1226708E+00
        -11   -1    0    0    0    0  0.00000000000E+00  0.00000000000E+00  0.45593999997E+02  0.45594000000E+02  0.51100000000E-03 0.  1.
         11   -1    0    0    0    0 -0.00000000000E+00 -0.00000000000E+00 -0.45593999997E+02  0.45594000000E+02  0.51100000000E-03 0. -1.
    9900012    2    1    2    0    0  0.13994790960E+02 -0.12167016453E+02  0.26055560171E+01  0.72461564526E+02  0.69999992486E+02 0.  0.
         12    1    1    2    0    0 -0.13994790960E+02  0.12167016453E+02 -0.26055560171E+01  0.18726435474E+02  0.00000000000E+00 0. -1.
         11    1    3    3    0    0  0.14506979861E+02 -0.14871143278E+02 -0.13562075606E+02  0.24809942806E+02  0.51100000000E-03 0. -1.
        -11    1    3    3    0    0  0.15806466999E+02 -0.14252125653E+02  0.81490653634E+01  0.22789794891E+02  0.51100000000E-03 0.  1.
         12    1    3    3    0    0 -0.16318655900E+02  0.16956252477E+02  0.80185662598E+01  0.24861826829E+02  0.00000000000E+00 0. -1.
</event>
<event>
 7    1  0.3050261E-013  0.7246156E+02  0.7816164E-02  0.1226708E+00
        -11   -1    0    0    0    0  0.00000000000E+00  0.00000000000E+00  0.45593999997E+02  0.45594000000E+02  0.51100000000E-03 0.  1.
         11   -1    0    0    0    0 -0.00000000000E+00 -0.00000000000E+00 -0.45593999997E+02  0.45594000000E+02  0.51100000000E-03 0. -1.
    9900012    2    1    2    0    0 -0.17421915896E+02 -0.20506435529E+01 -0.65537266755E+01  0.72461558111E+02  0.69999984129E+02 0.  0.
         12    1    1    2    0    0  0.17421915896E+02  0.20506435529E+01  0.65537266755E+01  0.18726441889E+02  0.00000000000E+00 0. -1.
         11    1    3    3    0    0  0.12838505392E+02  0.92286016974E+01 -0.20191036108E+02  0.25645121356E+02  0.51100000000E-03 0. -1.
        -11    1    3    3    0    0  0.54550371182E+01 -0.43690186708E+00  0.70336764116E+01  0.89118414106E+01  0.51100000000E-03 0.  1.
        -12    1    3    3    0    0 -0.35715458406E+02 -0.10842343383E+02  0.66036330206E+01  0.37904595345E+02  0.00000000000E+00 0.  1.
</event>
<event>
 7    1  0.3050261E-013  0.7246139E+02  0.7816164E-02  0.1226708E+00
        -11   -1    0    0    0    0  0.00000000000E+00  0.00000000000E+00  0.45593999997E+02  0.45594000000E+02  0.51100000000E-03 0.  1.
         11   -1    0    0    0    0 -0.00000000000E+00 -0.00000000000E+00 -0.45593999997E+02  0.45594000000E+02  0.51100000000E-03 0. -1.
    9900012    2    1    2    0    0  0.21972177690E+01  0.15792441087E+02 -0.98212413928E+01  0.72461394758E+02  0.69999771331E+02 0.  0.
         12    1    1    2    0    0 -0.21972177690E+01 -0.15792441087E+02  0.98212413928E+01  0.18726605242E+02  0.00000000000E+00 0. -1.
         11    1    3    3    0    0 -0.22598586798E+01  0.14430572993E+01  0.45411390858E+01  0.52736439091E+01  0.51100000000E-03 0. -1.
        -11    1    3    3    0    0  0.23607114461E+02  0.98022806195E+01  0.16614696356E+02  0.30486532990E+02  0.51100000000E-03 0.  1.
         12    1    3    3    0    0 -0.19150038012E+02  0.45471031679E+01 -0.30977076834E+02  0.36701217858E+02  0.00000000000E+00 0. -1.
</event>
<event>
 7    1  0.3050261E-013  0.7246157E+02  0.7816164E-02  0.1226708E+00
        -11   -1    0    0    0    0  0.00000000000E+00  0.00000000000E+00  0.45593999997E+02  0.45594000000E+02  0.51100000000E-03 0.  1.
         11   -1    0    0    0    0 -0.00000000000E+00 -0.00000000000E+00 -0.45593999997E+02  0.45594000000E+02  0.51100000000E-03 0. -1.
    9900012    2    1    2    0    0  0.17447691698E+02  0.56868390993E+01  0.37305702136E+01  0.72461568449E+02  0.69999997596E+02 0.  0.
         12    1    1    2    0    0 -0.17447691698E+02 -0.56868390993E+01 -0.37305702136E+01  0.18726431551E+02  0.00000000000E+00 0. -1.
         11    1    3    3    0    0  0.41537960707E+01 -0.37376783283E+01 -0.19561768873E+01  0.59203791567E+01  0.51100000000E-03 0. -1.
        -11    1    3    3    0    0  0.98291952410E+01 -0.18693473678E+02  0.24641809768E+02  0.32454242036E+02  0.51100000000E-03 0.  1.
         12    1    3    3    0    0  0.34647003863E+01  0.28117991105E+02 -0.18955062667E+02  0.34086947256E+02  0.00000000000E+00 0. -1.
</event>
<event>
 7    1  0.3050261E-013  0.7246157E+02  0.7816164E-02  0.1226708E+00
        -11   -1    0    0    0    0  0.00000000000E+00  0.00000000000E+00  0.45593999997E+02  0.45594000000E+02  0.51100000000E-03 0. -1.
         11   -1    0    0    0    0 -0.00000000000E+00 -0.00000000000E+00 -0.45593999997E+02  0.45594000000E+02  0.51100000000E-03 0.  1.
    9900012    2    1    2    0    0  0.16840508916E+02 -0.35024630438E+01 -0.74033183653E+01  0.72461571864E+02  0.70000002045E+02 0.  0.
         12    1    1    2    0    0 -0.16840508916E+02  0.35024630438E+01  0.74033183653E+01  0.18726428136E+02  0.00000000000E+00 0. -1.
         11    1    3    3    0    0  0.24010962526E+01  0.22461004805E+02 -0.31405221356E+01  0.22806246504E+02  0.51100000000E-03 0. -1.
        -11    1    3    3    0    0 -0.13573795684E+02 -0.87436203445E+01 -0.45374266866E+01  0.16771614926E+02  0.51100000000E-03 0.  1.
        -12    1    3    3    0    0  0.28013208348E+02 -0.17219847504E+02  0.27463045685E+00  0.32883710434E+02  0.00000000000E+00 0.  1.
</event>
<event>
 7    1  0.3050261E-013  0.7246133E+02  0.7816164E-02  0.1226709E+00
        -11   -1    0    0    0    0  0.00000000000E+00  0.00000000000E+00  0.45593999997E+02  0.45594000000E+02  0.51100000000E-03 0. -1.
         11   -1    0    0    0    0 -0.00000000000E+00 -0.00000000000E+00 -0.45593999997E+02  0.45594000000E+02  0.51100000000E-03 0.  1.
    9900012    2    1    2    0    0  0.81069556019E+01  0.10961552881E+02 -0.12837821011E+02  0.72461334013E+02  0.69999692199E+02 0.  0.
         12    1    1    2    0    0 -0.81069556019E+01 -0.10961552881E+02  0.12837821011E+02  0.18726665987E+02  0.00000000000E+00 0. -1.
         11    1    3    3    0    0 -0.34676296793E+01  0.99160437056E+01 -0.98442692028E+01  0.14396597333E+02  0.51100000000E-03 0. -1.
        -11    1    3    3    0    0  0.16133590462E+02  0.14486493145E+02 -0.24234256533E+02  0.32518462676E+02  0.51100000000E-03 0.  1.
         12    1    3    3    0    0 -0.45590051808E+01 -0.13440983969E+02  0.21240704725E+02  0.25546274004E+02  0.00000000000E+00 0. -1.
</event>
<event>
 7    1  0.3050261E-013  0.7246155E+02  0.7816164E-02  0.1226708E+00
        -11   -1    0    0    0    0  0.00000000000E+00  0.00000000000E+00  0.45593999997E+02  0.45594000000E+02  0.51100000000E-03 0.  1.
         11   -1    0    0    0    0 -0.00000000000E+00 -0.00000000000E+00 -0.45593999997E+02  0.45594000000E+02  0.51100000000E-03 0. -1.
    9900012    2    1    2    0    0 -0.14092805018E+02  0.17081037042E+01  0.12212916024E+02  0.72461545734E+02  0.69999968006E+02 0.  0.
         12    1    1    2    0    0  0.14092805018E+02 -0.17081037042E+01 -0.12212916024E+02  0.18726454266E+02  0.00000000000E+00 0. -1.
         11    1    3    3    0    0 -0.15416804530E+01 -0.22614920419E+02  0.16200237032E+02  0.27861426459E+02  0.51100000000E-03 0. -1.
        -11    1    3    3    0    0 -0.16960845841E+02 -0.24847290568E+01 -0.30839365257E+01  0.17417084569E+02  0.51100000000E-03 0.  1.
        -12    1    3    3    0    0  0.44097212760E+01  0.26807753180E+02 -0.90338448174E+00  0.27183034706E+02  0.00000000000E+00 0.  1.
</event>
<event>
 7    1  0.3050261E-013  0.7246158E+02  0.7816164E-02  0.1226708E+00
        -11   -1    0    0    0    0  0.00000000000E+00  0.00000000000E+00  0.45593999997E+02  0.45594000000E+02  0.51100000000E-03 0.  1.
         11   -1    0    0    0    0 -0.00000000000E+00 -0.00000000000E+00 -0.45593999997E+02  0.45594000000E+02  0.51100000000E-03 0. -1.
    9900012    2    1    2    0    0 -0.13185345901E+02  0.75925927866E+01  0.10916872251E+02  0.72461577184E+02  0.70000008975E+02 0.  0.
         12    1    1    2    0    0  0.13185345901E+02 -0.75925927866E+01 -0.10916872251E+02  0.18726422816E+02  0.00000000000E+00 0. -1.
         11    1    3    3    0    0 -0.90416976591E+01  0.68694234893E+01  0.16147774105E+02  0.19740615098E+02  0.51100000000E-03 0. -1.
        -11    1    3    3    0    0 -0.27695584953E+02 -0.35247763825E+01  0.11842946942E+01  0.27944087543E+02  0.51100000000E-03 0.  1.
         12    1    3    3    0    0  0.23551936711E+02  0.42479456798E+01 -0.64151965487E+01  0.24776874543E+02  0.00000000000E+00 0. -1.
</event>
<event>
 7    1  0.3050261E-013  0.7246156E+02  0.7816164E-02  0.1226708E+00
        -11   -1    0    0    0    0  0.00000000000E+00  0.00000000000E+00  0.45593999997E+02  0.45594000000E+02  0.51100000000E-03 0.  1.
         11   -1    0    0    0    0 -0.00000000000E+00 -0.00000000000E+00 -0.45593999997E+02  0.45594000000E+02  0.51100000000E-03 0. -1.
    9900012    2    1    2    0    0 -0.18129487365E+02  0.46510782362E+01 -0.60723052572E+00  0.72461559607E+02  0.69999986078E+02 0.  0.
         12    1    1    2    0    0  0.18129487365E+02 -0.46510782362E+01  0.60723052572E+00  0.18726440393E+02  0.00000000000E+00 0. -1.
         11    1    3    3    0    0 -0.10056842415E+02  0.22871068918E+02 -0.13469543214E+02  0.28384053049E+02  0.51100000000E-03 0. -1.
        -11    1    3    3    0    0 -0.12552647475E+02  0.83274677277E+01  0.65409258098E+01  0.16422526849E+02  0.51100000000E-03 0.  1.
        -12    1    3    3    0    0  0.44800025250E+01 -0.26547458410E+02  0.63213868782E+01  0.27654979709E+02  0.00000000000E+00 0.  1.
</event>
<event>
 7    1  0.3050261E-013  0.7246152E+02  0.7816164E-02  0.1226708E+00
        -11   -1    0    0    0    0  0.00000000000E+00  0.00000000000E+00  0.45593999997E+02  0.45594000000E+02  0.51100000000E-03 0.  1.
         11   -1    0    0    0    0 -0.00000000000E+00 -0.00000000000E+00 -0.45593999997E+02  0.45594000000E+02  0.51100000000E-03 0. -1.
    9900012    2    1    2    0    0 -0.13425598985E+02  0.69778199335E+01  0.11033783799E+02  0.72461519710E+02  0.69999934105E+02 0.  0.
         12    1    1    2    0    0  0.13425598985E+02 -0.69778199335E+01 -0.11033783799E+02  0.18726480290E+02  0.00000000000E+00 0. -1.
         11    1    3    3    0    0 -0.23693806436E+02 -0.10565911019E+02 -0.47807497403E+01  0.26379736682E+02  0.51100000000E-03 0. -1.
        -11    1    3    3    0    0 -0.14460345376E+02  0.76647983787E+01  0.86235558951E+01  0.18499092927E+02  0.51100000000E-03 0.  1.
        -12    1    3    3    0    0  0.24728552827E+02  0.98789325737E+01  0.71909776445E+01  0.27582690101E+02  0.00000000000E+00 0.  1.
</event>
<event>
 7    1  0.3050261E-013  0.7246154E+02  0.7816164E-02  0.1226708E+00
        -11   -1    0    0    0    0  0.00000000000E+00  0.00000000000E+00  0.45593999997E+02  0.45594000000E+02  0.51100000000E-03 0.  1.
         11   -1    0    0    0    0 -0.00000000000E+00 -0.00000000000E+00 -0.45593999997E+02  0.45594000000E+02  0.51100000000E-03 0. -1.
    9900012    2    1    2    0    0  0.12748315976E+02  0.19772834858E+01  0.13573909464E+02  0.72461542024E+02  0.69999963172E+02 0.  0.
         12    1    1    2    0    0 -0.12748315976E+02 -0.19772834858E+01 -0.13573909464E+02  0.18726457976E+02  0.00000000000E+00 0. -1.
         11    1    3    3    0    0  0.52755886883E+01 -0.19700321694E+02  0.32469185101E+01  0.20651319351E+02  0.51100000000E-03 0. -1.
        -11    1    3    3    0    0  0.67805675416E+01 -0.14715964772E+01  0.23954277784E+02  0.24938907691E+02  0.51100000000E-03 0.  1.
         12    1    3    3    0    0  0.69215974589E+00  0.23149201657E+02 -0.13627286830E+02  0.26871314982E+02  0.00000000000E+00 0. -1.
</event>
<event>
 7    1  0.3050261E-013  0.7246177E+02  0.7816164E-02  0.1226707E+00
        -11   -1    0    0    0    0  0.00000000000E+00  0.00000000000E+00  0.45593999997E+02  0.45594000000E+02  0.51100000000E-03 0. -1.
         11   -1    0    0    0    0 -0.00000000000E+00 -0.00000000000E+00 -0.45593999997E+02  0.45594000000E+02  0.51100000000E-03 0.  1.
    9900012    2    1    2    0    0  0.98042712966E+01 -0.56907171477E+00 -0.15944410032E+02  0.72461767342E+02  0.70000256691E+02 0.  0.
         12    1    1    2    0    0 -0.98042712966E+01  0.56907171477E+00  0.15944410032E+02  0.18726232658E+02  0.00000000000E+00 0. -1.
         11    1    3    3    0    0  0.11591458871E+02  0.21496967696E+02 -0.26221674465E+02  0.35833751560E+02  0.51100000000E-03 0. -1.
        -11    1    3    3    0    0  0.70083592812E+01  0.31397213325E+01  0.56491800899E+01  0.95335295567E+01  0.51100000000E-03 0.  1.
        -12    1    3    3    0    0 -0.87955468557E+01 -0.25205760743E+02  0.46280843429E+01  0.27094486225E+02  0.00000000000E+00 0.  1.
</event>
<event>
 7    1  0.3050261E-013  0.7246151E+02  0.7816164E-02  0.1226708E+00
        -11   -1    0    0    0    0  0.00000000000E+00  0.00000000000E+00  0.45593999997E+02  0.45594000000E+02  0.51100000000E-03 0. -1.
         11   -1    0    0    0    0 -0.00000000000E+00 -0.00000000000E+00 -0.45593999997E+02  0.45594000000E+02  0.51100000000E-03 0.  1.
    9900012    2    1    2    0    0  0.81523502010E+01  0.44611349543E+01 -0.16257887668E+02  0.72461509397E+02  0.69999920669E+02 0.  0.
         12    1    1    2    0    0 -0.81523502010E+01 -0.44611349543E+01  0.16257887668E+02  0.18726490603E+02  0.00000000000E+00 0. -1.
         11    1    3    3    0    0  0.84815862865E+01 -0.43387654956E+01  0.14450284738E+02  0.17308174982E+02  0.51100000000E-03 0. -1.
        -11    1    3    3    0    0  0.19517971198E+02 -0.60594418367E+01 -0.18279751365E+02  0.27419287833E+02  0.51100000000E-03 0.  1.
         12    1    3    3    0    0 -0.19847207284E+02  0.14859342287E+02 -0.12428421041E+02  0.27734046581E+02  0.00000000000E+00 0. -1.
</event>
<event>
 7    1  0.3050261E-013  0.7246157E+02  0.7816164E-02  0.1226708E+00
        -11   -1    0    0    0    0  0.00000000000E+00  0.00000000000E+00  0.45593999997E+02  0.45594000000E+02  0.51100000000E-03 0.  1.
         11   -1    0    0    0    0 -0.00000000000E+00 -0.00000000000E+00 -0.45593999997E+02  0.45594000000E+02  0.51100000000E-03 0. -1.
    9900012    2    1    2    0    0 -0.12041531803E+02 -0.11596602354E+02  0.84379840680E+01  0.72461568160E+02  0.69999997220E+02 0.  0.
         12    1    1    2    0    0  0.12041531803E+02  0.11596602354E+02 -0.84379840680E+01  0.18726431840E+02  0.00000000000E+00 0. -1.
         11    1    3    3    0    0 -0.19296798930E+01 -0.34498998199E+02 -0.15324492682E+02  0.37798738305E+02  0.51100000000E-03 0. -1.
        -11    1    3    3    0    0  0.19108561425E+00  0.53710747491E+00  0.87597928951E+00  0.10451498114E+01  0.51100000000E-03 0.  1.
        -12    1    3    3    0    0 -0.10302937524E+02  0.22365288370E+02  0.22886497460E+02  0.33617680044E+02  0.00000000000E+00 0.  1.
</event>
<event>
 7    1  0.3050261E-013  0.7246157E+02  0.7816164E-02  0.1226708E+00
        -11   -1    0    0    0    0  0.00000000000E+00  0.00000000000E+00  0.45593999997E+02  0.45594000000E+02  0.51100000000E-03 0.  1.
         11   -1    0    0    0    0 -0.00000000000E+00 -0.00000000000E+00 -0.45593999997E+02  0.45594000000E+02  0.51100000000E-03 0. -1.
    9900012    2    1    2    0    0 -0.39227638278E+01 -0.18160332497E+02 -0.23438360938E+01  0.72461566274E+02  0.69999994763E+02 0.  0.
         12    1    1    2    0    0  0.39227638278E+01  0.18160332497E+02  0.23438360938E+01  0.18726433726E+02  0.00000000000E+00 0. -1.
         11    1    3    3    0    0  0.18911994173E+02 -0.29424089334E+02 -0.13065968916E+02  0.37338453378E+02  0.51100000000E-03 0. -1.
        -11    1    3    3    0    0 -0.17339777781E+01 -0.45693701127E+01 -0.26365286535E+01  0.55531167612E+01  0.51100000000E-03 0.  1.
        -12    1    3    3    0    0 -0.21100780222E+02  0.15833126950E+02  0.13358661475E+02  0.29569996135E+02  0.00000000000E+00 0.  1.
</event>
<event>
 7    1  0.3050261E-013  0.7246155E+02  0.7816164E-02  0.1226708E+00
        -11   -1    0    0    0    0  0.00000000000E+00  0.00000000000E+00  0.45593999997E+02  0.45594000000E+02  0.51100000000E-03 0.  1.
         11   -1    0    0    0    0 -0.00000000000E+00 -0.00000000000E+00 -0.45593999997E+02  0.45594000000E+02  0.51100000000E-03 0. -1.
    9900012    2    1    2    0    0  0.15641327713E+02 -0.89889149312E+01  0.50227547770E+01  0.72461553732E+02  0.69999978425E+02 0.  0.
         12    1    1    2    0    0 -0.15641327713E+02  0.89889149312E+01 -0.50227547770E+01  0.18726446268E+02  0.00000000000E+00 0. -1.
         11    1    3    3    0    0 -0.64023834254E+01  0.43722910427E+01 -0.30195736500E+01  0.83201723406E+01  0.51100000000E-03 0. -1.
        -11    1    3    3    0    0  0.46011420154E+01  0.18777678185E+02  0.17816369572E+02  0.26290582551E+02  0.51100000000E-03 0.  1.
         12    1    3    3    0    0  0.17442569123E+02 -0.32138884159E+02 -0.97740411449E+01  0.37850798841E+02  0.00000000000E+00 0. -1.
</event>
<event>
 7    1  0.3050261E-013  0.7246158E+02  0.7816164E-02  0.1226708E+00
        -11   -1    0    0    0    0  0.00000000000E+00  0.00000000000E+00  0.45593999997E+02  0.45594000000E+02  0.51100000000E-03 0.  1.
         11   -1    0    0    0    0 -0.00000000000E+00 -0.00000000000E+00 -0.45593999997E+02  0.45594000000E+02  0.51100000000E-03 0. -1.
    9900012    2    1    2    0    0  0.80779056843E+01  0.55261887798E+01  0.15965199433E+02  0.72461577073E+02  0.70000008831E+02 0.  0.
         12    1    1    2    0    0 -0.80779056843E+01 -0.55261887798E+01 -0.15965199433E+02  0.18726422927E+02  0.00000000000E+00 0. -1.
         11    1    3    3    0    0 -0.92520834061E-01  0.61697904922E+01  0.38678127401E+01  0.72825030365E+01  0.51100000000E-03 0. -1.
        -11    1    3    3    0    0 -0.20688248614E+02  0.44827360859E+01  0.25337893751E+02  0.33016774729E+02  0.51100000000E-03 0.  1.
         12    1    3    3    0    0  0.28858675133E+02 -0.51263377983E+01 -0.13240507057E+02  0.32162299308E+02  0.00000000000E+00 0. -1.
</event>
<event>
 7    1  0.3050261E-013  0.7246149E+02  0.7816164E-02  0.1226708E+00
        -11   -1    0    0    0    0  0.00000000000E+00  0.00000000000E+00  0.45593999997E+02  0.45594000000E+02  0.51100000000E-03 0. -1.
         11   -1    0    0    0    0 -0.00000000000E+00 -0.00000000000E+00 -0.45593999997E+02  0.45594000000E+02  0.51100000000E-03 0.  1.
    9900012    2    1    2    0    0 -0.14151084874E+02 -0.10211971354E+02  0.67929704319E+01  0.72461494471E+02  0.69999901226E+02 0.  0.
         12    1    1    2    0    0  0.14151084874E+02  0.10211971354E+02 -0.67929704319E+01  0.18726505529E+02  0.00000000000E+00 0. -1.
         11    1    3    3    0    0  0.21020145934E+02 -0.53046776656E+01 -0.75718562255E+01  0.22963430649E+02  0.51100000000E-03 0. -1.
        -11    1    3    3    0    0 -0.27803937011E+01 -0.13108247662E+00 -0.89051546089E+01  0.93300348669E+01  0.51100000000E-03 0.  1.
         12    1    3    3    0    0 -0.32390837106E+02 -0.47762112120E+01  0.23269981266E+02  0.40168028955E+02  0.00000000000E+00 0. -1.
</event>
<event>
 7    1  0.3050261E-013  0.7246154E+02  0.7816164E-02  0.1226708E+00
        -11   -1    0    0    0    0  0.00000000000E+00  0.00000000000E+00  0.45593999997E+02  0.45594000000E+02  0.51100000000E-03 0.  1.
         11   -1    0    0    0    0 -0.00000000000E+00 -0.00000000000E+00 -0.45593999997E+02  0.45594000000E+02  0.51100000000E-03 0. -1.
    9900012    2    1    2    0    0  0.51786833787E+01  0.13485456052E+02 -0.11916543147E+02  0.72461540456E+02  0.69999961130E+02 0.  0.
         12    1    1    2    0    0 -0.51786833787E+01 -0.13485456052E+02  0.11916543147E+02  0.18726459544E+02  0.00000000000E+00 0. -1.
         11    1    3    3    0    0  0.15975640966E+02 -0.21380675171E+02 -0.20670748681E+02  0.33758468957E+02  0.51100000000E-03 0. -1.
        -11    1    3    3    0    0  0.12502545712E+01  0.66105663961E+01  0.33462661682E+01  0.75140017367E+01  0.51100000000E-03 0.  1.
        -12    1    3    3    0    0 -0.12047212158E+02  0.28255564827E+02  0.54079393653E+01  0.31189069763E+02  0.00000000000E+00 0.  1.
</event>
<event>
 7    1  0.3050261E-013  0.7246163E+02  0.7816164E-02  0.1226708E+00
        -11   -1    0    0    0    0  0.00000000000E+00  0.00000000000E+00  0.45593999997E+02  0.45594000000E+02  0.51100000000E-03 0. -1.
         11   -1    0    0    0    0 -0.00000000000E+00 -0.00000000000E+00 -0.45593999997E+02  0.45594000000E+02  0.51100000000E-03 0.  1.
    9900012    2    1    2    0    0  0.11509919650E+02 -0.10792891697E+02 -0.10085240809E+02  0.72461632394E+02  0.70000080897E+02 0.  0.
         12    1    1    2    0    0 -0.11509919650E+02  0.10792891697E+02  0.10085240809E+02  0.18726367606E+02  0.00000000000E+00 0. -1.
         11    1    3    3    0    0 -0.12055296196E+02  0.18546373215E+02  0.90812868762E+01  0.23911668645E+02  0.51100000000E-03 0. -1.
        -11    1    3    3    0    0 -0.16902088504E+00 -0.17967527420E+02 -0.49496283604E+01  0.18637581142E+02  0.51100000000E-03 0.  1.
         12    1    3    3    0    0  0.23734236731E+02 -0.11371737491E+02 -0.14216899325E+02  0.29912382607E+02  0.00000000000E+00 0. -1.
</event>
<event>
 7    1  0.3050261E-013  0.7246157E+02  0.7816164E-02  0.1226708E+00
        -11   -1    0    0    0    0  0.00000000000E+00  0.00000000000E+00  0.45593999997E+02  0.45594000000E+02  0.51100000000E-03 0.  1.
         11   -1    0    0    0    0 -0.00000000000E+00 -0.00000000000E+00 -0.45593999997E+02  0.45594000000E+02  0.51100000000E-03 0. -1.
    9900012    2    1    2    0    0 -0.54142348544E+01  0.17601140412E+02  0.34007362988E+01  0.72461572411E+02  0.70000002758E+02 0.  0.
         12    1    1    2    0    0  0.54142348544E+01 -0.17601140412E+02 -0.34007362988E+01  0.18726427589E+02  0.00000000000E+00 0. -1.
         11    1    3    3    0    0 -0.20452593590E+01 -0.13378921268E+01  0.85745689208E+01  0.89160682830E+01  0.51100000000E-03 0. -1.
        -11    1    3    3    0    0 -0.22468672280E+02  0.24761437957E+02  0.13639678770E+02  0.36111090830E+02  0.51100000000E-03 0.  1.
         12    1    3    3    0    0  0.19099696785E+02 -0.58224054183E+01 -0.18813511392E+02  0.27434413298E+02  0.00000000000E+00 0. -1.
</event>
<event>
 7    1  0.3050261E-013  0.7246176E+02  0.7816164E-02  0.1226708E+00
        -11   -1    0    0    0    0  0.00000000000E+00  0.00000000000E+00  0.45593999997E+02  0.45594000000E+02  0.51100000000E-03 0.  1.
         11   -1    0    0    0    0 -0.00000000000E+00 -0.00000000000E+00 -0.45593999997E+02  0.45594000000E+02  0.51100000000E-03 0. -1.
    9900012    2    1    2    0    0 -0.22154281805E+01 -0.12533198861E+02  0.13736187917E+02  0.72461760276E+02  0.70000247486E+02 0.  0.
         12    1    1    2    0    0  0.22154281805E+01  0.12533198861E+02 -0.13736187917E+02  0.18726239724E+02  0.00000000000E+00 0. -1.
         11    1    3    3    0    0  0.56310927150E+01  0.73614054472E+01 -0.16524793599E+02  0.18946458748E+02  0.51100000000E-03 0. -1.
        -11    1    3    3    0    0  0.15094644839E+02 -0.32970035646E+01  0.74423207922E+01  0.17149538605E+02  0.51100000000E-03 0.  1.
         12    1    3    3    0    0 -0.22941165735E+02 -0.16597600744E+02  0.22818660724E+02  0.36365762923E+02  0.00000000000E+00 0. -1.
</event>
<event>
 7    1  0.3050261E-013  0.7246153E+02  0.7816164E-02  0.1226708E+00
        -11   -1    0    0    0    0  0.00000000000E+00  0.00000000000E+00  0.45593999997E+02  0.45594000000E+02  0.51100000000E-03 0.  1.
         11   -1    0    0    0    0 -0.00000000000E+00 -0.00000000000E+00 -0.45593999997E+02  0.45594000000E+02  0.51100000000E-03 0. -1.
    9900012    2    1    2    0    0 -0.16294729847E+01 -0.49604944598E+00  0.18648843445E+02  0.72461531858E+02  0.69999949929E+02 0.  0.
         12    1    1    2    0    0  0.16294729847E+01  0.49604944598E+00 -0.18648843445E+02  0.18726468142E+02  0.00000000000E+00 0. -1.
         11    1    3    3    0    0 -0.12069023576E+02 -0.15275702674E+02  0.72570918004E+01  0.20776761151E+02  0.51100000000E-03 0. -1.
        -11    1    3    3    0    0  0.73422916196E+01 -0.16905317297E+02  0.22859507176E+01  0.18572145005E+02  0.51100000000E-03 0.  1.
         12    1    3    3    0    0  0.30972589720E+01  0.31684970525E+02  0.91058009266E+01  0.33112625701E+02  0.00000000000E+00 0. -1.
</event>
<event>
 7    1  0.3050261E-013  0.7246158E+02  0.7816164E-02  0.1226708E+00
        -11   -1    0    0    0    0  0.00000000000E+00  0.00000000000E+00  0.45593999997E+02  0.45594000000E+02  0.51100000000E-03 0.  1.
         11   -1    0    0    0    0 -0.00000000000E+00 -0.00000000000E+00 -0.45593999997E+02  0.45594000000E+02  0.51100000000E-03 0. -1.
    9900012    2    1    2    0    0  0.54839359205E+01 -0.70986781684E+01  0.16438188072E+02  0.72461579840E+02  0.70000012435E+02 0.  0.
         12    1    1    2    0    0 -0.54839359205E+01  0.70986781684E+01 -0.16438188072E+02  0.18726420160E+02  0.00000000000E+00 0. -1.
         11    1    3    3    0    0 -0.22977158678E+00 -0.17921731591E+01  0.80061770072E+01  0.82075300880E+01  0.51100000000E-03 0. -1.
        -11    1    3    3    0    0  0.20366893864E+02  0.65198281810E+01  0.29217455073E+02  0.36207433027E+02  0.51100000000E-03 0.  1.
         12    1    3    3    0    0 -0.14653186357E+02 -0.11826333190E+02 -0.20785444008E+02  0.28046616726E+02  0.00000000000E+00 0. -1.
</event>
<event>
 7    1  0.3093871E-013  0.7246161E+02  0.7816164E-02  0.1226708E+00
        -11   -1    0    0    0    0  0.00000000000E+00  0.00000000000E+00  0.45593999997E+02  0.45594000000E+02  0.51100000000E-03 0. -1.
         11   -1    0    0    0    0 -0.00000000000E+00 -0.00000000000E+00 -0.45593999997E+02  0.45594000000E+02  0.51100000000E-03 0.  1.
    9900012    2    1    2    0    0 -0.31492477326E+01 -0.45076890776E+01 -0.17900857465E+02  0.72461608995E+02  0.70000050414E+02 0.  0.
         12    1    1    2    0    0  0.31492477326E+01  0.45076890776E+01  0.17900857465E+02  0.18726391005E+02  0.00000000000E+00 0. -1.
         11    1    3    3    0    0 -0.28106690155E+01  0.11747822360E+02  0.56108451454E+01  0.13318887868E+02  0.51100000000E-03 0. -1.
        -11    1    3    3    0    0  0.16553067001E+01  0.68844200401E+01 -0.33222526451E+02  0.33968684749E+02  0.51100000000E-03 0.  1.
         12    1    3    3    0    0 -0.19938854172E+01 -0.23139931478E+02  0.97108238407E+01  0.25174036378E+02  0.00000000000E+00 0. -1.
</event>
<event>
 7    1  0.3050261E-013  0.7246158E+02  0.7816164E-02  0.1226708E+00
        -11   -1    0    0    0    0  0.00000000000E+00  0.00000000000E+00  0.45593999997E+02  0.45594000000E+02  0.51100000000E-03 0. -1.
         11   -1    0    0    0    0 -0.00000000000E+00 -0.00000000000E+00 -0.45593999997E+02  0.45594000000E+02  0.51100000000E-03 0.  1.
    9900012    2    1    2    0    0 -0.10990484905E+02  0.16894365368E+01  0.15067644690E+02  0.72461578272E+02  0.70000010392E+02 0.  0.
         12    1    1    2    0    0  0.10990484905E+02 -0.16894365368E+01 -0.15067644690E+02  0.18726421728E+02  0.00000000000E+00 0. -1.
         11    1    3    3    0    0  0.14314349837E+02  0.19383999659E+02  0.56394488672E+01  0.24747594586E+02  0.51100000000E-03 0. -1.
        -11    1    3    3    0    0  0.42384884191E+01 -0.14045583042E+01 -0.84319596667E+01  0.95412531772E+01  0.51100000000E-03 0.  1.
         12    1    3    3    0    0 -0.29543323160E+02 -0.16290004818E+02  0.17860155490E+02  0.38172730508E+02  0.00000000000E+00 0. -1.
</event>
<event>
 7    1  0.3050261E-013  0.7246157E+02  0.7816164E-02  0.1226708E+00
        -11   -1    0    0    0    0  0.00000000000E+00  0.00000000000E+00  0.45593999997E+02  0.45594000000E+02  0.51100000000E-03 0.  1.
         11   -1    0    0    0    0 -0.00000000000E+00 -0.00000000000E+00 -0.45593999997E+02  0.45594000000E+02  0.51100000000E-03 0. -1.
    9900012    2    1    2    0    0  0.13878414935E+02 -0.47166616359E+01  0.11654270063E+02  0.72461566576E+02  0.69999995156E+02 0.  0.
         12    1    1    2    0    0 -0.13878414935E+02  0.47166616359E+01 -0.11654270063E+02  0.18726433424E+02  0.00000000000E+00 0. -1.
         11    1    3    3    0    0  0.24685972086E+02 -0.11511691009E+02  0.68110025090E+01  0.28076787621E+02  0.51100000000E-03 0. -1.
        -11    1    3    3    0    0 -0.20968020301E+01  0.19617518952E+01  0.23265276389E+02  0.23441803151E+02  0.51100000000E-03 0.  1.
        -12    1    3    3    0    0 -0.87107551204E+01  0.48332774778E+01 -0.18422008836E+02  0.20942975803E+02  0.00000000000E+00 0.  1.
</event>
<event>
 7    1  0.3050261E-013  0.7246135E+02  0.7816164E-02  0.1226709E+00
        -11   -1    0    0    0    0  0.00000000000E+00  0.00000000000E+00  0.45593999997E+02  0.45594000000E+02  0.51100000000E-03 0.  1.
         11   -1    0    0    0    0 -0.00000000000E+00 -0.00000000000E+00 -0.45593999997E+02  0.45594000000E+02  0.51100000000E-03 0. -1.
    9900012    2    1    2    0    0 -0.23488808614E+01 -0.10697750975E+02  0.15189742762E+02  0.72461350476E+02  0.69999713645E+02 0.  0.
         12    1    1    2    0    0  0.23488808614E+01  0.10697750975E+02 -0.15189742762E+02  0.18726649524E+02  0.00000000000E+00 0. -1.
         11    1    3    3    0    0 -0.32643811349E+01 -0.11119657740E+02  0.91275755377E+01  0.14751800158E+02  0.51100000000E-03 0. -1.
        -11    1    3    3    0    0 -0.65255743273E+01 -0.40001594653E+01  0.30676837689E+02  0.31617285888E+02  0.51100000000E-03 0.  1.
         12    1    3    3    0    0  0.74410746008E+01  0.44220662297E+01 -0.24614670466E+02  0.26092264430E+02  0.00000000000E+00 0. -1.
</event>
<event>
 7    1  0.3050261E-013  0.7246176E+02  0.7816164E-02  0.1226708E+00
        -11   -1    0    0    0    0  0.00000000000E+00  0.00000000000E+00  0.45593999997E+02  0.45594000000E+02  0.51100000000E-03 0.  1.
         11   -1    0    0    0    0 -0.00000000000E+00 -0.00000000000E+00 -0.45593999997E+02  0.45594000000E+02  0.51100000000E-03 0. -1.
    9900012    2    1    2    0    0  0.10282953934E+02  0.15609654136E+02  0.11277309221E+01  0.72461755825E+02  0.70000241688E+02 0.  0.
         12    1    1    2    0    0 -0.10282953934E+02 -0.15609654136E+02 -0.11277309221E+01  0.18726244175E+02  0.00000000000E+00 0. -1.
         11    1    3    3    0    0  0.68895271337E+01 -0.51586116085E+01  0.60121286770E+01  0.10498692745E+02  0.51100000000E-03 0.  1.
        -11    1    3    3    0    0 -0.84281604721E+01 -0.14016459669E+02 -0.16696347888E+02  0.23372271256E+02  0.51100000000E-03 0. -1.
        -12    1    3    3    0    0  0.11821587273E+02  0.34784725414E+02  0.11811950133E+02  0.38590791825E+02  0.00000000000E+00 0.  1.
</event>
<event>
 7    1  0.3050261E-013  0.7246153E+02  0.7816164E-02  0.1226708E+00
        -11   -1    0    0    0    0  0.00000000000E+00  0.00000000000E+00  0.45593999997E+02  0.45594000000E+02  0.51100000000E-03 0.  1.
         11   -1    0    0    0    0 -0.00000000000E+00 -0.00000000000E+00 -0.45593999997E+02  0.45594000000E+02  0.51100000000E-03 0. -1.
    9900012    2    1    2    0    0  0.56536634457E+01  0.10118714589E+02 -0.14708099850E+02  0.72461534864E+02  0.69999953845E+02 0.  0.
         12    1    1    2    0    0 -0.56536634457E+01 -0.10118714589E+02  0.14708099850E+02  0.18726465136E+02  0.00000000000E+00 0. -1.
         11    1    3    3    0    0  0.10099970503E+02 -0.22399579281E+02 -0.11062531258E+01  0.24596226385E+02  0.51100000000E-03 0.  1.
        -11    1    3    3    0    0  0.67995180254E+01  0.14629393155E+02  0.76871855284E+01  0.17870238137E+02  0.51100000000E-03 0. -1.
        -12    1    3    3    0    0 -0.11245825083E+02  0.17888900715E+02 -0.21289032253E+02  0.29995070342E+02  0.00000000000E+00 0.  1.
</event>
<event>
 7    1  0.3050261E-013  0.7246159E+02  0.7816164E-02  0.1226708E+00
        -11   -1    0    0    0    0  0.00000000000E+00  0.00000000000E+00  0.45593999997E+02  0.45594000000E+02  0.51100000000E-03 0. -1.
         11   -1    0    0    0    0 -0.00000000000E+00 -0.00000000000E+00 -0.45593999997E+02  0.45594000000E+02  0.51100000000E-03 0.  1.
    9900012    2    1    2    0    0  0.60001122116E+01 -0.17696710290E+02  0.12262606421E+01  0.72461585053E+02  0.70000019225E+02 0.  0.
         12    1    1    2    0    0 -0.60001122116E+01  0.17696710290E+02 -0.12262606421E+01  0.18726414947E+02  0.00000000000E+00 0. -1.
         11    1    3    3    0    0 -0.15068334578E+01 -0.81912576405E+01  0.53106829239E+01  0.98777832625E+01  0.51100000000E-03 0. -1.
        -11    1    3    3    0    0  0.14475120710E+02 -0.30859889408E+02  0.10660330233E+02  0.35714206344E+02  0.51100000000E-03 0.  1.
         12    1    3    3    0    0 -0.69681750403E+01  0.21354436759E+02 -0.14744752515E+02  0.26869595446E+02  0.00000000000E+00 0. -1.
</event>
<event>
 7    1  0.3050261E-013  0.7246155E+02  0.7816164E-02  0.1226708E+00
        -11   -1    0    0    0    0  0.00000000000E+00  0.00000000000E+00  0.45593999997E+02  0.45594000000E+02  0.51100000000E-03 0.  1.
         11   -1    0    0    0    0 -0.00000000000E+00 -0.00000000000E+00 -0.45593999997E+02  0.45594000000E+02  0.51100000000E-03 0. -1.
    9900012    2    1    2    0    0 -0.15645173965E+02 -0.55071293589E+01  0.86936692474E+01  0.72461552735E+02  0.69999977126E+02 0.  0.
         12    1    1    2    0    0  0.15645173965E+02  0.55071293589E+01 -0.86936692474E+01  0.18726447265E+02  0.00000000000E+00 0. -1.
         11    1    3    3    0    0 -0.10929554487E+02 -0.76899972059E+01 -0.20052711841E+02  0.24097769000E+02  0.51100000000E-03 0. -1.
        -11    1    3    3    0    0 -0.24939855904E+00 -0.14409450705E+02 -0.52557737173E+00  0.14421189310E+02  0.51100000000E-03 0.  1.
        -12    1    3    3    0    0 -0.44662209189E+01  0.16592318552E+02  0.29271958461E+02  0.33942594426E+02  0.00000000000E+00 0.  1.
</event>
<event>
 7    1  0.3050261E-013  0.7246162E+02  0.7816164E-02  0.1226708E+00
        -11   -1    0    0    0    0  0.00000000000E+00  0.00000000000E+00  0.45593999997E+02  0.45594000000E+02  0.51100000000E-03 0.  1.
         11   -1    0    0    0    0 -0.00000000000E+00 -0.00000000000E+00 -0.45593999997E+02  0.45594000000E+02  0.51100000000E-03 0. -1.
    9900012    2    1    2    0    0  0.76983861015E+01  0.69537998941E-01  0.17070656892E+02  0.72461619922E+02  0.70000064649E+02 0.  0.
         12    1    1    2    0    0 -0.76983861015E+01 -0.69537998941E-01 -0.17070656892E+02  0.18726380078E+02  0.00000000000E+00 0. -1.
         11    1    3    3    0    0 -0.38083891243E+01  0.46814193915E+01 -0.33205319480E+01  0.68880656152E+01  0.51100000000E-03 0. -1.
        -11    1    3    3    0    0 -0.22080552629E+02  0.11307257512E+02  0.48020205422E+01  0.25267850688E+02  0.51100000000E-03 0.  1.
        -12    1    3    3    0    0  0.33587327855E+02 -0.15919138905E+02  0.15589168298E+02  0.40305703618E+02  0.00000000000E+00 0.  1.
</event>
<event>
 7    1  0.3050261E-013  0.7246156E+02  0.7816164E-02  0.1226708E+00
        -11   -1    0    0    0    0  0.00000000000E+00  0.00000000000E+00  0.45593999997E+02  0.45594000000E+02  0.51100000000E-03 0. -1.
         11   -1    0    0    0    0 -0.00000000000E+00 -0.00000000000E+00 -0.45593999997E+02  0.45594000000E+02  0.51100000000E-03 0.  1.
    9900012    2    1    2    0    0 -0.10149901687E+00 -0.76391505146E+01 -0.17097155676E+02  0.72461557336E+02  0.69999983119E+02 0.  0.
         12    1    1    2    0    0  0.10149901687E+00  0.76391505146E+01  0.17097155676E+02  0.18726442664E+02  0.00000000000E+00 0. -1.
         11    1    3    3    0    0 -0.68633376826E+01  0.90012949651E+01 -0.30601191944E+02  0.32627621180E+02  0.51100000000E-03 0. -1.
        -11    1    3    3    0    0  0.15151202108E+02 -0.22352683865E+01 -0.38279188066E+01  0.15786333099E+02  0.51100000000E-03 0.  1.
         12    1    3    3    0    0 -0.83893634423E+01 -0.14405177093E+02  0.17331955074E+02  0.24047603056E+02  0.00000000000E+00 0. -1.
</event>
<event>
 7    1  0.3050261E-013  0.7246154E+02  0.7816164E-02  0.1226708E+00
        -11   -1    0    0    0    0  0.00000000000E+00  0.00000000000E+00  0.45593999997E+02  0.45594000000E+02  0.51100000000E-03 0. -1.
         11   -1    0    0    0    0 -0.00000000000E+00 -0.00000000000E+00 -0.45593999997E+02  0.45594000000E+02  0.51100000000E-03 0.  1.
    9900012    2    1    2    0    0  0.80659268519E+01  0.71164756670E+00 -0.16885341835E+02  0.72461537784E+02  0.69999957650E+02 0.  0.
         12    1    1    2    0    0 -0.80659268519E+01 -0.71164756670E+00  0.16885341835E+02  0.18726462216E+02  0.00000000000E+00 0. -1.
         11    1    3    3    0    0 -0.62344902835E+01  0.12394358017E+02  0.18482137195E+02  0.23110135770E+02  0.51100000000E-03 0. -1.
        -11    1    3    3    0    0 -0.36220488031E+01 -0.84787089355E+01  0.38723457247E+00  0.92280926317E+01  0.51100000000E-03 0.  1.
         12    1    3    3    0    0  0.17922465938E+02 -0.32040015148E+01 -0.35754713602E+02  0.40123309383E+02  0.00000000000E+00 0. -1.
</event>
<event>
 7    1  0.3050261E-013  0.7246156E+02  0.7816164E-02  0.1226708E+00
        -11   -1    0    0    0    0  0.00000000000E+00  0.00000000000E+00  0.45593999997E+02  0.45594000000E+02  0.51100000000E-03 0. -1.
         11   -1    0    0    0    0 -0.00000000000E+00 -0.00000000000E+00 -0.45593999997E+02  0.45594000000E+02  0.51100000000E-03 0.  1.
    9900012    2    1    2    0    0 -0.38510313066E+00  0.18449144050E+02 -0.31875300403E+01  0.72461559645E+02  0.69999986127E+02 0.  0.
         12    1    1    2    0    0  0.38510313066E+00 -0.18449144050E+02  0.31875300403E+01  0.18726440355E+02  0.00000000000E+00 0. -1.
         11    1    3    3    0    0  0.99471851833E+01  0.18241769561E+02  0.14188446290E+02  0.25159901792E+02  0.51100000000E-03 0. -1.
        -11    1    3    3    0    0  0.11174038041E+01  0.91353141450E+01 -0.27894028104E+02  0.29373106065E+02  0.51100000000E-03 0.  1.
         12    1    3    3    0    0 -0.11449692118E+02 -0.89279396558E+01  0.10518051774E+02  0.17928551788E+02  0.00000000000E+00 0. -1.
</event>
<event>
 7    1  0.3050261E-013  0.7246155E+02  0.7816164E-02  0.1226708E+00
        -11   -1    0    0    0    0  0.00000000000E+00  0.00000000000E+00  0.45593999997E+02  0.45594000000E+02  0.51100000000E-03 0. -1.
         11   -1    0    0    0    0 -0.00000000000E+00 -0.00000000000E+00 -0.45593999997E+02  0.45594000000E+02  0.51100000000E-03 0.  1.
    9900012    2    1    2    0    0 -0.13245181311E+02  0.12046813305E+02 -0.54881176795E+01  0.72461548803E+02  0.69999972003E+02 0.  0.
         12    1    1    2    0    0  0.13245181311E+02 -0.12046813305E+02  0.54881176795E+01  0.18726451197E+02  0.00000000000E+00 0. -1.
         11    1    3    3    0    0 -0.10929505704E+02 -0.56326550388E+01 -0.16933364892E+01  0.12411619010E+02  0.51100000000E-03 0.  1.
        -11    1    3    3    0    0  0.51902799462E+00 -0.19314662114E+02 -0.11030274355E+02  0.22248427254E+02  0.51100000000E-03 0. -1.
         12    1    3    3    0    0 -0.28347036013E+01  0.36994130459E+02  0.72354931646E+01  0.37801502539E+02  0.00000000000E+00 0. -1.
</event>
<event>
 7    1  0.3050261E-013  0.7246158E+02  0.7816164E-02  0.1226708E+00
        -11   -1    0    0    0    0  0.00000000000E+00  0.00000000000E+00  0.45593999997E+02  0.45594000000E+02  0.51100000000E-03 0.  1.
         11   -1    0    0    0    0 -0.00000000000E+00 -0.00000000000E+00 -0.45593999997E+02  0.45594000000E+02  0.51100000000E-03 0. -1.
    9900012    2    1    2    0    0  0.55282176669E+01  0.38104310167E+01  0.17481371406E+02  0.72461576921E+02  0.70000008632E+02 0.  0.
         12    1    1    2    0    0 -0.55282176669E+01 -0.38104310167E+01 -0.17481371406E+02  0.18726423079E+02  0.00000000000E+00 0. -1.
         11    1    3    3    0    0  0.50274721702E+01  0.63676366487E+01 -0.20042792565E+02  0.21622576326E+02  0.51100000000E-03 0. -1.
        -11    1    3    3    0    0  0.10592896671E+02 -0.10968516768E+02  0.54751103036E+01  0.16201686735E+02  0.51100000000E-03 0.  1.
        -12    1    3    3    0    0 -0.10092151174E+02  0.84113111355E+01  0.32049053668E+02  0.34637313859E+02  0.00000000000E+00 0.  1.
</event>
<event>
 7    1  0.3705381E-013  0.7246158E+02  0.7816164E-02  0.1226708E+00
        -11   -1    0    0    0    0  0.00000000000E+00  0.00000000000E+00  0.45593999997E+02  0.45594000000E+02  0.51100000000E-03 0. -1.
         11   -1    0    0    0    0 -0.00000000000E+00 -0.00000000000E+00 -0.45593999997E+02  0.45594000000E+02  0.51100000000E-03 0.  1.
    9900012    2    1    2    0    0 -0.68637117509E+01 -0.12211994099E+02 -0.12427206403E+02  0.72461580218E+02  0.70000012928E+02 0.  0.
         12    1    1    2    0    0  0.68637117509E+01  0.12211994099E+02  0.12427206403E+02  0.18726419782E+02  0.00000000000E+00 0. -1.
         11    1    3    3    0    0  0.12534347010E+02 -0.88686950663E+01  0.30873757020E+01  0.15661912275E+02  0.51100000000E-03 0. -1.
        -11    1    3    3    0    0 -0.10547149516E+02  0.10964973694E+02 -0.30618460882E+02  0.34190103219E+02  0.51100000000E-03 0.  1.
         12    1    3    3    0    0 -0.88509092447E+01 -0.14308272727E+02  0.15103878778E+02  0.22609564724E+02  0.00000000000E+00 0. -1.
</event>
<event>
 7    1  0.3050261E-013  0.7246126E+02  0.7816164E-02  0.1226709E+00
        -11   -1    0    0    0    0  0.00000000000E+00  0.00000000000E+00  0.45593999997E+02  0.45594000000E+02  0.51100000000E-03 0. -1.
         11   -1    0    0    0    0 -0.00000000000E+00 -0.00000000000E+00 -0.45593999997E+02  0.45594000000E+02  0.51100000000E-03 0.  1.
    9900012    2    1    2    0    0 -0.74151547301E+01 -0.10325522643E+02 -0.13750991953E+02  0.72461261971E+02  0.69999598350E+02 0.  0.
         12    1    1    2    0    0  0.74151547301E+01  0.10325522643E+02  0.13750991953E+02  0.18726738029E+02  0.00000000000E+00 0. -1.
         11    1    3    3    0    0 -0.29875519039E+01  0.24383760835E+01  0.16826489340E+02  0.17262731188E+02  0.51100000000E-03 0. -1.
        -11    1    3    3    0    0 -0.17101236298E+02  0.85642643944E+01 -0.54504199478E+01  0.19887332285E+02  0.51100000000E-03 0.  1.
         12    1    3    3    0    0  0.12673633472E+02 -0.21328163121E+02 -0.25127061345E+02  0.35311198498E+02  0.00000000000E+00 0. -1.
</event>
<event>
 7    1  0.3050261E-013  0.7246154E+02  0.7816164E-02  0.1226708E+00
        -11   -1    0    0    0    0  0.00000000000E+00  0.00000000000E+00  0.45593999997E+02  0.45594000000E+02  0.51100000000E-03 0.  1.
         11   -1    0    0    0    0 -0.00000000000E+00 -0.00000000000E+00 -0.45593999997E+02  0.45594000000E+02  0.51100000000E-03 0. -1.
    9900012    2    1    2    0    0  0.18693798485E+02  0.18090384440E+00  0.10906900454E+01  0.72461536565E+02  0.69999956061E+02 0.  0.
         12    1    1    2    0    0 -0.18693798485E+02 -0.18090384440E+00 -0.10906900454E+01  0.18726463435E+02  0.00000000000E+00 0. -1.
         11    1    3    3    0    0  0.84439236674E+01  0.22129652560E+02 -0.15046348557E+02  0.28060897607E+02  0.51100000000E-03 0. -1.
        -11    1    3    3    0    0 -0.10695120453E+02  0.31058478915E-01  0.66399278090E+01  0.12588693645E+02  0.51100000000E-03 0.  1.
        -12    1    3    3    0    0  0.20944995270E+02 -0.21979807195E+02  0.94971107935E+01  0.31811945313E+02  0.00000000000E+00 0.  1.
</event>
<event>
 7    1  0.3050261E-013  0.7246156E+02  0.7816164E-02  0.1226708E+00
        -11   -1    0    0    0    0  0.00000000000E+00  0.00000000000E+00  0.45593999997E+02  0.45594000000E+02  0.51100000000E-03 0.  1.
         11   -1    0    0    0    0 -0.00000000000E+00 -0.00000000000E+00 -0.45593999997E+02  0.45594000000E+02  0.51100000000E-03 0. -1.
    9900012    2    1    2    0    0  0.46512334115E+01  0.73524693707E+01  0.16582729942E+02  0.72461555852E+02  0.69999981187E+02 0.  0.
         12    1    1    2    0    0 -0.46512334115E+01 -0.73524693707E+01 -0.16582729942E+02  0.18726444148E+02  0.00000000000E+00 0. -1.
         11    1    3    3    0    0 -0.47255769938E+01 -0.13310039796E+01 -0.46512356033E+01  0.67628871362E+01  0.51100000000E-03 0. -1.
        -11    1    3    3    0    0  0.30969691699E+02 -0.10072648051E+02  0.17152478962E+02  0.36807439160E+02  0.51100000000E-03 0.  1.
         12    1    3    3    0    0 -0.21592881294E+02  0.18756121401E+02  0.40814865829E+01  0.28891229557E+02  0.00000000000E+00 0. -1.
</event>
<event>
 7    1  0.3050261E-013  0.7246156E+02  0.7816164E-02  0.1226708E+00
        -11   -1    0    0    0    0  0.00000000000E+00  0.00000000000E+00  0.45593999997E+02  0.45594000000E+02  0.51100000000E-03 0. -1.
         11   -1    0    0    0    0 -0.00000000000E+00 -0.00000000000E+00 -0.45593999997E+02  0.45594000000E+02  0.51100000000E-03 0.  1.
    9900012    2    1    2    0    0  0.16377506258E+02 -0.34458874563E+01 -0.84013582999E+01  0.72461556855E+02  0.69999982493E+02 0.  0.
         12    1    1    2    0    0 -0.16377506258E+02  0.34458874563E+01  0.84013582999E+01  0.18726443145E+02  0.00000000000E+00 0. -1.
         11    1    3    3    0    0  0.11912795707E+02  0.86679450331E+01  0.11630197494E+02  0.18769908542E+02  0.51100000000E-03 0. -1.
        -11    1    3    3    0    0  0.21533634121E+02 -0.57220478408E+01  0.48949834587E+01  0.22812279440E+02  0.51100000000E-03 0.  1.
        -12    1    3    3    0    0 -0.17068923571E+02 -0.63917846487E+01 -0.24926539253E+02  0.30879368873E+02  0.00000000000E+00 0.  1.
</event>
<event>
 7    1  0.3050261E-013  0.7246159E+02  0.7816164E-02  0.1226708E+00
        -11   -1    0    0    0    0  0.00000000000E+00  0.00000000000E+00  0.45593999997E+02  0.45594000000E+02  0.51100000000E-03 0. -1.
         11   -1    0    0    0    0 -0.00000000000E+00 -0.00000000000E+00 -0.45593999997E+02  0.45594000000E+02  0.51100000000E-03 0.  1.
    9900012    2    1    2    0    0  0.18287328117E+01 -0.18264849751E+02 -0.37053200068E+01  0.72461590935E+02  0.70000026888E+02 0.  0.
         12    1    1    2    0    0 -0.18287328117E+01  0.18264849751E+02  0.37053200068E+01  0.18726409065E+02  0.00000000000E+00 0. -1.
         11    1    3    3    0    0 -0.26150002763E+01  0.92058196899E+01  0.21224488101E+02  0.23282273042E+02  0.51100000000E-03 0. -1.
        -11    1    3    3    0    0  0.14667287100E+02 -0.30014295959E+01 -0.42870532885E+01  0.15572948232E+02  0.51100000000E-03 0.  1.
        -12    1    3    3    0    0 -0.10223554012E+02 -0.24469239845E+02 -0.20642754819E+02  0.33606369660E+02  0.00000000000E+00 0.  1.
</event>
<event>
 7    1  0.3050261E-013  0.7246160E+02  0.7816164E-02  0.1226708E+00
        -11   -1    0    0    0    0  0.00000000000E+00  0.00000000000E+00  0.45593999997E+02  0.45594000000E+02  0.51100000000E-03 0.  1.
         11   -1    0    0    0    0 -0.00000000000E+00 -0.00000000000E+00 -0.45593999997E+02  0.45594000000E+02  0.51100000000E-03 0. -1.
    9900012    2    1    2    0    0  0.12073409974E+02 -0.96925749210E+01  0.10533979639E+02  0.72461602481E+02  0.70000041929E+02 0.  0.
         12    1    1    2    0    0 -0.12073409974E+02  0.96925749210E+01 -0.10533979639E+02  0.18726397519E+02  0.00000000000E+00 0. -1.
         11    1    3    3    0    0 -0.65543822920E+01  0.56339411675E+00 -0.13242358235E+02  0.14786392124E+02  0.51100000000E-03 0. -1.
        -11    1    3    3    0    0  0.27835202874E+02 -0.23467290622E+02  0.15501770954E+02  0.39570407518E+02  0.51100000000E-03 0.  1.
        -12    1    3    3    0    0 -0.92074106083E+01  0.13211321584E+02  0.82745669202E+01  0.18104802839E+02  0.00000000000E+00 0.  1.
</event>
<event>
 7    1  0.3050261E-013  0.7246141E+02  0.7816164E-02  0.1226708E+00
        -11   -1    0    0    0    0  0.00000000000E+00  0.00000000000E+00  0.45593999997E+02  0.45594000000E+02  0.51100000000E-03 0.  1.
         11   -1    0    0    0    0 -0.00000000000E+00 -0.00000000000E+00 -0.45593999997E+02  0.45594000000E+02  0.51100000000E-03 0. -1.
    9900012    2    1    2    0    0 -0.95782591082E+01 -0.10582162215E+02  0.12122704507E+02  0.72461410101E+02  0.69999791318E+02 0.  0.
         12    1    1    2    0    0  0.95782591082E+01  0.10582162215E+02 -0.12122704507E+02  0.18726589899E+02  0.00000000000E+00 0. -1.
         11    1    3    3    0    0 -0.14811408524E+02 -0.16697804038E+02  0.26223229819E+02  0.34436205722E+02  0.51100000000E-03 0.  1.
        -11    1    3    3    0    0  0.32857004228E+01 -0.13124692348E+02 -0.12828664781E+02  0.18644785245E+02  0.51100000000E-03 0. -1.
        -12    1    3    3    0    0  0.19474489933E+01  0.19240334170E+02 -0.12718605303E+01  0.19380419133E+02  0.00000000000E+00 0.  1.
</event>
<event>
 7    1  0.3050261E-013  0.7246157E+02  0.7816164E-02  0.1226708E+00
        -11   -1    0    0    0    0  0.00000000000E+00  0.00000000000E+00  0.45593999997E+02  0.45594000000E+02  0.51100000000E-03 0.  1.
         11   -1    0    0    0    0 -0.00000000000E+00 -0.00000000000E+00 -0.45593999997E+02  0.45594000000E+02  0.51100000000E-03 0. -1.
    9900012    2    1    2    0    0 -0.62831494554E+01 -0.17357295201E+02  0.31504673936E+01  0.72461571921E+02  0.70000002119E+02 0.  0.
         12    1    1    2    0    0  0.62831494554E+01  0.17357295201E+02 -0.31504673936E+01  0.18726428079E+02  0.00000000000E+00 0. -1.
         11    1    3    3    0    0  0.85368958081E+01 -0.29990782038E+02 -0.43194648299E+01  0.31479888405E+02  0.51100000000E-03 0. -1.
        -11    1    3    3    0    0  0.74909047528E+01 -0.44602794028E+01 -0.52002372885E+01  0.10151365154E+02  0.51100000000E-03 0.  1.
        -12    1    3    3    0    0 -0.22310950016E+02  0.17093766240E+02  0.12670169512E+02  0.30830318363E+02  0.00000000000E+00 0.  1.
</event>
<event>
 7    1  0.3050261E-013  0.7246163E+02  0.7816164E-02  0.1226708E+00
        -11   -1    0    0    0    0  0.00000000000E+00  0.00000000000E+00  0.45593999997E+02  0.45594000000E+02  0.51100000000E-03 0.  1.
         11   -1    0    0    0    0 -0.00000000000E+00 -0.00000000000E+00 -0.45593999997E+02  0.45594000000E+02  0.51100000000E-03 0. -1.
    9900012    2    1    2    0    0  0.45424581547E+01 -0.82104168159E+01  0.16205925343E+02  0.72461631249E+02  0.70000079405E+02 0.  0.
         12    1    1    2    0    0 -0.45424581547E+01  0.82104168159E+01 -0.16205925343E+02  0.18726368751E+02  0.00000000000E+00 0. -1.
         11    1    3    3    0    0  0.10968691675E+01  0.27442117010E+02 -0.33358834094E+01  0.27665881991E+02  0.51100000000E-03 0. -1.
        -11    1    3    3    0    0  0.62037410952E+01 -0.79440721157E+01 -0.10922371519E+01  0.10138425302E+02  0.51100000000E-03 0.  1.
         12    1    3    3    0    0 -0.27581521080E+01 -0.27708461710E+02  0.20634045904E+02  0.34657323956E+02  0.00000000000E+00 0. -1.
</event>
<event>
 7    1  0.3050261E-013  0.7246166E+02  0.7816164E-02  0.1226708E+00
        -11   -1    0    0    0    0  0.00000000000E+00  0.00000000000E+00  0.45593999997E+02  0.45594000000E+02  0.51100000000E-03 0.  1.
         11   -1    0    0    0    0 -0.00000000000E+00 -0.00000000000E+00 -0.45593999997E+02  0.45594000000E+02  0.51100000000E-03 0. -1.
    9900012    2    1    2    0    0  0.17484461675E+02 -0.40416972472E+01  0.53510674217E+01  0.72461664553E+02  0.70000122789E+02 0.  0.
         12    1    1    2    0    0 -0.17484461675E+02  0.40416972472E+01 -0.53510674217E+01  0.18726335447E+02  0.00000000000E+00 0. -1.
         11    1    3    3    0    0 -0.12144345611E+02 -0.21299061232E+02  0.19621709391E+01  0.24596448011E+02  0.51100000000E-03 0. -1.
        -11    1    3    3    0    0  0.14702228920E+02 -0.45468640911E+01  0.12592071193E+02  0.19884410112E+02  0.51100000000E-03 0.  1.
        -12    1    3    3    0    0  0.14926578366E+02  0.21804228076E+02 -0.92031747107E+01  0.27980806430E+02  0.00000000000E+00 0.  1.
</event>
<event>
 7    1  0.3050261E-013  0.7246150E+02  0.7816164E-02  0.1226708E+00
        -11   -1    0    0    0    0  0.00000000000E+00  0.00000000000E+00  0.45593999997E+02  0.45594000000E+02  0.51100000000E-03 0. -1.
         11   -1    0    0    0    0 -0.00000000000E+00 -0.00000000000E+00 -0.45593999997E+02  0.45594000000E+02  0.51100000000E-03 0.  1.
    9900012    2    1    2    0    0  0.12091568984E+02 -0.13596067070E+02 -0.44297366202E+01  0.72461504151E+02  0.69999913836E+02 0.  0.
         12    1    1    2    0    0 -0.12091568984E+02  0.13596067070E+02  0.44297366202E+01  0.18726495849E+02  0.00000000000E+00 0. -1.
         11    1    3    3    0    0  0.57600564608E+01 -0.14972138145E+01 -0.86599368179E+00  0.60141370915E+01  0.51100000000E-03 0. -1.
        -11    1    3    3    0    0  0.21777310815E+02  0.11070104463E+02 -0.22143981639E+02  0.32972024540E+02  0.51100000000E-03 0.  1.
         12    1    3    3    0    0 -0.15445798292E+02 -0.23168957718E+02  0.18580238700E+02  0.33475342519E+02  0.00000000000E+00 0. -1.
</event>
<event>
 7    1  0.3050261E-013  0.7246154E+02  0.7816164E-02  0.1226708E+00
        -11   -1    0    0    0    0  0.00000000000E+00  0.00000000000E+00  0.45593999997E+02  0.45594000000E+02  0.51100000000E-03 0. -1.
         11   -1    0    0    0    0 -0.00000000000E+00 -0.00000000000E+00 -0.45593999997E+02  0.45594000000E+02  0.51100000000E-03 0.  1.
    9900012    2    1    2    0    0 -0.13674294989E+02 -0.96472490024E+01 -0.84038359102E+01  0.72461542386E+02  0.69999963644E+02 0.  0.
         12    1    1    2    0    0  0.13674294989E+02  0.96472490024E+01  0.84038359102E+01  0.18726457614E+02  0.00000000000E+00 0. -1.
         11    1    3    3    0    0  0.21382804811E+02 -0.96420809459E+01 -0.49229424539E+01  0.23967257441E+02  0.51100000000E-03 0. -1.
        -11    1    3    3    0    0 -0.30805880994E+01  0.12448323055E+02 -0.58530340885E+01  0.14096410118E+02  0.51100000000E-03 0.  1.
        -12    1    3    3    0    0 -0.31976511701E+02 -0.12453491111E+02  0.23721406322E+01  0.34397874827E+02  0.00000000000E+00 0.  1.
</event>
<event>
 7    1  0.3050261E-013  0.7246156E+02  0.7816164E-02  0.1226708E+00
        -11   -1    0    0    0    0  0.00000000000E+00  0.00000000000E+00  0.45593999997E+02  0.45594000000E+02  0.51100000000E-03 0.  1.
         11   -1    0    0    0    0 -0.00000000000E+00 -0.00000000000E+00 -0.45593999997E+02  0.45594000000E+02  0.51100000000E-03 0. -1.
    9900012    2    1    2    0    0  0.18463253115E+02 -0.10736059400E+01 -0.29385409746E+01  0.72461564985E+02  0.69999993084E+02 0.  0.
         12    1    1    2    0    0 -0.18463253115E+02  0.10736059400E+01  0.29385409746E+01  0.18726435015E+02  0.00000000000E+00 0. -1.
         11    1    3    3    0    0  0.55958687583E+01 -0.81859831070E+01 -0.18849391065E+02  0.21298441501E+02  0.51100000000E-03 0. -1.
        -11    1    3    3    0    0 -0.13506366511E+02  0.96760162797E+01 -0.50629236080E+01  0.17368949971E+02  0.51100000000E-03 0.  1.
        -12    1    3    3    0    0  0.26373750868E+02 -0.25636391127E+01  0.20973773698E+02  0.33794173514E+02  0.00000000000E+00 0.  1.
</event>
<event>
 7    1  0.3050261E-013  0.7246157E+02  0.7816164E-02  0.1226708E+00
        -11   -1    0    0    0    0  0.00000000000E+00  0.00000000000E+00  0.45593999997E+02  0.45594000000E+02  0.51100000000E-03 0.  1.
         11   -1    0    0    0    0 -0.00000000000E+00 -0.00000000000E+00 -0.45593999997E+02  0.45594000000E+02  0.51100000000E-03 0. -1.
    9900012    2    1    2    0    0  0.11549115086E+02 -0.13086639757E+02 -0.67850541514E+01  0.72461570569E+02  0.70000000358E+02 0.  0.
         12    1    1    2    0    0 -0.11549115086E+02  0.13086639757E+02  0.67850541514E+01  0.18726429431E+02  0.00000000000E+00 0. -1.
         11    1    3    3    0    0 -0.39758233376E+01  0.52563658974E+01  0.46808526230E+01  0.80837451221E+01  0.51100000000E-03 0. -1.
        -11    1    3    3    0    0  0.27987330163E+02  0.10035219164E+02  0.35402305880E+01  0.29942102568E+02  0.51100000000E-03 0.  1.
         12    1    3    3    0    0 -0.12462391739E+02 -0.28378224818E+02 -0.15006137362E+02  0.34435722879E+02  0.00000000000E+00 0. -1.
</event>
<event>
 7    1  0.3050261E-013  0.7246160E+02  0.7816164E-02  0.1226708E+00
        -11   -1    0    0    0    0  0.00000000000E+00  0.00000000000E+00  0.45593999997E+02  0.45594000000E+02  0.51100000000E-03 0. -1.
         11   -1    0    0    0    0 -0.00000000000E+00 -0.00000000000E+00 -0.45593999997E+02  0.45594000000E+02  0.51100000000E-03 0.  1.
    9900012    2    1    2    0    0  0.72677944319E+00  0.39903905862E+00 -0.18708032264E+02  0.72461603877E+02  0.70000043748E+02 0.  0.
         12    1    1    2    0    0 -0.72677944319E+00 -0.39903905862E+00  0.18708032264E+02  0.18726396123E+02  0.00000000000E+00 0. -1.
         11    1    3    3    0    0  0.15006619515E+02  0.16121056467E+01  0.92614994225E+00  0.15121351390E+02  0.51100000000E-03 0. -1.
        -11    1    3    3    0    0 -0.16679243016E+02  0.15242031830E+02  0.89242144741E+01  0.24293173654E+02  0.51100000000E-03 0.  1.
         12    1    3    3    0    0  0.23994029445E+01 -0.16455098419E+02 -0.28558396681E+02  0.33047078834E+02  0.00000000000E+00 0. -1.
</event>
<event>
 7    1  0.3050261E-013  0.7246157E+02  0.7816164E-02  0.1226708E+00
        -11   -1    0    0    0    0  0.00000000000E+00  0.00000000000E+00  0.45593999997E+02  0.45594000000E+02  0.51100000000E-03 0.  1.
         11   -1    0    0    0    0 -0.00000000000E+00 -0.00000000000E+00 -0.45593999997E+02  0.45594000000E+02  0.51100000000E-03 0. -1.
    9900012    2    1    2    0    0 -0.83514767274E+01  0.11657281003E+02  0.12043240800E+02  0.72461574477E+02  0.70000005449E+02 0.  0.
         12    1    1    2    0    0  0.83514767274E+01 -0.11657281003E+02 -0.12043240800E+02  0.18726425523E+02  0.00000000000E+00 0. -1.
         11    1    3    3    0    0  0.13870138497E+02  0.84816600594E+01 -0.17654803418E+02  0.24000237151E+02  0.51100000000E-03 0. -1.
        -11    1    3    3    0    0 -0.24201232291E+01 -0.94173475661E+01 -0.10518830035E+01  0.97800761622E+01  0.51100000000E-03 0.  1.
        -12    1    3    3    0    0 -0.19801491996E+02  0.12592968509E+02  0.30749927221E+02  0.38681261164E+02  0.00000000000E+00 0.  1.
</event>
<event>
 7    1  0.3050261E-013  0.7246158E+02  0.7816164E-02  0.1226708E+00
        -11   -1    0    0    0    0  0.00000000000E+00  0.00000000000E+00  0.45593999997E+02  0.45594000000E+02  0.51100000000E-03 0.  1.
         11   -1    0    0    0    0 -0.00000000000E+00 -0.00000000000E+00 -0.45593999997E+02  0.45594000000E+02  0.51100000000E-03 0. -1.
    9900012    2    1    2    0    0 -0.56133814779E+01 -0.15834030302E+02 -0.82735979993E+01  0.72461575059E+02  0.70000006207E+02 0.  0.
         12    1    1    2    0    0  0.56133814779E+01  0.15834030302E+02  0.82735979993E+01  0.18726424941E+02  0.00000000000E+00 0. -1.
         11    1    3    3    0    0 -0.21189956929E+02  0.67420233951E+01  0.34725136924E+01  0.22506165949E+02  0.51100000000E-03 0. -1.
        -11    1    3    3    0    0  0.26167676326E+02 -0.42444745022E+01 -0.11196389466E+02  0.28777108705E+02  0.51100000000E-03 0.  1.
         12    1    3    3    0    0 -0.10591100874E+02 -0.18331579195E+02 -0.54972222540E+00  0.21178300405E+02  0.00000000000E+00 0. -1.
</event>
<event>
 7    1  0.3050261E-013  0.7246152E+02  0.7816164E-02  0.1226708E+00
        -11   -1    0    0    0    0  0.00000000000E+00  0.00000000000E+00  0.45593999997E+02  0.45594000000E+02  0.51100000000E-03 0.  1.
         11   -1    0    0    0    0 -0.00000000000E+00 -0.00000000000E+00 -0.45593999997E+02  0.45594000000E+02  0.51100000000E-03 0. -1.
    9900012    2    1    2    0    0  0.71936722324E+01  0.15312790955E+02  0.80281043513E+01  0.72461522848E+02  0.69999938193E+02 0.  0.
         12    1    1    2    0    0 -0.71936722324E+01 -0.15312790955E+02 -0.80281043513E+01  0.18726477152E+02  0.00000000000E+00 0. -1.
         11    1    3    3    0    0  0.29793652185E+01 -0.16147157379E+02 -0.18818209009E+02  0.24974633112E+02  0.51100000000E-03 0. -1.
        -11    1    3    3    0    0 -0.41399422279E+01  0.42479776911E+01  0.15932565281E+02  0.17000913882E+02  0.51100000000E-03 0.  1.
        -12    1    3    3    0    0  0.83542492418E+01  0.27211970643E+02  0.10913748079E+02  0.30485975855E+02  0.00000000000E+00 0.  1.
</event>
<event>
 7    1  0.3050261E-013  0.7246166E+02  0.7816164E-02  0.1226708E+00
        -11   -1    0    0    0    0  0.00000000000E+00  0.00000000000E+00  0.45593999997E+02  0.45594000000E+02  0.51100000000E-03 0. -1.
         11   -1    0    0    0    0 -0.00000000000E+00 -0.00000000000E+00 -0.45593999997E+02  0.45594000000E+02  0.51100000000E-03 0.  1.
    9900012    2    1    2    0    0  0.39759475607E+01  0.21883290909E+00 -0.18298078766E+02  0.72461662041E+02  0.70000119517E+02 0.  0.
         12    1    1    2    0    0 -0.39759475607E+01 -0.21883290909E+00  0.18298078766E+02  0.18726337959E+02  0.00000000000E+00 0. -1.
         11    1    3    3    0    0 -0.74574674216E+01  0.56747730382E+01  0.27744314749E+01  0.97731437956E+01  0.51100000000E-03 0. -1.
        -11    1    3    3    0    0 -0.19110959577E+02 -0.58698234852E+01 -0.24866617831E+02  0.31906618222E+02  0.51100000000E-03 0.  1.
         12    1    3    3    0    0  0.30544374560E+02  0.41388335607E+00  0.37941075907E+01  0.30781900024E+02  0.00000000000E+00 0. -1.
</event>
<event>
 7    1  0.3050261E-013  0.7246153E+02  0.7816164E-02  0.1226708E+00
        -11   -1    0    0    0    0  0.00000000000E+00  0.00000000000E+00  0.45593999997E+02  0.45594000000E+02  0.51100000000E-03 0.  1.
         11   -1    0    0    0    0 -0.00000000000E+00 -0.00000000000E+00 -0.45593999997E+02  0.45594000000E+02  0.51100000000E-03 0. -1.
    9900012    2    1    2    0    0 -0.13450433878E+02 -0.97208315417E+01 -0.86759461668E+01  0.72461527314E+02  0.69999944010E+02 0.  0.
         12    1    1    2    0    0  0.13450433878E+02  0.97208315417E+01  0.86759461668E+01  0.18726472686E+02  0.00000000000E+00 0. -1.
         11    1    3    3    0    0  0.45097433169E+01  0.15830947106E+02 -0.13107995054E+02  0.21042248113E+02  0.51100000000E-03 0. -1.
        -11    1    3    3    0    0  0.91038513464E+01  0.22420736055E+01 -0.61440528629E+01  0.11209656071E+02  0.51100000000E-03 0.  1.
        -12    1    3    3    0    0 -0.27064028542E+02 -0.27793852253E+02  0.10576101750E+02  0.40209623129E+02  0.00000000000E+00 0.  1.
</event>
<event>
 7    1  0.3050261E-013  0.7246153E+02  0.7816164E-02  0.1226708E+00
        -11   -1    0    0    0    0  0.00000000000E+00  0.00000000000E+00  0.45593999997E+02  0.45594000000E+02  0.51100000000E-03 0. -1.
         11   -1    0    0    0    0 -0.00000000000E+00 -0.00000000000E+00 -0.45593999997E+02  0.45594000000E+02  0.51100000000E-03 0.  1.
    9900012    2    1    2    0    0 -0.11622046621E+02 -0.14369512603E+02  0.30208790950E+01  0.72461532885E+02  0.69999951267E+02 0.  0.
         12    1    1    2    0    0  0.11622046621E+02  0.14369512603E+02 -0.30208790950E+01  0.18726467115E+02  0.00000000000E+00 0. -1.
         11    1    3    3    0    0 -0.19477841067E+02 -0.17319174306E+02  0.11024763766E+02  0.28299920629E+02  0.51100000000E-03 0.  1.
        -11    1    3    3    0    0 -0.14841187700E+02  0.10052588156E+02  0.26170925514E+01  0.18115312713E+02  0.51100000000E-03 0. -1.
         12    1    3    3    0    0  0.22696982146E+02 -0.71029264536E+01 -0.10620977222E+02  0.26046299543E+02  0.00000000000E+00 0. -1.
</event>
<event>
 7    1  0.3050261E-013  0.7246158E+02  0.7816164E-02  0.1226708E+00
        -11   -1    0    0    0    0  0.00000000000E+00  0.00000000000E+00  0.45593999997E+02  0.45594000000E+02  0.51100000000E-03 0. -1.
         11   -1    0    0    0    0 -0.00000000000E+00 -0.00000000000E+00 -0.45593999997E+02  0.45594000000E+02  0.51100000000E-03 0.  1.
    9900012    2    1    2    0    0 -0.67464141025E+01  0.16361601624E+02  0.61206672405E+01  0.72461583407E+02  0.70000017082E+02 0.  0.
         12    1    1    2    0    0  0.67464141025E+01 -0.16361601624E+02 -0.61206672405E+01  0.18726416593E+02  0.00000000000E+00 0. -1.
         11    1    3    3    0    0  0.67905190869E+01  0.60733148781E+01 -0.16938393637E+02  0.19232927035E+02  0.51100000000E-03 0. -1.
        -11    1    3    3    0    0 -0.13123524639E+02  0.62505681212E+01 -0.11436161634E+02  0.18495466849E+02  0.51100000000E-03 0.  1.
         12    1    3    3    0    0 -0.41340855000E+00  0.40377186242E+01  0.34495222511E+02  0.34733189523E+02  0.00000000000E+00 0. -1.
</event>
<event>
 7    1  0.3050261E-013  0.7246159E+02  0.7816164E-02  0.1226708E+00
        -11   -1    0    0    0    0  0.00000000000E+00  0.00000000000E+00  0.45593999997E+02  0.45594000000E+02  0.51100000000E-03 0.  1.
         11   -1    0    0    0    0 -0.00000000000E+00 -0.00000000000E+00 -0.45593999997E+02  0.45594000000E+02  0.51100000000E-03 0. -1.
    9900012    2    1    2    0    0 -0.59822626624E+01 -0.14019018823E+02  0.10879242553E+02  0.72461594209E+02  0.70000031153E+02 0.  0.
         12    1    1    2    0    0  0.59822626624E+01  0.14019018823E+02 -0.10879242553E+02  0.18726405791E+02  0.00000000000E+00 0. -1.
         11    1    3    3    0    0  0.19155462855E+02 -0.20675544325E+02  0.56416660880E+01  0.28744360957E+02  0.51100000000E-03 0. -1.
        -11    1    3    3    0    0 -0.12024049955E+01  0.17539887723E+01  0.16625786848E+02  0.16761236319E+02  0.51100000000E-03 0.  1.
         12    1    3    3    0    0 -0.23935320522E+02  0.49025367293E+01 -0.11388210383E+02  0.26955996932E+02  0.00000000000E+00 0. -1.
</event>
<event>
 7    1  0.3050261E-013  0.7246162E+02  0.7816164E-02  0.1226708E+00
        -11   -1    0    0    0    0  0.00000000000E+00  0.00000000000E+00  0.45593999997E+02  0.45594000000E+02  0.51100000000E-03 0.  1.
         11   -1    0    0    0    0 -0.00000000000E+00 -0.00000000000E+00 -0.45593999997E+02  0.45594000000E+02  0.51100000000E-03 0. -1.
    9900012    2    1    2    0    0 -0.12702825192E+02  0.13723839133E+02  0.98572090297E+00  0.72461623573E+02  0.70000069405E+02 0.  0.
         12    1    1    2    0    0  0.12702825192E+02 -0.13723839133E+02 -0.98572090297E+00  0.18726376427E+02  0.00000000000E+00 0. -1.
         11    1    3    3    0    0 -0.28226910295E+01 -0.19843380728E+01 -0.65675491739E+01  0.74187522298E+01  0.51100000000E-03 0. -1.
        -11    1    3    3    0    0  0.19525354990E+02 -0.12324173109E+02 -0.24035204654E+01  0.23214255129E+02  0.51100000000E-03 0.  1.
         12    1    3    3    0    0 -0.29405489152E+02  0.28032350315E+02  0.99567905422E+01  0.41828616214E+02  0.00000000000E+00 0. -1.
</event>
<event>
 7    1  0.3050261E-013  0.7246162E+02  0.7816164E-02  0.1226708E+00
        -11   -1    0    0    0    0  0.00000000000E+00  0.00000000000E+00  0.45593999997E+02  0.45594000000E+02  0.51100000000E-03 0.  1.
         11   -1    0    0    0    0 -0.00000000000E+00 -0.00000000000E+00 -0.45593999997E+02  0.45594000000E+02  0.51100000000E-03 0. -1.
    9900012    2    1    2    0    0 -0.91070897584E+01 -0.16327177543E+02  0.10776555738E+01  0.72461624165E+02  0.70000070176E+02 0.  0.
         12    1    1    2    0    0  0.91070897584E+01  0.16327177543E+02 -0.10776555738E+01  0.18726375835E+02  0.00000000000E+00 0. -1.
         11    1    3    3    0    0  0.12533387137E+01 -0.39338293307E+00 -0.39223864651E+01  0.41365110789E+01  0.51100000000E-03 0. -1.
        -11    1    3    3    0    0  0.16340557297E+02  0.17956325255E+02 -0.29395431101E+01  0.24455762990E+02  0.51100000000E-03 0.  1.
         12    1    3    3    0    0 -0.26700985770E+02 -0.33890119865E+02  0.79395851490E+01  0.43869350096E+02  0.00000000000E+00 0. -1.
</event>
<event>
 7    1  0.3050261E-013  0.7246152E+02  0.7816164E-02  0.1226708E+00
        -11   -1    0    0    0    0  0.00000000000E+00  0.00000000000E+00  0.45593999997E+02  0.45594000000E+02  0.51100000000E-03 0.  1.
         11   -1    0    0    0    0 -0.00000000000E+00 -0.00000000000E+00 -0.45593999997E+02  0.45594000000E+02  0.51100000000E-03 0. -1.
    9900012    2    1    2    0    0 -0.43672202389E+01  0.81872915816E+01  0.16265812284E+02  0.72461521279E+02  0.69999936148E+02 0.  0.
         12    1    1    2    0    0  0.43672202389E+01 -0.81872915816E+01 -0.16265812284E+02  0.18726478721E+02  0.00000000000E+00 0. -1.
         11    1    3    3    0    0 -0.11340890827E+01  0.19259603354E+02  0.12723977653E+02  0.23110994937E+02  0.51100000000E-03 0. -1.
        -11    1    3    3    0    0 -0.13599154462E+02  0.10129892666E+02  0.15428292752E+02  0.22925617658E+02  0.51100000000E-03 0.  1.
        -12    1    3    3    0    0  0.10366023306E+02 -0.21202204439E+02 -0.11886458121E+02  0.26424908683E+02  0.00000000000E+00 0.  1.
</event>
<event>
 7    1  0.3050261E-013  0.7246160E+02  0.7816164E-02  0.1226708E+00
        -11   -1    0    0    0    0  0.00000000000E+00  0.00000000000E+00  0.45593999997E+02  0.45594000000E+02  0.51100000000E-03 0. -1.
         11   -1    0    0    0    0 -0.00000000000E+00 -0.00000000000E+00 -0.45593999997E+02  0.45594000000E+02  0.51100000000E-03 0.  1.
    9900012    2    1    2    0    0 -0.47285248031E+01 -0.14176253995E+02 -0.11285076995E+02  0.72461599200E+02  0.70000037655E+02 0.  0.
         12    1    1    2    0    0  0.47285248031E+01  0.14176253995E+02  0.11285076995E+02  0.18726400800E+02  0.00000000000E+00 0. -1.
         11    1    3    3    0    0  0.97519368875E+01 -0.10942340505E+02  0.24437190082E+02  0.28495812818E+02  0.51100000000E-03 0. -1.
        -11    1    3    3    0    0  0.15774100033E+01  0.39132301898E+01 -0.73939648828E-01  0.42198412493E+01  0.51100000000E-03 0.  1.
        -12    1    3    3    0    0 -0.16057871694E+02 -0.71471436801E+01 -0.35648327428E+02  0.39745945133E+02  0.00000000000E+00 0.  1.
</event>
<event>
 7    1  0.3050261E-013  0.7246170E+02  0.7816164E-02  0.1226708E+00
        -11   -1    0    0    0    0  0.00000000000E+00  0.00000000000E+00  0.45593999997E+02  0.45594000000E+02  0.51100000000E-03 0.  1.
         11   -1    0    0    0    0 -0.00000000000E+00 -0.00000000000E+00 -0.45593999997E+02  0.45594000000E+02  0.51100000000E-03 0. -1.
    9900012    2    1    2    0    0  0.56449762126E+00  0.18691409230E+02  0.99338766788E+00  0.72461701497E+02  0.70000170916E+02 0.  0.
         12    1    1    2    0    0 -0.56449762126E+00 -0.18691409230E+02 -0.99338766788E+00  0.18726298503E+02  0.00000000000E+00 0. -1.
         11    1    3    3    0    0  0.90001154014E+01  0.15715458413E+02 -0.27078150041E+01  0.18311471069E+02  0.51100000000E-03 0. -1.
        -11    1    3    3    0    0  0.21956522915E+02 -0.51463051647E+01  0.95377283245E+00  0.22571730954E+02  0.51100000000E-03 0.  1.
        -12    1    3    3    0    0 -0.30392140696E+02  0.81222559820E+01  0.27474298395E+01  0.31578499474E+02  0.00000000000E+00 0.  1.
</event>
<event>
 7    1  0.3050261E-013  0.7246156E+02  0.7816164E-02  0.1226708E+00
        -11   -1    0    0    0    0  0.00000000000E+00  0.00000000000E+00  0.45593999997E+02  0.45594000000E+02  0.51100000000E-03 0.  1.
         11   -1    0    0    0    0 -0.00000000000E+00 -0.00000000000E+00 -0.45593999997E+02  0.45594000000E+02  0.51100000000E-03 0. -1.
    9900012    2    1    2    0    0 -0.14036009269E+01 -0.15700707069E+02  0.10109272822E+02  0.72461556263E+02  0.69999981722E+02 0.  0.
         12    1    1    2    0    0  0.14036009269E+01  0.15700707069E+02 -0.10109272822E+02  0.18726443737E+02  0.00000000000E+00 0. -1.
         11    1    3    3    0    0 -0.76438007676E+01  0.33520160535E+01 -0.51822202085E+01  0.98244138934E+01  0.51100000000E-03 0. -1.
        -11    1    3    3    0    0  0.20622506065E+02  0.13599074640E+02  0.29225087249E+01  0.24874960200E+02  0.51100000000E-03 0.  1.
         12    1    3    3    0    0 -0.14382306224E+02 -0.32651797762E+02  0.12368984306E+02  0.37762182169E+02  0.00000000000E+00 0. -1.
</event>
<event>
 7    1  0.3050261E-013  0.7246163E+02  0.7816164E-02  0.1226708E+00
        -11   -1    0    0    0    0  0.00000000000E+00  0.00000000000E+00  0.45593999997E+02  0.45594000000E+02  0.51100000000E-03 0. -1.
         11   -1    0    0    0    0 -0.00000000000E+00 -0.00000000000E+00 -0.45593999997E+02  0.45594000000E+02  0.51100000000E-03 0.  1.
    9900012    2    1    2    0    0  0.13598106347E+02  0.17633263991E+01 -0.12753782618E+02  0.72461633901E+02  0.70000082859E+02 0.  0.
         12    1    1    2    0    0 -0.13598106347E+02 -0.17633263991E+01  0.12753782618E+02  0.18726366099E+02  0.00000000000E+00 0. -1.
         11    1    3    3    0    0 -0.14503846576E+02 -0.62732234669E+01  0.10281251642E+02  0.18852560403E+02  0.51100000000E-03 0. -1.
        -11    1    3    3    0    0 -0.53779675456E+00  0.15052253783E+02  0.16524733702E+01  0.15152235406E+02  0.51100000000E-03 0.  1.
        -12    1    3    3    0    0  0.28639749677E+02 -0.70157039169E+01 -0.24687507631E+02  0.38456838092E+02  0.00000000000E+00 0.  1.
</event>
<event>
 7    1  0.3050261E-013  0.7246159E+02  0.7816164E-02  0.1226708E+00
        -11   -1    0    0    0    0  0.00000000000E+00  0.00000000000E+00  0.45593999997E+02  0.45594000000E+02  0.51100000000E-03 0.  1.
         11   -1    0    0    0    0 -0.00000000000E+00 -0.00000000000E+00 -0.45593999997E+02  0.45594000000E+02  0.51100000000E-03 0. -1.
    9900012    2    1    2    0    0  0.18313558485E+01  0.17327038483E+02  0.68628072231E+01  0.72461594851E+02  0.70000031989E+02 0.  0.
         12    1    1    2    0    0 -0.18313558485E+01 -0.17327038483E+02 -0.68628072231E+01  0.18726405149E+02  0.00000000000E+00 0. -1.
         11    1    3    3    0    0  0.44016512873E+01  0.31471094154E+02 -0.11130698391E+02  0.33670413545E+02  0.51100000000E-03 0. -1.
        -11    1    3    3    0    0  0.12655828433E+02  0.10002211792E+01  0.47162441371E+01  0.13543020149E+02  0.51100000000E-03 0.  1.
        -12    1    3    3    0    0 -0.15226123872E+02 -0.15144276850E+02  0.13277261477E+02  0.25248161157E+02  0.00000000000E+00 0.  1.
</event>
<event>
 7    1  0.3050261E-013  0.7246158E+02  0.7816164E-02  0.1226708E+00
        -11   -1    0    0    0    0  0.00000000000E+00  0.00000000000E+00  0.45593999997E+02  0.45594000000E+02  0.51100000000E-03 0.  1.
         11   -1    0    0    0    0 -0.00000000000E+00 -0.00000000000E+00 -0.45593999997E+02  0.45594000000E+02  0.51100000000E-03 0. -1.
    9900012    2    1    2    0    0  0.14906871903E+02  0.68181637509E+01  0.90540977120E+01  0.72461578232E+02  0.70000010340E+02 0.  0.
         12    1    1    2    0    0 -0.14906871903E+02 -0.68181637509E+01 -0.90540977120E+01  0.18726421768E+02  0.00000000000E+00 0. -1.
         11    1    3    3    0    0  0.43495571805E+01 -0.19706616137E+02 -0.50384010451E+01  0.20800357030E+02  0.51100000000E-03 0. -1.
        -11    1    3    3    0    0 -0.11267261852E+01 -0.69529320237E+01 -0.73852414158E+01  0.10205614467E+02  0.51100000000E-03 0.  1.
        -12    1    3    3    0    0  0.11684040907E+02  0.33477711912E+02  0.21477740173E+02  0.41455606734E+02  0.00000000000E+00 0.  1.
</event>
<event>
 7    1  0.3050261E-013  0.7246160E+02  0.7816164E-02  0.1226708E+00
        -11   -1    0    0    0    0  0.00000000000E+00  0.00000000000E+00  0.45593999997E+02  0.45594000000E+02  0.51100000000E-03 0. -1.
         11   -1    0    0    0    0 -0.00000000000E+00 -0.00000000000E+00 -0.45593999997E+02  0.45594000000E+02  0.51100000000E-03 0.  1.
    9900012    2    1    2    0    0 -0.91017882193E+01  0.15419731360E+02  0.54833891198E+01  0.72461595641E+02  0.70000033018E+02 0.  0.
         12    1    1    2    0    0  0.91017882193E+01 -0.15419731360E+02 -0.54833891198E+01  0.18726404359E+02  0.00000000000E+00 0. -1.
         11    1    3    3    0    0 -0.18363302188E+02  0.11615389866E+02  0.10543808476E+02  0.24151605463E+02  0.51100000000E-03 0. -1.
        -11    1    3    3    0    0 -0.16014407466E+02  0.86611271372E+01 -0.11809942698E+02  0.21701408170E+02  0.51100000000E-03 0.  1.
         12    1    3    3    0    0  0.25275921434E+02 -0.48567856439E+01  0.67495233416E+01  0.26608582008E+02  0.00000000000E+00 0. -1.
</event>
<event>
 7    1  0.3050261E-013  0.7246159E+02  0.7816164E-02  0.1226708E+00
        -11   -1    0    0    0    0  0.00000000000E+00  0.00000000000E+00  0.45593999997E+02  0.45594000000E+02  0.51100000000E-03 0. -1.
         11   -1    0    0    0    0 -0.00000000000E+00 -0.00000000000E+00 -0.45593999997E+02  0.45594000000E+02  0.51100000000E-03 0.  1.
    9900012    2    1    2    0    0  0.83557633841E+01 -0.11681788751E+02 -0.12016471767E+02  0.72461586465E+02  0.70000021065E+02 0.  0.
         12    1    1    2    0    0 -0.83557633841E+01  0.11681788751E+02  0.12016471767E+02  0.18726413535E+02  0.00000000000E+00 0. -1.
         11    1    3    3    0    0 -0.20088243021E+02  0.72032794776E+01  0.99594054879E+01  0.23550254793E+02  0.51100000000E-03 0. -1.
        -11    1    3    3    0    0  0.24744373897E+01 -0.29561788003E+00  0.59727750342E+01  0.64718059455E+01  0.51100000000E-03 0.  1.
        -12    1    3    3    0    0  0.25969569015E+02 -0.18589450349E+02 -0.27948652289E+02  0.42439525726E+02  0.00000000000E+00 0.  1.
</event>
<event>
 7    1  0.3050261E-013  0.7246156E+02  0.7816164E-02  0.1226708E+00
        -11   -1    0    0    0    0  0.00000000000E+00  0.00000000000E+00  0.45593999997E+02  0.45594000000E+02  0.51100000000E-03 0. -1.
         11   -1    0    0    0    0 -0.00000000000E+00 -0.00000000000E+00 -0.45593999997E+02  0.45594000000E+02  0.51100000000E-03 0.  1.
    9900012    2    1    2    0    0 -0.12534543022E+02 -0.13311821397E+02 -0.40447643094E+01  0.72461562112E+02  0.69999989341E+02 0.  0.
         12    1    1    2    0    0  0.12534543022E+02  0.13311821397E+02  0.40447643094E+01  0.18726437888E+02  0.00000000000E+00 0. -1.
         11    1    3    3    0    0  0.14667130867E+02  0.67184936290E+01  0.74050647763E+01  0.17750996285E+02  0.51100000000E-03 0. -1.
        -11    1    3    3    0    0  0.74662556755E+01 -0.13067912036E+02 -0.12151295992E+02  0.19343456086E+02  0.51100000000E-03 0.  1.
        -12    1    3    3    0    0 -0.34667929564E+02 -0.69624029894E+01  0.70146690685E+00  0.35367109741E+02  0.00000000000E+00 0.  1.
</event>
<event>
 7    1  0.3050261E-013  0.7246140E+02  0.7816164E-02  0.1226708E+00
        -11   -1    0    0    0    0  0.00000000000E+00  0.00000000000E+00  0.45593999997E+02  0.45594000000E+02  0.51100000000E-03 0.  1.
         11   -1    0    0    0    0 -0.00000000000E+00 -0.00000000000E+00 -0.45593999997E+02  0.45594000000E+02  0.51100000000E-03 0. -1.
    9900012    2    1    2    0    0  0.89541769764E+01  0.47977938463E+01  0.15731791073E+02  0.72461404969E+02  0.69999784632E+02 0.  0.
         12    1    1    2    0    0 -0.89541769764E+01 -0.47977938463E+01 -0.15731791073E+02  0.18726595031E+02  0.00000000000E+00 0. -1.
         11    1    3    3    0    0  0.10357336585E+01  0.13155977588E-02  0.74185280337E+01  0.74904809185E+01  0.51100000000E-03 0. -1.
        -11    1    3    3    0    0  0.31764265640E+02  0.18540551541E+02  0.68277125071E+01  0.37407730236E+02  0.51100000000E-03 0.  1.
         12    1    3    3    0    0 -0.23845822322E+02 -0.13744073292E+02  0.14855505317E+01  0.27563193814E+02  0.00000000000E+00 0. -1.
</event>
<event>
 7    1  0.3050261E-013  0.7246161E+02  0.7816164E-02  0.1226708E+00
        -11   -1    0    0    0    0  0.00000000000E+00  0.00000000000E+00  0.45593999997E+02  0.45594000000E+02  0.51100000000E-03 0.  1.
         11   -1    0    0    0    0 -0.00000000000E+00 -0.00000000000E+00 -0.45593999997E+02  0.45594000000E+02  0.51100000000E-03 0. -1.
    9900012    2    1    2    0    0 -0.72543502372E+01 -0.10884338485E+02  0.13400863378E+02  0.72461613245E+02  0.70000055951E+02 0.  0.
         12    1    1    2    0    0  0.72543502372E+01  0.10884338485E+02 -0.13400863378E+02  0.18726386755E+02  0.00000000000E+00 0. -1.
         11    1    3    3    0    0 -0.11331281594E+02 -0.72810293232E+00 -0.93578077982E+01  0.14713824910E+02  0.51100000000E-03 0. -1.
        -11    1    3    3    0    0 -0.15409541793E+02  0.13080894685E+02  0.17969461982E+02  0.27045616063E+02  0.51100000000E-03 0.  1.
        -12    1    3    3    0    0  0.19486473150E+02 -0.23237130238E+02  0.47892091947E+01  0.30702172272E+02  0.00000000000E+00 0.  1.
</event>
<event>
 7    1  0.3050261E-013  0.7246153E+02  0.7816164E-02  0.1226708E+00
        -11   -1    0    0    0    0  0.00000000000E+00  0.00000000000E+00  0.45593999997E+02  0.45594000000E+02  0.51100000000E-03 0. -1.
         11   -1    0    0    0    0 -0.00000000000E+00 -0.00000000000E+00 -0.45593999997E+02  0.45594000000E+02  0.51100000000E-03 0.  1.
    9900012    2    1    2    0    0 -0.10112971340E+02  0.12682907291E+02 -0.93569512996E+01  0.72461525043E+02  0.69999941052E+02 0.  0.
         12    1    1    2    0    0  0.10112971340E+02 -0.12682907291E+02  0.93569512996E+01  0.18726474957E+02  0.00000000000E+00 0. -1.
         11    1    3    3    0    0 -0.27125362674E+01 -0.40827894028E+01  0.12476003244E+02  0.13404390307E+02  0.51100000000E-03 0. -1.
        -11    1    3    3    0    0  0.32781532424E+01  0.35777549576E+01 -0.36382353898E+02  0.36704526896E+02  0.51100000000E-03 0.  1.
         12    1    3    3    0    0 -0.10678588315E+02  0.13187941737E+02  0.14549399355E+02  0.22352607840E+02  0.00000000000E+00 0. -1.
</event>
<event>
 7    1  0.3050261E-013  0.7246164E+02  0.7816164E-02  0.1226708E+00
        -11   -1    0    0    0    0  0.00000000000E+00  0.00000000000E+00  0.45593999997E+02  0.45594000000E+02  0.51100000000E-03 0.  1.
         11   -1    0    0    0    0 -0.00000000000E+00 -0.00000000000E+00 -0.45593999997E+02  0.45594000000E+02  0.51100000000E-03 0. -1.
    9900012    2    1    2    0    0  0.11405956530E+02 -0.10771688707E+02 -0.10225048360E+02  0.72461635272E+02  0.70000084645E+02 0.  0.
         12    1    1    2    0    0 -0.11405956530E+02  0.10771688707E+02  0.10225048360E+02  0.18726364728E+02  0.00000000000E+00 0. -1.
         11    1    3    3    0    0 -0.12800117560E+01  0.23107921642E+01 -0.66357059827E+01  0.71421834666E+01  0.51100000000E-03 0. -1.
        -11    1    3    3    0    0 -0.22057375993E+01  0.24254436220E+02 -0.58897004998E+01  0.25056566544E+02  0.51100000000E-03 0.  1.
        -12    1    3    3    0    0  0.14891705886E+02 -0.37336917091E+02  0.23003581222E+01  0.40262885261E+02  0.00000000000E+00 0.  1.
</event>
<event>
 7    1  0.3050261E-013  0.7246157E+02  0.7816164E-02  0.1226708E+00
        -11   -1    0    0    0    0  0.00000000000E+00  0.00000000000E+00  0.45593999997E+02  0.45594000000E+02  0.51100000000E-03 0. -1.
         11   -1    0    0    0    0 -0.00000000000E+00 -0.00000000000E+00 -0.45593999997E+02  0.45594000000E+02  0.51100000000E-03 0.  1.
    9900012    2    1    2    0    0 -0.11789972689E+02 -0.74639810200E+01 -0.12488583370E+02  0.72461569927E+02  0.69999999522E+02 0.  0.
         12    1    1    2    0    0  0.11789972689E+02  0.74639810200E+01  0.12488583370E+02  0.18726430073E+02  0.00000000000E+00 0. -1.
         11    1    3    3    0    0  0.26618178291E+01 -0.21034510584E+02 -0.11723409676E+02  0.24227551349E+02  0.51100000000E-03 0. -1.
        -11    1    3    3    0    0 -0.10905578049E+02  0.16382985672E+02 -0.20245394734E+02  0.28234904999E+02  0.51100000000E-03 0.  1.
         12    1    3    3    0    0 -0.35462124688E+01 -0.28124561078E+01  0.19480221040E+02  0.19999113580E+02  0.00000000000E+00 0. -1.
</event>
<event>
 7    1  0.3050261E-013  0.7246160E+02  0.7816164E-02  0.1226708E+00
        -11   -1    0    0    0    0  0.00000000000E+00  0.00000000000E+00  0.45593999997E+02  0.45594000000E+02  0.51100000000E-03 0. -1.
         11   -1    0    0    0    0 -0.00000000000E+00 -0.00000000000E+00 -0.45593999997E+02  0.45594000000E+02  0.51100000000E-03 0.  1.
    9900012    2    1    2    0    0 -0.15176553244E+02 -0.10720788220E+02 -0.23270436924E+01  0.72461596160E+02  0.70000033695E+02 0.  0.
         12    1    1    2    0    0  0.15176553244E+02  0.10720788220E+02  0.23270436924E+01  0.18726403840E+02  0.00000000000E+00 0. -1.
         11    1    3    3    0    0  0.12987386097E+01  0.61713307960E+01  0.19771819640E+01  0.66091825932E+01  0.51100000000E-03 0. -1.
        -11    1    3    3    0    0 -0.14007838139E+02  0.44494223962E+01 -0.29368422032E+02  0.32840845024E+02  0.51100000000E-03 0.  1.
         12    1    3    3    0    0 -0.24674537152E+01 -0.21341541412E+02  0.25064196376E+02  0.33011568543E+02  0.00000000000E+00 0. -1.
</event>
<event>
 7    1  0.3050261E-013  0.7246147E+02  0.7816164E-02  0.1226708E+00
        -11   -1    0    0    0    0  0.00000000000E+00  0.00000000000E+00  0.45593999997E+02  0.45594000000E+02  0.51100000000E-03 0.  1.
         11   -1    0    0    0    0 -0.00000000000E+00 -0.00000000000E+00 -0.45593999997E+02  0.45594000000E+02  0.51100000000E-03 0. -1.
    9900012    2    1    2    0    0 -0.12945798944E+01  0.11478835439E+02  0.14739171620E+02  0.72461473889E+02  0.69999874414E+02 0.  0.
         12    1    1    2    0    0  0.12945798944E+01 -0.11478835439E+02 -0.14739171620E+02  0.18726526111E+02  0.00000000000E+00 0. -1.
         11    1    3    3    0    0  0.13751100129E+02  0.17807910302E+01 -0.66170848317E+01  0.15363911722E+02  0.51100000000E-03 0. -1.
        -11    1    3    3    0    0  0.57389289333E+00  0.12880188600E+02  0.34249297740E+02  0.36595669244E+02  0.51100000000E-03 0.  1.
         12    1    3    3    0    0 -0.15619572917E+02 -0.31821441913E+01 -0.12893041288E+02  0.20501892923E+02  0.00000000000E+00 0. -1.
</event>
<event>
 7    1  0.3050261E-013  0.7246164E+02  0.7816164E-02  0.1226708E+00
        -11   -1    0    0    0    0  0.00000000000E+00  0.00000000000E+00  0.45593999997E+02  0.45594000000E+02  0.51100000000E-03 0.  1.
         11   -1    0    0    0    0 -0.00000000000E+00 -0.00000000000E+00 -0.45593999997E+02  0.45594000000E+02  0.51100000000E-03 0. -1.
    9900012    2    1    2    0    0  0.54216470264E+01 -0.59735473016E+01  0.16899674545E+02  0.72461640942E+02  0.70000092032E+02 0.  0.
         12    1    1    2    0    0 -0.54216470264E+01  0.59735473016E+01 -0.16899674545E+02  0.18726359058E+02  0.00000000000E+00 0. -1.
         11    1    3    3    0    0  0.59204800381E+01 -0.19007000243E+02 -0.73300613901E+01  0.21214333418E+02  0.51100000000E-03 0. -1.
        -11    1    3    3    0    0  0.20823979092E+02  0.14103263029E+01  0.11363036039E+02  0.23764379095E+02  0.51100000000E-03 0.  1.
         12    1    3    3    0    0 -0.21322812103E+02  0.11623126639E+02  0.12866699896E+02  0.27482928429E+02  0.00000000000E+00 0. -1.
</event>
<event>
 7    1  0.3050261E-013  0.7246163E+02  0.7816164E-02  0.1226708E+00
        -11   -1    0    0    0    0  0.00000000000E+00  0.00000000000E+00  0.45593999997E+02  0.45594000000E+02  0.51100000000E-03 0.  1.
         11   -1    0    0    0    0 -0.00000000000E+00 -0.00000000000E+00 -0.45593999997E+02  0.45594000000E+02  0.51100000000E-03 0. -1.
    9900012    2    1    2    0    0 -0.16809535354E+02 -0.19696875272E+01  0.80147874316E+01  0.72461629147E+02  0.70000076666E+02 0.  0.
         12    1    1    2    0    0  0.16809535354E+02  0.19696875272E+01 -0.80147874316E+01  0.18726370853E+02  0.00000000000E+00 0. -1.
         11    1    3    3    0    0  0.80860909007E+01 -0.23370494323E+02  0.83991778266E+01  0.26117255970E+02  0.51100000000E-03 0. -1.
        -11    1    3    3    0    0 -0.20844099956E+02  0.63453200166E+01  0.13361381470E+02  0.25559070878E+02  0.51100000000E-03 0.  1.
        -12    1    3    3    0    0 -0.40515262980E+01  0.15055486779E+02 -0.13745771865E+02  0.20785302299E+02  0.00000000000E+00 0.  1.
</event>
<event>
 7    1  0.3050261E-013  0.7246160E+02  0.7816164E-02  0.1226708E+00
        -11   -1    0    0    0    0  0.00000000000E+00  0.00000000000E+00  0.45593999997E+02  0.45594000000E+02  0.51100000000E-03 0.  1.
         11   -1    0    0    0    0 -0.00000000000E+00 -0.00000000000E+00 -0.45593999997E+02  0.45594000000E+02  0.51100000000E-03 0. -1.
    9900012    2    1    2    0    0  0.10174263449E+02 -0.12642118775E+02  0.93455472821E+01  0.72461599977E+02  0.70000038667E+02 0.  0.
         12    1    1    2    0    0 -0.10174263449E+02  0.12642118775E+02 -0.93455472821E+01  0.18726400023E+02  0.00000000000E+00 0. -1.
         11    1    3    3    0    0 -0.10535277242E+02  0.19470575527E+01 -0.86240903137E+01  0.13753473514E+02  0.51100000000E-03 0. -1.
        -11    1    3    3    0    0 -0.14391344509E+02 -0.14239307833E+01  0.15408743840E+02  0.21132149977E+02  0.51100000000E-03 0.  1.
        -12    1    3    3    0    0  0.35100885200E+02 -0.13165245544E+02  0.25608937558E+01  0.37575976486E+02  0.00000000000E+00 0.  1.
</event>
<event>
 7    1  0.3050261E-013  0.7246156E+02  0.7816164E-02  0.1226708E+00
        -11   -1    0    0    0    0  0.00000000000E+00  0.00000000000E+00  0.45593999997E+02  0.45594000000E+02  0.51100000000E-03 0.  1.
         11   -1    0    0    0    0 -0.00000000000E+00 -0.00000000000E+00 -0.45593999997E+02  0.45594000000E+02  0.51100000000E-03 0. -1.
    9900012    2    1    2    0    0 -0.96429876614E+01  0.16048612954E+02 -0.36650992086E+00  0.72461560982E+02  0.69999987868E+02 0.  0.
         12    1    1    2    0    0  0.96429876614E+01 -0.16048612954E+02  0.36650992086E+00  0.18726439018E+02  0.00000000000E+00 0. -1.
         11    1    3    3    0    0  0.25162923315E+01  0.52897692962E+00  0.26085816538E+01  0.36628188865E+01  0.51100000000E-03 0. -1.
        -11    1    3    3    0    0 -0.48944542436E+01  0.31063791841E+02  0.22085166158E+02  0.38427456465E+02  0.51100000000E-03 0.  1.
         12    1    3    3    0    0 -0.72648257493E+01 -0.15544155816E+02 -0.25060257733E+02  0.30371285630E+02  0.00000000000E+00 0. -1.
</event>
<event>
 7    1  0.3050261E-013  0.7246155E+02  0.7816164E-02  0.1226708E+00
        -11   -1    0    0    0    0  0.00000000000E+00  0.00000000000E+00  0.45593999997E+02  0.45594000000E+02  0.51100000000E-03 0. -1.
         11   -1    0    0    0    0 -0.00000000000E+00 -0.00000000000E+00 -0.45593999997E+02  0.45594000000E+02  0.51100000000E-03 0.  1.
    9900012    2    1    2    0    0  0.18197743558E+02 -0.14745765625E+01 -0.41650327390E+01  0.72461554946E+02  0.69999980006E+02 0.  0.
         12    1    1    2    0    0 -0.18197743558E+02  0.14745765625E+01  0.41650327390E+01  0.18726445054E+02  0.00000000000E+00 0. -1.
         11    1    3    3    0    0  0.22025759575E+02  0.20853169274E+02 -0.55598875721E+01  0.30836684382E+02  0.51100000000E-03 0. -1.
        -11    1    3    3    0    0  0.11151943599E+02  0.23054746214E+01 -0.44171481088E+01  0.12214428228E+02  0.51100000000E-03 0.  1.
         12    1    3    3    0    0 -0.14979959616E+02 -0.24633220457E+02  0.58120029418E+01  0.29410442336E+02  0.00000000000E+00 0. -1.
</event>
<event>
 7    1  0.3050261E-013  0.7246164E+02  0.7816164E-02  0.1226708E+00
        -11   -1    0    0    0    0  0.00000000000E+00  0.00000000000E+00  0.45593999997E+02  0.45594000000E+02  0.51100000000E-03 0.  1.
         11   -1    0    0    0    0 -0.00000000000E+00 -0.00000000000E+00 -0.45593999997E+02  0.45594000000E+02  0.51100000000E-03 0. -1.
    9900012    2    1    2    0    0 -0.18429080743E+02  0.28588622916E+01 -0.16948340088E+01  0.72461639624E+02  0.70000090314E+02 0.  0.
         12    1    1    2    0    0  0.18429080743E+02 -0.28588622916E+01  0.16948340088E+01  0.18726360376E+02  0.00000000000E+00 0. -1.
         11    1    3    3    0    0 -0.83206145348E+01  0.17773917489E+02  0.74643159924E+00  0.19639295546E+02  0.51100000000E-03 0. -1.
        -11    1    3    3    0    0  0.15387705618E+02  0.42463695189E+01 -0.11491950816E+02  0.19669216357E+02  0.51100000000E-03 0.  1.
        -12    1    3    3    0    0 -0.25496171826E+02 -0.19161424716E+02  0.90506852080E+01  0.33153127721E+02  0.00000000000E+00 0.  1.
</event>
<event>
 7    1  0.3050261E-013  0.7246162E+02  0.7816164E-02  0.1226708E+00
        -11   -1    0    0    0    0  0.00000000000E+00  0.00000000000E+00  0.45593999997E+02  0.45594000000E+02  0.51100000000E-03 0.  1.
         11   -1    0    0    0    0 -0.00000000000E+00 -0.00000000000E+00 -0.45593999997E+02  0.45594000000E+02  0.51100000000E-03 0. -1.
    9900012    2    1    2    0    0  0.96872903740E+01 -0.82005068773E+01  0.13768999845E+02  0.72461621157E+02  0.70000066258E+02 0.  0.
         12    1    1    2    0    0 -0.96872903740E+01  0.82005068773E+01 -0.13768999845E+02  0.18726378843E+02  0.00000000000E+00 0. -1.
         11    1    3    3    0    0  0.75298263207E+01 -0.99485499390E+01  0.24645243524E+02  0.27623539942E+02  0.51100000000E-03 0.  1.
        -11    1    3    3    0    0  0.55738928472E+01  0.17534866850E+02 -0.19262903583E+02  0.26638304969E+02  0.51100000000E-03 0. -1.
         12    1    3    3    0    0 -0.34164287939E+01 -0.15786823789E+02  0.83866599039E+01  0.18199776245E+02  0.00000000000E+00 0. -1.
</event>
<event>
 7    1  0.3050261E-013  0.7246159E+02  0.7816164E-02  0.1226708E+00
        -11   -1    0    0    0    0  0.00000000000E+00  0.00000000000E+00  0.45593999997E+02  0.45594000000E+02  0.51100000000E-03 0. -1.
         11   -1    0    0    0    0 -0.00000000000E+00 -0.00000000000E+00 -0.45593999997E+02  0.45594000000E+02  0.51100000000E-03 0.  1.
    9900012    2    1    2    0    0 -0.13300291881E+02 -0.10511574373E+02 -0.79553374065E+01  0.72461592092E+02  0.70000028395E+02 0.  0.
         12    1    1    2    0    0  0.13300291881E+02  0.10511574373E+02  0.79553374065E+01  0.18726407908E+02  0.00000000000E+00 0. -1.
         11    1    3    3    0    0 -0.97803578111E+01 -0.14256706915E+01 -0.10211997401E+01  0.99363365988E+01  0.51100000000E-03 0. -1.
        -11    1    3    3    0    0 -0.23467336862E+02  0.15753202470E+02 -0.11162220403E+02  0.30388722448E+02  0.51100000000E-03 0.  1.
         12    1    3    3    0    0  0.19947402792E+02 -0.24839106151E+02  0.42280827365E+01  0.32136533045E+02  0.00000000000E+00 0. -1.
</event>
<event>
 7    1  0.3050261E-013  0.7246232E+02  0.7816164E-02  0.1226706E+00
        -11   -1    0    0    0    0  0.00000000000E+00  0.00000000000E+00  0.45593999997E+02  0.45594000000E+02  0.51100000000E-03 0. -1.
         11   -1    0    0    0    0 -0.00000000000E+00 -0.00000000000E+00 -0.45593999997E+02  0.45594000000E+02  0.51100000000E-03 0.  1.
    9900012    2    1    2    0    0 -0.86894782510E+01  0.15182093116E+02 -0.66819254211E+01  0.72462319478E+02  0.70000975945E+02 0.  0.
         12    1    1    2    0    0  0.86894782510E+01 -0.15182093116E+02  0.66819254211E+01  0.18725680522E+02  0.00000000000E+00 0. -1.
         11    1    3    3    0    0  0.28602885141E+01 -0.58099631794E+00 -0.89966135960E+00  0.30542098697E+01  0.51100000000E-03 0. -1.
        -11    1    3    3    0    0 -0.73005523715E+01  0.29321756172E+02 -0.29197760837E+02  0.42018718306E+02  0.51100000000E-03 0.  1.
         12    1    3    3    0    0 -0.42492143936E+01 -0.13558666738E+02  0.23415496776E+02  0.27389391302E+02  0.00000000000E+00 0. -1.
</event>
<event>
 7    1  0.3050261E-013  0.7246156E+02  0.7816164E-02  0.1226708E+00
        -11   -1    0    0    0    0  0.00000000000E+00  0.00000000000E+00  0.45593999997E+02  0.45594000000E+02  0.51100000000E-03 0.  1.
         11   -1    0    0    0    0 -0.00000000000E+00 -0.00000000000E+00 -0.45593999997E+02  0.45594000000E+02  0.51100000000E-03 0. -1.
    9900012    2    1    2    0    0 -0.60559803891E+01 -0.44402670684E+01  0.17154849020E+02  0.72461555729E+02  0.69999981026E+02 0.  0.
         12    1    1    2    0    0  0.60559803891E+01  0.44402670684E+01 -0.17154849020E+02  0.18726444271E+02  0.00000000000E+00 0. -1.
         11    1    3    3    0    0 -0.84421920234E+01  0.78480607319E+01 -0.13228711913E+02  0.17545981949E+02  0.51100000000E-03 0. -1.
        -11    1    3    3    0    0 -0.85391930615E+01 -0.31443852383E+01 -0.91431277521E+01  0.12899680695E+02  0.51100000000E-03 0.  1.
        -12    1    3    3    0    0  0.10925404696E+02 -0.91439425620E+01  0.39526688686E+02  0.42015893086E+02  0.00000000000E+00 0.  1.
</event>
<event>
 7    1  0.3050261E-013  0.7246154E+02  0.7816164E-02  0.1226708E+00
        -11   -1    0    0    0    0  0.00000000000E+00  0.00000000000E+00  0.45593999997E+02  0.45594000000E+02  0.51100000000E-03 0.  1.
         11   -1    0    0    0    0 -0.00000000000E+00 -0.00000000000E+00 -0.45593999997E+02  0.45594000000E+02  0.51100000000E-03 0. -1.
    9900012    2    1    2    0    0 -0.77150214829E+01  0.15571633938E+02 -0.69773054909E+01  0.72461544599E+02  0.69999966527E+02 0.  0.
         12    1    1    2    0    0  0.77150214829E+01 -0.15571633938E+02  0.69773054909E+01  0.18726455401E+02  0.00000000000E+00 0. -1.
         11    1    3    3    0    0  0.22192281938E+02  0.18315156142E+02 -0.65652813015E+01  0.29513475583E+02  0.51100000000E-03 0. -1.
        -11    1    3    3    0    0  0.12234884099E+01 -0.25507058963E+01 -0.99850367145E+01  0.10378052944E+02  0.51100000000E-03 0.  1.
        -12    1    3    3    0    0 -0.31130791831E+02 -0.19281630825E+00  0.95730125251E+01  0.32570016072E+02  0.00000000000E+00 0.  1.
</event>
<event>
 7    1  0.3050261E-013  0.7246156E+02  0.7816164E-02  0.1226708E+00
        -11   -1    0    0    0    0  0.00000000000E+00  0.00000000000E+00  0.45593999997E+02  0.45594000000E+02  0.51100000000E-03 0.  1.
         11   -1    0    0    0    0 -0.00000000000E+00 -0.00000000000E+00 -0.45593999997E+02  0.45594000000E+02  0.51100000000E-03 0. -1.
    9900012    2    1    2    0    0  0.94438986243E+01  0.22994996880E+01  0.16006390498E+02  0.72461562624E+02  0.69999990008E+02 0.  0.
         12    1    1    2    0    0 -0.94438986243E+01 -0.22994996880E+01 -0.16006390498E+02  0.18726437376E+02  0.00000000000E+00 0. -1.
         11    1    3    3    0    0  0.21415708360E+01 -0.30492381000E+01  0.58605297896E+00  0.37719540018E+01  0.51100000000E-03 0. -1.
        -11    1    3    3    0    0 -0.23685641302E+02 -0.16039780888E+02  0.11509909324E+02  0.30834431854E+02  0.51100000000E-03 0.  1.
         12    1    3    3    0    0  0.30987969091E+02  0.21388518676E+02  0.39104281945E+01  0.37855176768E+02  0.00000000000E+00 0. -1.
</event>
<event>
 7    1  0.3050261E-013  0.7246143E+02  0.7816164E-02  0.1226708E+00
        -11   -1    0    0    0    0  0.00000000000E+00  0.00000000000E+00  0.45593999997E+02  0.45594000000E+02  0.51100000000E-03 0.  1.
         11   -1    0    0    0    0 -0.00000000000E+00 -0.00000000000E+00 -0.45593999997E+02  0.45594000000E+02  0.51100000000E-03 0. -1.
    9900012    2    1    2    0    0  0.17002686165E+02 -0.78463747801E+01  0.16533607243E+00  0.72461434110E+02  0.69999822594E+02 0.  0.
         12    1    1    2    0    0 -0.17002686165E+02  0.78463747801E+01 -0.16533607243E+00  0.18726565890E+02  0.00000000000E+00 0. -1.
         11    1    3    3    0    0 -0.86148704626E+00  0.14591826466E+02  0.71484099328E+01  0.16271549538E+02  0.51100000000E-03 0. -1.
        -11    1    3    3    0    0  0.28861633830E+02 -0.19989181351E+00  0.38516077548E+01  0.29118185841E+02  0.51100000000E-03 0.  1.
         12    1    3    3    0    0 -0.10997460619E+02 -0.22238309433E+02 -0.10834681615E+02  0.27071698731E+02  0.00000000000E+00 0. -1.
</event>
<event>
 7    1  0.3050261E-013  0.7246151E+02  0.7816164E-02  0.1226708E+00
        -11   -1    0    0    0    0  0.00000000000E+00  0.00000000000E+00  0.45593999997E+02  0.45594000000E+02  0.51100000000E-03 0. -1.
         11   -1    0    0    0    0 -0.00000000000E+00 -0.00000000000E+00 -0.45593999997E+02  0.45594000000E+02  0.51100000000E-03 0.  1.
    9900012    2    1    2    0    0 -0.11560451791E+02  0.10670908007E+01 -0.14693493711E+02  0.72461508448E+02  0.69999919434E+02 0.  0.
         12    1    1    2    0    0  0.11560451791E+02 -0.10670908007E+01  0.14693493711E+02  0.18726491552E+02  0.00000000000E+00 0. -1.
         11    1    3    3    0    0  0.15316357537E+02 -0.25541246200E+02 -0.43998057303E+01  0.30104889244E+02  0.51100000000E-03 0. -1.
        -11    1    3    3    0    0 -0.36245831586E+01  0.83144160676E-01 -0.57411604649E+01  0.67900986569E+01  0.51100000000E-03 0.  1.
        -12    1    3    3    0    0 -0.23252226170E+02  0.26525192840E+02 -0.45525275157E+01  0.35566520547E+02  0.00000000000E+00 0.  1.
</event>
<event>
 7    1  0.3050261E-013  0.7246155E+02  0.7816164E-02  0.1226708E+00
        -11   -1    0    0    0    0  0.00000000000E+00  0.00000000000E+00  0.45593999997E+02  0.45594000000E+02  0.51100000000E-03 0.  1.
         11   -1    0    0    0    0 -0.00000000000E+00 -0.00000000000E+00 -0.45593999997E+02  0.45594000000E+02  0.51100000000E-03 0. -1.
    9900012    2    1    2    0    0  0.16869630725E+02  0.63585553351E+01  0.50660044168E+01  0.72461546318E+02  0.69999968767E+02 0.  0.
         12    1    1    2    0    0 -0.16869630725E+02 -0.63585553351E+01 -0.50660044168E+01  0.18726453682E+02  0.00000000000E+00 0. -1.
         11    1    3    3    0    0  0.74133126180E+01 -0.28060106963E+02 -0.62365391673E+01  0.29685370603E+02  0.51100000000E-03 0.  1.
        -11    1    3    3    0    0 -0.85698559708E+00 -0.24471446592E+01 -0.64865766555E+00  0.26727697852E+01  0.51100000000E-03 0. -1.
        -12    1    3    3    0    0  0.10313303704E+02  0.36865806958E+02  0.11951201250E+02  0.40103405931E+02  0.00000000000E+00 0.  1.
</event>
<event>
 7    1  0.3050261E-013  0.7246162E+02  0.7816164E-02  0.1226708E+00
        -11   -1    0    0    0    0  0.00000000000E+00  0.00000000000E+00  0.45593999997E+02  0.45594000000E+02  0.51100000000E-03 0. -1.
         11   -1    0    0    0    0 -0.00000000000E+00 -0.00000000000E+00 -0.45593999997E+02  0.45594000000E+02  0.51100000000E-03 0.  1.
    9900012    2    1    2    0    0 -0.64177374218E+01  0.16007234122E+02 -0.72978454106E+01  0.72461616326E+02  0.70000059965E+02 0.  0.
         12    1    1    2    0    0  0.64177374218E+01 -0.16007234122E+02  0.72978454106E+01  0.18726383674E+02  0.00000000000E+00 0. -1.
         11    1    3    3    0    0 -0.19025265081E+02  0.49245420135E+01 -0.55496977894E+01  0.20420846487E+02  0.51100000000E-03 0. -1.
        -11    1    3    3    0    0 -0.19079833577E+02  0.40950914898E+01 -0.17438463483E+01  0.19592111269E+02  0.51100000000E-03 0.  1.
         12    1    3    3    0    0  0.31687361236E+02  0.69876006188E+01 -0.43012728878E-02  0.32448658570E+02  0.00000000000E+00 0. -1.
</event>
<event>
 7    1  0.3050261E-013  0.7246158E+02  0.7816164E-02  0.1226708E+00
        -11   -1    0    0    0    0  0.00000000000E+00  0.00000000000E+00  0.45593999997E+02  0.45594000000E+02  0.51100000000E-03 0. -1.
         11   -1    0    0    0    0 -0.00000000000E+00 -0.00000000000E+00 -0.45593999997E+02  0.45594000000E+02  0.51100000000E-03 0.  1.
    9900012    2    1    2    0    0 -0.45412776549E+01 -0.10221592055E+02 -0.15019139008E+02  0.72461583273E+02  0.70000016907E+02 0.  0.
         12    1    1    2    0    0  0.45412776549E+01  0.10221592055E+02  0.15019139008E+02  0.18726416727E+02  0.00000000000E+00 0. -1.
         11    1    3    3    0    0 -0.18333928549E+02 -0.29307884052E+01  0.98132640676E+01  0.21000538294E+02  0.51100000000E-03 0. -1.
        -11    1    3    3    0    0  0.28074223143E+01  0.15882162760E+02 -0.54051846273E+00  0.16137437048E+02  0.51100000000E-03 0.  1.
        -12    1    3    3    0    0  0.10985228580E+02 -0.23172966410E+02 -0.24291884613E+02  0.35323607931E+02  0.00000000000E+00 0.  1.
</event>
<event>
 7    1  0.3050261E-013  0.7246161E+02  0.7816164E-02  0.1226708E+00
        -11   -1    0    0    0    0  0.00000000000E+00  0.00000000000E+00  0.45593999997E+02  0.45594000000E+02  0.51100000000E-03 0.  1.
         11   -1    0    0    0    0 -0.00000000000E+00 -0.00000000000E+00 -0.45593999997E+02  0.45594000000E+02  0.51100000000E-03 0. -1.
    9900012    2    1    2    0    0 -0.15469058801E+02 -0.37526664016E+01  0.98642498702E+01  0.72461609242E+02  0.70000050737E+02 0.  0.
         12    1    1    2    0    0  0.15469058801E+02  0.37526664016E+01 -0.98642498702E+01  0.18726390758E+02  0.00000000000E+00 0. -1.
         11    1    3    3    0    0 -0.12523141582E+02 -0.62021809519E+00 -0.48498063255E+01  0.13443748258E+02  0.51100000000E-03 0. -1.
        -11    1    3    3    0    0 -0.29329033424E+02 -0.68708229637E+01  0.43908338401E+01  0.30441416391E+02  0.51100000000E-03 0.  1.
        -12    1    3    3    0    0  0.26383116205E+02  0.37383746573E+01  0.10323222356E+02  0.28576444593E+02  0.00000000000E+00 0.  1.
</event>
<event>
 7    1  0.3050261E-013  0.7246159E+02  0.7816164E-02  0.1226708E+00
        -11   -1    0    0    0    0  0.00000000000E+00  0.00000000000E+00  0.45593999997E+02  0.45594000000E+02  0.51100000000E-03 0.  1.
         11   -1    0    0    0    0 -0.00000000000E+00 -0.00000000000E+00 -0.45593999997E+02  0.45594000000E+02  0.51100000000E-03 0. -1.
    9900012    2    1    2    0    0  0.27324463399E+01  0.98261359937E+01  0.15705388975E+02  0.72461589388E+02  0.70000024873E+02 0.  0.
         12    1    1    2    0    0 -0.27324463399E+01 -0.98261359937E+01 -0.15705388975E+02  0.18726410612E+02  0.00000000000E+00 0. -1.
         11    1    3    3    0    0  0.82950630293E+00  0.13980097664E+02  0.12630023942E+01  0.14061521494E+02  0.51100000000E-03 0. -1.
        -11    1    3    3    0    0  0.26425427905E+02 -0.10892456934E+02 -0.10853466141E+01  0.28602916557E+02  0.51100000000E-03 0.  1.
         12    1    3    3    0    0 -0.24522487868E+02  0.67384952634E+01  0.15527733195E+02  0.29797151337E+02  0.00000000000E+00 0. -1.
</event>
<event>
 7    1  0.3050261E-013  0.7246170E+02  0.7816164E-02  0.1226708E+00
        -11   -1    0    0    0    0  0.00000000000E+00  0.00000000000E+00  0.45593999997E+02  0.45594000000E+02  0.51100000000E-03 0.  1.
         11   -1    0    0    0    0 -0.00000000000E+00 -0.00000000000E+00 -0.45593999997E+02  0.45594000000E+02  0.51100000000E-03 0. -1.
    9900012    2    1    2    0    0  0.99186570624E+01  0.15759609941E+02  0.19822542062E+01  0.72461697771E+02  0.70000166062E+02 0.  0.
         12    1    1    2    0    0 -0.99186570624E+01 -0.15759609941E+02 -0.19822542062E+01  0.18726302229E+02  0.00000000000E+00 0. -1.
         11    1    3    3    0    0 -0.57221370606E+01  0.16949244742E+01 -0.41379709355E+01  0.72621226400E+01  0.51100000000E-03 0. -1.
        -11    1    3    3    0    0  0.12753008092E+02  0.32381106633E+02  0.21672338184E+02  0.40998360026E+02  0.51100000000E-03 0.  1.
         12    1    3    3    0    0  0.28877860311E+01 -0.18316421167E+02 -0.15552113042E+02  0.24201215106E+02  0.00000000000E+00 0. -1.
</event>
<event>
 7    1  0.3050261E-013  0.7246156E+02  0.7816164E-02  0.1226708E+00
        -11   -1    0    0    0    0  0.00000000000E+00  0.00000000000E+00  0.45593999997E+02  0.45594000000E+02  0.51100000000E-03 0.  1.
         11   -1    0    0    0    0 -0.00000000000E+00 -0.00000000000E+00 -0.45593999997E+02  0.45594000000E+02  0.51100000000E-03 0. -1.
    9900012    2    1    2    0    0 -0.98148085613E+01  0.10354260970E+02  0.12130063718E+02  0.72461557916E+02  0.69999983874E+02 0.  0.
         12    1    1    2    0    0  0.98148085613E+01 -0.10354260970E+02 -0.12130063718E+02  0.18726442084E+02  0.00000000000E+00 0. -1.
         11    1    3    3    0    0  0.16791939583E+02  0.12983391970E+02  0.18374840379E+02  0.28074409366E+02  0.51100000000E-03 0. -1.
        -11    1    3    3    0    0  0.80764531611E+01 -0.22203029525E+01  0.22569160674E+01  0.86748205318E+01  0.51100000000E-03 0.  1.
         12    1    3    3    0    0 -0.34683201306E+02 -0.40882804766E+00 -0.85016927287E+01  0.35712328018E+02  0.00000000000E+00 0. -1.
</event>
<event>
 7    1  0.3050261E-013  0.7246152E+02  0.7816164E-02  0.1226708E+00
        -11   -1    0    0    0    0  0.00000000000E+00  0.00000000000E+00  0.45593999997E+02  0.45594000000E+02  0.51100000000E-03 0.  1.
         11   -1    0    0    0    0 -0.00000000000E+00 -0.00000000000E+00 -0.45593999997E+02  0.45594000000E+02  0.51100000000E-03 0. -1.
    9900012    2    1    2    0    0  0.13821423773E+02 -0.66963107023E+01  0.10714880791E+02  0.72461521354E+02  0.69999936246E+02 0.  0.
         12    1    1    2    0    0 -0.13821423773E+02  0.66963107023E+01 -0.10714880791E+02  0.18726478646E+02  0.00000000000E+00 0. -1.
         11    1    3    3    0    0 -0.88332984068E+01 -0.93291547031E+01  0.43648035614E+01  0.13568780292E+02  0.51100000000E-03 0. -1.
        -11    1    3    3    0    0 -0.12839621563E+02  0.15594454884E+02  0.61140325740E+01  0.21105077579E+02  0.51100000000E-03 0.  1.
         12    1    3    3    0    0  0.35494343743E+02 -0.12961610884E+02  0.23604465520E+00  0.37787663483E+02  0.00000000000E+00 0. -1.
</event>
<event>
 7    1  0.3050261E-013  0.7246154E+02  0.7816164E-02  0.1226708E+00
        -11   -1    0    0    0    0  0.00000000000E+00  0.00000000000E+00  0.45593999997E+02  0.45594000000E+02  0.51100000000E-03 0. -1.
         11   -1    0    0    0    0 -0.00000000000E+00 -0.00000000000E+00 -0.45593999997E+02  0.45594000000E+02  0.51100000000E-03 0.  1.
    9900012    2    1    2    0    0  0.16901547954E+02 -0.80086278308E+01 -0.93793765768E+00  0.72461543581E+02  0.69999965201E+02 0.  0.
         12    1    1    2    0    0 -0.16901547954E+02  0.80086278308E+01  0.93793765768E+00  0.18726456419E+02  0.00000000000E+00 0. -1.
         11    1    3    3    0    0 -0.20061383142E+02 -0.65913636689E+01 -0.24507979516E+01  0.21258212047E+02  0.51100000000E-03 0. -1.
        -11    1    3    3    0    0  0.19047061343E+02  0.71412027595E+01 -0.15084760263E+02  0.25324638499E+02  0.51100000000E-03 0.  1.
         12    1    3    3    0    0  0.17915869753E+02 -0.85584669215E+01  0.16597620557E+02  0.25878693035E+02  0.00000000000E+00 0. -1.
</event>
<event>
 7    1  0.3050261E-013  0.7246172E+02  0.7816164E-02  0.1226708E+00
        -11   -1    0    0    0    0  0.00000000000E+00  0.00000000000E+00  0.45593999997E+02  0.45594000000E+02  0.51100000000E-03 0. -1.
         11   -1    0    0    0    0 -0.00000000000E+00 -0.00000000000E+00 -0.45593999997E+02  0.45594000000E+02  0.51100000000E-03 0.  1.
    9900012    2    1    2    0    0 -0.39120260113E+01 -0.17232121939E+02 -0.61986727045E+01  0.72461721210E+02  0.70000196595E+02 0.  0.
         12    1    1    2    0    0  0.39120260113E+01  0.17232121939E+02  0.61986727045E+01  0.18726278790E+02  0.00000000000E+00 0. -1.
         11    1    3    3    0    0 -0.68586707028E+01  0.21866684844E+01  0.47475243076E+01  0.86233328930E+01  0.51100000000E-03 0.  1.
        -11    1    3    3    0    0  0.28667338401E+02 -0.21280760082E+01 -0.15262900709E+02  0.32546906717E+02  0.51100000000E-03 0. -1.
         12    1    3    3    0    0 -0.25720693710E+02 -0.17290714415E+02  0.43167036968E+01  0.31291481600E+02  0.00000000000E+00 0. -1.
</event>
<event>
 7    1  0.3050261E-013  0.7246156E+02  0.7816164E-02  0.1226708E+00
        -11   -1    0    0    0    0  0.00000000000E+00  0.00000000000E+00  0.45593999997E+02  0.45594000000E+02  0.51100000000E-03 0.  1.
         11   -1    0    0    0    0 -0.00000000000E+00 -0.00000000000E+00 -0.45593999997E+02  0.45594000000E+02  0.51100000000E-03 0. -1.
    9900012    2    1    2    0    0 -0.12765593777E+02  0.13640322605E+02  0.12886830656E+01  0.72461561757E+02  0.69999988878E+02 0.  0.
         12    1    1    2    0    0  0.12765593777E+02 -0.13640322605E+02 -0.12886830656E+01  0.18726438243E+02  0.00000000000E+00 0. -1.
         11    1    3    3    0    0 -0.24042707518E+01  0.19745936720E+01 -0.15532148071E+02  0.15840680604E+02  0.51100000000E-03 0. -1.
        -11    1    3    3    0    0 -0.27817093803E+02  0.23788648571E+01  0.22711338996E+02  0.35989646079E+02  0.51100000000E-03 0.  1.
         12    1    3    3    0    0  0.17455770779E+02  0.92868640756E+01 -0.58905078590E+01  0.20631235074E+02  0.00000000000E+00 0. -1.
</event>
<event>
 7    1  0.3050261E-013  0.7246138E+02  0.7816164E-02  0.1226709E+00
        -11   -1    0    0    0    0  0.00000000000E+00  0.00000000000E+00  0.45593999997E+02  0.45594000000E+02  0.51100000000E-03 0.  1.
         11   -1    0    0    0    0 -0.00000000000E+00 -0.00000000000E+00 -0.45593999997E+02  0.45594000000E+02  0.51100000000E-03 0. -1.
    9900012    2    1    2    0    0 -0.13813088784E+02  0.64037474254E+01  0.10903062408E+02  0.72461383309E+02  0.69999756416E+02 0.  0.
         12    1    1    2    0    0  0.13813088784E+02 -0.64037474254E+01 -0.10903062408E+02  0.18726616691E+02  0.00000000000E+00 0. -1.
         11    1    3    3    0    0  0.21368013311E+01 -0.12463562799E+02 -0.14139240552E+01  0.12724209173E+02  0.51100000000E-03 0. -1.
        -11    1    3    3    0    0 -0.14645250260E+02 -0.13447420254E+02  0.18095117665E+02  0.26884005473E+02  0.51100000000E-03 0.  1.
         12    1    3    3    0    0 -0.13046398549E+01  0.32314730479E+02 -0.57781312024E+01  0.32853168664E+02  0.00000000000E+00 0. -1.
</event>
<event>
 7    1  0.3050261E-013  0.7246154E+02  0.7816164E-02  0.1226708E+00
        -11   -1    0    0    0    0  0.00000000000E+00  0.00000000000E+00  0.45593999997E+02  0.45594000000E+02  0.51100000000E-03 0.  1.
         11   -1    0    0    0    0 -0.00000000000E+00 -0.00000000000E+00 -0.45593999997E+02  0.45594000000E+02  0.51100000000E-03 0. -1.
    9900012    2    1    2    0    0  0.18608521987E+02 -0.20384815373E+01 -0.49767531249E+00  0.72461543361E+02  0.69999964914E+02 0.  0.
         12    1    1    2    0    0 -0.18608521987E+02  0.20384815373E+01  0.49767531249E+00  0.18726456639E+02  0.00000000000E+00 0. -1.
         11    1    3    3    0    0 -0.11385267159E+02 -0.73510616665E+01 -0.22985530188E+02  0.26683272180E+02  0.51100000000E-03 0. -1.
        -11    1    3    3    0    0 -0.24047144720E+01 -0.52313648672E+01  0.24995389441E+01  0.62767447980E+01  0.51100000000E-03 0.  1.
         12    1    3    3    0    0  0.32398503619E+02  0.10543944996E+02  0.19988315932E+02  0.39501526383E+02  0.00000000000E+00 0. -1.
</event>
<event>
 7    1  0.3050261E-013  0.7246156E+02  0.7816164E-02  0.1226708E+00
        -11   -1    0    0    0    0  0.00000000000E+00  0.00000000000E+00  0.45593999997E+02  0.45594000000E+02  0.51100000000E-03 0.  1.
         11   -1    0    0    0    0 -0.00000000000E+00 -0.00000000000E+00 -0.45593999997E+02  0.45594000000E+02  0.51100000000E-03 0. -1.
    9900012    2    1    2    0    0 -0.16174006814E+02 -0.18085635221E+01 -0.92633719607E+01  0.72461562578E+02  0.69999989948E+02 0.  0.
         12    1    1    2    0    0  0.16174006814E+02  0.18085635221E+01  0.92633719607E+01  0.18726437422E+02  0.00000000000E+00 0. -1.
         11    1    3    3    0    0 -0.32008543847E+01 -0.24086755089E+02  0.15013107865E+02  0.28562399191E+02  0.51100000000E-03 0. -1.
        -11    1    3    3    0    0  0.36635859370E+01  0.42950695335E+01  0.36712041853E+01  0.67340347969E+01  0.51100000000E-03 0.  1.
         12    1    3    3    0    0 -0.16636738366E+02  0.17983122033E+02 -0.27947684011E+02  0.37165128590E+02  0.00000000000E+00 0. -1.
</event>
<event>
 7    1  0.3050261E-013  0.7246189E+02  0.7816164E-02  0.1226707E+00
        -11   -1    0    0    0    0  0.00000000000E+00  0.00000000000E+00  0.45593999997E+02  0.45594000000E+02  0.51100000000E-03 0.  1.
         11   -1    0    0    0    0 -0.00000000000E+00 -0.00000000000E+00 -0.45593999997E+02  0.45594000000E+02  0.51100000000E-03 0. -1.
    9900012    2    1    2    0    0  0.12399551484E+01  0.86161632379E+01 -0.16579849751E+02  0.72461890541E+02  0.70000417180E+02 0.  0.
         12    1    1    2    0    0 -0.12399551484E+01 -0.86161632379E+01  0.16579849751E+02  0.18726109459E+02  0.00000000000E+00 0. -1.
         11    1    3    3    0    0 -0.24323420629E+02  0.33324064094E+01 -0.27992994940E+01  0.24709710672E+02  0.51100000000E-03 0. -1.
        -11    1    3    3    0    0 -0.63363050568E+01  0.11563486732E+02 -0.32943404012E+01  0.13591014168E+02  0.51100000000E-03 0.  1.
        -12    1    3    3    0    0  0.31899680834E+02 -0.62797299033E+01 -0.10486209855E+02  0.34161165702E+02  0.00000000000E+00 0.  1.
</event>
<event>
 7    1  0.3050261E-013  0.7246163E+02  0.7816164E-02  0.1226708E+00
        -11   -1    0    0    0    0  0.00000000000E+00  0.00000000000E+00  0.45593999997E+02  0.45594000000E+02  0.51100000000E-03 0. -1.
         11   -1    0    0    0    0 -0.00000000000E+00 -0.00000000000E+00 -0.45593999997E+02  0.45594000000E+02  0.51100000000E-03 0.  1.
    9900012    2    1    2    0    0  0.13257595691E+02  0.94244090467E+01 -0.92786618389E+01  0.72461631027E+02  0.70000079116E+02 0.  0.
         12    1    1    2    0    0 -0.13257595691E+02 -0.94244090467E+01  0.92786618389E+01  0.18726368973E+02  0.00000000000E+00 0. -1.
         11    1    3    3    0    0  0.20051950854E+02  0.60363700209E+01  0.41548029458E+00  0.20944954528E+02  0.51100000000E-03 0. -1.
        -11    1    3    3    0    0 -0.34766674187E+01 -0.11843750954E+01 -0.30110230104E+02  0.30333412565E+02  0.51100000000E-03 0.  1.
         12    1    3    3    0    0 -0.33176877437E+01  0.45724141211E+01  0.20416087970E+02  0.21183263933E+02  0.00000000000E+00 0. -1.
</event>
<event>
 7    1  0.3050261E-013  0.7246129E+02  0.7816164E-02  0.1226709E+00
        -11   -1    0    0    0    0  0.00000000000E+00  0.00000000000E+00  0.45593999997E+02  0.45594000000E+02  0.51100000000E-03 0.  1.
         11   -1    0    0    0    0 -0.00000000000E+00 -0.00000000000E+00 -0.45593999997E+02  0.45594000000E+02  0.51100000000E-03 0. -1.
    9900012    2    1    2    0    0  0.18158535240E+01  0.14810860895E+02 -0.11315065122E+02  0.72461291181E+02  0.69999636402E+02 0.  0.
         12    1    1    2    0    0 -0.18158535240E+01 -0.14810860895E+02  0.11315065122E+02  0.18726708819E+02  0.00000000000E+00 0. -1.
         11    1    3    3    0    0  0.14900507952E+02 -0.65310232421E+01  0.98016716442E+00  0.16298470165E+02  0.51100000000E-03 0. -1.
        -11    1    3    3    0    0 -0.17431948544E+02  0.52923997136E+01  0.15403190384E+02  0.23856667811E+02  0.51100000000E-03 0.  1.
         12    1    3    3    0    0  0.43472941169E+01  0.16049484424E+02 -0.27698422670E+02  0.32306153204E+02  0.00000000000E+00 0. -1.
</event>
<event>
 7    1  0.3050261E-013  0.7246176E+02  0.7816164E-02  0.1226708E+00
        -11   -1    0    0    0    0  0.00000000000E+00  0.00000000000E+00  0.45593999997E+02  0.45594000000E+02  0.51100000000E-03 0.  1.
         11   -1    0    0    0    0 -0.00000000000E+00 -0.00000000000E+00 -0.45593999997E+02  0.45594000000E+02  0.51100000000E-03 0. -1.
    9900012    2    1    2    0    0 -0.90896741039E+01 -0.75599849414E+01  0.14522279684E+02  0.72461757589E+02  0.70000243986E+02 0.  0.
         12    1    1    2    0    0  0.90896741039E+01  0.75599849414E+01 -0.14522279684E+02  0.18726242411E+02  0.00000000000E+00 0. -1.
         11    1    3    3    0    0 -0.19677156620E+02 -0.18127680775E+02  0.26178291690E+02  0.37431353956E+02  0.51100000000E-03 0. -1.
        -11    1    3    3    0    0 -0.32121754177E+01 -0.75347257643E+01  0.20717917762E+01  0.84488155787E+01  0.51100000000E-03 0.  1.
         12    1    3    3    0    0  0.13799657934E+02  0.18102421598E+02 -0.13727803782E+02  0.26581588054E+02  0.00000000000E+00 0. -1.
</event>
<event>
 7    1  0.4459976E-013  0.7246157E+02  0.7816164E-02  0.1226708E+00
        -11   -1    0    0    0    0  0.00000000000E+00  0.00000000000E+00  0.45593999997E+02  0.45594000000E+02  0.51100000000E-03 0. -1.
         11   -1    0    0    0    0 -0.00000000000E+00 -0.00000000000E+00 -0.45593999997E+02  0.45594000000E+02  0.51100000000E-03 0.  1.
    9900012    2    1    2    0    0  0.13615110197E+02  0.59180148613E+01 -0.11414244194E+02  0.72461572255E+02  0.70000002554E+02 0.  0.
         12    1    1    2    0    0 -0.13615110197E+02 -0.59180148613E+01  0.11414244194E+02  0.18726427745E+02  0.00000000000E+00 0. -1.
         11    1    3    3    0    0 -0.86195944394E+01 -0.10950196386E+01  0.10212242290E+02  0.13408443950E+02  0.51100000000E-03 0. -1.
        -11    1    3    3    0    0 -0.12665084021E+02  0.33080891131E+01 -0.20021092798E+02  0.23920534357E+02  0.51100000000E-03 0.  1.
         12    1    3    3    0    0  0.34899788657E+02  0.37049453867E+01 -0.16053936852E+01  0.35132593948E+02  0.00000000000E+00 0. -1.
</event>
<event>
 7    1  0.3050261E-013  0.7246156E+02  0.7816164E-02  0.1226708E+00
        -11   -1    0    0    0    0  0.00000000000E+00  0.00000000000E+00  0.45593999997E+02  0.45594000000E+02  0.51100000000E-03 0.  1.
         11   -1    0    0    0    0 -0.00000000000E+00 -0.00000000000E+00 -0.45593999997E+02  0.45594000000E+02  0.51100000000E-03 0. -1.
    9900012    2    1    2    0    0  0.90918246872E+01  0.16365984497E+02 -0.41567702171E+00  0.72461561148E+02  0.69999988085E+02 0.  0.
         12    1    1    2    0    0 -0.90918246872E+01 -0.16365984497E+02  0.41567702171E+00  0.18726438852E+02  0.00000000000E+00 0. -1.
         11    1    3    3    0    0  0.76167899779E+01 -0.26068769395E+02  0.88977130708E+00  0.27173294253E+02  0.51100000000E-03 0. -1.
        -11    1    3    3    0    0 -0.39932705462E+01  0.23796175735E+01  0.11447529382E+01  0.47874052473E+01  0.51100000000E-03 0.  1.
        -12    1    3    3    0    0  0.54683052555E+01  0.40055136319E+02 -0.24502012670E+01  0.40500861647E+02  0.00000000000E+00 0.  1.
</event>
<event>
 7    1  0.3050261E-013  0.7246158E+02  0.7816164E-02  0.1226708E+00
        -11   -1    0    0    0    0  0.00000000000E+00  0.00000000000E+00  0.45593999997E+02  0.45594000000E+02  0.51100000000E-03 0.  1.
         11   -1    0    0    0    0 -0.00000000000E+00 -0.00000000000E+00 -0.45593999997E+02  0.45594000000E+02  0.51100000000E-03 0. -1.
    9900012    2    1    2    0    0 -0.45875170133E+01 -0.73486322112E+01 -0.16602136981E+02  0.72461583897E+02  0.70000017720E+02 0.  0.
         12    1    1    2    0    0  0.45875170133E+01  0.73486322112E+01  0.16602136981E+02  0.18726416103E+02  0.00000000000E+00 0. -1.
         11    1    3    3    0    0  0.11878291251E+02 -0.94170818174E+01 -0.14509373213E+02  0.20983258667E+02  0.51100000000E-03 0. -1.
        -11    1    3    3    0    0 -0.29804009996E+02 -0.11474964739E+02 -0.47385915867E+01  0.32286345071E+02  0.51100000000E-03 0.  1.
         12    1    3    3    0    0  0.13338201732E+02  0.13543414345E+02  0.26458278182E+01  0.19191980158E+02  0.00000000000E+00 0. -1.
</event>
<event>
 7    1  0.3050261E-013  0.7246155E+02  0.7816164E-02  0.1226708E+00
        -11   -1    0    0    0    0  0.00000000000E+00  0.00000000000E+00  0.45593999997E+02  0.45594000000E+02  0.51100000000E-03 0.  1.
         11   -1    0    0    0    0 -0.00000000000E+00 -0.00000000000E+00 -0.45593999997E+02  0.45594000000E+02  0.51100000000E-03 0. -1.
    9900012    2    1    2    0    0  0.62356503241E+00 -0.58388986904E+01  0.17781965662E+02  0.72461551483E+02  0.69999975495E+02 0.  0.
         12    1    1    2    0    0 -0.62356503241E+00  0.58388986904E+01 -0.17781965662E+02  0.18726448517E+02  0.00000000000E+00 0. -1.
         11    1    3    3    0    0 -0.33760413447E+00  0.20361528754E+02  0.64476506767E+01  0.21360665468E+02  0.51100000000E-03 0. -1.
        -11    1    3    3    0    0  0.13280401047E+02 -0.59939568015E+01 -0.11234728929E+02  0.18398796278E+02  0.51100000000E-03 0.  1.
         12    1    3    3    0    0 -0.12319231880E+02 -0.20206470642E+02  0.22569043914E+02  0.32702089737E+02  0.00000000000E+00 0. -1.
</event>
<event>
 7    1  0.3050261E-013  0.7246148E+02  0.7816164E-02  0.1226708E+00
        -11   -1    0    0    0    0  0.00000000000E+00  0.00000000000E+00  0.45593999997E+02  0.45594000000E+02  0.51100000000E-03 0.  1.
         11   -1    0    0    0    0 -0.00000000000E+00 -0.00000000000E+00 -0.45593999997E+02  0.45594000000E+02  0.51100000000E-03 0. -1.
    9900012    2    1    2    0    0 -0.13227324553E+01  0.17251683291E+02  0.71632630272E+01  0.72461480443E+02  0.69999882952E+02 0.  0.
         12    1    1    2    0    0  0.13227324553E+01 -0.17251683291E+02 -0.71632630272E+01  0.18726519557E+02  0.00000000000E+00 0. -1.
         11    1    3    3    0    0 -0.10913912297E+02 -0.39065801125E+01 -0.13033560412E+01  0.11665058381E+02  0.51100000000E-03 0. -1.
        -11    1    3    3    0    0  0.25766187708E+02 -0.58794293005E+01  0.12126828489E+02  0.29077896887E+02  0.51100000000E-03 0.  1.
         12    1    3    3    0    0 -0.16175007866E+02  0.27037692704E+02 -0.36602094203E+01  0.31718525174E+02  0.00000000000E+00 0. -1.
</event>
<event>
 7    1  0.3050261E-013  0.7246156E+02  0.7816164E-02  0.1226708E+00
        -11   -1    0    0    0    0  0.00000000000E+00  0.00000000000E+00  0.45593999997E+02  0.45594000000E+02  0.51100000000E-03 0.  1.
         11   -1    0    0    0    0 -0.00000000000E+00 -0.00000000000E+00 -0.45593999997E+02  0.45594000000E+02  0.51100000000E-03 0. -1.
    9900012    2    1    2    0    0  0.95191058243E+01  0.20790546535E+00  0.16125222172E+02  0.72461564395E+02  0.69999992315E+02 0.  0.
         12    1    1    2    0    0 -0.95191058243E+01 -0.20790546535E+00 -0.16125222172E+02  0.18726435605E+02  0.00000000000E+00 0. -1.
         11    1    3    3    0    0 -0.69680727476E+01  0.13931627144E+02  0.17375884962E+02  0.23335930476E+02  0.51100000000E-03 0. -1.
        -11    1    3    3    0    0  0.23022964770E+02  0.78353106679E+01  0.67168553406E+01  0.25230242686E+02  0.51100000000E-03 0.  1.
         12    1    3    3    0    0 -0.65357861985E+01 -0.21559032347E+02 -0.79675181310E+01  0.23895391232E+02  0.00000000000E+00 0. -1.
</event>
<event>
 7    1  0.3050261E-013  0.7246161E+02  0.7816164E-02  0.1226708E+00
        -11   -1    0    0    0    0  0.00000000000E+00  0.00000000000E+00  0.45593999997E+02  0.45594000000E+02  0.51100000000E-03 0. -1.
         11   -1    0    0    0    0 -0.00000000000E+00 -0.00000000000E+00 -0.45593999997E+02  0.45594000000E+02  0.51100000000E-03 0.  1.
    9900012    2    1    2    0    0  0.12991601810E+02  0.11018397621E+01 -0.13441798415E+02  0.72461609182E+02  0.70000050658E+02 0.  0.
         12    1    1    2    0    0 -0.12991601810E+02 -0.11018397621E+01  0.13441798415E+02  0.18726390818E+02  0.00000000000E+00 0. -1.
         11    1    3    3    0    0  0.54003441881E+01  0.13186530333E+02  0.79757898060E+01  0.16329774122E+02  0.51100000000E-03 0. -1.
        -11    1    3    3    0    0 -0.13658135525E+02  0.13087133817E+02 -0.69380951967E+01  0.20148322580E+02  0.51100000000E-03 0.  1.
         12    1    3    3    0    0  0.21249393147E+02 -0.25171824388E+02 -0.14479493024E+02  0.35983512480E+02  0.00000000000E+00 0. -1.
</event>
<event>
 7    1  0.3050261E-013  0.7246159E+02  0.7816164E-02  0.1226708E+00
        -11   -1    0    0    0    0  0.00000000000E+00  0.00000000000E+00  0.45593999997E+02  0.45594000000E+02  0.51100000000E-03 0.  1.
         11   -1    0    0    0    0 -0.00000000000E+00 -0.00000000000E+00 -0.45593999997E+02  0.45594000000E+02  0.51100000000E-03 0. -1.
    9900012    2    1    2    0    0  0.35654806431E+01 -0.27084138004E+01  0.18183246540E+02  0.72461585173E+02  0.70000019382E+02 0.  0.
         12    1    1    2    0    0 -0.35654806431E+01  0.27084138004E+01 -0.18183246540E+02  0.18726414827E+02  0.00000000000E+00 0. -1.
         11    1    3    3    0    0 -0.76881061387E+01 -0.18604637693E+02 -0.17905757816E+01  0.20210039128E+02  0.51100000000E-03 0. -1.
        -11    1    3    3    0    0  0.82564928009E+01 -0.10146279926E+02 -0.68323816743E+01  0.14757984595E+02  0.51100000000E-03 0.  1.
        -12    1    3    3    0    0  0.29970939810E+01  0.26042503818E+02  0.26806203996E+02  0.37493561449E+02  0.00000000000E+00 0.  1.
</event>
<event>
 7    1  0.3050261E-013  0.7246164E+02  0.7816164E-02  0.1226708E+00
        -11   -1    0    0    0    0  0.00000000000E+00  0.00000000000E+00  0.45593999997E+02  0.45594000000E+02  0.51100000000E-03 0.  1.
         11   -1    0    0    0    0 -0.00000000000E+00 -0.00000000000E+00 -0.45593999997E+02  0.45594000000E+02  0.51100000000E-03 0. -1.
    9900012    2    1    2    0    0 -0.18308093953E+02  0.82422024676E+00  0.38484823610E+01  0.72461642647E+02  0.70000094253E+02 0.  0.
         12    1    1    2    0    0  0.18308093953E+02 -0.82422024676E+00 -0.38484823610E+01  0.18726357353E+02  0.00000000000E+00 0. -1.
         11    1    3    3    0    0 -0.16306699930E+01 -0.18724480791E+01 -0.23781989788E+02  0.23911256449E+02  0.51100000000E-03 0. -1.
        -11    1    3    3    0    0 -0.20562459516E+00 -0.15324467484E+02  0.12929411747E+02  0.20051216261E+02  0.51100000000E-03 0.  1.
         12    1    3    3    0    0 -0.16471799365E+02  0.18021135810E+02  0.14701060402E+02  0.28499169938E+02  0.00000000000E+00 0. -1.
</event>
<event>
 7    1  0.3050261E-013  0.7246159E+02  0.7816164E-02  0.1226708E+00
        -11   -1    0    0    0    0  0.00000000000E+00  0.00000000000E+00  0.45593999997E+02  0.45594000000E+02  0.51100000000E-03 0.  1.
         11   -1    0    0    0    0 -0.00000000000E+00 -0.00000000000E+00 -0.45593999997E+02  0.45594000000E+02  0.51100000000E-03 0. -1.
    9900012    2    1    2    0    0  0.10326778349E+02 -0.11152696936E+02  0.10938624464E+02  0.72461588032E+02  0.70000023107E+02 0.  0.
         12    1    1    2    0    0 -0.10326778349E+02  0.11152696936E+02 -0.10938624464E+02  0.18726411968E+02  0.00000000000E+00 0. -1.
         11    1    3    3    0    0  0.20475625139E+00  0.11484129550E+01 -0.49589025760E+01  0.50942607371E+01  0.51100000000E-03 0. -1.
        -11    1    3    3    0    0  0.55140583278E+01  0.16706655007E+02  0.30005843485E+02  0.34783154030E+02  0.51100000000E-03 0.  1.
         12    1    3    3    0    0  0.46079637697E+01 -0.29007764898E+02 -0.14108316445E+02  0.32584173265E+02  0.00000000000E+00 0. -1.
</event>
<event>
 7    1  0.3050261E-013  0.7246156E+02  0.7816164E-02  0.1226708E+00
        -11   -1    0    0    0    0  0.00000000000E+00  0.00000000000E+00  0.45593999997E+02  0.45594000000E+02  0.51100000000E-03 0. -1.
         11   -1    0    0    0    0 -0.00000000000E+00 -0.00000000000E+00 -0.45593999997E+02  0.45594000000E+02  0.51100000000E-03 0.  1.
    9900012    2    1    2    0    0  0.17972061922E+02  0.25827463645E+01 -0.45841130128E+01  0.72461556647E+02  0.69999982222E+02 0.  0.
         12    1    1    2    0    0 -0.17972061922E+02 -0.25827463645E+01  0.45841130128E+01  0.18726443353E+02  0.00000000000E+00 0. -1.
         11    1    3    3    0    0 -0.13585728754E+02 -0.13590825763E+02 -0.14496545512E+02  0.24071402176E+02  0.51100000000E-03 0. -1.
        -11    1    3    3    0    0  0.13561095001E+02 -0.92042433940E+00 -0.97476337522E+01  0.16726232170E+02  0.51100000000E-03 0.  1.
         12    1    3    3    0    0  0.17996695676E+02  0.17093996467E+02  0.19660066252E+02  0.31663922301E+02  0.00000000000E+00 0. -1.
</event>
<event>
 7    1  0.3050261E-013  0.7246164E+02  0.7816164E-02  0.1226708E+00
        -11   -1    0    0    0    0  0.00000000000E+00  0.00000000000E+00  0.45593999997E+02  0.45594000000E+02  0.51100000000E-03 0.  1.
         11   -1    0    0    0    0 -0.00000000000E+00 -0.00000000000E+00 -0.45593999997E+02  0.45594000000E+02  0.51100000000E-03 0. -1.
    9900012    2    1    2    0    0 -0.13143617516E+02  0.13183839182E+02  0.20269026200E+01  0.72461638068E+02  0.70000088288E+02 0.  0.
         12    1    1    2    0    0  0.13143617516E+02 -0.13183839182E+02 -0.20269026200E+01  0.18726361932E+02  0.00000000000E+00 0. -1.
         11    1    3    3    0    0 -0.34643896722E+00  0.18757630730E+02  0.51626800683E+01  0.19458211539E+02  0.51100000000E-03 0.  1.
        -11    1    3    3    0    0  0.33216314013E+01  0.25044439177E+01 -0.24612718301E+02  0.24961798352E+02  0.51100000000E-03 0. -1.
         12    1    3    3    0    0 -0.16118809950E+02 -0.80782354655E+01  0.21476940853E+02  0.28041628177E+02  0.00000000000E+00 0. -1.
</event>
<event>
 7    1  0.3050261E-013  0.7246162E+02  0.7816164E-02  0.1226708E+00
        -11   -1    0    0    0    0  0.00000000000E+00  0.00000000000E+00  0.45593999997E+02  0.45594000000E+02  0.51100000000E-03 0.  1.
         11   -1    0    0    0    0 -0.00000000000E+00 -0.00000000000E+00 -0.45593999997E+02  0.45594000000E+02  0.51100000000E-03 0. -1.
    9900012    2    1    2    0    0  0.53372281916E+01 -0.12887694523E+02  0.12493939434E+02  0.72461622949E+02  0.70000068592E+02 0.  0.
         12    1    1    2    0    0 -0.53372281916E+01  0.12887694523E+02 -0.12493939434E+02  0.18726377051E+02  0.00000000000E+00 0. -1.
         11    1    3    3    0    0  0.94295613032E+01 -0.11066878748E+02  0.41096870011E+01  0.15109002584E+02  0.51100000000E-03 0. -1.
        -11    1    3    3    0    0  0.15861839298E+02  0.16968512124E+02 -0.89841381501E+01  0.24904680046E+02  0.51100000000E-03 0.  1.
        -12    1    3    3    0    0 -0.19954172410E+02 -0.18789327900E+02  0.17368390583E+02  0.32447940318E+02  0.00000000000E+00 0.  1.
</event>
<event>
 7    1  0.3050261E-013  0.7246156E+02  0.7816164E-02  0.1226708E+00
        -11   -1    0    0    0    0  0.00000000000E+00  0.00000000000E+00  0.45593999997E+02  0.45594000000E+02  0.51100000000E-03 0. -1.
         11   -1    0    0    0    0 -0.00000000000E+00 -0.00000000000E+00 -0.45593999997E+02  0.45594000000E+02  0.51100000000E-03 0.  1.
    9900012    2    1    2    0    0  0.79596618896E+01 -0.16194897901E+02 -0.50048687511E+01  0.72461557555E+02  0.69999983404E+02 0.  0.
         12    1    1    2    0    0 -0.79596618896E+01  0.16194897901E+02  0.50048687511E+01  0.18726442445E+02  0.00000000000E+00 0. -1.
         11    1    3    3    0    0 -0.95680424339E+00 -0.73715786588E+01  0.43080560291E+01  0.85915652412E+01  0.51100000000E-03 0. -1.
        -11    1    3    3    0    0 -0.76858736871E+01 -0.16929429161E+02 -0.30524049445E+02  0.35740674600E+02  0.51100000000E-03 0.  1.
         12    1    3    3    0    0  0.16602339820E+02  0.81061099180E+01  0.21211124665E+02  0.28129317714E+02  0.00000000000E+00 0. -1.
</event>
<event>
 7    1  0.3050261E-013  0.7246158E+02  0.7816164E-02  0.1226708E+00
        -11   -1    0    0    0    0  0.00000000000E+00  0.00000000000E+00  0.45593999997E+02  0.45594000000E+02  0.51100000000E-03 0. -1.
         11   -1    0    0    0    0 -0.00000000000E+00 -0.00000000000E+00 -0.45593999997E+02  0.45594000000E+02  0.51100000000E-03 0.  1.
    9900012    2    1    2    0    0  0.14612371066E+02  0.84454254707E+01  0.81137124756E+01  0.72461576698E+02  0.70000008342E+02 0.  0.
         12    1    1    2    0    0 -0.14612371066E+02 -0.84454254707E+01 -0.81137124756E+01  0.18726423302E+02  0.00000000000E+00 0. -1.
         11    1    3    3    0    0 -0.15459310389E+02 -0.40188357786E+01  0.21544089745E+02  0.26819566028E+02  0.51100000000E-03 0.  1.
        -11    1    3    3    0    0  0.14859347039E+02 -0.39329446025E+00  0.75844248404E+01  0.16687671359E+02  0.51100000000E-03 0. -1.
        -12    1    3    3    0    0  0.15212334416E+02  0.12857555710E+02 -0.21014802110E+02  0.28954339311E+02  0.00000000000E+00 0.  1.
</event>
<event>
 7    1  0.3050261E-013  0.7246183E+02  0.7816164E-02  0.1226707E+00
        -11   -1    0    0    0    0  0.00000000000E+00  0.00000000000E+00  0.45593999997E+02  0.45594000000E+02  0.51100000000E-03 0.  1.
         11   -1    0    0    0    0 -0.00000000000E+00 -0.00000000000E+00 -0.45593999997E+02  0.45594000000E+02  0.51100000000E-03 0. -1.
    9900012    2    1    2    0    0 -0.56476521901E+01 -0.61879213119E+01  0.16747624530E+02  0.72461834540E+02  0.70000344229E+02 0.  0.
         12    1    1    2    0    0  0.56476521901E+01  0.61879213119E+01 -0.16747624530E+02  0.18726165460E+02  0.00000000000E+00 0. -1.
         11    1    3    3    0    0 -0.64108933712E+01  0.15549692435E+02 -0.31078928903E+01  0.17104136550E+02  0.51100000000E-03 0. -1.
        -11    1    3    3    0    0  0.56572107657E+01  0.58448973660E+01 -0.11001143322E+02  0.13681813239E+02  0.51100000000E-03 0.  1.
        -12    1    3    3    0    0 -0.48939695846E+01 -0.27582511113E+02  0.30856660742E+02  0.41675884751E+02  0.00000000000E+00 0.  1.
</event>
<event>
 7    1  0.3050261E-013  0.7246156E+02  0.7816164E-02  0.1226708E+00
        -11   -1    0    0    0    0  0.00000000000E+00  0.00000000000E+00  0.45593999997E+02  0.45594000000E+02  0.51100000000E-03 0. -1.
         11   -1    0    0    0    0 -0.00000000000E+00 -0.00000000000E+00 -0.45593999997E+02  0.45594000000E+02  0.51100000000E-03 0.  1.
    9900012    2    1    2    0    0  0.82590083783E+01  0.15772027624E+02 -0.58061434250E+01  0.72461564775E+02  0.69999992810E+02 0.  0.
         12    1    1    2    0    0 -0.82590083783E+01 -0.15772027624E+02  0.58061434250E+01  0.18726435225E+02  0.00000000000E+00 0. -1.
         11    1    3    3    0    0  0.12075489939E+02  0.13001761354E+02  0.20153786593E+02  0.26852157639E+02  0.51100000000E-03 0. -1.
        -11    1    3    3    0    0  0.16202834540E+02 -0.30663537165E+01 -0.94030898078E+01  0.18982952101E+02  0.51100000000E-03 0.  1.
        -12    1    3    3    0    0 -0.20019316101E+02  0.58366199869E+01 -0.16556840211E+02  0.26626455036E+02  0.00000000000E+00 0.  1.
</event>
<event>
 7    1  0.3050261E-013  0.7246161E+02  0.7816164E-02  0.1226708E+00
        -11   -1    0    0    0    0  0.00000000000E+00  0.00000000000E+00  0.45593999997E+02  0.45594000000E+02  0.51100000000E-03 0.  1.
         11   -1    0    0    0    0 -0.00000000000E+00 -0.00000000000E+00 -0.45593999997E+02  0.45594000000E+02  0.51100000000E-03 0. -1.
    9900012    2    1    2    0    0  0.91432829687E+01  0.12883729558E+01  0.16291660592E+02  0.72461608646E+02  0.70000049960E+02 0.  0.
         12    1    1    2    0    0 -0.91432829687E+01 -0.12883729558E+01 -0.16291660592E+02  0.18726391354E+02  0.00000000000E+00 0. -1.
         11    1    3    3    0    0  0.47920639327E+01 -0.12416662024E+02 -0.56388664933E+01  0.14454555965E+02  0.51100000000E-03 0. -1.
        -11    1    3    3    0    0  0.26795699356E+02  0.26648381549E+01  0.39816849225E+01  0.27220666440E+02  0.51100000000E-03 0.  1.
         12    1    3    3    0    0 -0.22444480320E+02  0.11040196825E+02  0.17948842163E+02  0.30786386240E+02  0.00000000000E+00 0. -1.
</event>
<event>
 7    1  0.3050261E-013  0.7246157E+02  0.7816164E-02  0.1226708E+00
        -11   -1    0    0    0    0  0.00000000000E+00  0.00000000000E+00  0.45593999997E+02  0.45594000000E+02  0.51100000000E-03 0.  1.
         11   -1    0    0    0    0 -0.00000000000E+00 -0.00000000000E+00 -0.45593999997E+02  0.45594000000E+02  0.51100000000E-03 0. -1.
    9900012    2    1    2    0    0 -0.32648145265E+01  0.67140608507E+01  0.17173860754E+02  0.72461571611E+02  0.70000001715E+02 0.  0.
         12    1    1    2    0    0  0.32648145265E+01 -0.67140608507E+01 -0.17173860754E+02  0.18726428389E+02  0.00000000000E+00 0. -1.
         11    1    3    3    0    0  0.10095995869E+02 -0.24852330834E+02  0.14313899447E+02  0.30404854845E+02  0.51100000000E-03 0. -1.
        -11    1    3    3    0    0 -0.51659951357E+01 -0.26736638228E+01  0.36020652028E+01  0.68418460934E+01  0.51100000000E-03 0.  1.
        -12    1    3    3    0    0 -0.81948152594E+01  0.34240055508E+02 -0.74210389592E+00  0.35214870673E+02  0.00000000000E+00 0.  1.
</event>
<event>
 7    1  0.3050261E-013  0.7246157E+02  0.7816164E-02  0.1226708E+00
        -11   -1    0    0    0    0  0.00000000000E+00  0.00000000000E+00  0.45593999997E+02  0.45594000000E+02  0.51100000000E-03 0.  1.
         11   -1    0    0    0    0 -0.00000000000E+00 -0.00000000000E+00 -0.45593999997E+02  0.45594000000E+02  0.51100000000E-03 0. -1.
    9900012    2    1    2    0    0  0.14281238007E+02 -0.11300711085E+02  0.43611097885E+01  0.72461571921E+02  0.70000002118E+02 0.  0.
         12    1    1    2    0    0 -0.14281238007E+02  0.11300711085E+02 -0.43611097885E+01  0.18726428079E+02  0.00000000000E+00 0. -1.
         11    1    3    3    0    0 -0.30447296774E+01 -0.26317209692E+01  0.15280448051E+02  0.15801532425E+02  0.51100000000E-03 0. -1.
        -11    1    3    3    0    0  0.19241296811E+02  0.48083451571E+01  0.16661502144E+02  0.25902767035E+02  0.51100000000E-03 0.  1.
         12    1    3    3    0    0 -0.19153291268E+01 -0.13477335273E+02 -0.27580840406E+02  0.30757272461E+02  0.00000000000E+00 0. -1.
</event>
<event>
 7    1  0.3050261E-013  0.7246155E+02  0.7816164E-02  0.1226708E+00
        -11   -1    0    0    0    0  0.00000000000E+00  0.00000000000E+00  0.45593999997E+02  0.45594000000E+02  0.51100000000E-03 0. -1.
         11   -1    0    0    0    0 -0.00000000000E+00 -0.00000000000E+00 -0.45593999997E+02  0.45594000000E+02  0.51100000000E-03 0.  1.
    9900012    2    1    2    0    0  0.18678880027E+02 -0.32986373736E+00  0.12924869319E+01  0.72461551015E+02  0.69999974884E+02 0.  0.
         12    1    1    2    0    0 -0.18678880027E+02  0.32986373736E+00 -0.12924869319E+01  0.18726448985E+02  0.00000000000E+00 0. -1.
         11    1    3    3    0    0  0.10877142319E+02  0.38314902329E+01 -0.61824656324E+01  0.13084931181E+02  0.51100000000E-03 0. -1.
        -11    1    3    3    0    0  0.18193499552E+02 -0.27150043926E+02 -0.11840053179E+01  0.32703672271E+02  0.51100000000E-03 0.  1.
         12    1    3    3    0    0 -0.10391761845E+02  0.22988689956E+02  0.86589578822E+01  0.26672947563E+02  0.00000000000E+00 0. -1.
</event>
<event>
 7    1  0.3050261E-013  0.7246157E+02  0.7816164E-02  0.1226708E+00
        -11   -1    0    0    0    0  0.00000000000E+00  0.00000000000E+00  0.45593999997E+02  0.45594000000E+02  0.51100000000E-03 0. -1.
         11   -1    0    0    0    0 -0.00000000000E+00 -0.00000000000E+00 -0.45593999997E+02  0.45594000000E+02  0.51100000000E-03 0.  1.
    9900012    2    1    2    0    0  0.18617653519E+02  0.20124207169E+01  0.11098943744E+00  0.72461570059E+02  0.69999999693E+02 0.  0.
         12    1    1    2    0    0 -0.18617653519E+02 -0.20124207169E+01 -0.11098943744E+00  0.18726429941E+02  0.00000000000E+00 0. -1.
         11    1    3    3    0    0 -0.50913061195E+01 -0.17827492254E+01  0.51367482993E+01  0.74488775097E+01  0.51100000000E-03 0. -1.
        -11    1    3    3    0    0 -0.10059488281E+02  0.16240206684E+02  0.14578691181E+02  0.24030727297E+02  0.51100000000E-03 0.  1.
        -12    1    3    3    0    0  0.33768447919E+02 -0.12445036742E+02 -0.19604450043E+02  0.40981965251E+02  0.00000000000E+00 0.  1.
</event>
<event>
 7    1  0.3050261E-013  0.7246159E+02  0.7816164E-02  0.1226708E+00
        -11   -1    0    0    0    0  0.00000000000E+00  0.00000000000E+00  0.45593999997E+02  0.45594000000E+02  0.51100000000E-03 0. -1.
         11   -1    0    0    0    0 -0.00000000000E+00 -0.00000000000E+00 -0.45593999997E+02  0.45594000000E+02  0.51100000000E-03 0.  1.
    9900012    2    1    2    0    0 -0.13033063294E+02 -0.62978255097E+01 -0.11880878211E+02  0.72461585179E+02  0.70000019390E+02 0.  0.
         12    1    1    2    0    0  0.13033063294E+02  0.62978255097E+01  0.11880878211E+02  0.18726414821E+02  0.00000000000E+00 0. -1.
         11    1    3    3    0    0 -0.12286067275E+01 -0.13341999565E-01 -0.50897767170E+01  0.52359793534E+01  0.51100000000E-03 0. -1.
        -11    1    3    3    0    0 -0.75915597817E+01 -0.27774769972E+02  0.18148460461E+02  0.34035808266E+02  0.51100000000E-03 0.  1.
         12    1    3    3    0    0 -0.42128967846E+01  0.21490286462E+02 -0.24939561956E+02  0.33189797560E+02  0.00000000000E+00 0. -1.
</event>
<event>
 7    1  0.3050261E-013  0.7246132E+02  0.7816164E-02  0.1226709E+00
        -11   -1    0    0    0    0  0.00000000000E+00  0.00000000000E+00  0.45593999997E+02  0.45594000000E+02  0.51100000000E-03 0. -1.
         11   -1    0    0    0    0 -0.00000000000E+00 -0.00000000000E+00 -0.45593999997E+02  0.45594000000E+02  0.51100000000E-03 0.  1.
    9900012    2    1    2    0    0 -0.13802666092E+02 -0.99911326282E+01  0.77686617955E+01  0.72461323079E+02  0.69999677955E+02 0.  0.
         12    1    1    2    0    0  0.13802666092E+02  0.99911326282E+01 -0.77686617955E+01  0.18726676921E+02  0.00000000000E+00 0. -1.
         11    1    3    3    0    0 -0.14961245196E+02  0.24009269357E+02  0.17536991902E+02  0.33284079649E+02  0.51100000000E-03 0. -1.
        -11    1    3    3    0    0 -0.75973877636E+01 -0.11429377903E+02 -0.32018431503E+01  0.14092649854E+02  0.51100000000E-03 0.  1.
        -12    1    3    3    0    0  0.87559668677E+01 -0.22571024082E+02 -0.65664869563E+01  0.25084593575E+02  0.00000000000E+00 0.  1.
</event>
<event>
 7    1  0.3050261E-013  0.7246153E+02  0.7816164E-02  0.1226708E+00
        -11   -1    0    0    0    0  0.00000000000E+00  0.00000000000E+00  0.45593999997E+02  0.45594000000E+02  0.51100000000E-03 0. -1.
         11   -1    0    0    0    0 -0.00000000000E+00 -0.00000000000E+00 -0.45593999997E+02  0.45594000000E+02  0.51100000000E-03 0.  1.
    9900012    2    1    2    0    0  0.14549282572E+02  0.18526514325E+01 -0.11643318430E+02  0.72461526633E+02  0.69999943123E+02 0.  0.
         12    1    1    2    0    0 -0.14549282572E+02 -0.18526514325E+01  0.11643318430E+02  0.18726473367E+02  0.00000000000E+00 0. -1.
         11    1    3    3    0    0  0.28724705014E+02 -0.97540845428E+01 -0.15387398710E+01  0.30374636855E+02  0.51100000000E-03 0. -1.
        -11    1    3    3    0    0  0.56966019094E+01 -0.48610658782E+01 -0.14105311068E+02  0.15970004239E+02  0.51100000000E-03 0.  1.
        -12    1    3    3    0    0 -0.19872024351E+02  0.16467801854E+02  0.40007325094E+01  0.26116885540E+02  0.00000000000E+00 0.  1.
</event>
<event>
 7    1  0.3050261E-013  0.7246154E+02  0.7816164E-02  0.1226708E+00
        -11   -1    0    0    0    0  0.00000000000E+00  0.00000000000E+00  0.45593999997E+02  0.45594000000E+02  0.51100000000E-03 0.  1.
         11   -1    0    0    0    0 -0.00000000000E+00 -0.00000000000E+00 -0.45593999997E+02  0.45594000000E+02  0.51100000000E-03 0. -1.
    9900012    2    1    2    0    0 -0.25734035267E+01  0.18313201212E+02 -0.29469763939E+01  0.72461537061E+02  0.69999956707E+02 0.  0.
         12    1    1    2    0    0  0.25734035267E+01 -0.18313201212E+02  0.29469763939E+01  0.18726462939E+02  0.00000000000E+00 0. -1.
         11    1    3    3    0    0 -0.55469316207E+01 -0.92217954524E+01 -0.68545168873E+01  0.12759089458E+02  0.51100000000E-03 0. -1.
        -11    1    3    3    0    0  0.14928471668E+02 -0.55050100754E+01  0.15979487215E+02  0.22550131135E+02  0.51100000000E-03 0.  1.
         12    1    3    3    0    0 -0.11954943574E+02  0.33040006740E+02 -0.12071946722E+02  0.37152316468E+02  0.00000000000E+00 0. -1.
</event>
<event>
 7    1  0.3050261E-013  0.7246157E+02  0.7816164E-02  0.1226708E+00
        -11   -1    0    0    0    0  0.00000000000E+00  0.00000000000E+00  0.45593999997E+02  0.45594000000E+02  0.51100000000E-03 0.  1.
         11   -1    0    0    0    0 -0.00000000000E+00 -0.00000000000E+00 -0.45593999997E+02  0.45594000000E+02  0.51100000000E-03 0. -1.
    9900012    2    1    2    0    0 -0.68289078869E+01 -0.91322908152E+01  0.14854172560E+02  0.72461570524E+02  0.70000000300E+02 0.  0.
         12    1    1    2    0    0  0.68289078869E+01  0.91322908152E+01 -0.14854172560E+02  0.18726429476E+02  0.00000000000E+00 0. -1.
         11    1    3    3    0    0  0.12254907250E+02 -0.33897087267E+01 -0.98007203620E+01  0.16053877937E+02  0.51100000000E-03 0. -1.
        -11    1    3    3    0    0 -0.13645284249E+02 -0.21562485104E+02 -0.12757647902E+01  0.25549209815E+02  0.51100000000E-03 0.  1.
         12    1    3    3    0    0 -0.54385308869E+01  0.15819903015E+02  0.25930657712E+02  0.30858482772E+02  0.00000000000E+00 0. -1.
</event>
<event>
 7    1  0.3050261E-013  0.7246169E+02  0.7816164E-02  0.1226708E+00
        -11   -1    0    0    0    0  0.00000000000E+00  0.00000000000E+00  0.45593999997E+02  0.45594000000E+02  0.51100000000E-03 0.  1.
         11   -1    0    0    0    0 -0.00000000000E+00 -0.00000000000E+00 -0.45593999997E+02  0.45594000000E+02  0.51100000000E-03 0. -1.
    9900012    2    1    2    0    0 -0.16971961760E+01 -0.15832914723E+02 -0.98545972972E+01  0.72461688260E+02  0.70000153672E+02 0.  0.
         12    1    1    2    0    0  0.16971961760E+01  0.15832914723E+02  0.98545972972E+01  0.18726311740E+02  0.00000000000E+00 0. -1.
         11    1    3    3    0    0 -0.78597596962E+01 -0.11165559854E+02 -0.18761965989E+02  0.23204674472E+02  0.51100000000E-03 0. -1.
        -11    1    3    3    0    0  0.25268623528E+02 -0.20015543413E+01 -0.45270988745E+01  0.25748867534E+02  0.51100000000E-03 0.  1.
         12    1    3    3    0    0 -0.19106060008E+02 -0.26658005281E+01  0.13434467566E+02  0.23508146254E+02  0.00000000000E+00 0. -1.
</event>
<event>
 7    1  0.3050261E-013  0.7246162E+02  0.7816164E-02  0.1226708E+00
        -11   -1    0    0    0    0  0.00000000000E+00  0.00000000000E+00  0.45593999997E+02  0.45594000000E+02  0.51100000000E-03 0.  1.
         11   -1    0    0    0    0 -0.00000000000E+00 -0.00000000000E+00 -0.45593999997E+02  0.45594000000E+02  0.51100000000E-03 0. -1.
    9900012    2    1    2    0    0 -0.55272755602E+01 -0.13690698795E+02  0.11519170392E+02  0.72461620341E+02  0.70000065195E+02 0.  0.
         12    1    1    2    0    0  0.55272755602E+01  0.13690698795E+02 -0.11519170392E+02  0.18726379659E+02  0.00000000000E+00 0. -1.
         11    1    3    3    0    0 -0.27652150176E+02 -0.12092609628E+02  0.75090430819E+00  0.30190006203E+02  0.51100000000E-03 0. -1.
        -11    1    3    3    0    0 -0.74495414866E+01 -0.22739097429E+01 -0.44856840908E+01  0.89881975892E+01  0.51100000000E-03 0.  1.
        -12    1    3    3    0    0  0.29574416102E+02  0.67582057582E+00  0.15253950175E+02  0.33283416549E+02  0.00000000000E+00 0.  1.
</event>
<event>
 7    1  0.3050261E-013  0.7246157E+02  0.7816164E-02  0.1226708E+00
        -11   -1    0    0    0    0  0.00000000000E+00  0.00000000000E+00  0.45593999997E+02  0.45594000000E+02  0.51100000000E-03 0.  1.
         11   -1    0    0    0    0 -0.00000000000E+00 -0.00000000000E+00 -0.45593999997E+02  0.45594000000E+02  0.51100000000E-03 0. -1.
    9900012    2    1    2    0    0  0.72133282873E+01  0.13986166924E+02  0.10150570244E+02  0.72461573580E+02  0.70000004280E+02 0.  0.
         12    1    1    2    0    0 -0.72133282873E+01 -0.13986166924E+02 -0.10150570244E+02  0.18726426420E+02  0.00000000000E+00 0. -1.
         11    1    3    3    0    0 -0.23430153877E+02 -0.97863150638E+01  0.62109067581E+01  0.26140379420E+02  0.51100000000E-03 0. -1.
        -11    1    3    3    0    0  0.13253823167E+02 -0.13844491000E+01 -0.53491340455E+01  0.14359448567E+02  0.51100000000E-03 0.  1.
        -12    1    3    3    0    0  0.17389658997E+02  0.25156931087E+02  0.92887975311E+01  0.31961745593E+02  0.00000000000E+00 0.  1.
</event>
<event>
 7    1  0.3050261E-013  0.7246156E+02  0.7816164E-02  0.1226708E+00
        -11   -1    0    0    0    0  0.00000000000E+00  0.00000000000E+00  0.45593999997E+02  0.45594000000E+02  0.51100000000E-03 0.  1.
         11   -1    0    0    0    0 -0.00000000000E+00 -0.00000000000E+00 -0.45593999997E+02  0.45594000000E+02  0.51100000000E-03 0. -1.
    9900012    2    1    2    0    0  0.12988554611E+02  0.11287559915E+02 -0.73870112455E+01  0.72461561608E+02  0.69999988684E+02 0.  0.
         12    1    1    2    0    0 -0.12988554611E+02 -0.11287559915E+02  0.73870112455E+01  0.18726438392E+02  0.00000000000E+00 0. -1.
         11    1    3    3    0    0  0.12671491477E+02 -0.11598337229E+02  0.91899260813E+01  0.19481859880E+02  0.51100000000E-03 0. -1.
        -11    1    3    3    0    0  0.21450917862E+02  0.11173456897E+02 -0.95168591739E+00  0.24205241633E+02  0.51100000000E-03 0.  1.
        -12    1    3    3    0    0 -0.21133854727E+02  0.11712440247E+02 -0.15625251409E+02  0.28774460095E+02  0.00000000000E+00 0.  1.
</event>
<event>
 7    1  0.3050261E-013  0.7246162E+02  0.7816164E-02  0.1226708E+00
        -11   -1    0    0    0    0  0.00000000000E+00  0.00000000000E+00  0.45593999997E+02  0.45594000000E+02  0.51100000000E-03 0.  1.
         11   -1    0    0    0    0 -0.00000000000E+00 -0.00000000000E+00 -0.45593999997E+02  0.45594000000E+02  0.51100000000E-03 0. -1.
    9900012    2    1    2    0    0 -0.10146922062E+02 -0.11902325983E+01  0.15693962735E+02  0.72461624288E+02  0.70000070337E+02 0.  0.
         12    1    1    2    0    0  0.10146922062E+02  0.11902325983E+01 -0.15693962735E+02  0.18726375712E+02  0.00000000000E+00 0. -1.
         11    1    3    3    0    0  0.29236869407E+01 -0.21189783353E+02  0.14881051552E+02  0.26057639176E+02  0.51100000000E-03 0. -1.
        -11    1    3    3    0    0  0.11485549739E+02 -0.37993326617E+01 -0.11444071034E+01  0.12151643895E+02  0.51100000000E-03 0.  1.
        -12    1    3    3    0    0 -0.24556158741E+02  0.23798883416E+02  0.19573182871E+01  0.34252341217E+02  0.00000000000E+00 0.  1.
</event>
<event>
 7    1  0.3050261E-013  0.7246154E+02  0.7816164E-02  0.1226708E+00
        -11   -1    0    0    0    0  0.00000000000E+00  0.00000000000E+00  0.45593999997E+02  0.45594000000E+02  0.51100000000E-03 0. -1.
         11   -1    0    0    0    0 -0.00000000000E+00 -0.00000000000E+00 -0.45593999997E+02  0.45594000000E+02  0.51100000000E-03 0.  1.
    9900012    2    1    2    0    0 -0.10578033454E+02 -0.15452521690E+02  0.71398967802E-01  0.72461539679E+02  0.69999960118E+02 0.  0.
         12    1    1    2    0    0  0.10578033454E+02  0.15452521690E+02 -0.71398967802E-01  0.18726460321E+02  0.00000000000E+00 0. -1.
         11    1    3    3    0    0 -0.49998208443E+01  0.49047513256E+01  0.21060835703E+02  0.22194900198E+02  0.51100000000E-03 0. -1.
        -11    1    3    3    0    0 -0.21499055832E+02 -0.20286225251E+02 -0.15826880595E+02  0.33529546466E+02  0.51100000000E-03 0.  1.
         12    1    3    3    0    0  0.15920843222E+02 -0.71047764625E-01 -0.51625561395E+01  0.16737093015E+02  0.00000000000E+00 0. -1.
</event>
<event>
 7    1  0.3050261E-013  0.7246151E+02  0.7816164E-02  0.1226708E+00
        -11   -1    0    0    0    0  0.00000000000E+00  0.00000000000E+00  0.45593999997E+02  0.45594000000E+02  0.51100000000E-03 0.  1.
         11   -1    0    0    0    0 -0.00000000000E+00 -0.00000000000E+00 -0.45593999997E+02  0.45594000000E+02  0.51100000000E-03 0. -1.
    9900012    2    1    2    0    0  0.56621299182E+01  0.17219569110E+02  0.47019138064E+01  0.72461514238E+02  0.69999926976E+02 0.  0.
         12    1    1    2    0    0 -0.56621299182E+01 -0.17219569110E+02 -0.47019138064E+01  0.18726485762E+02  0.00000000000E+00 0. -1.
         11    1    3    3    0    0  0.65062984374E+01  0.67735986117E+01 -0.14403649546E+02  0.17195309768E+02  0.51100000000E-03 0. -1.
        -11    1    3    3    0    0 -0.13355979739E+02  0.25539824662E+02  0.20866456732E+02  0.35581931586E+02  0.51100000000E-03 0.  1.
         12    1    3    3    0    0  0.12511811219E+02 -0.15093854164E+02 -0.17608933796E+01  0.19684272885E+02  0.00000000000E+00 0. -1.
</event>
<event>
 7    1  0.3050261E-013  0.7246201E+02  0.7816164E-02  0.1226707E+00
        -11   -1    0    0    0    0  0.00000000000E+00  0.00000000000E+00  0.45593999997E+02  0.45594000000E+02  0.51100000000E-03 0.  1.
         11   -1    0    0    0    0 -0.00000000000E+00 -0.00000000000E+00 -0.45593999997E+02  0.45594000000E+02  0.51100000000E-03 0. -1.
    9900012    2    1    2    0    0 -0.95668298770E+01 -0.15013875836E+02 -0.58070596389E+01  0.72462011557E+02  0.70000574824E+02 0.  0.
         12    1    1    2    0    0  0.95668298770E+01  0.15013875836E+02  0.58070596389E+01  0.18725988443E+02  0.00000000000E+00 0. -1.
         11    1    3    3    0    0 -0.19283521865E+02 -0.11480880821E+02  0.14435629268E+02  0.26684306860E+02  0.51100000000E-03 0. -1.
        -11    1    3    3    0    0 -0.50228667005E+01  0.10801138976E+02  0.52581276191E+01  0.13020817924E+02  0.51100000000E-03 0.  1.
         12    1    3    3    0    0  0.14739558689E+02 -0.14334133991E+02 -0.25500816526E+02  0.32756886774E+02  0.00000000000E+00 0. -1.
</event>
<event>
 7    1  0.3050261E-013  0.7246158E+02  0.7816164E-02  0.1226708E+00
        -11   -1    0    0    0    0  0.00000000000E+00  0.00000000000E+00  0.45593999997E+02  0.45594000000E+02  0.51100000000E-03 0. -1.
         11   -1    0    0    0    0 -0.00000000000E+00 -0.00000000000E+00 -0.45593999997E+02  0.45594000000E+02  0.51100000000E-03 0.  1.
    9900012    2    1    2    0    0 -0.83759064951E+01 -0.34924877510E+01 -0.16380649782E+02  0.72461575686E+02  0.70000007024E+02 0.  0.
         12    1    1    2    0    0  0.83759064951E+01  0.34924877510E+01  0.16380649782E+02  0.18726424314E+02  0.00000000000E+00 0. -1.
         11    1    3    3    0    0  0.75433945120E+01 -0.99464464600E+01 -0.31169203984E+01  0.12866615366E+02  0.51100000000E-03 0. -1.
        -11    1    3    3    0    0 -0.17384142641E+02  0.12290982382E+02 -0.32827228383E+02  0.39126763051E+02  0.51100000000E-03 0.  1.
         12    1    3    3    0    0  0.14648416335E+01 -0.58370236731E+01  0.19563499000E+02  0.20468197270E+02  0.00000000000E+00 0. -1.
</event>
<event>
 7    1  0.3050261E-013  0.7246165E+02  0.7816164E-02  0.1226708E+00
        -11   -1    0    0    0    0  0.00000000000E+00  0.00000000000E+00  0.45593999997E+02  0.45594000000E+02  0.51100000000E-03 0.  1.
         11   -1    0    0    0    0 -0.00000000000E+00 -0.00000000000E+00 -0.45593999997E+02  0.45594000000E+02  0.51100000000E-03 0. -1.
    9900012    2    1    2    0    0 -0.91582456877E+01  0.11660536140E+02  0.11438299331E+02  0.72461648013E+02  0.70000101243E+02 0.  0.
         12    1    1    2    0    0  0.91582456877E+01 -0.11660536140E+02 -0.11438299331E+02  0.18726351987E+02  0.00000000000E+00 0. -1.
         11    1    3    3    0    0 -0.13154715481E+02  0.16594242766E+02 -0.21187259598E+01  0.21281551454E+02  0.51100000000E-03 0. -1.
        -11    1    3    3    0    0  0.10694036773E+02  0.12822449840E+02  0.24216072324E+02  0.29414210876E+02  0.51100000000E-03 0.  1.
        -12    1    3    3    0    0 -0.66975669803E+01 -0.17756156466E+02 -0.10659047034E+02  0.21765885683E+02  0.00000000000E+00 0.  1.
</event>
<event>
 7    1  0.3050261E-013  0.7246156E+02  0.7816164E-02  0.1226708E+00
        -11   -1    0    0    0    0  0.00000000000E+00  0.00000000000E+00  0.45593999997E+02  0.45594000000E+02  0.51100000000E-03 0.  1.
         11   -1    0    0    0    0 -0.00000000000E+00 -0.00000000000E+00 -0.45593999997E+02  0.45594000000E+02  0.51100000000E-03 0. -1.
    9900012    2    1    2    0    0 -0.36604695016E+01 -0.11762340102E+02  0.14104185022E+02  0.72461555683E+02  0.69999980965E+02 0.  0.
         12    1    1    2    0    0  0.36604695016E+01  0.11762340102E+02 -0.14104185022E+02  0.18726444317E+02  0.00000000000E+00 0. -1.
         11    1    3    3    0    0 -0.29022477243E+01 -0.25245544458E+02 -0.13888637496E+01  0.25449744588E+02  0.51100000000E-03 0. -1.
        -11    1    3    3    0    0 -0.13651058430E+01 -0.47478034198E+01 -0.12590013270E+02  0.13524554916E+02  0.51100000000E-03 0.  1.
        -12    1    3    3    0    0  0.60688406570E+00  0.18231007776E+02  0.28083062041E+02  0.33487256179E+02  0.00000000000E+00 0.  1.
</event>
<event>
 7    1  0.3050261E-013  0.7246154E+02  0.7816164E-02  0.1226708E+00
        -11   -1    0    0    0    0  0.00000000000E+00  0.00000000000E+00  0.45593999997E+02  0.45594000000E+02  0.51100000000E-03 0. -1.
         11   -1    0    0    0    0 -0.00000000000E+00 -0.00000000000E+00 -0.45593999997E+02  0.45594000000E+02  0.51100000000E-03 0.  1.
    9900012    2    1    2    0    0 -0.16801973537E+02  0.80718404832E+01 -0.17942149568E+01  0.72461544627E+02  0.69999966563E+02 0.  0.
         12    1    1    2    0    0  0.16801973537E+02 -0.80718404832E+01  0.17942149568E+01  0.18726455373E+02  0.00000000000E+00 0. -1.
         11    1    3    3    0    0 -0.34173291256E+02 -0.71868869552E+01 -0.93513711205E+01  0.36151256153E+02  0.51100000000E-03 0. -1.
        -11    1    3    3    0    0 -0.64449939485E+01  0.81303788306E+01  0.43267400608E+01  0.11241071423E+02  0.51100000000E-03 0.  1.
        -12    1    3    3    0    0  0.23816311667E+02  0.71283486078E+01  0.32304161030E+01  0.25069217050E+02  0.00000000000E+00 0.  1.
</event>
<event>
 7    1  0.3050261E-013  0.7246155E+02  0.7816164E-02  0.1226708E+00
        -11   -1    0    0    0    0  0.00000000000E+00  0.00000000000E+00  0.45593999997E+02  0.45594000000E+02  0.51100000000E-03 0.  1.
         11   -1    0    0    0    0 -0.00000000000E+00 -0.00000000000E+00 -0.45593999997E+02  0.45594000000E+02  0.51100000000E-03 0. -1.
    9900012    2    1    2    0    0 -0.17454999707E+02 -0.19731088953E+01 -0.64892118821E+01  0.72461546937E+02  0.69999969573E+02 0.  0.
         12    1    1    2    0    0  0.17454999707E+02  0.19731088953E+01  0.64892118821E+01  0.18726453063E+02  0.00000000000E+00 0. -1.
         11    1    3    3    0    0 -0.39934695370E+02  0.35561201719E+01  0.18977709637E+01  0.40137606056E+02  0.51100000000E-03 0. -1.
        -11    1    3    3    0    0 -0.16921440411E+01  0.45960346582E+01 -0.33977504244E+00  0.49094127323E+01  0.51100000000E-03 0.  1.
        -12    1    3    3    0    0  0.24171839704E+02 -0.10125263725E+02 -0.80472078033E+01  0.27414528149E+02  0.00000000000E+00 0.  1.
</event>
<event>
 7    1  0.3050261E-013  0.7246157E+02  0.7816164E-02  0.1226708E+00
        -11   -1    0    0    0    0  0.00000000000E+00  0.00000000000E+00  0.45593999997E+02  0.45594000000E+02  0.51100000000E-03 0. -1.
         11   -1    0    0    0    0 -0.00000000000E+00 -0.00000000000E+00 -0.45593999997E+02  0.45594000000E+02  0.51100000000E-03 0.  1.
    9900012    2    1    2    0    0 -0.63856820616E+01 -0.91743472118E+01 -0.15024434552E+02  0.72461569060E+02  0.69999998392E+02 0.  0.
         12    1    1    2    0    0  0.63856820616E+01  0.91743472118E+01  0.15024434552E+02  0.18726430940E+02  0.00000000000E+00 0. -1.
         11    1    3    3    0    0 -0.30281728339E+02 -0.70840459338E+01  0.48527200945E+01  0.31475636142E+02  0.51100000000E-03 0. -1.
        -11    1    3    3    0    0 -0.41008431581E+01 -0.14243938715E+01  0.26142173742E+01  0.50675383816E+01  0.51100000000E-03 0.  1.
        -12    1    3    3    0    0  0.27996889435E+02 -0.66590740643E+00 -0.22491372020E+02  0.35918394536E+02  0.00000000000E+00 0.  1.
</event>
<event>
 7    1  0.3050261E-013  0.7246158E+02  0.7816164E-02  0.1226708E+00
        -11   -1    0    0    0    0  0.00000000000E+00  0.00000000000E+00  0.45593999997E+02  0.45594000000E+02  0.51100000000E-03 0. -1.
         11   -1    0    0    0    0 -0.00000000000E+00 -0.00000000000E+00 -0.45593999997E+02  0.45594000000E+02  0.51100000000E-03 0.  1.
    9900012    2    1    2    0    0 -0.18440038794E+02  0.17080943302E+01 -0.27796336986E+01  0.72461575342E+02  0.70000006576E+02 0.  0.
         12    1    1    2    0    0  0.18440038794E+02 -0.17080943302E+01  0.27796336986E+01  0.18726424658E+02  0.00000000000E+00 0. -1.
         11    1    3    3    0    0 -0.14621073354E+02  0.30189494894E+01 -0.25080818043E+02  0.29187964574E+02  0.51100000000E-03 0. -1.
        -11    1    3    3    0    0 -0.24188467026E-01  0.46472405839E+01 -0.95648107382E+01  0.10634050726E+02  0.51100000000E-03 0.  1.
         12    1    3    3    0    0 -0.37947769732E+01 -0.59580957431E+01  0.31865995082E+02  0.32639560042E+02  0.00000000000E+00 0. -1.
</event>
<event>
 7    1  0.3050261E-013  0.7246156E+02  0.7816164E-02  0.1226708E+00
        -11   -1    0    0    0    0  0.00000000000E+00  0.00000000000E+00  0.45593999997E+02  0.45594000000E+02  0.51100000000E-03 0. -1.
         11   -1    0    0    0    0 -0.00000000000E+00 -0.00000000000E+00 -0.45593999997E+02  0.45594000000E+02  0.51100000000E-03 0.  1.
    9900012    2    1    2    0    0  0.88067832819E+01 -0.11899599096E+01 -0.16483454918E+02  0.72461555533E+02  0.69999980770E+02 0.  0.
         12    1    1    2    0    0 -0.88067832819E+01  0.11899599096E+01  0.16483454918E+02  0.18726444467E+02  0.00000000000E+00 0. -1.
         11    1    3    3    0    0  0.27328027497E+02  0.38197332693E-01 -0.12370208512E+02  0.29997409968E+02  0.51100000000E-03 0. -1.
        -11    1    3    3    0    0  0.83758347253E+01  0.79825165838E+01 -0.75663335116E+01  0.13824781424E+02  0.51100000000E-03 0.  1.
         12    1    3    3    0    0 -0.26897078940E+02 -0.92106738261E+01  0.34530871056E+01  0.28639364141E+02  0.00000000000E+00 0. -1.
</event>
<event>
 7    1  0.3050261E-013  0.7246160E+02  0.7816164E-02  0.1226708E+00
        -11   -1    0    0    0    0  0.00000000000E+00  0.00000000000E+00  0.45593999997E+02  0.45594000000E+02  0.51100000000E-03 0. -1.
         11   -1    0    0    0    0 -0.00000000000E+00 -0.00000000000E+00 -0.45593999997E+02  0.45594000000E+02  0.51100000000E-03 0.  1.
    9900012    2    1    2    0    0 -0.26703903653E+01  0.11061718229E+02 -0.14872305326E+02  0.72461599903E+02  0.70000038571E+02 0.  0.
         12    1    1    2    0    0  0.26703903653E+01 -0.11061718229E+02  0.14872305326E+02  0.18726400097E+02  0.00000000000E+00 0. -1.
         11    1    3    3    0    0  0.13196410566E+01  0.25079489229E+02  0.14852407949E+02  0.29177324323E+02  0.51100000000E-03 0. -1.
        -11    1    3    3    0    0 -0.94229820468E+01 -0.14801496901E+02 -0.54156630202E+01  0.18363178030E+02  0.51100000000E-03 0.  1.
        -12    1    3    3    0    0  0.54329506250E+01  0.78372590095E+00 -0.24309050255E+02  0.24921097550E+02  0.00000000000E+00 0.  1.
</event>
<event>
 7    1  0.3050261E-013  0.7246155E+02  0.7816164E-02  0.1226708E+00
        -11   -1    0    0    0    0  0.00000000000E+00  0.00000000000E+00  0.45593999997E+02  0.45594000000E+02  0.51100000000E-03 0. -1.
         11   -1    0    0    0    0 -0.00000000000E+00 -0.00000000000E+00 -0.45593999997E+02  0.45594000000E+02  0.51100000000E-03 0.  1.
    9900012    2    1    2    0    0 -0.38104516796E+01 -0.93871084397E+01 -0.15749363376E+02  0.72461553631E+02  0.69999978293E+02 0.  0.
         12    1    1    2    0    0  0.38104516796E+01  0.93871084397E+01  0.15749363376E+02  0.18726446369E+02  0.00000000000E+00 0. -1.
         11    1    3    3    0    0 -0.12078201513E+02  0.25372989083E+01 -0.27292010983E+02  0.29952874675E+02  0.51100000000E-03 0. -1.
        -11    1    3    3    0    0 -0.91640692888E+01 -0.43789783448E+01 -0.96775264689E+01  0.14028903595E+02  0.51100000000E-03 0.  1.
         12    1    3    3    0    0  0.17431819122E+02 -0.75454290032E+01  0.21220174077E+02  0.28479775360E+02  0.00000000000E+00 0. -1.
</event>
<event>
 7    1  0.3050261E-013  0.7246121E+02  0.7816164E-02  0.1226709E+00
        -11   -1    0    0    0    0  0.00000000000E+00  0.00000000000E+00  0.45593999997E+02  0.45594000000E+02  0.51100000000E-03 0. -1.
         11   -1    0    0    0    0 -0.00000000000E+00 -0.00000000000E+00 -0.45593999997E+02  0.45594000000E+02  0.51100000000E-03 0.  1.
    9900012    2    1    2    0    0  0.22095658837E+01 -0.15041602134E+02 -0.10934378879E+02  0.72461211230E+02  0.69999532251E+02 0.  0.
         12    1    1    2    0    0 -0.22095658837E+01  0.15041602134E+02  0.10934378879E+02  0.18726788770E+02  0.00000000000E+00 0. -1.
         11    1    3    3    0    0  0.15449787456E+02  0.18130304675E+02  0.33502793596E+01  0.24054692933E+02  0.51100000000E-03 0. -1.
        -11    1    3    3    0    0  0.93675373761E+01 -0.71917817948E+01 -0.34773906096E+01  0.12311162723E+02  0.51100000000E-03 0.  1.
        -12    1    3    3    0    0 -0.22607758949E+02 -0.25980125014E+02 -0.10807267629E+02  0.36095355574E+02  0.00000000000E+00 0.  1.
</event>
<event>
 7    1  0.3050261E-013  0.7246158E+02  0.7816164E-02  0.1226708E+00
        -11   -1    0    0    0    0  0.00000000000E+00  0.00000000000E+00  0.45593999997E+02  0.45594000000E+02  0.51100000000E-03 0. -1.
         11   -1    0    0    0    0 -0.00000000000E+00 -0.00000000000E+00 -0.45593999997E+02  0.45594000000E+02  0.51100000000E-03 0.  1.
    9900012    2    1    2    0    0  0.36850354334E+01 -0.12324345092E+02 -0.13609186841E+02  0.72461576568E+02  0.70000008172E+02 0.  0.
         12    1    1    2    0    0 -0.36850354334E+01  0.12324345092E+02  0.13609186841E+02  0.18726423432E+02  0.00000000000E+00 0. -1.
         11    1    3    3    0    0 -0.86365982732E+01 -0.34112296157E-01  0.19011196044E+02  0.20881033706E+02  0.51100000000E-03 0. -1.
        -11    1    3    3    0    0  0.12146398985E+01 -0.80039949525E+01  0.66929787359E+01  0.10504058735E+02  0.51100000000E-03 0.  1.
        -12    1    3    3    0    0  0.11106993808E+02 -0.42862378432E+01 -0.39313361620E+02  0.41076484127E+02  0.00000000000E+00 0.  1.
</event>
<event>
 7    1  0.3050261E-013  0.7246162E+02  0.7816164E-02  0.1226708E+00
        -11   -1    0    0    0    0  0.00000000000E+00  0.00000000000E+00  0.45593999997E+02  0.45594000000E+02  0.51100000000E-03 0. -1.
         11   -1    0    0    0    0 -0.00000000000E+00 -0.00000000000E+00 -0.45593999997E+02  0.45594000000E+02  0.51100000000E-03 0.  1.
    9900012    2    1    2    0    0  0.14913334521E+02 -0.77402138042E+01 -0.82679384943E+01  0.72461621194E+02  0.70000066306E+02 0.  0.
         12    1    1    2    0    0 -0.14913334521E+02  0.77402138042E+01  0.82679384943E+01  0.18726378806E+02  0.00000000000E+00 0. -1.
         11    1    3    3    0    0  0.24931336574E+01 -0.13955326999E+02 -0.53652753093E+01  0.15157606885E+02  0.51100000000E-03 0. -1.
        -11    1    3    3    0    0  0.18302722655E+02 -0.15833318645E+02 -0.17808817600E+02  0.30047256455E+02  0.51100000000E-03 0.  1.
         12    1    3    3    0    0 -0.58825217913E+01  0.22048431840E+02  0.14906154415E+02  0.27256757853E+02  0.00000000000E+00 0. -1.
</event>
<event>
 7    1  0.3050261E-013  0.7246148E+02  0.7816164E-02  0.1226708E+00
        -11   -1    0    0    0    0  0.00000000000E+00  0.00000000000E+00  0.45593999997E+02  0.45594000000E+02  0.51100000000E-03 0. -1.
         11   -1    0    0    0    0 -0.00000000000E+00 -0.00000000000E+00 -0.45593999997E+02  0.45594000000E+02  0.51100000000E-03 0.  1.
    9900012    2    1    2    0    0  0.12353509055E+02  0.36848243603E+01 -0.13582914485E+02  0.72461476498E+02  0.69999877813E+02 0.  0.
         12    1    1    2    0    0 -0.12353509055E+02 -0.36848243603E+01  0.13582914485E+02  0.18726523502E+02  0.00000000000E+00 0. -1.
         11    1    3    3    0    0 -0.48408115421E+01  0.22668843029E-01  0.14576523110E+02  0.15359329299E+02  0.51100000000E-03 0. -1.
        -11    1    3    3    0    0  0.23985304499E+02 -0.13557702453E+02 -0.26967514212E+02  0.38553248251E+02  0.51100000000E-03 0.  1.
         12    1    3    3    0    0 -0.67909839013E+01  0.17219857970E+02 -0.11919233837E+01  0.18548898949E+02  0.00000000000E+00 0. -1.
</event>
<event>
 7    1  0.3050261E-013  0.7246155E+02  0.7816164E-02  0.1226708E+00
        -11   -1    0    0    0    0  0.00000000000E+00  0.00000000000E+00  0.45593999997E+02  0.45594000000E+02  0.51100000000E-03 0.  1.
         11   -1    0    0    0    0 -0.00000000000E+00 -0.00000000000E+00 -0.45593999997E+02  0.45594000000E+02  0.51100000000E-03 0. -1.
    9900012    2    1    2    0    0  0.13801113883E+02 -0.56830057724E+01 -0.11309844926E+02  0.72461551023E+02  0.69999974896E+02 0.  0.
         12    1    1    2    0    0 -0.13801113883E+02  0.56830057724E+01  0.11309844926E+02  0.18726448977E+02  0.00000000000E+00 0. -1.
         11    1    3    3    0    0  0.11558220003E+02  0.15876985214E+02 -0.12492614379E+02  0.23275234122E+02  0.51100000000E-03 0. -1.
        -11    1    3    3    0    0  0.23016439508E+02 -0.13245843365E+02 -0.17805541599E+01  0.26615394557E+02  0.51100000000E-03 0.  1.
        -12    1    3    3    0    0 -0.20773545628E+02 -0.83141476223E+01  0.29633236121E+01  0.22570922344E+02  0.00000000000E+00 0.  1.
</event>
<event>
 7    1  0.3050261E-013  0.7246160E+02  0.7816164E-02  0.1226708E+00
        -11   -1    0    0    0    0  0.00000000000E+00  0.00000000000E+00  0.45593999997E+02  0.45594000000E+02  0.51100000000E-03 0. -1.
         11   -1    0    0    0    0 -0.00000000000E+00 -0.00000000000E+00 -0.45593999997E+02  0.45594000000E+02  0.51100000000E-03 0.  1.
    9900012    2    1    2    0    0  0.10383384776E+02  0.97661059537E+00 -0.15553449017E+02  0.72461595540E+02  0.70000032888E+02 0.  0.
         12    1    1    2    0    0 -0.10383384776E+02 -0.97661059537E+00  0.15553449017E+02  0.18726404460E+02  0.00000000000E+00 0. -1.
         11    1    3    3    0    0 -0.84946044096E+01  0.52272054797E+01 -0.33010632224E+02  0.34484544673E+02  0.51100000000E-03 0. -1.
        -11    1    3    3    0    0  0.63210111920E+01  0.18771595673E+01 -0.71209245952E+01  0.97049718125E+01  0.51100000000E-03 0.  1.
         12    1    3    3    0    0  0.12556977994E+02 -0.61277544517E+01  0.24578107802E+02  0.28272079055E+02  0.00000000000E+00 0. -1.
</event>
<event>
 7    1  0.3050261E-013  0.7246170E+02  0.7816164E-02  0.1226708E+00
        -11   -1    0    0    0    0  0.00000000000E+00  0.00000000000E+00  0.45593999997E+02  0.45594000000E+02  0.51100000000E-03 0. -1.
         11   -1    0    0    0    0 -0.00000000000E+00 -0.00000000000E+00 -0.45593999997E+02  0.45594000000E+02  0.51100000000E-03 0.  1.
    9900012    2    1    2    0    0  0.37036579528E+01  0.14440553736E+02 -0.11332588303E+02  0.72461702125E+02  0.70000171734E+02 0.  0.
         12    1    1    2    0    0 -0.37036579528E+01 -0.14440553736E+02  0.11332588303E+02  0.18726297875E+02  0.00000000000E+00 0. -1.
         11    1    3    3    0    0  0.12724469053E+02 -0.31365625330E+01 -0.14963182513E+02  0.19890876512E+02  0.51100000000E-03 0. -1.
        -11    1    3    3    0    0  0.38957838985E+01  0.10798317221E+02 -0.21006808137E+02  0.23938813157E+02  0.51100000000E-03 0.  1.
         12    1    3    3    0    0 -0.12916594999E+02  0.67787990481E+01  0.24637402347E+02  0.28632012457E+02  0.00000000000E+00 0. -1.
</event>
<event>
 7    1  0.3050261E-013  0.7246157E+02  0.7816164E-02  0.1226708E+00
        -11   -1    0    0    0    0  0.00000000000E+00  0.00000000000E+00  0.45593999997E+02  0.45594000000E+02  0.51100000000E-03 0.  1.
         11   -1    0    0    0    0 -0.00000000000E+00 -0.00000000000E+00 -0.45593999997E+02  0.45594000000E+02  0.51100000000E-03 0. -1.
    9900012    2    1    2    0    0 -0.11498180719E+02  0.59392866032E+01  0.13534985184E+02  0.72461571906E+02  0.70000002100E+02 0.  0.
         12    1    1    2    0    0  0.11498180719E+02 -0.59392866032E+01 -0.13534985184E+02  0.18726428094E+02  0.00000000000E+00 0. -1.
         11    1    3    3    0    0 -0.27528007817E+01  0.17091980858E+02  0.25707051130E+01  0.17502064073E+02  0.51100000000E-03 0. -1.
        -11    1    3    3    0    0  0.81194549741E+00  0.99445293096E+01  0.25658647630E+02  0.27530330858E+02  0.51100000000E-03 0.  1.
         12    1    3    3    0    0 -0.95573254351E+01 -0.21097223564E+02 -0.14694367559E+02  0.27429176975E+02  0.00000000000E+00 0. -1.
</event>
<event>
 7    1  0.3050261E-013  0.7246156E+02  0.7816164E-02  0.1226708E+00
        -11   -1    0    0    0    0  0.00000000000E+00  0.00000000000E+00  0.45593999997E+02  0.45594000000E+02  0.51100000000E-03 0. -1.
         11   -1    0    0    0    0 -0.00000000000E+00 -0.00000000000E+00 -0.45593999997E+02  0.45594000000E+02  0.51100000000E-03 0.  1.
    9900012    2    1    2    0    0 -0.61980464511E+01  0.16910626118E+02  0.51278287025E+01  0.72461556592E+02  0.69999982150E+02 0.  0.
         12    1    1    2    0    0  0.61980464511E+01 -0.16910626118E+02 -0.51278287025E+01  0.18726443408E+02  0.00000000000E+00 0. -1.
         11    1    3    3    0    0  0.96610971276E+01  0.34396625473E+02  0.21040988296E+02  0.41463089977E+02  0.51100000000E-03 0. -1.
        -11    1    3    3    0    0 -0.64578093898E+01 -0.80934778537E+00 -0.79241950265E+01  0.10254326552E+02  0.51100000000E-03 0.  1.
        -12    1    3    3    0    0 -0.94013341889E+01 -0.16676651570E+02 -0.79889645674E+01  0.20744140064E+02  0.00000000000E+00 0.  1.
</event>
<event>
 7    1  0.3050261E-013  0.7246156E+02  0.7816164E-02  0.1226708E+00
        -11   -1    0    0    0    0  0.00000000000E+00  0.00000000000E+00  0.45593999997E+02  0.45594000000E+02  0.51100000000E-03 0. -1.
         11   -1    0    0    0    0 -0.00000000000E+00 -0.00000000000E+00 -0.45593999997E+02  0.45594000000E+02  0.51100000000E-03 0.  1.
    9900012    2    1    2    0    0 -0.73092520865E+01 -0.72665100057E+01 -0.15634966437E+02  0.72461561225E+02  0.69999988185E+02 0.  0.
         12    1    1    2    0    0  0.73092520865E+01  0.72665100057E+01  0.15634966437E+02  0.18726438775E+02  0.00000000000E+00 0. -1.
         11    1    3    3    0    0  0.14383071280E+02  0.66879261067E+01 -0.22113370531E+02  0.27214008370E+02  0.51100000000E-03 0. -1.
        -11    1    3    3    0    0 -0.97924736161E+00  0.11594861131E+02  0.38306408851E+01  0.12250450600E+02  0.51100000000E-03 0.  1.
        -12    1    3    3    0    0 -0.20713076005E+02 -0.25549297243E+02  0.26477632085E+01  0.32997102255E+02  0.00000000000E+00 0.  1.
</event>
<event>
 7    1  0.3050261E-013  0.7246157E+02  0.7816164E-02  0.1226708E+00
        -11   -1    0    0    0    0  0.00000000000E+00  0.00000000000E+00  0.45593999997E+02  0.45594000000E+02  0.51100000000E-03 0.  1.
         11   -1    0    0    0    0 -0.00000000000E+00 -0.00000000000E+00 -0.45593999997E+02  0.45594000000E+02  0.51100000000E-03 0. -1.
    9900012    2    1    2    0    0  0.72492561364E+01 -0.16288042129E+02 -0.57294953339E+01  0.72461570876E+02  0.70000000758E+02 0.  0.
         12    1    1    2    0    0 -0.72492561364E+01  0.16288042129E+02  0.57294953339E+01  0.18726429124E+02  0.00000000000E+00 0. -1.
         11    1    3    3    0    0  0.77226405856E+01  0.81374947571E+01 -0.54091149305E+01  0.12454578400E+02  0.51100000000E-03 0. -1.
        -11    1    3    3    0    0 -0.23815344534E+02 -0.14150438132E+02  0.13699113406E+02  0.30904226943E+02  0.51100000000E-03 0.  1.
         12    1    3    3    0    0  0.23341960084E+02 -0.10275098754E+02 -0.14019493810E+02  0.29102765533E+02  0.00000000000E+00 0. -1.
</event>
<event>
 7    1  0.3050261E-013  0.7246154E+02  0.7816164E-02  0.1226708E+00
        -11   -1    0    0    0    0  0.00000000000E+00  0.00000000000E+00  0.45593999997E+02  0.45594000000E+02  0.51100000000E-03 0. -1.
         11   -1    0    0    0    0 -0.00000000000E+00 -0.00000000000E+00 -0.45593999997E+02  0.45594000000E+02  0.51100000000E-03 0.  1.
    9900012    2    1    2    0    0  0.44962079007E+01  0.12338362512E+02 -0.13350248630E+02  0.72461542421E+02  0.69999963690E+02 0.  0.
         12    1    1    2    0    0 -0.44962079007E+01 -0.12338362512E+02  0.13350248630E+02  0.18726457579E+02  0.00000000000E+00 0. -1.
         11    1    3    3    0    0  0.10902788663E+02  0.10620263060E+02  0.69112278482E+00  0.15236090018E+02  0.51100000000E-03 0. -1.
        -11    1    3    3    0    0  0.10198707475E+02 -0.76155774983E+01 -0.29863390874E+02  0.32462790538E+02  0.51100000000E-03 0.  1.
         12    1    3    3    0    0 -0.16605288237E+02  0.93336769506E+01  0.15822019459E+02  0.24762661865E+02  0.00000000000E+00 0. -1.
</event>
<event>
 7    1  0.3050261E-013  0.7246166E+02  0.7816164E-02  0.1226708E+00
        -11   -1    0    0    0    0  0.00000000000E+00  0.00000000000E+00  0.45593999997E+02  0.45594000000E+02  0.51100000000E-03 0. -1.
         11   -1    0    0    0    0 -0.00000000000E+00 -0.00000000000E+00 -0.45593999997E+02  0.45594000000E+02  0.51100000000E-03 0.  1.
    9900012    2    1    2    0    0 -0.61387892794E+01  0.16541063807E+01 -0.17614054276E+02  0.72461662671E+02  0.70000120337E+02 0.  0.
         12    1    1    2    0    0  0.61387892794E+01 -0.16541063807E+01  0.17614054276E+02  0.18726337329E+02  0.00000000000E+00 0. -1.
         11    1    3    3    0    0 -0.27957087832E+01 -0.73276569151E+01  0.15221439218E+02  0.17123164299E+02  0.51100000000E-03 0. -1.
        -11    1    3    3    0    0  0.16133289715E+01  0.17606725944E+02  0.31889972500E+01  0.17965782269E+02  0.51100000000E-03 0.  1.
         12    1    3    3    0    0 -0.49564094676E+01 -0.86249626480E+01 -0.36024490744E+02  0.37372716102E+02  0.00000000000E+00 0. -1.
</event>
<event>
 7    1  0.3050261E-013  0.7246155E+02  0.7816164E-02  0.1226708E+00
        -11   -1    0    0    0    0  0.00000000000E+00  0.00000000000E+00  0.45593999997E+02  0.45594000000E+02  0.51100000000E-03 0.  1.
         11   -1    0    0    0    0 -0.00000000000E+00 -0.00000000000E+00 -0.45593999997E+02  0.45594000000E+02  0.51100000000E-03 0. -1.
    9900012    2    1    2    0    0  0.14145327994E+02  0.80572459451E+01  0.92558412922E+01  0.72461545069E+02  0.69999967139E+02 0.  0.
         12    1    1    2    0    0 -0.14145327994E+02 -0.80572459451E+01 -0.92558412922E+01  0.18726454931E+02  0.00000000000E+00 0. -1.
         11    1    3    3    0    0 -0.72829237624E+01 -0.16557011809E+02  0.41014421130E+01  0.18547168146E+02  0.51100000000E-03 0. -1.
        -11    1    3    3    0    0  0.76850091797E+01 -0.96734275885E+01  0.10967533606E+02  0.16520331748E+02  0.51100000000E-03 0.  1.
        -12    1    3    3    0    0  0.13743242576E+02  0.34287685343E+02 -0.58131344268E+01  0.37394045175E+02  0.00000000000E+00 0.  1.
</event>
<event>
 7    1  0.3050261E-013  0.7246154E+02  0.7816164E-02  0.1226708E+00
        -11   -1    0    0    0    0  0.00000000000E+00  0.00000000000E+00  0.45593999997E+02  0.45594000000E+02  0.51100000000E-03 0.  1.
         11   -1    0    0    0    0 -0.00000000000E+00 -0.00000000000E+00 -0.45593999997E+02  0.45594000000E+02  0.51100000000E-03 0. -1.
    9900012    2    1    2    0    0  0.18385113819E+02 -0.21002419735E+01  0.28735073094E+01  0.72461535551E+02  0.69999954741E+02 0.  0.
         12    1    1    2    0    0 -0.18385113819E+02  0.21002419735E+01 -0.28735073094E+01  0.18726464449E+02  0.00000000000E+00 0. -1.
         11    1    3    3    0    0  0.55095961367E+01 -0.14674848933E+02 -0.63980103344E+00  0.15688090592E+02  0.51100000000E-03 0. -1.
        -11    1    3    3    0    0  0.25378146824E+02  0.96568940998E+01  0.21528010554E+02  0.34652001075E+02  0.51100000000E-03 0.  1.
         12    1    3    3    0    0 -0.12502629141E+02  0.29177128594E+01 -0.18014702211E+02  0.22121443884E+02  0.00000000000E+00 0. -1.
</event>
<event>
 7    1  0.3050261E-013  0.7246158E+02  0.7816164E-02  0.1226708E+00
        -11   -1    0    0    0    0  0.00000000000E+00  0.00000000000E+00  0.45593999997E+02  0.45594000000E+02  0.51100000000E-03 0.  1.
         11   -1    0    0    0    0 -0.00000000000E+00 -0.00000000000E+00 -0.45593999997E+02  0.45594000000E+02  0.51100000000E-03 0. -1.
    9900012    2    1    2    0    0  0.14761102509E+02  0.20613124699E+01  0.11337534915E+02  0.72461578710E+02  0.70000010963E+02 0.  0.
         12    1    1    2    0    0 -0.14761102509E+02 -0.20613124699E+01 -0.11337534915E+02  0.18726421290E+02  0.00000000000E+00 0. -1.
         11    1    3    3    0    0 -0.40253706727E+01  0.39222213558E+01  0.21701301563E+02  0.22417268326E+02  0.51100000000E-03 0.  1.
        -11    1    3    3    0    0 -0.92896278789E+01  0.13228398581E+02 -0.81255636884E+01  0.18091779920E+02  0.51100000000E-03 0. -1.
         12    1    3    3    0    0  0.28076101060E+02 -0.15089307467E+02 -0.22382029598E+01  0.31952530464E+02  0.00000000000E+00 0. -1.
</event>
<event>
 7    1  0.3050261E-013  0.7246156E+02  0.7816164E-02  0.1226708E+00
        -11   -1    0    0    0    0  0.00000000000E+00  0.00000000000E+00  0.45593999997E+02  0.45594000000E+02  0.51100000000E-03 0.  1.
         11   -1    0    0    0    0 -0.00000000000E+00 -0.00000000000E+00 -0.45593999997E+02  0.45594000000E+02  0.51100000000E-03 0. -1.
    9900012    2    1    2    0    0  0.49887345753E+01 -0.99484640615E+00  0.18022276752E+02  0.72461557429E+02  0.69999983240E+02 0.  0.
         12    1    1    2    0    0 -0.49887345753E+01  0.99484640615E+00 -0.18022276752E+02  0.18726442571E+02  0.00000000000E+00 0. -1.
         11    1    3    3    0    0 -0.11062906581E+01 -0.61036115872E+01 -0.25613206259E+02  0.26353639000E+02  0.51100000000E-03 0. -1.
        -11    1    3    3    0    0 -0.17950290839E+01  0.19044292728E+01  0.12957569481E+01  0.29202682405E+01  0.51100000000E-03 0.  1.
        -12    1    3    3    0    0  0.78900543172E+01  0.32043359083E+01  0.42339726063E+02  0.43187650189E+02  0.00000000000E+00 0.  1.
</event>
<event>
 7    1  0.3050261E-013  0.7246161E+02  0.7816164E-02  0.1226708E+00
        -11   -1    0    0    0    0  0.00000000000E+00  0.00000000000E+00  0.45593999997E+02  0.45594000000E+02  0.51100000000E-03 0. -1.
         11   -1    0    0    0    0 -0.00000000000E+00 -0.00000000000E+00 -0.45593999997E+02  0.45594000000E+02  0.51100000000E-03 0.  1.
    9900012    2    1    2    0    0  0.45564210525E+01  0.28728812059E+01 -0.17934970545E+02  0.72461612530E+02  0.70000055020E+02 0.  0.
         12    1    1    2    0    0 -0.45564210525E+01 -0.28728812059E+01  0.17934970545E+02  0.18726387470E+02  0.00000000000E+00 0. -1.
         11    1    3    3    0    0  0.22034540212E+01 -0.15051150620E+02  0.62882054259E+01  0.16460069026E+02  0.51100000000E-03 0. -1.
        -11    1    3    3    0    0 -0.11250883989E+02 -0.27315208371E+01 -0.28627046046E+02  0.30879626977E+02  0.51100000000E-03 0.  1.
        -12    1    3    3    0    0  0.13603851020E+02  0.20655552663E+02  0.44038700759E+01  0.25121916528E+02  0.00000000000E+00 0.  1.
</event>
<event>
 7    1  0.3050261E-013  0.7246137E+02  0.7816164E-02  0.1226709E+00
        -11   -1    0    0    0    0  0.00000000000E+00  0.00000000000E+00  0.45593999997E+02  0.45594000000E+02  0.51100000000E-03 0. -1.
         11   -1    0    0    0    0 -0.00000000000E+00 -0.00000000000E+00 -0.45593999997E+02  0.45594000000E+02  0.51100000000E-03 0.  1.
    9900012    2    1    2    0    0 -0.12094013329E+02  0.99779617188E+01 -0.10240208771E+02  0.72461367785E+02  0.69999736193E+02 0.  0.
         12    1    1    2    0    0  0.12094013329E+02 -0.99779617188E+01  0.10240208771E+02  0.18726632215E+02  0.00000000000E+00 0. -1.
         11    1    3    3    0    0  0.24588818374E+02  0.15840431739E+02 -0.80750457784E+00  0.29260576389E+02  0.51100000000E-03 0. -1.
        -11    1    3    3    0    0  0.55501329854E+00  0.12573015904E+01 -0.48161087062E+01  0.50083680358E+01  0.51100000000E-03 0.  1.
        -12    1    3    3    0    0 -0.37237845002E+02 -0.71197716107E+01 -0.46165954867E+01  0.38192423359E+02  0.00000000000E+00 0.  1.
</event>
<event>
 7    1  0.3050261E-013  0.7246154E+02  0.7816164E-02  0.1226708E+00
        -11   -1    0    0    0    0  0.00000000000E+00  0.00000000000E+00  0.45593999997E+02  0.45594000000E+02  0.51100000000E-03 0. -1.
         11   -1    0    0    0    0 -0.00000000000E+00 -0.00000000000E+00 -0.45593999997E+02  0.45594000000E+02  0.51100000000E-03 0.  1.
    9900012    2    1    2    0    0 -0.16044799751E+02 -0.90466572780E+01 -0.33767992801E+01  0.72461537966E+02  0.69999957886E+02 0.  0.
         12    1    1    2    0    0  0.16044799751E+02  0.90466572780E+01  0.33767992801E+01  0.18726462034E+02  0.00000000000E+00 0. -1.
         11    1    3    3    0    0  0.11371914620E+02 -0.66367053379E+01 -0.23455676485E+01  0.13374153720E+02  0.51100000000E-03 0. -1.
        -11    1    3    3    0    0  0.11832916437E+02  0.91267730098E+01  0.83460061312E+01  0.17116416552E+02  0.51100000000E-03 0.  1.
        -12    1    3    3    0    0 -0.39249630808E+02 -0.11536724950E+02 -0.93772377629E+01  0.41970967694E+02  0.00000000000E+00 0.  1.
</event>
<event>
 7    1  0.3050261E-013  0.7246171E+02  0.7816164E-02  0.1226708E+00
        -11   -1    0    0    0    0  0.00000000000E+00  0.00000000000E+00  0.45593999997E+02  0.45594000000E+02  0.51100000000E-03 0.  1.
         11   -1    0    0    0    0 -0.00000000000E+00 -0.00000000000E+00 -0.45593999997E+02  0.45594000000E+02  0.51100000000E-03 0. -1.
    9900012    2    1    2    0    0 -0.31777566331E+01  0.96789551012E+01  0.15712843353E+02  0.72461714856E+02  0.70000188318E+02 0.  0.
         12    1    1    2    0    0  0.31777566331E+01 -0.96789551012E+01 -0.15712843353E+02  0.18726285144E+02  0.00000000000E+00 0. -1.
         11    1    3    3    0    0  0.25138342051E+01 -0.47162602174E+01  0.21789509991E+01  0.57715076511E+01  0.51100000000E-03 0. -1.
        -11    1    3    3    0    0 -0.14022837356E+02  0.23784455995E+01  0.36663768385E+02  0.39325931438E+02  0.51100000000E-03 0.  1.
         12    1    3    3    0    0  0.83312465181E+01  0.12016769719E+02 -0.23129876031E+02  0.27364275767E+02  0.00000000000E+00 0. -1.
</event>
<event>
 7    1  0.3050261E-013  0.7246157E+02  0.7816164E-02  0.1226708E+00
        -11   -1    0    0    0    0  0.00000000000E+00  0.00000000000E+00  0.45593999997E+02  0.45594000000E+02  0.51100000000E-03 0. -1.
         11   -1    0    0    0    0 -0.00000000000E+00 -0.00000000000E+00 -0.45593999997E+02  0.45594000000E+02  0.51100000000E-03 0.  1.
    9900012    2    1    2    0    0  0.97254001418E+01  0.67175157859E+01 -0.14524829530E+02  0.72461572174E+02  0.70000002448E+02 0.  0.
         12    1    1    2    0    0 -0.97254001418E+01 -0.67175157859E+01  0.14524829530E+02  0.18726427826E+02  0.00000000000E+00 0. -1.
         11    1    3    3    0    0  0.25170172173E+02 -0.55128888076E+01  0.15132050693E+02  0.29881574066E+02  0.51100000000E-03 0. -1.
        -11    1    3    3    0    0 -0.81823345264E+01 -0.37202531095E+01 -0.10748495910E+01  0.90524131261E+01  0.51100000000E-03 0.  1.
        -12    1    3    3    0    0 -0.72624375047E+01  0.15950657703E+02 -0.28582030632E+02  0.33527584982E+02  0.00000000000E+00 0.  1.
</event>
<event>
 7    1  0.3050261E-013  0.7246164E+02  0.7816164E-02  0.1226708E+00
        -11   -1    0    0    0    0  0.00000000000E+00  0.00000000000E+00  0.45593999997E+02  0.45594000000E+02  0.51100000000E-03 0.  1.
         11   -1    0    0    0    0 -0.00000000000E+00 -0.00000000000E+00 -0.45593999997E+02  0.45594000000E+02  0.51100000000E-03 0. -1.
    9900012    2    1    2    0    0 -0.55414879327E+01 -0.25828868025E+01  0.17700206627E+02  0.72461636034E+02  0.70000085639E+02 0.  0.
         12    1    1    2    0    0  0.55414879327E+01  0.25828868025E+01 -0.17700206627E+02  0.18726363966E+02  0.00000000000E+00 0. -1.
         11    1    3    3    0    0 -0.44585011097E+00  0.25957509203E+01  0.23102385507E+01  0.35034137044E+01  0.51100000000E-03 0. -1.
        -11    1    3    3    0    0 -0.19847992385E+02  0.25483326740E+02  0.13096096095E+02  0.34854705230E+02  0.51100000000E-03 0.  1.
         12    1    3    3    0    0  0.14752354564E+02 -0.30661964463E+02  0.22938719814E+01  0.34103517100E+02  0.00000000000E+00 0. -1.
</event>
<event>
 7    1  0.3050261E-013  0.7246156E+02  0.7816164E-02  0.1226708E+00
        -11   -1    0    0    0    0  0.00000000000E+00  0.00000000000E+00  0.45593999997E+02  0.45594000000E+02  0.51100000000E-03 0.  1.
         11   -1    0    0    0    0 -0.00000000000E+00 -0.00000000000E+00 -0.45593999997E+02  0.45594000000E+02  0.51100000000E-03 0. -1.
    9900012    2    1    2    0    0  0.13848281949E+02 -0.10452582272E+02 -0.70461423310E+01  0.72461561181E+02  0.69999988128E+02 0.  0.
         12    1    1    2    0    0 -0.13848281949E+02  0.10452582272E+02  0.70461423310E+01  0.18726438819E+02  0.00000000000E+00 0. -1.
         11    1    3    3    0    0 -0.16892190289E+01  0.38115782458E+01 -0.63523186423E+01  0.75982591457E+01  0.51100000000E-03 0. -1.
        -11    1    3    3    0    0  0.15500551640E+02 -0.20262655778E+02 -0.27431471403E+02  0.37461018992E+02  0.51100000000E-03 0.  1.
        -12    1    3    3    0    0  0.36949338615E-01  0.59984952609E+01  0.26737647715E+02  0.27402283043E+02  0.00000000000E+00 0.  1.
</event>
<event>
 7    1  0.3050261E-013  0.7246137E+02  0.7816164E-02  0.1226709E+00
        -11   -1    0    0    0    0  0.00000000000E+00  0.00000000000E+00  0.45593999997E+02  0.45594000000E+02  0.51100000000E-03 0.  1.
         11   -1    0    0    0    0 -0.00000000000E+00 -0.00000000000E+00 -0.45593999997E+02  0.45594000000E+02  0.51100000000E-03 0. -1.
    9900012    2    1    2    0    0  0.14432184368E+02  0.66053788780E+01  0.99381856391E+01  0.72461374315E+02  0.69999744700E+02 0.  0.
         12    1    1    2    0    0 -0.14432184368E+02 -0.66053788780E+01 -0.99381856391E+01  0.18726625685E+02  0.00000000000E+00 0. -1.
         11    1    3    3    0    0  0.26486909054E+01 -0.10947928352E+01  0.11053535412E+01  0.30717977760E+01  0.51100000000E-03 0. -1.
        -11    1    3    3    0    0 -0.69063748982E+01 -0.27448631590E+02  0.85934680125E+01  0.29579943934E+02  0.51100000000E-03 0.  1.
         12    1    3    3    0    0  0.18689868361E+02  0.35148803303E+02  0.23936408547E+00  0.39809632605E+02  0.00000000000E+00 0. -1.
</event>
<event>
 7    1  0.3050261E-013  0.7246153E+02  0.7816164E-02  0.1226708E+00
        -11   -1    0    0    0    0  0.00000000000E+00  0.00000000000E+00  0.45593999997E+02  0.45594000000E+02  0.51100000000E-03 0.  1.
         11   -1    0    0    0    0 -0.00000000000E+00 -0.00000000000E+00 -0.45593999997E+02  0.45594000000E+02  0.51100000000E-03 0. -1.
    9900012    2    1    2    0    0 -0.65072978451E+01  0.13965680151E+02 -0.10644035385E+02  0.72461531123E+02  0.69999948972E+02 0.  0.
         12    1    1    2    0    0  0.65072978451E+01 -0.13965680151E+02  0.10644035385E+02  0.18726468877E+02  0.00000000000E+00 0. -1.
         11    1    3    3    0    0  0.34321610776E+01  0.80225524501E+01  0.81489570571E+01  0.11939287201E+02  0.51100000000E-03 0. -1.
        -11    1    3    3    0    0 -0.17348921160E+02  0.24201076905E+02 -0.26010719691E+02  0.39537763314E+02  0.51100000000E-03 0.  1.
         12    1    3    3    0    0  0.74094622369E+01 -0.18257949204E+02  0.72177272491E+01  0.20984480609E+02  0.00000000000E+00 0. -1.
</event>
<event>
 7    1  0.3050261E-013  0.7246156E+02  0.7816164E-02  0.1226708E+00
        -11   -1    0    0    0    0  0.00000000000E+00  0.00000000000E+00  0.45593999997E+02  0.45594000000E+02  0.51100000000E-03 0. -1.
         11   -1    0    0    0    0 -0.00000000000E+00 -0.00000000000E+00 -0.45593999997E+02  0.45594000000E+02  0.51100000000E-03 0.  1.
    9900012    2    1    2    0    0  0.90255805696E+01  0.38567247311E+01  0.15948165612E+02  0.72461563696E+02  0.69999991404E+02 0.  0.
         12    1    1    2    0    0 -0.90255805696E+01 -0.38567247311E+01 -0.15948165612E+02  0.18726436304E+02  0.00000000000E+00 0. -1.
         11    1    3    3    0    0 -0.16895183690E+01  0.25904428792E+01 -0.52679020941E+01  0.61086544642E+01  0.51100000000E-03 0. -1.
        -11    1    3    3    0    0 -0.30501299339E+01  0.25833890118E+02 -0.65290071412E+01  0.26820162299E+02  0.51100000000E-03 0.  1.
         12    1    3    3    0    0  0.13765228872E+02 -0.24567608266E+02  0.27745074847E+02  0.39532746933E+02  0.00000000000E+00 0. -1.
</event>
<event>
 7    1  0.3050261E-013  0.7246153E+02  0.7816164E-02  0.1226708E+00
        -11   -1    0    0    0    0  0.00000000000E+00  0.00000000000E+00  0.45593999997E+02  0.45594000000E+02  0.51100000000E-03 0.  1.
         11   -1    0    0    0    0 -0.00000000000E+00 -0.00000000000E+00 -0.45593999997E+02  0.45594000000E+02  0.51100000000E-03 0. -1.
    9900012    2    1    2    0    0 -0.11813336024E+02 -0.51353610414E+01  0.13592421564E+02  0.72461527694E+02  0.69999944505E+02 0.  0.
         12    1    1    2    0    0  0.11813336024E+02  0.51353610414E+01 -0.13592421564E+02  0.18726472306E+02  0.00000000000E+00 0. -1.
         11    1    3    3    0    0 -0.13900290906E+02 -0.26317945387E+02  0.29247285320E+02  0.41728360086E+02  0.51100000000E-03 0. -1.
        -11    1    3    3    0    0 -0.25424652930E+00  0.28390718600E+01  0.32260175662E+01  0.43048995253E+01  0.51100000000E-03 0.  1.
        -12    1    3    3    0    0  0.23412014110E+01  0.18343512485E+02 -0.18880881322E+02  0.26428268082E+02  0.00000000000E+00 0.  1.
</event>
<event>
 7    1  0.3050261E-013  0.7246161E+02  0.7816164E-02  0.1226708E+00
        -11   -1    0    0    0    0  0.00000000000E+00  0.00000000000E+00  0.45593999997E+02  0.45594000000E+02  0.51100000000E-03 0.  1.
         11   -1    0    0    0    0 -0.00000000000E+00 -0.00000000000E+00 -0.45593999997E+02  0.45594000000E+02  0.51100000000E-03 0. -1.
    9900012    2    1    2    0    0 -0.20620073251E+01  0.27117285823E+01  0.18413918472E+02  0.72461608474E+02  0.70000049736E+02 0.  0.
         12    1    1    2    0    0  0.20620073251E+01 -0.27117285823E+01 -0.18413918472E+02  0.18726391526E+02  0.00000000000E+00 0. -1.
         11    1    3    3    0    0  0.25895269295E+02  0.14934557797E+02  0.51320333093E+00  0.29897648175E+02  0.51100000000E-03 0. -1.
        -11    1    3    3    0    0 -0.17407673477E+01  0.95395583314E+00  0.12590049214E+02  0.12745573434E+02  0.51100000000E-03 0.  1.
        -12    1    3    3    0    0 -0.26216509272E+02 -0.13176785048E+02  0.53106659265E+01  0.29818386865E+02  0.00000000000E+00 0.  1.
</event>
<event>
 7    1  0.3050261E-013  0.7246160E+02  0.7816164E-02  0.1226708E+00
        -11   -1    0    0    0    0  0.00000000000E+00  0.00000000000E+00  0.45593999997E+02  0.45594000000E+02  0.51100000000E-03 0.  1.
         11   -1    0    0    0    0 -0.00000000000E+00 -0.00000000000E+00 -0.45593999997E+02  0.45594000000E+02  0.51100000000E-03 0. -1.
    9900012    2    1    2    0    0  0.99623437613E+01 -0.58345851591E+01  0.14744068218E+02  0.72461595518E+02  0.70000032858E+02 0.  0.
         12    1    1    2    0    0 -0.99623437613E+01  0.58345851591E+01 -0.14744068218E+02  0.18726404482E+02  0.00000000000E+00 0. -1.
         11    1    3    3    0    0  0.99984196434E+01 -0.23070184873E+01  0.34415382841E+02  0.35912522970E+02  0.51100000000E-03 0. -1.
        -11    1    3    3    0    0  0.80800743607E+01 -0.77654872333E+01  0.34133052056E+01  0.11714992374E+02  0.51100000000E-03 0.  1.
         12    1    3    3    0    0 -0.81161502428E+01  0.42379205615E+01 -0.23084619829E+02  0.24834080174E+02  0.00000000000E+00 0. -1.
</event>
<event>
 7    1  0.3050261E-013  0.7246157E+02  0.7816164E-02  0.1226708E+00
        -11   -1    0    0    0    0  0.00000000000E+00  0.00000000000E+00  0.45593999997E+02  0.45594000000E+02  0.51100000000E-03 0.  1.
         11   -1    0    0    0    0 -0.00000000000E+00 -0.00000000000E+00 -0.45593999997E+02  0.45594000000E+02  0.51100000000E-03 0. -1.
    9900012    2    1    2    0    0  0.12178894935E+02  0.11257880363E+02  0.86956259884E+01  0.72461567787E+02  0.69999996734E+02 0.  0.
         12    1    1    2    0    0 -0.12178894935E+02 -0.11257880363E+02 -0.86956259884E+01  0.18726432213E+02  0.00000000000E+00 0. -1.
         11    1    3    3    0    0 -0.52511014018E+01 -0.23647566034E+00 -0.23147675748E+02  0.23736993901E+02  0.51100000000E-03 0. -1.
        -11    1    3    3    0    0  0.13556355525E+02 -0.76431804211E+01  0.68370156900E+01  0.16998169486E+02  0.51100000000E-03 0.  1.
        -12    1    3    3    0    0  0.38736408116E+01  0.19137536445E+02  0.25006286046E+02  0.31726404400E+02  0.00000000000E+00 0.  1.
</event>
<event>
 7    1  0.3050261E-013  0.7246165E+02  0.7816164E-02  0.1226708E+00
        -11   -1    0    0    0    0  0.00000000000E+00  0.00000000000E+00  0.45593999997E+02  0.45594000000E+02  0.51100000000E-03 0. -1.
         11   -1    0    0    0    0 -0.00000000000E+00 -0.00000000000E+00 -0.45593999997E+02  0.45594000000E+02  0.51100000000E-03 0.  1.
    9900012    2    1    2    0    0  0.54418215311E+01 -0.17810064443E+02 -0.19657671907E+01  0.72461653381E+02  0.70000108236E+02 0.  0.
         12    1    1    2    0    0 -0.54418215311E+01  0.17810064443E+02  0.19657671907E+01  0.18726346619E+02  0.00000000000E+00 0. -1.
         11    1    3    3    0    0 -0.25956396048E+02 -0.99018995696E+01 -0.11531961017E+02  0.30079365619E+02  0.51100000000E-03 0. -1.
        -11    1    3    3    0    0 -0.94732564806E+00  0.60029805507E+01  0.15208967208E+01  0.62646890164E+01  0.51100000000E-03 0.  1.
        -12    1    3    3    0    0  0.32345543227E+02 -0.13911145424E+02  0.80452971051E+01  0.36117598746E+02  0.00000000000E+00 0.  1.
</event>
<event>
 7    1  0.3050261E-013  0.7246162E+02  0.7816164E-02  0.1226708E+00
        -11   -1    0    0    0    0  0.00000000000E+00  0.00000000000E+00  0.45593999997E+02  0.45594000000E+02  0.51100000000E-03 0.  1.
         11   -1    0    0    0    0 -0.00000000000E+00 -0.00000000000E+00 -0.45593999997E+02  0.45594000000E+02  0.51100000000E-03 0. -1.
    9900012    2    1    2    0    0  0.31836597109E+01  0.18417717502E+02 -0.11530270349E+01  0.72461615445E+02  0.70000058817E+02 0.  0.
         12    1    1    2    0    0 -0.31836597109E+01 -0.18417717502E+02  0.11530270349E+01  0.18726384555E+02  0.00000000000E+00 0. -1.
         11    1    3    3    0    0  0.20938021365E+02 -0.41467959479E+01  0.18053996284E+02  0.27956098394E+02  0.51100000000E-03 0.  1.
        -11    1    3    3    0    0  0.76763800277E+01  0.45313239475E+01 -0.52811178169E+01  0.10360980296E+02  0.51100000000E-03 0. -1.
        -12    1    3    3    0    0 -0.25430741682E+02  0.18033189503E+02 -0.13925905502E+02  0.34144536755E+02  0.00000000000E+00 0.  1.
</event>
<event>
 7    1  0.3050261E-013  0.7246167E+02  0.7816164E-02  0.1226708E+00
        -11   -1    0    0    0    0  0.00000000000E+00  0.00000000000E+00  0.45593999997E+02  0.45594000000E+02  0.51100000000E-03 0.  1.
         11   -1    0    0    0    0 -0.00000000000E+00 -0.00000000000E+00 -0.45593999997E+02  0.45594000000E+02  0.51100000000E-03 0. -1.
    9900012    2    1    2    0    0  0.30646788555E+01  0.97498449269E+01  0.15691512704E+02  0.72461673517E+02  0.70000134467E+02 0.  0.
         12    1    1    2    0    0 -0.30646788555E+01 -0.97498449269E+01 -0.15691512704E+02  0.18726326483E+02  0.00000000000E+00 0. -1.
         11    1    3    3    0    0  0.35198428048E+01  0.11232751650E+02 -0.10800982698E+02  0.15975770107E+02  0.51100000000E-03 0. -1.
        -11    1    3    3    0    0 -0.22860293263E+02  0.56531145004E+01  0.38859427367E+01  0.23867368159E+02  0.51100000000E-03 0.  1.
        -12    1    3    3    0    0  0.22405129314E+02 -0.71360212232E+01  0.22606552666E+02  0.32618535251E+02  0.00000000000E+00 0.  1.
</event>
<event>
 7    1  0.3050261E-013  0.7246166E+02  0.7816164E-02  0.1226708E+00
        -11   -1    0    0    0    0  0.00000000000E+00  0.00000000000E+00  0.45593999997E+02  0.45594000000E+02  0.51100000000E-03 0.  1.
         11   -1    0    0    0    0 -0.00000000000E+00 -0.00000000000E+00 -0.45593999997E+02  0.45594000000E+02  0.51100000000E-03 0. -1.
    9900012    2    1    2    0    0  0.12664104554E+02  0.85568020875E+01  0.10820225054E+02  0.72461663563E+02  0.70000121500E+02 0.  0.
         12    1    1    2    0    0 -0.12664104554E+02 -0.85568020875E+01 -0.10820225054E+02  0.18726336437E+02  0.00000000000E+00 0. -1.
         11    1    3    3    0    0 -0.46348254047E-02  0.19408356981E+01 -0.22950863852E+02  0.23032781345E+02  0.51100000000E-03 0.  1.
        -11    1    3    3    0    0 -0.83675024738E+01 -0.71051602231E+01  0.10144830367E+02  0.14947106171E+02  0.51100000000E-03 0. -1.
        -12    1    3    3    0    0  0.21036241854E+02  0.13721126612E+02  0.23626258539E+02  0.34481776047E+02  0.00000000000E+00 0.  1.
</event>
<event>
 7    1  0.3050261E-013  0.7246158E+02  0.7816164E-02  0.1226708E+00
        -11   -1    0    0    0    0  0.00000000000E+00  0.00000000000E+00  0.45593999997E+02  0.45594000000E+02  0.51100000000E-03 0. -1.
         11   -1    0    0    0    0 -0.00000000000E+00 -0.00000000000E+00 -0.45593999997E+02  0.45594000000E+02  0.51100000000E-03 0.  1.
    9900012    2    1    2    0    0  0.14405939612E+02 -0.25066402216E+01 -0.11698906434E+02  0.72461581414E+02  0.70000014486E+02 0.  0.
         12    1    1    2    0    0 -0.14405939612E+02  0.25066402216E+01  0.11698906434E+02  0.18726418586E+02  0.00000000000E+00 0. -1.
         11    1    3    3    0    0 -0.10615531134E+02  0.10225919349E+02  0.53524257348E+01  0.15681434542E+02  0.51100000000E-03 0. -1.
        -11    1    3    3    0    0  0.19618576633E+01  0.16660481674E+02 -0.44931280950E+01  0.17366886175E+02  0.51100000000E-03 0.  1.
        -12    1    3    3    0    0  0.23059613083E+02 -0.29393041245E+02 -0.12558204074E+02  0.39413260696E+02  0.00000000000E+00 0.  1.
</event>
<event>
 7    1  0.3050261E-013  0.7246159E+02  0.7816164E-02  0.1226708E+00
        -11   -1    0    0    0    0  0.00000000000E+00  0.00000000000E+00  0.45593999997E+02  0.45594000000E+02  0.51100000000E-03 0.  1.
         11   -1    0    0    0    0 -0.00000000000E+00 -0.00000000000E+00 -0.45593999997E+02  0.45594000000E+02  0.51100000000E-03 0. -1.
    9900012    2    1    2    0    0  0.11762598010E+02  0.13337541670E+02 -0.58676826211E+01  0.72461590064E+02  0.70000025754E+02 0.  0.
         12    1    1    2    0    0 -0.11762598010E+02 -0.13337541670E+02  0.58676826211E+01  0.18726409936E+02  0.00000000000E+00 0. -1.
         11    1    3    3    0    0  0.16389840331E+02  0.28298844688E+02  0.74677369339E+00  0.32710994298E+02  0.51100000000E-03 0. -1.
        -11    1    3    3    0    0 -0.16248532161E+01  0.10103904854E+02  0.56444248506E+01  0.11687111424E+02  0.51100000000E-03 0.  1.
        -12    1    3    3    0    0 -0.30023891050E+01 -0.25065207872E+02 -0.12258881165E+02  0.28063484342E+02  0.00000000000E+00 0.  1.
</event>
<event>
 7    1  0.3050261E-013  0.7246160E+02  0.7816164E-02  0.1226708E+00
        -11   -1    0    0    0    0  0.00000000000E+00  0.00000000000E+00  0.45593999997E+02  0.45594000000E+02  0.51100000000E-03 0. -1.
         11   -1    0    0    0    0 -0.00000000000E+00 -0.00000000000E+00 -0.45593999997E+02  0.45594000000E+02  0.51100000000E-03 0.  1.
    9900012    2    1    2    0    0 -0.13038826016E+02  0.51483724747E+01 -0.12416167644E+02  0.72461603070E+02  0.70000042697E+02 0.  0.
         12    1    1    2    0    0  0.13038826016E+02 -0.51483724747E+01  0.12416167644E+02  0.18726396930E+02  0.00000000000E+00 0. -1.
         11    1    3    3    0    0 -0.88611192866E+00 -0.21140144956E+02 -0.38163092692E+01  0.21500119530E+02  0.51100000000E-03 0. -1.
        -11    1    3    3    0    0 -0.43521654493E+01 -0.95890640275E+01 -0.95749438446E+01  0.14232745445E+02  0.51100000000E-03 0.  1.
         12    1    3    3    0    0 -0.78005486377E+01  0.35877581458E+02  0.97508546986E+00  0.36728738095E+02  0.00000000000E+00 0. -1.
</event>
<event>
 7    1  0.3050261E-013  0.7246156E+02  0.7816164E-02  0.1226708E+00
        -11   -1    0    0    0    0  0.00000000000E+00  0.00000000000E+00  0.45593999997E+02  0.45594000000E+02  0.51100000000E-03 0.  1.
         11   -1    0    0    0    0 -0.00000000000E+00 -0.00000000000E+00 -0.45593999997E+02  0.45594000000E+02  0.51100000000E-03 0. -1.
    9900012    2    1    2    0    0 -0.39284640748E+01 -0.21636888215E+01  0.18181456044E+02  0.72461555511E+02  0.69999980742E+02 0.  0.
         12    1    1    2    0    0  0.39284640748E+01  0.21636888215E+01 -0.18181456044E+02  0.18726444489E+02  0.00000000000E+00 0. -1.
         11    1    3    3    0    0  0.92180665952E+01  0.16162953502E+02 -0.85581106379E+00  0.18626492705E+02  0.51100000000E-03 0. -1.
        -11    1    3    3    0    0  0.43241939536E+01 -0.49004464604E+01 -0.13233645598E+02  0.14759485253E+02  0.51100000000E-03 0.  1.
        -12    1    3    3    0    0 -0.17470724624E+02 -0.13426195863E+02  0.32270912706E+02  0.39075577553E+02  0.00000000000E+00 0.  1.
</event>
<event>
 7    1  0.3050261E-013  0.7246156E+02  0.7816164E-02  0.1226708E+00
        -11   -1    0    0    0    0  0.00000000000E+00  0.00000000000E+00  0.45593999997E+02  0.45594000000E+02  0.51100000000E-03 0. -1.
         11   -1    0    0    0    0 -0.00000000000E+00 -0.00000000000E+00 -0.45593999997E+02  0.45594000000E+02  0.51100000000E-03 0.  1.
    9900012    2    1    2    0    0  0.41190061222E+01  0.97819950631E+00 -0.18241613863E+02  0.72461559814E+02  0.69999986347E+02 0.  0.
         12    1    1    2    0    0 -0.41190061222E+01 -0.97819950631E+00  0.18241613863E+02  0.18726440186E+02  0.00000000000E+00 0. -1.
         11    1    3    3    0    0 -0.22097157898E+02 -0.55426594079E+01 -0.74705075744E+01  0.23975277770E+02  0.51100000000E-03 0. -1.
        -11    1    3    3    0    0 -0.12768045703E+01 -0.69958675805E+01 -0.15905600076E+02  0.17422987894E+02  0.51100000000E-03 0.  1.
        -12    1    3    3    0    0  0.27492968590E+02  0.13516726495E+02  0.51344937864E+01  0.31063294150E+02  0.00000000000E+00 0.  1.
</event>
<event>
 7    1  0.3050261E-013  0.7246157E+02  0.7816164E-02  0.1226708E+00
        -11   -1    0    0    0    0  0.00000000000E+00  0.00000000000E+00  0.45593999997E+02  0.45594000000E+02  0.51100000000E-03 0.  1.
         11   -1    0    0    0    0 -0.00000000000E+00 -0.00000000000E+00 -0.45593999997E+02  0.45594000000E+02  0.51100000000E-03 0. -1.
    9900012    2    1    2    0    0  0.10966220385E+02 -0.58869966387E+01  0.13991591929E+02  0.72461565111E+02  0.69999993248E+02 0.  0.
         12    1    1    2    0    0 -0.10966220385E+02  0.58869966387E+01 -0.13991591929E+02  0.18726434889E+02  0.00000000000E+00 0. -1.
         11    1    3    3    0    0  0.48449840030E+01 -0.22963891513E+02  0.28821043638E+02  0.37168087656E+02  0.51100000000E-03 0. -1.
        -11    1    3    3    0    0 -0.48897625161E+01  0.84941705052E+01  0.50311668909E+01  0.11016957410E+02  0.51100000000E-03 0.  1.
         12    1    3    3    0    0  0.11010998898E+02  0.85827243687E+01 -0.19860618600E+02  0.24276520045E+02  0.00000000000E+00 0. -1.
</event>
<event>
 7    1  0.3050261E-013  0.7246158E+02  0.7816164E-02  0.1226708E+00
        -11   -1    0    0    0    0  0.00000000000E+00  0.00000000000E+00  0.45593999997E+02  0.45594000000E+02  0.51100000000E-03 0. -1.
         11   -1    0    0    0    0 -0.00000000000E+00 -0.00000000000E+00 -0.45593999997E+02  0.45594000000E+02  0.51100000000E-03 0.  1.
    9900012    2    1    2    0    0 -0.83852922437E+01  0.50541703682E+01 -0.15963115308E+02  0.72461579775E+02  0.70000012350E+02 0.  0.
         12    1    1    2    0    0  0.83852922437E+01 -0.50541703682E+01  0.15963115308E+02  0.18726420225E+02  0.00000000000E+00 0. -1.
         11    1    3    3    0    0 -0.14100423413E+02 -0.65304779323E+01  0.14494931392E+02  0.21250226322E+02  0.51100000000E-03 0. -1.
        -11    1    3    3    0    0  0.15877891140E+02  0.24527285085E+01  0.18120249059E+01  0.16168077768E+02  0.51100000000E-03 0.  1.
         12    1    3    3    0    0 -0.10162759970E+02  0.91319197921E+01 -0.32270071605E+02  0.35043275685E+02  0.00000000000E+00 0. -1.
</event>
<event>
 7    1  0.3050261E-013  0.7246151E+02  0.7816164E-02  0.1226708E+00
        -11   -1    0    0    0    0  0.00000000000E+00  0.00000000000E+00  0.45593999997E+02  0.45594000000E+02  0.51100000000E-03 0.  1.
         11   -1    0    0    0    0 -0.00000000000E+00 -0.00000000000E+00 -0.45593999997E+02  0.45594000000E+02  0.51100000000E-03 0. -1.
    9900012    2    1    2    0    0 -0.67123022025E+01 -0.27873733468E+01  0.17258533154E+02  0.72461510268E+02  0.69999921805E+02 0.  0.
         12    1    1    2    0    0  0.67123022025E+01  0.27873733468E+01 -0.17258533154E+02  0.18726489732E+02  0.00000000000E+00 0. -1.
         11    1    3    3    0    0 -0.91263536553E+01 -0.17552819429E+02  0.18609180524E+01  0.19870954109E+02  0.51100000000E-03 0. -1.
        -11    1    3    3    0    0  0.11334226977E+02  0.13262857058E+02  0.30412566329E+02  0.35061264516E+02  0.51100000000E-03 0.  1.
         12    1    3    3    0    0 -0.89201755242E+01  0.15025890239E+01 -0.15014951227E+02  0.17529291643E+02  0.00000000000E+00 0. -1.
</event>
<event>
 7    1  0.3050261E-013  0.7246150E+02  0.7816164E-02  0.1226708E+00
        -11   -1    0    0    0    0  0.00000000000E+00  0.00000000000E+00  0.45593999997E+02  0.45594000000E+02  0.51100000000E-03 0.  1.
         11   -1    0    0    0    0 -0.00000000000E+00 -0.00000000000E+00 -0.45593999997E+02  0.45594000000E+02  0.51100000000E-03 0. -1.
    9900012    2    1    2    0    0  0.10370382840E+02  0.41806773679E+00  0.15587241466E+02  0.72461502265E+02  0.69999911379E+02 0.  0.
         12    1    1    2    0    0 -0.10370382840E+02 -0.41806773679E+00 -0.15587241466E+02  0.18726497735E+02  0.00000000000E+00 0. -1.
         11    1    3    3    0    0  0.42874027504E+01 -0.18792439057E+01 -0.15676354129E+02  0.16360362436E+02  0.51100000000E-03 0. -1.
        -11    1    3    3    0    0 -0.11172194301E+02  0.18980068624E+02  0.10654544078E+02  0.24465899539E+02  0.51100000000E-03 0.  1.
        -12    1    3    3    0    0  0.17255174390E+02 -0.16682756982E+02  0.20609051518E+02  0.31635240290E+02  0.00000000000E+00 0.  1.
</event>
<event>
 7    1  0.3050261E-013  0.7246158E+02  0.7816164E-02  0.1226708E+00
        -11   -1    0    0    0    0  0.00000000000E+00  0.00000000000E+00  0.45593999997E+02  0.45594000000E+02  0.51100000000E-03 0.  1.
         11   -1    0    0    0    0 -0.00000000000E+00 -0.00000000000E+00 -0.45593999997E+02  0.45594000000E+02  0.51100000000E-03 0. -1.
    9900012    2    1    2    0    0  0.94468467177E+01  0.40069656292E+01  0.15664612028E+02  0.72461581324E+02  0.70000014368E+02 0.  0.
         12    1    1    2    0    0 -0.94468467177E+01 -0.40069656292E+01 -0.15664612028E+02  0.18726418676E+02  0.00000000000E+00 0. -1.
         11    1    3    3    0    0  0.99333301807E+01  0.75427570678E+01 -0.98366318110E+01  0.15884695726E+02  0.51100000000E-03 0. -1.
        -11    1    3    3    0    0  0.10462872337E+02  0.21041059473E+02  0.10123201518E+02  0.25586658448E+02  0.51100000000E-03 0.  1.
        -12    1    3    3    0    0 -0.10949355800E+02 -0.24576850912E+02  0.15378042321E+02  0.30990227150E+02  0.00000000000E+00 0.  1.
</event>
<event>
 7    1  0.3050261E-013  0.7246158E+02  0.7816164E-02  0.1226708E+00
        -11   -1    0    0    0    0  0.00000000000E+00  0.00000000000E+00  0.45593999997E+02  0.45594000000E+02  0.51100000000E-03 0. -1.
         11   -1    0    0    0    0 -0.00000000000E+00 -0.00000000000E+00 -0.45593999997E+02  0.45594000000E+02  0.51100000000E-03 0.  1.
    9900012    2    1    2    0    0 -0.46980568399E+01  0.12710202257E+02 -0.12925079444E+02  0.72461583949E+02  0.70000017788E+02 0.  0.
         12    1    1    2    0    0  0.46980568399E+01 -0.12710202257E+02  0.12925079444E+02  0.18726416051E+02  0.00000000000E+00 0. -1.
         11    1    3    3    0    0  0.67260682847E+01  0.94941100513E+01  0.53838871341E+01  0.12820466496E+02  0.51100000000E-03 0. -1.
        -11    1    3    3    0    0  0.78321595131E+01 -0.82537164866E+01 -0.31598029498E+02  0.33584252662E+02  0.51100000000E-03 0.  1.
         12    1    3    3    0    0 -0.19256284638E+02  0.11469808692E+02  0.13289062919E+02  0.26056864791E+02  0.00000000000E+00 0. -1.
</event>
<event>
 7    1  0.3050261E-013  0.7246164E+02  0.7816164E-02  0.1226708E+00
        -11   -1    0    0    0    0  0.00000000000E+00  0.00000000000E+00  0.45593999997E+02  0.45594000000E+02  0.51100000000E-03 0. -1.
         11   -1    0    0    0    0 -0.00000000000E+00 -0.00000000000E+00 -0.45593999997E+02  0.45594000000E+02  0.51100000000E-03 0.  1.
    9900012    2    1    2    0    0  0.88158104547E+01  0.11078491564E+02 -0.12256630814E+02  0.72461641886E+02  0.70000093261E+02 0.  0.
         12    1    1    2    0    0 -0.88158104547E+01 -0.11078491564E+02  0.12256630814E+02  0.18726358114E+02  0.00000000000E+00 0. -1.
         11    1    3    3    0    0  0.72756742970E+01 -0.13598624361E+02 -0.22383356212E+01  0.15584228169E+02  0.51100000000E-03 0. -1.
        -11    1    3    3    0    0  0.16557491240E+02  0.17402558738E+01  0.12965765560E+02  0.21101897628E+02  0.51100000000E-03 0.  1.
        -12    1    3    3    0    0 -0.15017355082E+02  0.22936860052E+02 -0.22984060753E+02  0.35775516089E+02  0.00000000000E+00 0.  1.
</event>
<event>
 7    1  0.3050261E-013  0.7246156E+02  0.7816164E-02  0.1226708E+00
        -11   -1    0    0    0    0  0.00000000000E+00  0.00000000000E+00  0.45593999997E+02  0.45594000000E+02  0.51100000000E-03 0.  1.
         11   -1    0    0    0    0 -0.00000000000E+00 -0.00000000000E+00 -0.45593999997E+02  0.45594000000E+02  0.51100000000E-03 0. -1.
    9900012    2    1    2    0    0 -0.12463132636E+02  0.13851123786E+02 -0.18698268592E+01  0.72461559929E+02  0.69999986498E+02 0.  0.
         12    1    1    2    0    0  0.12463132636E+02 -0.13851123786E+02  0.18698268592E+01  0.18726440071E+02  0.00000000000E+00 0. -1.
         11    1    3    3    0    0  0.10871247478E+02  0.23493031440E+02  0.11060828332E+02  0.28150461304E+02  0.51100000000E-03 0. -1.
        -11    1    3    3    0    0 -0.34594249551E+01  0.41648433249E+01  0.97446476045E+01  0.11147721657E+02  0.51100000000E-03 0.  1.
         12    1    3    3    0    0 -0.19874955158E+02 -0.13806750979E+02 -0.22675302795E+02  0.33163376969E+02  0.00000000000E+00 0. -1.
</event>
<event>
 7    1  0.3050261E-013  0.7246155E+02  0.7816164E-02  0.1226708E+00
        -11   -1    0    0    0    0  0.00000000000E+00  0.00000000000E+00  0.45593999997E+02  0.45594000000E+02  0.51100000000E-03 0.  1.
         11   -1    0    0    0    0 -0.00000000000E+00 -0.00000000000E+00 -0.45593999997E+02  0.45594000000E+02  0.51100000000E-03 0. -1.
    9900012    2    1    2    0    0 -0.15367920848E+02 -0.39477402447E+01  0.99459695268E+01  0.72461549347E+02  0.69999972712E+02 0.  0.
         12    1    1    2    0    0  0.15367920848E+02  0.39477402447E+01 -0.99459695268E+01  0.18726450653E+02  0.00000000000E+00 0. -1.
         11    1    3    3    0    0 -0.14831478333E+01 -0.38954299292E+01  0.16227798598E+02  0.16754568017E+02  0.51100000000E-03 0. -1.
        -11    1    3    3    0    0  0.40151534441E+01 -0.23968360712E+02  0.28517069754E+01  0.24469082641E+02  0.51100000000E-03 0.  1.
         12    1    3    3    0    0 -0.17899926459E+02  0.23916050396E+02 -0.91335360467E+01  0.31237898689E+02  0.00000000000E+00 0. -1.
</event>
<event>
 7    1  0.3050261E-013  0.7246153E+02  0.7816164E-02  0.1226708E+00
        -11   -1    0    0    0    0  0.00000000000E+00  0.00000000000E+00  0.45593999997E+02  0.45594000000E+02  0.51100000000E-03 0. -1.
         11   -1    0    0    0    0 -0.00000000000E+00 -0.00000000000E+00 -0.45593999997E+02  0.45594000000E+02  0.51100000000E-03 0.  1.
    9900012    2    1    2    0    0 -0.12422605089E+02 -0.12435587481E+02  0.64587578495E+01  0.72461534606E+02  0.69999953510E+02 0.  0.
         12    1    1    2    0    0  0.12422605089E+02  0.12435587481E+02 -0.64587578495E+01  0.18726465394E+02  0.00000000000E+00 0. -1.
         11    1    3    3    0    0  0.16650564289E+02 -0.93793954108E+01  0.21318457467E+02  0.28630245868E+02  0.51100000000E-03 0. -1.
        -11    1    3    3    0    0 -0.25233173606E+02  0.53429172993E+01  0.62668150011E+00  0.25800243128E+02  0.51100000000E-03 0.  1.
        -12    1    3    3    0    0 -0.38399957722E+01 -0.83991093693E+01 -0.15486381117E+02  0.18031045611E+02  0.00000000000E+00 0.  1.
</event>
<event>
 7    1  0.3050261E-013  0.7246152E+02  0.7816164E-02  0.1226708E+00
        -11   -1    0    0    0    0  0.00000000000E+00  0.00000000000E+00  0.45593999997E+02  0.45594000000E+02  0.51100000000E-03 0.  1.
         11   -1    0    0    0    0 -0.00000000000E+00 -0.00000000000E+00 -0.45593999997E+02  0.45594000000E+02  0.51100000000E-03 0. -1.
    9900012    2    1    2    0    0 -0.16000200360E+01 -0.42441127167E+01  0.18168884133E+02  0.72461523890E+02  0.69999939549E+02 0.  0.
         12    1    1    2    0    0  0.16000200360E+01  0.42441127167E+01 -0.18168884133E+02  0.18726476110E+02  0.00000000000E+00 0. -1.
         11    1    3    3    0    0  0.61981607215E+01  0.19638610137E+01 -0.19647159076E+02  0.20695043040E+02  0.51100000000E-03 0. -1.
        -11    1    3    3    0    0 -0.17270318153E+02 -0.31694833860E+01  0.61980350472E+01  0.18620557262E+02  0.51100000000E-03 0.  1.
        -12    1    3    3    0    0  0.94721373951E+01 -0.30384903444E+01  0.31618008162E+02  0.33145923588E+02  0.00000000000E+00 0.  1.
</event>
<event>
 7    1  0.3050261E-013  0.7246164E+02  0.7816164E-02  0.1226708E+00
        -11   -1    0    0    0    0  0.00000000000E+00  0.00000000000E+00  0.45593999997E+02  0.45594000000E+02  0.51100000000E-03 0.  1.
         11   -1    0    0    0    0 -0.00000000000E+00 -0.00000000000E+00 -0.45593999997E+02  0.45594000000E+02  0.51100000000E-03 0. -1.
    9900012    2    1    2    0    0 -0.55613917331E+01  0.15518987208E+02  0.88830413936E+01  0.72461642469E+02  0.70000094021E+02 0.  0.
         12    1    1    2    0    0  0.55613917331E+01 -0.15518987208E+02 -0.88830413936E+01  0.18726357531E+02  0.00000000000E+00 0. -1.
         11    1    3    3    0    0 -0.14937196055E+02  0.11160376818E+02 -0.85032016586E+00  0.18665392612E+02  0.51100000000E-03 0. -1.
        -11    1    3    3    0    0 -0.11612241238E+02 -0.18482734609E+02  0.27528493449E+01  0.22000768282E+02  0.51100000000E-03 0.  1.
        -12    1    3    3    0    0  0.20988045560E+02  0.22841344999E+02  0.69805122145E+01  0.31795481575E+02  0.00000000000E+00 0.  1.
</event>
<event>
 7    1  0.3050261E-013  0.7246158E+02  0.7816164E-02  0.1226708E+00
        -11   -1    0    0    0    0  0.00000000000E+00  0.00000000000E+00  0.45593999997E+02  0.45594000000E+02  0.51100000000E-03 0. -1.
         11   -1    0    0    0    0 -0.00000000000E+00 -0.00000000000E+00 -0.45593999997E+02  0.45594000000E+02  0.51100000000E-03 0.  1.
    9900012    2    1    2    0    0 -0.76635652708E+01 -0.62997396974E+01 -0.15882756078E+02  0.72461577663E+02  0.70000009599E+02 0.  0.
         12    1    1    2    0    0  0.76635652708E+01  0.62997396974E+01  0.15882756078E+02  0.18726422337E+02  0.00000000000E+00 0. -1.
         11    1    3    3    0    0 -0.30630089018E+02 -0.12058452828E+02 -0.14653236043E+02  0.36032290582E+02  0.51100000000E-03 0. -1.
        -11    1    3    3    0    0  0.43218474220E+01  0.10875521844E+02 -0.98158487259E+01  0.15274365028E+02  0.51100000000E-03 0.  1.
        -12    1    3    3    0    0  0.18644676325E+02 -0.51168087142E+01  0.85863286905E+01  0.21154922053E+02  0.00000000000E+00 0.  1.
</event>
<event>
 7    1  0.3050261E-013  0.7246158E+02  0.7816164E-02  0.1226708E+00
        -11   -1    0    0    0    0  0.00000000000E+00  0.00000000000E+00  0.45593999997E+02  0.45594000000E+02  0.51100000000E-03 0.  1.
         11   -1    0    0    0    0 -0.00000000000E+00 -0.00000000000E+00 -0.45593999997E+02  0.45594000000E+02  0.51100000000E-03 0. -1.
    9900012    2    1    2    0    0 -0.92328263357E+01  0.13788286236E+02  0.86785404990E+01  0.72461575230E+02  0.70000006430E+02 0.  0.
         12    1    1    2    0    0  0.92328263357E+01 -0.13788286236E+02 -0.86785404990E+01  0.18726424770E+02  0.00000000000E+00 0. -1.
         11    1    3    3    0    0  0.48166753125E+00  0.21189822050E+02 -0.68420715080E+01  0.22272281089E+02  0.51100000000E-03 0. -1.
        -11    1    3    3    0    0  0.10297252353E+02  0.14628754739E+02  0.72152968068E+01  0.19289748041E+02  0.51100000000E-03 0.  1.
        -12    1    3    3    0    0 -0.20011746220E+02 -0.22030290553E+02  0.83053152003E+01  0.30899546100E+02  0.00000000000E+00 0.  1.
</event>
<event>
 7    1  0.3050261E-013  0.7246157E+02  0.7816164E-02  0.1226708E+00
        -11   -1    0    0    0    0  0.00000000000E+00  0.00000000000E+00  0.45593999997E+02  0.45594000000E+02  0.51100000000E-03 0. -1.
         11   -1    0    0    0    0 -0.00000000000E+00 -0.00000000000E+00 -0.45593999997E+02  0.45594000000E+02  0.51100000000E-03 0.  1.
    9900012    2    1    2    0    0 -0.80348746765E+01  0.75503243740E+01 -0.15136469332E+02  0.72461566462E+02  0.69999995007E+02 0.  0.
         12    1    1    2    0    0  0.80348746765E+01 -0.75503243740E+01  0.15136469332E+02  0.18726433538E+02  0.00000000000E+00 0. -1.
         11    1    3    3    0    0 -0.11593267095E+02 -0.20604642161E+02 -0.68765658319E+01  0.24621987702E+02  0.51100000000E-03 0. -1.
        -11    1    3    3    0    0  0.93641933834E+01 -0.55091458814E+01  0.39524809907E+01  0.11561181268E+02  0.51100000000E-03 0.  1.
        -12    1    3    3    0    0 -0.58058009645E+01  0.33664112416E+02 -0.12212384491E+02  0.36278397492E+02  0.00000000000E+00 0.  1.
</event>
<event>
 7    1  0.3050261E-013  0.7246159E+02  0.7816164E-02  0.1226708E+00
        -11   -1    0    0    0    0  0.00000000000E+00  0.00000000000E+00  0.45593999997E+02  0.45594000000E+02  0.51100000000E-03 0.  1.
         11   -1    0    0    0    0 -0.00000000000E+00 -0.00000000000E+00 -0.45593999997E+02  0.45594000000E+02  0.51100000000E-03 0. -1.
    9900012    2    1    2    0    0  0.52565195736E+01  0.12465664169E+02  0.12948152991E+02  0.72461589583E+02  0.70000025127E+02 0.  0.
         12    1    1    2    0    0 -0.52565195736E+01 -0.12465664169E+02 -0.12948152991E+02  0.18726410417E+02  0.00000000000E+00 0. -1.
         11    1    3    3    0    0  0.77115081478E+01 -0.33334996459E+00 -0.25692497669E+00  0.77229845796E+01  0.51100000000E-03 0. -1.
        -11    1    3    3    0    0  0.26512910355E+02  0.20338104435E+02  0.79512797348E+01  0.34348155076E+02  0.51100000000E-03 0.  1.
         12    1    3    3    0    0 -0.28967898929E+02 -0.75390903008E+01  0.52537982333E+01  0.30390449927E+02  0.00000000000E+00 0. -1.
</event>
<event>
 7    1  0.3050261E-013  0.7246145E+02  0.7816164E-02  0.1226708E+00
        -11   -1    0    0    0    0  0.00000000000E+00  0.00000000000E+00  0.45593999997E+02  0.45594000000E+02  0.51100000000E-03 0.  1.
         11   -1    0    0    0    0 -0.00000000000E+00 -0.00000000000E+00 -0.45593999997E+02  0.45594000000E+02  0.51100000000E-03 0. -1.
    9900012    2    1    2    0    0 -0.14413084249E+02  0.17687298132E+01  0.11824473446E+02  0.72461452668E+02  0.69999846769E+02 0.  0.
         12    1    1    2    0    0  0.14413084249E+02 -0.17687298132E+01 -0.11824473446E+02  0.18726547332E+02  0.00000000000E+00 0. -1.
         11    1    3    3    0    0 -0.15386634747E+02  0.18013535516E+02 -0.18378553938E+02  0.29983449364E+02  0.51100000000E-03 0. -1.
        -11    1    3    3    0    0 -0.36867991582E+01 -0.18386527233E+01 -0.35794245614E+01  0.54576013341E+01  0.51100000000E-03 0.  1.
        -12    1    3    3    0    0  0.46603496565E+01 -0.14406152980E+02  0.33782451945E+02  0.37020401970E+02  0.00000000000E+00 0.  1.
</event>
<event>
 7    1  0.3050261E-013  0.7246159E+02  0.7816164E-02  0.1226708E+00
        -11   -1    0    0    0    0  0.00000000000E+00  0.00000000000E+00  0.45593999997E+02  0.45594000000E+02  0.51100000000E-03 0. -1.
         11   -1    0    0    0    0 -0.00000000000E+00 -0.00000000000E+00 -0.45593999997E+02  0.45594000000E+02  0.51100000000E-03 0.  1.
    9900012    2    1    2    0    0  0.66530960192E+01  0.16388694311E+02  0.61502321780E+01  0.72461592344E+02  0.70000028723E+02 0.  0.
         12    1    1    2    0    0 -0.66530960192E+01 -0.16388694311E+02 -0.61502321780E+01  0.18726407656E+02  0.00000000000E+00 0. -1.
         11    1    3    3    0    0  0.18765252378E+02  0.21001777199E+02  0.16384825768E+02  0.32583306432E+02  0.51100000000E-03 0. -1.
        -11    1    3    3    0    0 -0.85740648071E+01  0.15718178698E+02 -0.49072902816E+01  0.18564946191E+02  0.51100000000E-03 0.  1.
        -12    1    3    3    0    0 -0.35380915519E+01 -0.20331261586E+02 -0.53273033088E+01  0.21313339721E+02  0.00000000000E+00 0.  1.
</event>
<event>
 7    1  0.3050261E-013  0.7246157E+02  0.7816164E-02  0.1226708E+00
        -11   -1    0    0    0    0  0.00000000000E+00  0.00000000000E+00  0.45593999997E+02  0.45594000000E+02  0.51100000000E-03 0.  1.
         11   -1    0    0    0    0 -0.00000000000E+00 -0.00000000000E+00 -0.45593999997E+02  0.45594000000E+02  0.51100000000E-03 0. -1.
    9900012    2    1    2    0    0 -0.67983278990E+00 -0.66314500886E+00  0.18702328338E+02  0.72461574308E+02  0.70000005229E+02 0.  0.
         12    1    1    2    0    0  0.67983278990E+00  0.66314500886E+00 -0.18702328338E+02  0.18726425692E+02  0.00000000000E+00 0. -1.
         11    1    3    3    0    0  0.15949288062E+02 -0.18946737599E+02  0.10857929361E+02  0.27041695317E+02  0.51100000000E-03 0. -1.
        -11    1    3    3    0    0  0.89064993086E+01 -0.42594833485E+01 -0.17619650678E+01  0.10028631487E+02  0.51100000000E-03 0.  1.
        -12    1    3    3    0    0 -0.25535620161E+02  0.22543075939E+02  0.96063640447E+01  0.35391247505E+02  0.00000000000E+00 0.  1.
</event>
<event>
 7    1  0.3050261E-013  0.7246167E+02  0.7816164E-02  0.1226708E+00
        -11   -1    0    0    0    0  0.00000000000E+00  0.00000000000E+00  0.45593999997E+02  0.45594000000E+02  0.51100000000E-03 0.  1.
         11   -1    0    0    0    0 -0.00000000000E+00 -0.00000000000E+00 -0.45593999997E+02  0.45594000000E+02  0.51100000000E-03 0. -1.
    9900012    2    1    2    0    0  0.66755030748E+01 -0.25043222514E+01  0.17315935660E+02  0.72461665628E+02  0.70000124190E+02 0.  0.
         12    1    1    2    0    0 -0.66755030748E+01  0.25043222514E+01 -0.17315935660E+02  0.18726334372E+02  0.00000000000E+00 0. -1.
         11    1    3    3    0    0  0.27817229072E+01  0.48106245020E+01  0.46995074782E+01  0.72777373702E+01  0.51100000000E-03 0. -1.
        -11    1    3    3    0    0  0.31142900837E+02 -0.14683375885E+02  0.13396898209E+02  0.36945347228E+02  0.51100000000E-03 0.  1.
         12    1    3    3    0    0 -0.27249120669E+02  0.73684291321E+01 -0.78047002716E+00  0.28238581030E+02  0.00000000000E+00 0. -1.
</event>
<event>
 7    1  0.3050261E-013  0.7246153E+02  0.7816164E-02  0.1226708E+00
        -11   -1    0    0    0    0  0.00000000000E+00  0.00000000000E+00  0.45593999997E+02  0.45594000000E+02  0.51100000000E-03 0.  1.
         11   -1    0    0    0    0 -0.00000000000E+00 -0.00000000000E+00 -0.45593999997E+02  0.45594000000E+02  0.51100000000E-03 0. -1.
    9900012    2    1    2    0    0  0.41295176716E+01 -0.63785269947E+01  0.17115551960E+02  0.72461530987E+02  0.69999948795E+02 0.  0.
         12    1    1    2    0    0 -0.41295176716E+01  0.63785269947E+01 -0.17115551960E+02  0.18726469013E+02  0.00000000000E+00 0. -1.
         11    1    3    3    0    0  0.55076955718E+01  0.63776594114E+01  0.26190177506E+01  0.88243132492E+01  0.51100000000E-03 0. -1.
        -11    1    3    3    0    0  0.15033280710E+02 -0.10661360111E+02 -0.18880671168E+02  0.26384538509E+02  0.51100000000E-03 0.  1.
        -12    1    3    3    0    0 -0.16411458610E+02 -0.20948262948E+01  0.33377205377E+02  0.37252679228E+02  0.00000000000E+00 0.  1.
</event>
<event>
 7    1  0.3050261E-013  0.7246162E+02  0.7816164E-02  0.1226708E+00
        -11   -1    0    0    0    0  0.00000000000E+00  0.00000000000E+00  0.45593999997E+02  0.45594000000E+02  0.51100000000E-03 0.  1.
         11   -1    0    0    0    0 -0.00000000000E+00 -0.00000000000E+00 -0.45593999997E+02  0.45594000000E+02  0.51100000000E-03 0. -1.
    9900012    2    1    2    0    0  0.96485090535E+01  0.83023933479E+01  0.13735135979E+02  0.72461616937E+02  0.70000060761E+02 0.  0.
         12    1    1    2    0    0 -0.96485090535E+01 -0.83023933479E+01 -0.13735135979E+02  0.18726383063E+02  0.00000000000E+00 0. -1.
         11    1    3    3    0    0  0.83925600253E+01  0.36892115557E+02 -0.27971512558E+01  0.37937940237E+02  0.51100000000E-03 0. -1.
        -11    1    3    3    0    0  0.20966866160E+01 -0.31648809914E+01 -0.61428276785E+00  0.38457652081E+01  0.51100000000E-03 0.  1.
        -12    1    3    3    0    0 -0.84073758782E+00 -0.25424841218E+02  0.17146570003E+02  0.30677911492E+02  0.00000000000E+00 0.  1.
</event>
<event>
 7    1  0.3050261E-013  0.7246156E+02  0.7816164E-02  0.1226708E+00
        -11   -1    0    0    0    0  0.00000000000E+00  0.00000000000E+00  0.45593999997E+02  0.45594000000E+02  0.51100000000E-03 0.  1.
         11   -1    0    0    0    0 -0.00000000000E+00 -0.00000000000E+00 -0.45593999997E+02  0.45594000000E+02  0.51100000000E-03 0. -1.
    9900012    2    1    2    0    0  0.13083129772E+02  0.12343522021E+02  0.52104280553E+01  0.72461564647E+02  0.69999992643E+02 0.  0.
         12    1    1    2    0    0 -0.13083129772E+02 -0.12343522021E+02 -0.52104280553E+01  0.18726435353E+02  0.00000000000E+00 0. -1.
         11    1    3    3    0    0 -0.48026432155E+01  0.27307977127E+00 -0.75885920408E+01  0.89848029383E+01  0.51100000000E-03 0. -1.
        -11    1    3    3    0    0  0.14659777472E+01 -0.11840983385E+02 -0.17726374989E+02  0.21367787644E+02  0.51100000000E-03 0.  1.
        -12    1    3    3    0    0  0.16419795240E+02  0.23911425636E+02  0.30525395085E+02  0.42108974064E+02  0.00000000000E+00 0.  1.
</event>
<event>
 7    1  0.3050261E-013  0.7246158E+02  0.7816164E-02  0.1226708E+00
        -11   -1    0    0    0    0  0.00000000000E+00  0.00000000000E+00  0.45593999997E+02  0.45594000000E+02  0.51100000000E-03 0.  1.
         11   -1    0    0    0    0 -0.00000000000E+00 -0.00000000000E+00 -0.45593999997E+02  0.45594000000E+02  0.51100000000E-03 0. -1.
    9900012    2    1    2    0    0 -0.39699847199E+00  0.14419516274E+02  0.11941465302E+02  0.72461584141E+02  0.70000018038E+02 0.  0.
         12    1    1    2    0    0  0.39699847199E+00 -0.14419516274E+02 -0.11941465302E+02  0.18726415859E+02  0.00000000000E+00 0. -1.
         11    1    3    3    0    0  0.67795834536E+01 -0.24852560919E+01  0.20654848098E+01  0.75103580079E+01  0.51100000000E-03 0. -1.
        -11    1    3    3    0    0 -0.30188589583E+02  0.20955960119E+02  0.17045833070E+02  0.40510043580E+02  0.51100000000E-03 0.  1.
         12    1    3    3    0    0  0.23012007658E+02 -0.40511877530E+01 -0.71698525773E+01  0.24441182554E+02  0.00000000000E+00 0. -1.
</event>
<event>
 7    1  0.3050261E-013  0.7246158E+02  0.7816164E-02  0.1226708E+00
        -11   -1    0    0    0    0  0.00000000000E+00  0.00000000000E+00  0.45593999997E+02  0.45594000000E+02  0.51100000000E-03 0.  1.
         11   -1    0    0    0    0 -0.00000000000E+00 -0.00000000000E+00 -0.45593999997E+02  0.45594000000E+02  0.51100000000E-03 0. -1.
    9900012    2    1    2    0    0  0.51416904183E+00  0.33057195994E+01  0.18425161214E+02  0.72461582360E+02  0.70000015717E+02 0.  0.
         12    1    1    2    0    0 -0.51416904183E+00 -0.33057195994E+01 -0.18425161214E+02  0.18726417640E+02  0.00000000000E+00 0. -1.
         11    1    3    3    0    0  0.89508989568E+01  0.29249631506E+01 -0.14671765690E+02  0.17433723363E+02  0.51100000000E-03 0. -1.
        -11    1    3    3    0    0  0.23356177241E+01  0.20689207088E+02  0.18024186134E+02  0.27538512781E+02  0.51100000000E-03 0.  1.
        -12    1    3    3    0    0 -0.10772347639E+02 -0.20308450640E+02  0.15072740770E+02  0.27489346216E+02  0.00000000000E+00 0.  1.
</event>
<event>
 7    1  0.3050261E-013  0.7246153E+02  0.7816164E-02  0.1226708E+00
        -11   -1    0    0    0    0  0.00000000000E+00  0.00000000000E+00  0.45593999997E+02  0.45594000000E+02  0.51100000000E-03 0. -1.
         11   -1    0    0    0    0 -0.00000000000E+00 -0.00000000000E+00 -0.45593999997E+02  0.45594000000E+02  0.51100000000E-03 0.  1.
    9900012    2    1    2    0    0  0.54240582336E+01 -0.17904143352E+02 -0.83776474883E+00  0.72461531922E+02  0.69999950013E+02 0.  0.
         12    1    1    2    0    0 -0.54240582336E+01  0.17904143352E+02  0.83776474883E+00  0.18726468078E+02  0.00000000000E+00 0. -1.
         11    1    3    3    0    0  0.97687429410E+01 -0.16414713921E+02  0.90764326151E+01  0.21148352206E+02  0.51100000000E-03 0. -1.
        -11    1    3    3    0    0  0.92465989730E+01 -0.15810319222E+02  0.11937947129E+02  0.21862762140E+02  0.51100000000E-03 0.  1.
         12    1    3    3    0    0 -0.13591283681E+02  0.14320889790E+02 -0.21852144493E+02  0.29450417576E+02  0.00000000000E+00 0. -1.
</event>
<event>
 7    1  0.3050261E-013  0.7246150E+02  0.7816164E-02  0.1226708E+00
        -11   -1    0    0    0    0  0.00000000000E+00  0.00000000000E+00  0.45593999997E+02  0.45594000000E+02  0.51100000000E-03 0.  1.
         11   -1    0    0    0    0 -0.00000000000E+00 -0.00000000000E+00 -0.45593999997E+02  0.45594000000E+02  0.51100000000E-03 0. -1.
    9900012    2    1    2    0    0  0.40850783437E+01 -0.13042972801E+02  0.12801351920E+02  0.72461504985E+02  0.69999914923E+02 0.  0.
         12    1    1    2    0    0 -0.40850783437E+01  0.13042972801E+02 -0.12801351920E+02  0.18726495015E+02  0.00000000000E+00 0. -1.
         11    1    3    3    0    0  0.52212470406E+01 -0.52820644411E+01  0.27775333957E+01  0.79294588368E+01  0.51100000000E-03 0. -1.
        -11    1    3    3    0    0  0.26233177069E+01  0.22295144589E+01  0.36147814472E+02  0.36311389699E+02  0.51100000000E-03 0.  1.
         12    1    3    3    0    0 -0.37594864039E+01 -0.99904228189E+01 -0.26123995948E+02  0.28220656449E+02  0.00000000000E+00 0. -1.
</event>
<event>
 7    1  0.3050261E-013  0.7246151E+02  0.7816164E-02  0.1226708E+00
        -11   -1    0    0    0    0  0.00000000000E+00  0.00000000000E+00  0.45593999997E+02  0.45594000000E+02  0.51100000000E-03 0.  1.
         11   -1    0    0    0    0 -0.00000000000E+00 -0.00000000000E+00 -0.45593999997E+02  0.45594000000E+02  0.51100000000E-03 0. -1.
    9900012    2    1    2    0    0 -0.48088196289E+01  0.16847282416E+02  0.66125575267E+01  0.72461505718E+02  0.69999915878E+02 0.  0.
         12    1    1    2    0    0  0.48088196289E+01 -0.16847282416E+02 -0.66125575267E+01  0.18726494282E+02  0.00000000000E+00 0. -1.
         11    1    3    3    0    0 -0.55686906783E+01 -0.17505528162E+01  0.15730943013E+02  0.16779073853E+02  0.51100000000E-03 0. -1.
        -11    1    3    3    0    0 -0.12011106786E+02  0.17313691985E+02  0.16675169468E+02  0.26871767591E+02  0.51100000000E-03 0.  1.
         12    1    3    3    0    0  0.12770977836E+02  0.12841432472E+01 -0.25793554954E+02  0.28810664275E+02  0.00000000000E+00 0. -1.
</event>
<event>
 7    1  0.3050261E-013  0.7246158E+02  0.7816164E-02  0.1226708E+00
        -11   -1    0    0    0    0  0.00000000000E+00  0.00000000000E+00  0.45593999997E+02  0.45594000000E+02  0.51100000000E-03 0. -1.
         11   -1    0    0    0    0 -0.00000000000E+00 -0.00000000000E+00 -0.45593999997E+02  0.45594000000E+02  0.51100000000E-03 0.  1.
    9900012    2    1    2    0    0 -0.10992938025E+02  0.12594397503E+02  0.84389114186E+01  0.72461581207E+02  0.70000014216E+02 0.  0.
         12    1    1    2    0    0  0.10992938025E+02 -0.12594397503E+02 -0.84389114186E+01  0.18726418793E+02  0.00000000000E+00 0. -1.
         11    1    3    3    0    0 -0.85076321901E+01 -0.22504004935E+02  0.16476129730E+02  0.29159439205E+02  0.51100000000E-03 0. -1.
        -11    1    3    3    0    0  0.10681198516E+02  0.13153478679E+02 -0.37441161875E+01  0.17352821367E+02  0.51100000000E-03 0.  1.
        -12    1    3    3    0    0 -0.13166504351E+02  0.21944923759E+02 -0.42931021234E+01  0.25949320636E+02  0.00000000000E+00 0.  1.
</event>
<event>
 7    1  0.3050261E-013  0.7246160E+02  0.7816164E-02  0.1226708E+00
        -11   -1    0    0    0    0  0.00000000000E+00  0.00000000000E+00  0.45593999997E+02  0.45594000000E+02  0.51100000000E-03 0.  1.
         11   -1    0    0    0    0 -0.00000000000E+00 -0.00000000000E+00 -0.45593999997E+02  0.45594000000E+02  0.51100000000E-03 0. -1.
    9900012    2    1    2    0    0 -0.13449473421E+02 -0.91268768234E+01  0.92999861665E+01  0.72461602628E+02  0.70000042121E+02 0.  0.
         12    1    1    2    0    0  0.13449473421E+02  0.91268768234E+01 -0.92999861665E+01  0.18726397372E+02  0.00000000000E+00 0. -1.
         11    1    3    3    0    0  0.17723366278E+02 -0.15216154598E+02  0.10972014569E+01  0.23384886664E+02  0.51100000000E-03 0. -1.
        -11    1    3    3    0    0 -0.15246737599E+02 -0.12393394532E+02  0.13843465221E+02  0.24035406488E+02  0.51100000000E-03 0.  1.
        -12    1    3    3    0    0 -0.15926102099E+02  0.18482672307E+02 -0.56406805113E+01  0.25041309477E+02  0.00000000000E+00 0.  1.
</event>
<event>
 7    1  0.3050261E-013  0.7246148E+02  0.7816164E-02  0.1226708E+00
        -11   -1    0    0    0    0  0.00000000000E+00  0.00000000000E+00  0.45593999997E+02  0.45594000000E+02  0.51100000000E-03 0.  1.
         11   -1    0    0    0    0 -0.00000000000E+00 -0.00000000000E+00 -0.45593999997E+02  0.45594000000E+02  0.51100000000E-03 0. -1.
    9900012    2    1    2    0    0  0.15194524709E+02 -0.42336669543E+01  0.10093816909E+02  0.72461477183E+02  0.69999878705E+02 0.  0.
         12    1    1    2    0    0 -0.15194524709E+02  0.42336669543E+01 -0.10093816909E+02  0.18726522817E+02  0.00000000000E+00 0. -1.
         11    1    3    3    0    0  0.14009366519E+01 -0.79516797607E+01 -0.23126958879E+02  0.24495878465E+02  0.51100000000E-03 0. -1.
        -11    1    3    3    0    0 -0.92522840191E+01 -0.34085762209E+01  0.13990009590E+02  0.17115592891E+02  0.51100000000E-03 0.  1.
        -12    1    3    3    0    0  0.23045872077E+02  0.71265890273E+01  0.19230766198E+02  0.30850005826E+02  0.00000000000E+00 0.  1.
</event>
<event>
 7    1  0.3050261E-013  0.7246157E+02  0.7816164E-02  0.1226708E+00
        -11   -1    0    0    0    0  0.00000000000E+00  0.00000000000E+00  0.45593999997E+02  0.45594000000E+02  0.51100000000E-03 0.  1.
         11   -1    0    0    0    0 -0.00000000000E+00 -0.00000000000E+00 -0.45593999997E+02  0.45594000000E+02  0.51100000000E-03 0. -1.
    9900012    2    1    2    0    0  0.15097173170E+02 -0.45377295458E+01 -0.10107606735E+02  0.72461565714E+02  0.69999994033E+02 0.  0.
         12    1    1    2    0    0 -0.15097173170E+02  0.45377295458E+01  0.10107606735E+02  0.18726434286E+02  0.00000000000E+00 0. -1.
         11    1    3    3    0    0  0.16258529472E+02  0.31690088264E+01  0.11320553866E+02  0.20063333164E+02  0.51100000000E-03 0. -1.
        -11    1    3    3    0    0  0.11622399117E+01  0.14772329686E+02  0.67453184397E+01  0.16281027212E+02  0.51100000000E-03 0.  1.
         12    1    3    3    0    0 -0.23235962138E+01 -0.22479068058E+02 -0.28173479041E+02  0.36117205338E+02  0.00000000000E+00 0. -1.
</event>
<event>
 7    1  0.3050261E-013  0.7246156E+02  0.7816164E-02  0.1226708E+00
        -11   -1    0    0    0    0  0.00000000000E+00  0.00000000000E+00  0.45593999997E+02  0.45594000000E+02  0.51100000000E-03 0.  1.
         11   -1    0    0    0    0 -0.00000000000E+00 -0.00000000000E+00 -0.45593999997E+02  0.45594000000E+02  0.51100000000E-03 0. -1.
    9900012    2    1    2    0    0 -0.16916884942E+02 -0.31665961603E+01  0.73804586726E+01  0.72461561535E+02  0.69999988589E+02 0.  0.
         12    1    1    2    0    0  0.16916884942E+02  0.31665961603E+01 -0.73804586726E+01  0.18726438465E+02  0.00000000000E+00 0. -1.
         11    1    3    3    0    0 -0.15793400590E+01 -0.24582981430E+02 -0.87594570778E+01  0.26144700794E+02  0.51100000000E-03 0. -1.
        -11    1    3    3    0    0  0.25363769216E+01  0.11288582051E+02 -0.84111537092E+01  0.14304293048E+02  0.51100000000E-03 0.  1.
        -12    1    3    3    0    0 -0.17873921804E+02  0.10127803219E+02  0.24551069460E+02  0.32012567693E+02  0.00000000000E+00 0.  1.
</event>
<event>
 7    1  0.3050261E-013  0.7246156E+02  0.7816164E-02  0.1226708E+00
        -11   -1    0    0    0    0  0.00000000000E+00  0.00000000000E+00  0.45593999997E+02  0.45594000000E+02  0.51100000000E-03 0.  1.
         11   -1    0    0    0    0 -0.00000000000E+00 -0.00000000000E+00 -0.45593999997E+02  0.45594000000E+02  0.51100000000E-03 0. -1.
    9900012    2    1    2    0    0 -0.32354377729E+01 -0.12142393178E+02  0.13884299087E+02  0.72461560648E+02  0.69999987433E+02 0.  0.
         12    1    1    2    0    0  0.32354377729E+01  0.12142393178E+02 -0.13884299087E+02  0.18726439352E+02  0.00000000000E+00 0. -1.
         11    1    3    3    0    0  0.13766742534E+02  0.16685462763E+02  0.58645197814E+01  0.22412506779E+02  0.51100000000E-03 0. -1.
        -11    1    3    3    0    0  0.48790270007E+01  0.32293082629E+01  0.95568209928E+01  0.11205630910E+02  0.51100000000E-03 0.  1.
        -12    1    3    3    0    0 -0.21881207308E+02 -0.32057164204E+02 -0.15370416869E+01  0.38843422959E+02  0.00000000000E+00 0.  1.
</event>
<event>
 7    1  0.3050261E-013  0.7246161E+02  0.7816164E-02  0.1226708E+00
        -11   -1    0    0    0    0  0.00000000000E+00  0.00000000000E+00  0.45593999997E+02  0.45594000000E+02  0.51100000000E-03 0.  1.
         11   -1    0    0    0    0 -0.00000000000E+00 -0.00000000000E+00 -0.45593999997E+02  0.45594000000E+02  0.51100000000E-03 0. -1.
    9900012    2    1    2    0    0 -0.46222880221E+01 -0.47522366510E+01  0.17513663760E+02  0.72461609049E+02  0.70000050485E+02 0.  0.
         12    1    1    2    0    0  0.46222880221E+01  0.47522366510E+01 -0.17513663760E+02  0.18726390951E+02  0.00000000000E+00 0. -1.
         11    1    3    3    0    0  0.83750023190E+01 -0.14194548003E+02 -0.11879304877E+02  0.20316095626E+02  0.51100000000E-03 0. -1.
        -11    1    3    3    0    0 -0.68814926236E+01  0.17961677079E+02 -0.17210442044E+01  0.19311622864E+02  0.51100000000E-03 0.  1.
        -12    1    3    3    0    0 -0.61157977175E+01 -0.85193657271E+01  0.31114012842E+02  0.32833890559E+02  0.00000000000E+00 0.  1.
</event>
<event>
 7    1  0.3050261E-013  0.7246155E+02  0.7816164E-02  0.1226708E+00
        -11   -1    0    0    0    0  0.00000000000E+00  0.00000000000E+00  0.45593999997E+02  0.45594000000E+02  0.51100000000E-03 0. -1.
         11   -1    0    0    0    0 -0.00000000000E+00 -0.00000000000E+00 -0.45593999997E+02  0.45594000000E+02  0.51100000000E-03 0.  1.
    9900012    2    1    2    0    0  0.94784487443E+01 -0.38563212983E+01 -0.15683359168E+02  0.72461549206E+02  0.69999972528E+02 0.  0.
         12    1    1    2    0    0 -0.94784487443E+01  0.38563212983E+01  0.15683359168E+02  0.18726450794E+02  0.00000000000E+00 0. -1.
         11    1    3    3    0    0  0.11417217341E+02 -0.10353233227E+02  0.75882283783E+00  0.15431075868E+02  0.51100000000E-03 0. -1.
        -11    1    3    3    0    0  0.25402511569E+02 -0.12019854887E+01 -0.30047807482E+01  0.25607832215E+02  0.51100000000E-03 0.  1.
        -12    1    3    3    0    0 -0.27341280166E+02  0.76988974176E+01 -0.13437401258E+02  0.31422641123E+02  0.00000000000E+00 0.  1.
</event>
<event>
 7    1  0.3050261E-013  0.7246158E+02  0.7816164E-02  0.1226708E+00
        -11   -1    0    0    0    0  0.00000000000E+00  0.00000000000E+00  0.45593999997E+02  0.45594000000E+02  0.51100000000E-03 0.  1.
         11   -1    0    0    0    0 -0.00000000000E+00 -0.00000000000E+00 -0.45593999997E+02  0.45594000000E+02  0.51100000000E-03 0. -1.
    9900012    2    1    2    0    0 -0.51970400404E+01  0.65581036567E+00  0.17978863569E+02  0.72461578888E+02  0.70000011195E+02 0.  0.
         12    1    1    2    0    0  0.51970400404E+01 -0.65581036567E+00 -0.17978863569E+02  0.18726421112E+02  0.00000000000E+00 0. -1.
         11    1    3    3    0    0 -0.77972338745E+01  0.18320548878E+01 -0.62438433955E+01  0.10155730491E+02  0.51100000000E-03 0. -1.
        -11    1    3    3    0    0 -0.21965484994E+02 -0.16662328989E+02  0.66411152688E+01  0.28358775549E+02  0.51100000000E-03 0.  1.
        -12    1    3    3    0    0  0.24565678828E+02  0.15486084467E+02  0.17581591696E+02  0.33947072848E+02  0.00000000000E+00 0.  1.
</event>
<event>
 7    1  0.3050261E-013  0.7246159E+02  0.7816164E-02  0.1226708E+00
        -11   -1    0    0    0    0  0.00000000000E+00  0.00000000000E+00  0.45593999997E+02  0.45594000000E+02  0.51100000000E-03 0. -1.
         11   -1    0    0    0    0 -0.00000000000E+00 -0.00000000000E+00 -0.45593999997E+02  0.45594000000E+02  0.51100000000E-03 0.  1.
    9900012    2    1    2    0    0 -0.14631118186E+02  0.10911014864E+02 -0.41902823920E+01  0.72461592676E+02  0.70000029156E+02 0.  0.
         12    1    1    2    0    0  0.14631118186E+02 -0.10911014864E+02  0.41902823920E+01  0.18726407324E+02  0.00000000000E+00 0. -1.
         11    1    3    3    0    0 -0.74059490500E+01 -0.13441981808E+02 -0.15076200929E+02  0.21513409562E+02  0.51100000000E-03 0. -1.
        -11    1    3    3    0    0 -0.24287893745E+02  0.10740066084E+02  0.14885577599E-04  0.26556558556E+02  0.51100000000E-03 0.  1.
         12    1    3    3    0    0  0.17062724609E+02  0.13612930589E+02  0.10885903652E+02  0.24391624558E+02  0.00000000000E+00 0. -1.
</event>
<event>
 7    1  0.3050261E-013  0.7246162E+02  0.7816164E-02  0.1226708E+00
        -11   -1    0    0    0    0  0.00000000000E+00  0.00000000000E+00  0.45593999997E+02  0.45594000000E+02  0.51100000000E-03 0.  1.
         11   -1    0    0    0    0 -0.00000000000E+00 -0.00000000000E+00 -0.45593999997E+02  0.45594000000E+02  0.51100000000E-03 0. -1.
    9900012    2    1    2    0    0 -0.47921317702E+01 -0.94393082488E+01  0.15447082002E+02  0.72461617287E+02  0.70000061217E+02 0.  0.
         12    1    1    2    0    0  0.47921317702E+01  0.94393082488E+01 -0.15447082002E+02  0.18726382713E+02  0.00000000000E+00 0. -1.
         11    1    3    3    0    0 -0.10687449163E+02 -0.17123797714E+02 -0.13823258495E+02  0.24464841987E+02  0.51100000000E-03 0. -1.
        -11    1    3    3    0    0  0.13370102171E+02  0.19261373088E+01 -0.34511380950E+01  0.13942022500E+02  0.51100000000E-03 0.  1.
        -12    1    3    3    0    0 -0.74747847775E+01  0.57583521565E+01  0.32721478592E+02  0.34054752800E+02  0.00000000000E+00 0.  1.
</event>
<event>
 7    1  0.3050261E-013  0.7246156E+02  0.7816164E-02  0.1226708E+00
        -11   -1    0    0    0    0  0.00000000000E+00  0.00000000000E+00  0.45593999997E+02  0.45594000000E+02  0.51100000000E-03 0. -1.
         11   -1    0    0    0    0 -0.00000000000E+00 -0.00000000000E+00 -0.45593999997E+02  0.45594000000E+02  0.51100000000E-03 0.  1.
    9900012    2    1    2    0    0  0.29099962165E+01 -0.57509838380E+01 -0.17582315927E+02  0.72461555424E+02  0.69999980629E+02 0.  0.
         12    1    1    2    0    0 -0.29099962165E+01  0.57509838380E+01  0.17582315927E+02  0.18726444576E+02  0.00000000000E+00 0. -1.
         11    1    3    3    0    0 -0.11633909239E+02  0.14140618686E+01  0.86313309666E+01  0.14554974739E+02  0.51100000000E-03 0.  1.
        -11    1    3    3    0    0  0.23234305989E+02  0.95636061097E+01  0.59603002086E+00  0.25132663780E+02  0.51100000000E-03 0. -1.
        -12    1    3    3    0    0 -0.86904005338E+01 -0.16728651816E+02 -0.26809676915E+02  0.32773916905E+02  0.00000000000E+00 0.  1.
</event>
<event>
 7    1  0.3050261E-013  0.7246158E+02  0.7816164E-02  0.1226708E+00
        -11   -1    0    0    0    0  0.00000000000E+00  0.00000000000E+00  0.45593999997E+02  0.45594000000E+02  0.51100000000E-03 0.  1.
         11   -1    0    0    0    0 -0.00000000000E+00 -0.00000000000E+00 -0.45593999997E+02  0.45594000000E+02  0.51100000000E-03 0. -1.
    9900012    2    1    2    0    0 -0.16056874358E+02 -0.27372379674E+01  0.92392153379E+01  0.72461580537E+02  0.70000013343E+02 0.  0.
         12    1    1    2    0    0  0.16056874358E+02  0.27372379674E+01 -0.92392153379E+01  0.18726419463E+02  0.00000000000E+00 0. -1.
         11    1    3    3    0    0 -0.20289859069E+02 -0.26877514935E+01 -0.93593515293E+01  0.22505551547E+02  0.51100000000E-03 0. -1.
        -11    1    3    3    0    0 -0.76519113668E+00  0.22739855218E+02  0.64378797660E+01  0.23645989701E+02  0.51100000000E-03 0.  1.
         12    1    3    3    0    0  0.49981758478E+01 -0.22789341692E+02  0.12160687101E+02  0.26310039288E+02  0.00000000000E+00 0. -1.
</event>
<event>
 7    1  0.3050261E-013  0.7246167E+02  0.7816164E-02  0.1226708E+00
        -11   -1    0    0    0    0  0.00000000000E+00  0.00000000000E+00  0.45593999997E+02  0.45594000000E+02  0.51100000000E-03 0. -1.
         11   -1    0    0    0    0 -0.00000000000E+00 -0.00000000000E+00 -0.45593999997E+02  0.45594000000E+02  0.51100000000E-03 0.  1.
    9900012    2    1    2    0    0  0.10728632356E+02  0.12914733143E+01  0.15293924965E+02  0.72461665698E+02  0.70000124281E+02 0.  0.
         12    1    1    2    0    0 -0.10728632356E+02 -0.12914733143E+01 -0.15293924965E+02  0.18726334302E+02  0.00000000000E+00 0. -1.
         11    1    3    3    0    0 -0.51060464295E+01 -0.17522096657E+01 -0.12587641791E+02  0.13696374519E+02  0.51100000000E-03 0.  1.
        -11    1    3    3    0    0 -0.15317694239E+02 -0.55422132729E+01  0.19448498674E+02  0.25369114799E+02  0.51100000000E-03 0. -1.
         12    1    3    3    0    0  0.31152373024E+02  0.85858962529E+01  0.84330680824E+01  0.33396176380E+02  0.00000000000E+00 0. -1.
</event>
<event>
 7    1  0.3050261E-013  0.7246153E+02  0.7816164E-02  0.1226708E+00
        -11   -1    0    0    0    0  0.00000000000E+00  0.00000000000E+00  0.45593999997E+02  0.45594000000E+02  0.51100000000E-03 0. -1.
         11   -1    0    0    0    0 -0.00000000000E+00 -0.00000000000E+00 -0.45593999997E+02  0.45594000000E+02  0.51100000000E-03 0.  1.
    9900012    2    1    2    0    0  0.37055861761E+01  0.47223478318E+00 -0.18350099231E+02  0.72461534333E+02  0.69999953154E+02 0.  0.
         12    1    1    2    0    0 -0.37055861761E+01 -0.47223478318E+00  0.18350099231E+02  0.18726465667E+02  0.00000000000E+00 0. -1.
         11    1    3    3    0    0  0.22931419495E+02 -0.63301870059E+01 -0.14289894972E+01  0.23831980170E+02  0.51100000000E-03 0. -1.
        -11    1    3    3    0    0 -0.38005870840E+01  0.22221015513E+02 -0.14218083534E+02  0.26652802709E+02  0.51100000000E-03 0.  1.
        -12    1    3    3    0    0 -0.15425246235E+02 -0.15418593724E+02 -0.27030261990E+01  0.21976751454E+02  0.00000000000E+00 0.  1.
</event>
<event>
 7    1  0.3050261E-013  0.7246236E+02  0.7816164E-02  0.1226706E+00
        -11   -1    0    0    0    0  0.00000000000E+00  0.00000000000E+00  0.45593999997E+02  0.45594000000E+02  0.51100000000E-03 0.  1.
         11   -1    0    0    0    0 -0.00000000000E+00 -0.00000000000E+00 -0.45593999997E+02  0.45594000000E+02  0.51100000000E-03 0. -1.
    9900012    2    1    2    0    0 -0.10935576207E+02  0.10882384156E+02  0.10613041574E+02  0.72462355462E+02  0.70001022819E+02 0.  0.
         12    1    1    2    0    0  0.10935576207E+02 -0.10882384156E+02 -0.10613041574E+02  0.18725644538E+02  0.00000000000E+00 0. -1.
         11    1    3    3    0    0  0.12368492440E+02  0.82787085816E+01  0.37750902375E+01  0.15354736324E+02  0.51100000000E-03 0. -1.
        -11    1    3    3    0    0 -0.27461986867E+00 -0.15624401306E+02  0.19614667144E+02  0.25078526665E+02  0.51100000000E-03 0.  1.
         12    1    3    3    0    0 -0.23029448779E+02  0.18228076881E+02 -0.12776715808E+02  0.32029092473E+02  0.00000000000E+00 0. -1.
</event>
<event>
 7    1  0.3050261E-013  0.7246158E+02  0.7816164E-02  0.1226708E+00
        -11   -1    0    0    0    0  0.00000000000E+00  0.00000000000E+00  0.45593999997E+02  0.45594000000E+02  0.51100000000E-03 0.  1.
         11   -1    0    0    0    0 -0.00000000000E+00 -0.00000000000E+00 -0.45593999997E+02  0.45594000000E+02  0.51100000000E-03 0. -1.
    9900012    2    1    2    0    0  0.78209127843E+01  0.92052111680E+00  0.16990137383E+02  0.72461580048E+02  0.70000012706E+02 0.  0.
         12    1    1    2    0    0 -0.78209127843E+01 -0.92052111680E+00 -0.16990137383E+02  0.18726419952E+02  0.00000000000E+00 0. -1.
         11    1    3    3    0    0  0.11492877274E+01  0.27514308875E+02  0.22917997991E+02  0.35827261789E+02  0.51100000000E-03 0. -1.
        -11    1    3    3    0    0 -0.63702187179E+01 -0.10160717900E+00  0.57973772284E+00  0.63973515317E+01  0.51100000000E-03 0.  1.
        -12    1    3    3    0    0  0.13041843775E+02 -0.26492180579E+02 -0.65075983305E+01  0.30236966728E+02  0.00000000000E+00 0.  1.
</event>
<event>
 7    1  0.3050261E-013  0.7246156E+02  0.7816164E-02  0.1226708E+00
        -11   -1    0    0    0    0  0.00000000000E+00  0.00000000000E+00  0.45593999997E+02  0.45594000000E+02  0.51100000000E-03 0.  1.
         11   -1    0    0    0    0 -0.00000000000E+00 -0.00000000000E+00 -0.45593999997E+02  0.45594000000E+02  0.51100000000E-03 0. -1.
    9900012    2    1    2    0    0  0.11332602509E+02 -0.14111922341E+02  0.48068095874E+01  0.72461557461E+02  0.69999983282E+02 0.  0.
         12    1    1    2    0    0 -0.11332602509E+02  0.14111922341E+02 -0.48068095874E+01  0.18726442539E+02  0.00000000000E+00 0. -1.
         11    1    3    3    0    0 -0.11130323238E+02 -0.93106864123E+00  0.15990073694E+02  0.19504703054E+02  0.51100000000E-03 0. -1.
        -11    1    3    3    0    0  0.86174241228E+01 -0.12785418627E+02  0.16141427280E+02  0.22322020582E+02  0.51100000000E-03 0.  1.
         12    1    3    3    0    0  0.13845501624E+02 -0.39543507260E+00 -0.27324691386E+02  0.30634833825E+02  0.00000000000E+00 0. -1.
</event>
<event>
 7    1  0.3050261E-013  0.7246156E+02  0.7816164E-02  0.1226708E+00
        -11   -1    0    0    0    0  0.00000000000E+00  0.00000000000E+00  0.45593999997E+02  0.45594000000E+02  0.51100000000E-03 0.  1.
         11   -1    0    0    0    0 -0.00000000000E+00 -0.00000000000E+00 -0.45593999997E+02  0.45594000000E+02  0.51100000000E-03 0. -1.
    9900012    2    1    2    0    0  0.78931684889E+01 -0.89432396043E+01  0.14435928080E+02  0.72461557120E+02  0.69999982838E+02 0.  0.
         12    1    1    2    0    0 -0.78931684889E+01  0.89432396043E+01 -0.14435928080E+02  0.18726442880E+02  0.00000000000E+00 0. -1.
         11    1    3    3    0    0  0.59121293497E+00 -0.23897206244E+01 -0.14712888978E+02  0.14917419339E+02  0.51100000000E-03 0. -1.
        -11    1    3    3    0    0  0.10216614312E+02 -0.27012183125E+02  0.15473809934E+02  0.32763944196E+02  0.51100000000E-03 0.  1.
        -12    1    3    3    0    0 -0.29146587580E+01  0.20458664145E+02  0.13675007124E+02  0.24780193585E+02  0.00000000000E+00 0.  1.
</event>
<event>
 7    1  0.3050261E-013  0.7246147E+02  0.7816164E-02  0.1226708E+00
        -11   -1    0    0    0    0  0.00000000000E+00  0.00000000000E+00  0.45593999997E+02  0.45594000000E+02  0.51100000000E-03 0. -1.
         11   -1    0    0    0    0 -0.00000000000E+00 -0.00000000000E+00 -0.45593999997E+02  0.45594000000E+02  0.51100000000E-03 0.  1.
    9900012    2    1    2    0    0  0.14930483527E+01  0.59504113084E+01 -0.17693119561E+02  0.72461466206E+02  0.69999864406E+02 0.  0.
         12    1    1    2    0    0 -0.14930483527E+01 -0.59504113084E+01  0.17693119561E+02  0.18726533794E+02  0.00000000000E+00 0. -1.
         11    1    3    3    0    0 -0.11385527192E+02  0.96711359528E+01 -0.75277841881E+01  0.16728079241E+02  0.51100000000E-03 0. -1.
        -11    1    3    3    0    0 -0.15556393004E+02  0.13156940786E+02  0.20624644607E+01  0.20478286404E+02  0.51100000000E-03 0.  1.
        -12    1    3    3    0    0  0.28434968548E+02 -0.16877665431E+02 -0.12227799834E+02  0.35255100560E+02  0.00000000000E+00 0.  1.
</event>
<event>
 7    1  0.3050261E-013  0.7246155E+02  0.7816164E-02  0.1226708E+00
        -11   -1    0    0    0    0  0.00000000000E+00  0.00000000000E+00  0.45593999997E+02  0.45594000000E+02  0.51100000000E-03 0.  1.
         11   -1    0    0    0    0 -0.00000000000E+00 -0.00000000000E+00 -0.45593999997E+02  0.45594000000E+02  0.51100000000E-03 0. -1.
    9900012    2    1    2    0    0 -0.88928115344E+01  0.16356880784E+02 -0.20125181426E+01  0.72461551452E+02  0.69999975454E+02 0.  0.
         12    1    1    2    0    0  0.88928115344E+01 -0.16356880784E+02  0.20125181426E+01  0.18726448548E+02  0.00000000000E+00 0. -1.
         11    1    3    3    0    0  0.23174817636E+02  0.11501837552E+02  0.11478128288E+02  0.28303919672E+02  0.51100000000E-03 0. -1.
        -11    1    3    3    0    0 -0.36201007358E+01  0.11514367005E+02 -0.78593532340E+01  0.14403305536E+02  0.51100000000E-03 0.  1.
        -12    1    3    3    0    0 -0.28447528434E+02 -0.66593237725E+01 -0.56312931968E+01  0.29754326244E+02  0.00000000000E+00 0.  1.
</event>
<event>
 7    1  0.3050261E-013  0.7246142E+02  0.7816164E-02  0.1226708E+00
        -11   -1    0    0    0    0  0.00000000000E+00  0.00000000000E+00  0.45593999997E+02  0.45594000000E+02  0.51100000000E-03 0. -1.
         11   -1    0    0    0    0 -0.00000000000E+00 -0.00000000000E+00 -0.45593999997E+02  0.45594000000E+02  0.51100000000E-03 0.  1.
    9900012    2    1    2    0    0 -0.11187298284E+02  0.60027193309E+01 -0.13765772889E+02  0.72461420347E+02  0.69999804665E+02 0.  0.
         12    1    1    2    0    0  0.11187298284E+02 -0.60027193309E+01  0.13765772889E+02  0.18726579653E+02  0.00000000000E+00 0. -1.
         11    1    3    3    0    0  0.12763661946E+02 -0.26199927999E+01  0.34654399305E+01  0.13482755754E+02  0.51100000000E-03 0. -1.
        -11    1    3    3    0    0 -0.12665362403E+02 -0.17222598881E+02 -0.21657567977E+02  0.30431555464E+02  0.51100000000E-03 0.  1.
        -12    1    3    3    0    0 -0.11285597827E+02  0.25845311012E+02  0.44263551576E+01  0.28547109129E+02  0.00000000000E+00 0.  1.
</event>
<event>
 7    1  0.3050261E-013  0.7246153E+02  0.7816164E-02  0.1226708E+00
        -11   -1    0    0    0    0  0.00000000000E+00  0.00000000000E+00  0.45593999997E+02  0.45594000000E+02  0.51100000000E-03 0.  1.
         11   -1    0    0    0    0 -0.00000000000E+00 -0.00000000000E+00 -0.45593999997E+02  0.45594000000E+02  0.51100000000E-03 0. -1.
    9900012    2    1    2    0    0  0.23745919226E+01 -0.10626204494E+02  0.15235668188E+02  0.72461534933E+02  0.69999953936E+02 0.  0.
         12    1    1    2    0    0 -0.23745919226E+01  0.10626204494E+02 -0.15235668188E+02  0.18726465067E+02  0.00000000000E+00 0. -1.
         11    1    3    3    0    0  0.41439167433E+01  0.90597413964E+01  0.17710534025E+02  0.20320284837E+02  0.51100000000E-03 0. -1.
        -11    1    3    3    0    0  0.10029407558E+02 -0.18507014931E+01  0.19170041165E+02  0.21714156454E+02  0.51100000000E-03 0.  1.
         12    1    3    3    0    0 -0.11798732379E+02 -0.17835244397E+02 -0.21644907001E+02  0.30427093643E+02  0.00000000000E+00 0. -1.
</event>
<event>
 7    1  0.3050261E-013  0.7246159E+02  0.7816164E-02  0.1226708E+00
        -11   -1    0    0    0    0  0.00000000000E+00  0.00000000000E+00  0.45593999997E+02  0.45594000000E+02  0.51100000000E-03 0. -1.
         11   -1    0    0    0    0 -0.00000000000E+00 -0.00000000000E+00 -0.45593999997E+02  0.45594000000E+02  0.51100000000E-03 0.  1.
    9900012    2    1    2    0    0  0.16984553761E+02  0.25062915260E+01  0.74780870237E+01  0.72461592197E+02  0.70000028532E+02 0.  0.
         12    1    1    2    0    0 -0.16984553761E+02 -0.25062915260E+01 -0.74780870237E+01  0.18726407803E+02  0.00000000000E+00 0. -1.
         11    1    3    3    0    0  0.25032119753E+02  0.38570230973E+00  0.10813293357E+02  0.27270553700E+02  0.51100000000E-03 0. -1.
        -11    1    3    3    0    0  0.99837304021E+01  0.15364349640E+02  0.81370621754E+01  0.20048688079E+02  0.51100000000E-03 0.  1.
        -12    1    3    3    0    0 -0.18031296393E+02 -0.13243760423E+02 -0.11472268509E+02  0.25142350418E+02  0.00000000000E+00 0.  1.
</event>
<event>
 7    1  0.3050261E-013  0.7246149E+02  0.7816164E-02  0.1226708E+00
        -11   -1    0    0    0    0  0.00000000000E+00  0.00000000000E+00  0.45593999997E+02  0.45594000000E+02  0.51100000000E-03 0.  1.
         11   -1    0    0    0    0 -0.00000000000E+00 -0.00000000000E+00 -0.45593999997E+02  0.45594000000E+02  0.51100000000E-03 0. -1.
    9900012    2    1    2    0    0 -0.11221724510E+02 -0.68271084023E+01  0.13347120653E+02  0.72461490986E+02  0.69999896686E+02 0.  0.
         12    1    1    2    0    0  0.11221724510E+02  0.68271084023E+01 -0.13347120653E+02  0.18726509014E+02  0.00000000000E+00 0. -1.
         11    1    3    3    0    0  0.10483840595E+02 -0.43042718458E+01 -0.18776335561E+02  0.21931448814E+02  0.51100000000E-03 0. -1.
        -11    1    3    3    0    0  0.69560910047E+01  0.55292578430E+01  0.46958713818E+01  0.10050427984E+02  0.51100000000E-03 0.  1.
        -12    1    3    3    0    0 -0.28661656109E+02 -0.80520943995E+01  0.27427584832E+02  0.40479614189E+02  0.00000000000E+00 0.  1.
</event>
<event>
 7    1  0.3050261E-013  0.7246158E+02  0.7816164E-02  0.1226708E+00
        -11   -1    0    0    0    0  0.00000000000E+00  0.00000000000E+00  0.45593999997E+02  0.45594000000E+02  0.51100000000E-03 0. -1.
         11   -1    0    0    0    0 -0.00000000000E+00 -0.00000000000E+00 -0.45593999997E+02  0.45594000000E+02  0.51100000000E-03 0.  1.
    9900012    2    1    2    0    0  0.75259748392E+01  0.14149185868E+02 -0.96870467861E+01  0.72461584608E+02  0.70000018646E+02 0.  0.
         12    1    1    2    0    0 -0.75259748392E+01 -0.14149185868E+02  0.96870467861E+01  0.18726415392E+02  0.00000000000E+00 0. -1.
         11    1    3    3    0    0  0.12279387517E+02 -0.62897376470E+01 -0.47330354119E+01  0.14585807551E+02  0.51100000000E-03 0. -1.
        -11    1    3    3    0    0  0.18905658498E+02  0.62316822140E+01 -0.18462466134E+02  0.27149962108E+02  0.51100000000E-03 0.  1.
         12    1    3    3    0    0 -0.23659071175E+02  0.14207241301E+02  0.13508454760E+02  0.30725814949E+02  0.00000000000E+00 0. -1.
</event>
<event>
 7    1  0.3050261E-013  0.7246155E+02  0.7816164E-02  0.1226708E+00
        -11   -1    0    0    0    0  0.00000000000E+00  0.00000000000E+00  0.45593999997E+02  0.45594000000E+02  0.51100000000E-03 0.  1.
         11   -1    0    0    0    0 -0.00000000000E+00 -0.00000000000E+00 -0.45593999997E+02  0.45594000000E+02  0.51100000000E-03 0. -1.
    9900012    2    1    2    0    0 -0.78624491706E+01 -0.35717321247E+01  0.16616390277E+02  0.72461553376E+02  0.69999977960E+02 0.  0.
         12    1    1    2    0    0  0.78624491706E+01  0.35717321247E+01 -0.16616390277E+02  0.18726446624E+02  0.00000000000E+00 0. -1.
         11    1    3    3    0    0 -0.99136895283E+01  0.10130625917E+02  0.12110631231E+02  0.18643449537E+02  0.51100000000E-03 0. -1.
        -11    1    3    3    0    0  0.90914790365E+01  0.50829813245E+01  0.23803003696E+02  0.25982199204E+02  0.51100000000E-03 0.  1.
         12    1    3    3    0    0 -0.70402386787E+01 -0.18785339367E+02 -0.19297244651E+02  0.27835904636E+02  0.00000000000E+00 0. -1.
</event>
<event>
 7    1  0.3050261E-013  0.7246145E+02  0.7816164E-02  0.1226708E+00
        -11   -1    0    0    0    0  0.00000000000E+00  0.00000000000E+00  0.45593999997E+02  0.45594000000E+02  0.51100000000E-03 0.  1.
         11   -1    0    0    0    0 -0.00000000000E+00 -0.00000000000E+00 -0.45593999997E+02  0.45594000000E+02  0.51100000000E-03 0. -1.
    9900012    2    1    2    0    0  0.12952099947E+02 -0.93758238970E+01 -0.97478531428E+01  0.72461451795E+02  0.69999845632E+02 0.  0.
         12    1    1    2    0    0 -0.12952099947E+02  0.93758238970E+01  0.97478531428E+01  0.18726548205E+02  0.00000000000E+00 0. -1.
         11    1    3    3    0    0  0.82528585745E+01 -0.18399039601E+02  0.82164052892E+00  0.20181908391E+02  0.51100000000E-03 0. -1.
        -11    1    3    3    0    0 -0.22262309387E+02  0.45024284580E+01  0.66607307509E+00  0.22722806492E+02  0.51100000000E-03 0.  1.
         12    1    3    3    0    0  0.26961550760E+02  0.45207872459E+01 -0.11235566747E+02  0.29556736911E+02  0.00000000000E+00 0. -1.
</event>
<event>
 7    1  0.3050261E-013  0.7246157E+02  0.7816164E-02  0.1226708E+00
        -11   -1    0    0    0    0  0.00000000000E+00  0.00000000000E+00  0.45593999997E+02  0.45594000000E+02  0.51100000000E-03 0. -1.
         11   -1    0    0    0    0 -0.00000000000E+00 -0.00000000000E+00 -0.45593999997E+02  0.45594000000E+02  0.51100000000E-03 0.  1.
    9900012    2    1    2    0    0 -0.10278230113E+02  0.13058404670E+02  0.86322205702E+01  0.72461570048E+02  0.69999999679E+02 0.  0.
         12    1    1    2    0    0  0.10278230113E+02 -0.13058404670E+02 -0.86322205702E+01  0.18726429952E+02  0.00000000000E+00 0. -1.
         11    1    3    3    0    0  0.11089445683E+02  0.88724429592E+01  0.70204020316E+01  0.15842414417E+02  0.51100000000E-03 0. -1.
        -11    1    3    3    0    0  0.17188228771E+02  0.33599101468E+00  0.44795259856E+01  0.17765535499E+02  0.51100000000E-03 0.  1.
         12    1    3    3    0    0 -0.38555904567E+02  0.38499706960E+01 -0.28677074471E+01  0.38853620132E+02  0.00000000000E+00 0. -1.
</event>
<event>
 7    1  0.3050261E-013  0.7246156E+02  0.7816164E-02  0.1226708E+00
        -11   -1    0    0    0    0  0.00000000000E+00  0.00000000000E+00  0.45593999997E+02  0.45594000000E+02  0.51100000000E-03 0.  1.
         11   -1    0    0    0    0 -0.00000000000E+00 -0.00000000000E+00 -0.45593999997E+02  0.45594000000E+02  0.51100000000E-03 0. -1.
    9900012    2    1    2    0    0 -0.29910769631E+01 -0.14750847544E+02  0.11142052923E+02  0.72461564461E+02  0.69999992401E+02 0.  0.
         12    1    1    2    0    0  0.29910769631E+01  0.14750847544E+02 -0.11142052923E+02  0.18726435539E+02  0.00000000000E+00 0. -1.
         11    1    3    3    0    0  0.21081128902E+02  0.86139037027E+01  0.11790955793E+02  0.25644492032E+02  0.51100000000E-03 0. -1.
        -11    1    3    3    0    0  0.38361470663E+01 -0.59550538707E+00  0.87672904236E+01  0.95883279362E+01  0.51100000000E-03 0.  1.
        -12    1    3    3    0    0 -0.27908352931E+02 -0.22769245860E+02 -0.94161932945E+01  0.37228744493E+02  0.00000000000E+00 0.  1.
</event>
<event>
 7    1  0.3050261E-013  0.7246154E+02  0.7816164E-02  0.1226708E+00
        -11   -1    0    0    0    0  0.00000000000E+00  0.00000000000E+00  0.45593999997E+02  0.45594000000E+02  0.51100000000E-03 0. -1.
         11   -1    0    0    0    0 -0.00000000000E+00 -0.00000000000E+00 -0.45593999997E+02  0.45594000000E+02  0.51100000000E-03 0.  1.
    9900012    2    1    2    0    0  0.18364570005E+02 -0.35696320004E+01 -0.82489447066E+00  0.72461543982E+02  0.69999965724E+02 0.  0.
         12    1    1    2    0    0 -0.18364570005E+02  0.35696320004E+01  0.82489447066E+00  0.18726456018E+02  0.00000000000E+00 0. -1.
         11    1    3    3    0    0  0.10240588882E+02  0.18728249338E+01 -0.66533144245E+01  0.12354907000E+02  0.51100000000E-03 0. -1.
        -11    1    3    3    0    0  0.12804029128E+02  0.20770315366E+02 -0.12854496937E+02  0.27578746419E+02  0.51100000000E-03 0.  1.
         12    1    3    3    0    0 -0.46800480048E+01 -0.26212772300E+02  0.18682916890E+02  0.32527890563E+02  0.00000000000E+00 0. -1.
</event>
<event>
 7    1  0.3050261E-013  0.7246153E+02  0.7816164E-02  0.1226708E+00
        -11   -1    0    0    0    0  0.00000000000E+00  0.00000000000E+00  0.45593999997E+02  0.45594000000E+02  0.51100000000E-03 0.  1.
         11   -1    0    0    0    0 -0.00000000000E+00 -0.00000000000E+00 -0.45593999997E+02  0.45594000000E+02  0.51100000000E-03 0. -1.
    9900012    2    1    2    0    0 -0.77999387394E+01 -0.11016857411E+02 -0.12979616806E+02  0.72461530926E+02  0.69999948715E+02 0.  0.
         12    1    1    2    0    0  0.77999387394E+01  0.11016857411E+02  0.12979616806E+02  0.18726469074E+02  0.00000000000E+00 0. -1.
         11    1    3    3    0    0  0.15359509488E+01  0.21183822253E+02 -0.36936916759E+01  0.21558219523E+02  0.51100000000E-03 0. -1.
        -11    1    3    3    0    0  0.48677174870E+01  0.46212758575E+01  0.55814039461E+01  0.87294292113E+01  0.51100000000E-03 0.  1.
        -12    1    3    3    0    0 -0.14203607175E+02 -0.36821955522E+02 -0.14867329076E+02  0.42173882191E+02  0.00000000000E+00 0.  1.
</event>
<event>
 7    1  0.3050261E-013  0.7246161E+02  0.7816164E-02  0.1226708E+00
        -11   -1    0    0    0    0  0.00000000000E+00  0.00000000000E+00  0.45593999997E+02  0.45594000000E+02  0.51100000000E-03 0.  1.
         11   -1    0    0    0    0 -0.00000000000E+00 -0.00000000000E+00 -0.45593999997E+02  0.45594000000E+02  0.51100000000E-03 0. -1.
    9900012    2    1    2    0    0 -0.17727513941E+02  0.60048824300E+01  0.59538184526E+00  0.72461605711E+02  0.70000046136E+02 0.  0.
         12    1    1    2    0    0  0.17727513941E+02 -0.60048824300E+01 -0.59538184526E+00  0.18726394289E+02  0.00000000000E+00 0. -1.
         11    1    3    3    0    0 -0.18425444140E+02  0.15908416866E+02 -0.15139969359E+02  0.28666938996E+02  0.51100000000E-03 0. -1.
        -11    1    3    3    0    0  0.74116435769E+00 -0.48919754135E+01 -0.13372510628E+02  0.14258498827E+02  0.51100000000E-03 0.  1.
        -12    1    3    3    0    0 -0.43234158606E-01 -0.50115590228E+01  0.29107861832E+02  0.29536167887E+02  0.00000000000E+00 0.  1.
</event>
<event>
 7    1  0.3050261E-013  0.7246156E+02  0.7816164E-02  0.1226708E+00
        -11   -1    0    0    0    0  0.00000000000E+00  0.00000000000E+00  0.45593999997E+02  0.45594000000E+02  0.51100000000E-03 0.  1.
         11   -1    0    0    0    0 -0.00000000000E+00 -0.00000000000E+00 -0.45593999997E+02  0.45594000000E+02  0.51100000000E-03 0. -1.
    9900012    2    1    2    0    0  0.11314520350E+02 -0.14598100365E+02 -0.30913923774E+01  0.72461558484E+02  0.69999984615E+02 0.  0.
         12    1    1    2    0    0 -0.11314520350E+02  0.14598100365E+02  0.30913923774E+01  0.18726441516E+02  0.00000000000E+00 0. -1.
         11    1    3    3    0    0 -0.13277398365E+02  0.76796599314E+01 -0.22556039260E+00  0.15340057424E+02  0.51100000000E-03 0. -1.
        -11    1    3    3    0    0 -0.25419020687E+01  0.12291151165E+02 -0.39622133719E+01  0.13161793121E+02  0.51100000000E-03 0.  1.
        -12    1    3    3    0    0  0.27133820783E+02 -0.34568911462E+02  0.10963813871E+01  0.43959707939E+02  0.00000000000E+00 0.  1.
</event>
<event>
 7    1  0.3050261E-013  0.7246158E+02  0.7816164E-02  0.1226708E+00
        -11   -1    0    0    0    0  0.00000000000E+00  0.00000000000E+00  0.45593999997E+02  0.45594000000E+02  0.51100000000E-03 0. -1.
         11   -1    0    0    0    0 -0.00000000000E+00 -0.00000000000E+00 -0.45593999997E+02  0.45594000000E+02  0.51100000000E-03 0.  1.
    9900012    2    1    2    0    0 -0.88922781711E+01 -0.50690151661E+01 -0.15681554491E+02  0.72461583443E+02  0.70000017128E+02 0.  0.
         12    1    1    2    0    0  0.88922781711E+01  0.50690151661E+01  0.15681554491E+02  0.18726416557E+02  0.00000000000E+00 0. -1.
         11    1    3    3    0    0  0.64012388181E+01  0.50907668648E+01  0.85025361919E+01  0.11797664499E+02  0.51100000000E-03 0. -1.
        -11    1    3    3    0    0 -0.22782203100E+02  0.14611350174E+02 -0.30196350467E+01  0.27233041110E+02  0.51100000000E-03 0.  1.
        -12    1    3    3    0    0  0.74886861110E+01 -0.24771132205E+02 -0.21164455636E+02  0.33430877834E+02  0.00000000000E+00 0.  1.
</event>
<event>
 7    1  0.3050261E-013  0.7246184E+02  0.7816164E-02  0.1226707E+00
        -11   -1    0    0    0    0  0.00000000000E+00  0.00000000000E+00  0.45593999997E+02  0.45594000000E+02  0.51100000000E-03 0.  1.
         11   -1    0    0    0    0 -0.00000000000E+00 -0.00000000000E+00 -0.45593999997E+02  0.45594000000E+02  0.51100000000E-03 0. -1.
    9900012    2    1    2    0    0 -0.51254476590E+01 -0.17303303854E+02 -0.49994496194E+01  0.72461840904E+02  0.70000352519E+02 0.  0.
         12    1    1    2    0    0  0.51254476590E+01  0.17303303854E+02  0.49994496194E+01  0.18726159096E+02  0.00000000000E+00 0. -1.
         11    1    3    3    0    0 -0.62677115562E+01 -0.55174914132E+01  0.19021541875E+01  0.85641759943E+01  0.51100000000E-03 0. -1.
        -11    1    3    3    0    0 -0.60074795991E+01 -0.36228774059E+02 -0.10457549143E+02  0.38183428543E+02  0.51100000000E-03 0.  1.
         12    1    3    3    0    0  0.71497434963E+01  0.24442961618E+02  0.35559453357E+01  0.25714236367E+02  0.00000000000E+00 0. -1.
</event>
<event>
 7    1  0.3050261E-013  0.7246160E+02  0.7816164E-02  0.1226708E+00
        -11   -1    0    0    0    0  0.00000000000E+00  0.00000000000E+00  0.45593999997E+02  0.45594000000E+02  0.51100000000E-03 0. -1.
         11   -1    0    0    0    0 -0.00000000000E+00 -0.00000000000E+00 -0.45593999997E+02  0.45594000000E+02  0.51100000000E-03 0.  1.
    9900012    2    1    2    0    0 -0.15139886493E+02 -0.10973774721E+02 -0.10189279667E+01  0.72461598615E+02  0.70000036893E+02 0.  0.
         12    1    1    2    0    0  0.15139886493E+02  0.10973774721E+02  0.10189279667E+01  0.18726401385E+02  0.00000000000E+00 0. -1.
         11    1    3    3    0    0 -0.21550714318E+02 -0.12747602361E+02  0.15025583943E+02  0.29201075779E+02  0.51100000000E-03 0. -1.
        -11    1    3    3    0    0  0.14242520619E+02 -0.54561227131E+01  0.78084289041E+01  0.17134474922E+02  0.51100000000E-03 0.  1.
        -12    1    3    3    0    0 -0.78316927941E+01  0.72299503531E+01 -0.23852940814E+02  0.26126047914E+02  0.00000000000E+00 0.  1.
</event>
<event>
 7    1  0.3050261E-013  0.7246154E+02  0.7816164E-02  0.1226708E+00
        -11   -1    0    0    0    0  0.00000000000E+00  0.00000000000E+00  0.45593999997E+02  0.45594000000E+02  0.51100000000E-03 0. -1.
         11   -1    0    0    0    0 -0.00000000000E+00 -0.00000000000E+00 -0.45593999997E+02  0.45594000000E+02  0.51100000000E-03 0.  1.
    9900012    2    1    2    0    0 -0.10365524614E+02  0.30953585411E+01 -0.15285770353E+02  0.72461544909E+02  0.69999966931E+02 0.  0.
         12    1    1    2    0    0  0.10365524614E+02 -0.30953585411E+01  0.15285770353E+02  0.18726455091E+02  0.00000000000E+00 0. -1.
         11    1    3    3    0    0 -0.11090748085E+02 -0.21788993904E+02 -0.89436839792E+01  0.26033717211E+02  0.51100000000E-03 0. -1.
        -11    1    3    3    0    0 -0.11297488831E+02 -0.82443508005E-01 -0.13699326185E+02  0.17757015206E+02  0.51100000000E-03 0.  1.
         12    1    3    3    0    0  0.12022712303E+02  0.24966795953E+02  0.73572398119E+01  0.28670812492E+02  0.00000000000E+00 0. -1.
</event>
<event>
 7    1  0.3050261E-013  0.7246157E+02  0.7816164E-02  0.1226708E+00
        -11   -1    0    0    0    0  0.00000000000E+00  0.00000000000E+00  0.45593999997E+02  0.45594000000E+02  0.51100000000E-03 0. -1.
         11   -1    0    0    0    0 -0.00000000000E+00 -0.00000000000E+00 -0.45593999997E+02  0.45594000000E+02  0.51100000000E-03 0.  1.
    9900012    2    1    2    0    0  0.31198508450E+01  0.52638519499E+01 -0.17698522158E+02  0.72461566992E+02  0.69999995697E+02 0.  0.
         12    1    1    2    0    0 -0.31198508450E+01 -0.52638519499E+01  0.17698522158E+02  0.18726433008E+02  0.00000000000E+00 0. -1.
         11    1    3    3    0    0 -0.11814624529E+01 -0.10662871836E+02 -0.11984797628E+02  0.16085026073E+02  0.51100000000E-03 0. -1.
        -11    1    3    3    0    0 -0.85626152368E+01 -0.17510159247E+02  0.24126889376E+01  0.19640395228E+02  0.51100000000E-03 0.  1.
        -12    1    3    3    0    0  0.12863928535E+02  0.33436883033E+02 -0.81264134674E+01  0.36736145690E+02  0.00000000000E+00 0.  1.
</event>
<event>
 7    1  0.3050261E-013  0.7246157E+02  0.7816164E-02  0.1226708E+00
        -11   -1    0    0    0    0  0.00000000000E+00  0.00000000000E+00  0.45593999997E+02  0.45594000000E+02  0.51100000000E-03 0.  1.
         11   -1    0    0    0    0 -0.00000000000E+00 -0.00000000000E+00 -0.45593999997E+02  0.45594000000E+02  0.51100000000E-03 0. -1.
    9900012    2    1    2    0    0  0.13892208922E+02  0.31813850135E+01  0.12147608397E+02  0.72461572976E+02  0.70000003493E+02 0.  0.
         12    1    1    2    0    0 -0.13892208922E+02 -0.31813850135E+01 -0.12147608397E+02  0.18726427024E+02  0.00000000000E+00 0. -1.
         11    1    3    3    0    0  0.10349812195E+02 -0.16537777293E+02 -0.12481100230E+02  0.23160193295E+02  0.51100000000E-03 0. -1.
        -11    1    3    3    0    0  0.19275849607E+02  0.86807851594E+01  0.47831673034E+01  0.21674711043E+02  0.51100000000E-03 0.  1.
        -12    1    3    3    0    0 -0.15733452880E+02  0.11038377147E+02  0.19845541324E+02  0.27626668638E+02  0.00000000000E+00 0.  1.
</event>
<event>
 7    1  0.3050261E-013  0.7246157E+02  0.7816164E-02  0.1226708E+00
        -11   -1    0    0    0    0  0.00000000000E+00  0.00000000000E+00  0.45593999997E+02  0.45594000000E+02  0.51100000000E-03 0. -1.
         11   -1    0    0    0    0 -0.00000000000E+00 -0.00000000000E+00 -0.45593999997E+02  0.45594000000E+02  0.51100000000E-03 0.  1.
    9900012    2    1    2    0    0 -0.95765261175E+01 -0.15863859854E+02  0.27031817709E+01  0.72461572321E+02  0.70000002640E+02 0.  0.
         12    1    1    2    0    0  0.95765261175E+01  0.15863859854E+02 -0.27031817709E+01  0.18726427679E+02  0.00000000000E+00 0. -1.
         11    1    3    3    0    0  0.48793757587E+01 -0.17475096456E+02 -0.22097721839E+02  0.28591897710E+02  0.51100000000E-03 0. -1.
        -11    1    3    3    0    0 -0.24904085958E+02 -0.20886057082E+01  0.15566301302E+02  0.29442919483E+02  0.51100000000E-03 0.  1.
         12    1    3    3    0    0  0.10448184082E+02  0.36998423105E+01  0.92346023075E+01  0.14426755127E+02  0.00000000000E+00 0. -1.
</event>
<event>
 7    1  0.3050261E-013  0.7246157E+02  0.7816164E-02  0.1226708E+00
        -11   -1    0    0    0    0  0.00000000000E+00  0.00000000000E+00  0.45593999997E+02  0.45594000000E+02  0.51100000000E-03 0. -1.
         11   -1    0    0    0    0 -0.00000000000E+00 -0.00000000000E+00 -0.45593999997E+02  0.45594000000E+02  0.51100000000E-03 0.  1.
    9900012    2    1    2    0    0 -0.23741790678E+01  0.49664581709E+01 -0.17899069840E+02  0.72461571239E+02  0.70000001230E+02 0.  0.
         12    1    1    2    0    0  0.23741790678E+01 -0.49664581709E+01  0.17899069840E+02  0.18726428761E+02  0.00000000000E+00 0. -1.
         11    1    3    3    0    0  0.71213652170E+01  0.14201467723E+02  0.54219191310E+01  0.16786683275E+02  0.51100000000E-03 0. -1.
        -11    1    3    3    0    0 -0.64122678041E+01 -0.98902640322E+01  0.13954458078E+02  0.18266400892E+02  0.51100000000E-03 0.  1.
        -12    1    3    3    0    0 -0.30832764806E+01  0.65525448008E+00 -0.37275447049E+02  0.37408487072E+02  0.00000000000E+00 0.  1.
</event>
<event>
 7    1  0.3050261E-013  0.7246157E+02  0.7816164E-02  0.1226708E+00
        -11   -1    0    0    0    0  0.00000000000E+00  0.00000000000E+00  0.45593999997E+02  0.45594000000E+02  0.51100000000E-03 0.  1.
         11   -1    0    0    0    0 -0.00000000000E+00 -0.00000000000E+00 -0.45593999997E+02  0.45594000000E+02  0.51100000000E-03 0. -1.
    9900012    2    1    2    0    0  0.67741027415E+01  0.14979095646E+02 -0.89675731688E+01  0.72461571006E+02  0.70000000927E+02 0.  0.
         12    1    1    2    0    0 -0.67741027415E+01 -0.14979095646E+02  0.89675731688E+01  0.18726428994E+02  0.00000000000E+00 0. -1.
         11    1    3    3    0    0  0.20303695859E+02  0.14064108889E+02 -0.29513593603E+02  0.38484950721E+02  0.51100000000E-03 0. -1.
        -11    1    3    3    0    0 -0.13032824798E+02  0.10624492449E+02  0.97039598151E+01  0.19413943401E+02  0.51100000000E-03 0.  1.
        -12    1    3    3    0    0 -0.49676831932E+00 -0.97095056925E+01  0.10842060619E+02  0.14562676884E+02  0.00000000000E+00 0.  1.
</event>
<event>
 7    1  0.3050261E-013  0.7246154E+02  0.7816164E-02  0.1226708E+00
        -11   -1    0    0    0    0  0.00000000000E+00  0.00000000000E+00  0.45593999997E+02  0.45594000000E+02  0.51100000000E-03 0.  1.
         11   -1    0    0    0    0 -0.00000000000E+00 -0.00000000000E+00 -0.45593999997E+02  0.45594000000E+02  0.51100000000E-03 0. -1.
    9900012    2    1    2    0    0 -0.17506609245E+01  0.18192791520E+02 -0.40789542689E+01  0.72461538911E+02  0.69999959118E+02 0.  0.
         12    1    1    2    0    0  0.17506609245E+01 -0.18192791520E+02  0.40789542689E+01  0.18726461089E+02  0.00000000000E+00 0. -1.
         11    1    3    3    0    0 -0.45384750996E+01 -0.32838293876E+01  0.10426143102E+02  0.11835782692E+02  0.51100000000E-03 0. -1.
        -11    1    3    3    0    0  0.75274085730E+01  0.21481086191E+01  0.19618703848E+02  0.21122731627E+02  0.51100000000E-03 0.  1.
         12    1    3    3    0    0 -0.47395943979E+01  0.19328512289E+02 -0.34123801219E+02  0.39503024593E+02  0.00000000000E+00 0. -1.
</event>
<event>
 7    1  0.3050261E-013  0.7246161E+02  0.7816164E-02  0.1226708E+00
        -11   -1    0    0    0    0  0.00000000000E+00  0.00000000000E+00  0.45593999997E+02  0.45594000000E+02  0.51100000000E-03 0.  1.
         11   -1    0    0    0    0 -0.00000000000E+00 -0.00000000000E+00 -0.45593999997E+02  0.45594000000E+02  0.51100000000E-03 0. -1.
    9900012    2    1    2    0    0 -0.17417416009E+02  0.58787515209E+01  0.35709456737E+01  0.72461608119E+02  0.70000049274E+02 0.  0.
         12    1    1    2    0    0  0.17417416009E+02 -0.58787515209E+01 -0.35709456737E+01  0.18726391881E+02  0.00000000000E+00 0. -1.
         11    1    3    3    0    0 -0.49877271894E+01 -0.52802678152E+01 -0.22077768719E+02  0.23241913058E+02  0.51100000000E-03 0. -1.
        -11    1    3    3    0    0 -0.98456693010E+01 -0.14168040380E+01 -0.82805581032E+01  0.12942649668E+02  0.51100000000E-03 0.  1.
        -12    1    3    3    0    0 -0.25840195186E+01  0.12575823374E+02  0.33929272496E+02  0.36277045394E+02  0.00000000000E+00 0.  1.
</event>
<event>
 7    1  0.3050261E-013  0.7246157E+02  0.7816164E-02  0.1226708E+00
        -11   -1    0    0    0    0  0.00000000000E+00  0.00000000000E+00  0.45593999997E+02  0.45594000000E+02  0.51100000000E-03 0.  1.
         11   -1    0    0    0    0 -0.00000000000E+00 -0.00000000000E+00 -0.45593999997E+02  0.45594000000E+02  0.51100000000E-03 0. -1.
    9900012    2    1    2    0    0 -0.93482814231E+01  0.86757507077E+01  0.13712045816E+02  0.72461569043E+02  0.69999998370E+02 0.  0.
         12    1    1    2    0    0  0.93482814231E+01 -0.86757507077E+01 -0.13712045816E+02  0.18726430957E+02  0.00000000000E+00 0. -1.
         11    1    3    3    0    0 -0.33070148668E+02  0.29610302933E+01 -0.28795212108E+01  0.33327077219E+02  0.51100000000E-03 0. -1.
        -11    1    3    3    0    0 -0.37786251426E+01  0.25615987292E+01  0.95305011413E+01  0.10567414456E+02  0.51100000000E-03 0.  1.
        -12    1    3    3    0    0  0.27500492387E+02  0.31531216852E+01  0.70610658860E+01  0.28567077368E+02  0.00000000000E+00 0.  1.
</event>
<event>
 7    1  0.3050261E-013  0.7246157E+02  0.7816164E-02  0.1226708E+00
        -11   -1    0    0    0    0  0.00000000000E+00  0.00000000000E+00  0.45593999997E+02  0.45594000000E+02  0.51100000000E-03 0. -1.
         11   -1    0    0    0    0 -0.00000000000E+00 -0.00000000000E+00 -0.45593999997E+02  0.45594000000E+02  0.51100000000E-03 0.  1.
    9900012    2    1    2    0    0 -0.14809887599E+02  0.97545048562E+01 -0.60163263367E+01  0.72461566323E+02  0.69999994826E+02 0.  0.
         12    1    1    2    0    0  0.14809887599E+02 -0.97545048562E+01  0.60163263367E+01  0.18726433677E+02  0.00000000000E+00 0. -1.
         11    1    3    3    0    0 -0.18567037515E+02 -0.13668363737E+02 -0.42085230164E+01  0.23436525246E+02  0.51100000000E-03 0.  1.
        -11    1    3    3    0    0  0.13862523496E+02 -0.83117375861E+00 -0.14298155064E+02  0.19932326658E+02  0.51100000000E-03 0. -1.
         12    1    3    3    0    0 -0.10105373579E+02  0.24254042352E+02  0.12490351744E+02  0.29092714419E+02  0.00000000000E+00 0. -1.
</event>
<event>
 7    1  0.3050261E-013  0.7246174E+02  0.7816164E-02  0.1226708E+00
        -11   -1    0    0    0    0  0.00000000000E+00  0.00000000000E+00  0.45593999997E+02  0.45594000000E+02  0.51100000000E-03 0. -1.
         11   -1    0    0    0    0 -0.00000000000E+00 -0.00000000000E+00 -0.45593999997E+02  0.45594000000E+02  0.51100000000E-03 0.  1.
    9900012    2    1    2    0    0 -0.47079370733E+01  0.14333827974E+01 -0.18068026455E+02  0.72461739356E+02  0.70000220234E+02 0.  0.
         12    1    1    2    0    0  0.47079370733E+01 -0.14333827974E+01  0.18068026455E+02  0.18726260644E+02  0.00000000000E+00 0. -1.
         11    1    3    3    0    0 -0.28947638153E+01  0.34554301945E+00  0.39440347516E+01  0.49045354426E+01  0.51100000000E-03 0. -1.
        -11    1    3    3    0    0 -0.27310117347E+02 -0.15630296905E+02 -0.19377253532E+02  0.36954386012E+02  0.51100000000E-03 0.  1.
         12    1    3    3    0    0  0.25496944089E+02  0.16718136683E+02 -0.26348076738E+01  0.30602817901E+02  0.00000000000E+00 0. -1.
</event>
<event>
 7    1  0.3050261E-013  0.7246155E+02  0.7816164E-02  0.1226708E+00
        -11   -1    0    0    0    0  0.00000000000E+00  0.00000000000E+00  0.45593999997E+02  0.45594000000E+02  0.51100000000E-03 0. -1.
         11   -1    0    0    0    0 -0.00000000000E+00 -0.00000000000E+00 -0.45593999997E+02  0.45594000000E+02  0.51100000000E-03 0.  1.
    9900012    2    1    2    0    0 -0.27291585578E+01 -0.85009264102E+00 -0.18507002710E+02  0.72461545097E+02  0.69999967176E+02 0.  0.
         12    1    1    2    0    0  0.27291585578E+01  0.85009264102E+00  0.18507002710E+02  0.18726454903E+02  0.00000000000E+00 0. -1.
         11    1    3    3    0    0  0.76420654379E+01  0.79715852139E+01  0.13182640781E+02  0.17196783222E+02  0.51100000000E-03 0. -1.
        -11    1    3    3    0    0 -0.31669310792E+01  0.10055240084E+02  0.62677899131E+01  0.12264684923E+02  0.51100000000E-03 0.  1.
        -12    1    3    3    0    0 -0.72042929165E+01 -0.18876917939E+02 -0.37957433404E+02  0.43000076952E+02  0.00000000000E+00 0.  1.
</event>
<event>
 7    1  0.3050261E-013  0.7246158E+02  0.7816164E-02  0.1226708E+00
        -11   -1    0    0    0    0  0.00000000000E+00  0.00000000000E+00  0.45593999997E+02  0.45594000000E+02  0.51100000000E-03 0.  1.
         11   -1    0    0    0    0 -0.00000000000E+00 -0.00000000000E+00 -0.45593999997E+02  0.45594000000E+02  0.51100000000E-03 0. -1.
    9900012    2    1    2    0    0 -0.34102527538E+01  0.96734292369E+01  0.15667603454E+02  0.72461578691E+02  0.70000010938E+02 0.  0.
         12    1    1    2    0    0  0.34102527538E+01 -0.96734292369E+01 -0.15667603454E+02  0.18726421309E+02  0.00000000000E+00 0. -1.
         11    1    3    3    0    0  0.24643641645E+02  0.59926590761E+00 -0.71993120238E+00  0.24661437394E+02  0.51100000000E-03 0. -1.
        -11    1    3    3    0    0 -0.16474121014E+01 -0.42120604976E+00  0.19493010360E+02  0.19567034377E+02  0.51100000000E-03 0.  1.
        -12    1    3    3    0    0 -0.26406482297E+02  0.94953693790E+01 -0.31054757033E+01  0.28233106919E+02  0.00000000000E+00 0.  1.
</event>
<event>
 7    1  0.3050261E-013  0.7246156E+02  0.7816164E-02  0.1226708E+00
        -11   -1    0    0    0    0  0.00000000000E+00  0.00000000000E+00  0.45593999997E+02  0.45594000000E+02  0.51100000000E-03 0.  1.
         11   -1    0    0    0    0 -0.00000000000E+00 -0.00000000000E+00 -0.45593999997E+02  0.45594000000E+02  0.51100000000E-03 0. -1.
    9900012    2    1    2    0    0 -0.13168849147E+02 -0.97535996218E+01  0.90624617125E+01  0.72461561317E+02  0.69999988306E+02 0.  0.
         12    1    1    2    0    0  0.13168849147E+02  0.97535996218E+01 -0.90624617125E+01  0.18726438683E+02  0.00000000000E+00 0. -1.
         11    1    3    3    0    0 -0.79560862549E+01 -0.14274490870E+02  0.37778178821E+00  0.16346348749E+02  0.51100000000E-03 0. -1.
        -11    1    3    3    0    0  0.22594319016E+02 -0.91566077354E+01  0.24155241022E+01  0.24498601469E+02  0.51100000000E-03 0.  1.
        -12    1    3    3    0    0 -0.27807081908E+02  0.13677498983E+02  0.62691558221E+01  0.31616611099E+02  0.00000000000E+00 0.  1.
</event>
<event>
 7    1  0.3050261E-013  0.7246148E+02  0.7816164E-02  0.1226708E+00
        -11   -1    0    0    0    0  0.00000000000E+00  0.00000000000E+00  0.45593999997E+02  0.45594000000E+02  0.51100000000E-03 0.  1.
         11   -1    0    0    0    0 -0.00000000000E+00 -0.00000000000E+00 -0.45593999997E+02  0.45594000000E+02  0.51100000000E-03 0. -1.
    9900012    2    1    2    0    0  0.27979469560E+01  0.13447434137E+01  0.18467422231E+02  0.72461480679E+02  0.69999883259E+02 0.  0.
         12    1    1    2    0    0 -0.27979469560E+01 -0.13447434137E+01 -0.18467422231E+02  0.18726519321E+02  0.00000000000E+00 0. -1.
         11    1    3    3    0    0 -0.38708708210E+01  0.88556079925E+01  0.17704693093E+02  0.20170810385E+02  0.51100000000E-03 0. -1.
        -11    1    3    3    0    0 -0.74796801123E+01 -0.23047911098E+01  0.23634773711E+02  0.24896991892E+02  0.51100000000E-03 0.  1.
        -12    1    3    3    0    0  0.14148497889E+02 -0.52060734691E+01 -0.22872044572E+02  0.27393678402E+02  0.00000000000E+00 0.  1.
</event>
<event>
 7    1  0.3050261E-013  0.7246156E+02  0.7816164E-02  0.1226708E+00
        -11   -1    0    0    0    0  0.00000000000E+00  0.00000000000E+00  0.45593999997E+02  0.45594000000E+02  0.51100000000E-03 0. -1.
         11   -1    0    0    0    0 -0.00000000000E+00 -0.00000000000E+00 -0.45593999997E+02  0.45594000000E+02  0.51100000000E-03 0.  1.
    9900012    2    1    2    0    0  0.54477917619E+01 -0.75872705903E+01  0.16230662800E+02  0.72461560803E+02  0.69999987635E+02 0.  0.
         12    1    1    2    0    0 -0.54477917619E+01  0.75872705903E+01 -0.16230662800E+02  0.18726439197E+02  0.00000000000E+00 0. -1.
         11    1    3    3    0    0 -0.13043672414E+02  0.12459453030E+02 -0.10667925376E+00  0.18038479442E+02  0.51100000000E-03 0. -1.
        -11    1    3    3    0    0  0.52159966974E+01  0.14103504685E+02  0.24277978595E+01  0.15231863597E+02  0.51100000000E-03 0.  1.
        -12    1    3    3    0    0  0.13275467478E+02 -0.34150228306E+02  0.13909544194E+02  0.39191217763E+02  0.00000000000E+00 0.  1.
</event>
<event>
 7    1  0.3050261E-013  0.7246158E+02  0.7816164E-02  0.1226708E+00
        -11   -1    0    0    0    0  0.00000000000E+00  0.00000000000E+00  0.45593999997E+02  0.45594000000E+02  0.51100000000E-03 0.  1.
         11   -1    0    0    0    0 -0.00000000000E+00 -0.00000000000E+00 -0.45593999997E+02  0.45594000000E+02  0.51100000000E-03 0. -1.
    9900012    2    1    2    0    0  0.17840158872E+02 -0.28885460826E+01 -0.49054840689E+01  0.72461581736E+02  0.70000014905E+02 0.  0.
         12    1    1    2    0    0 -0.17840158872E+02  0.28885460826E+01  0.49054840689E+01  0.18726418264E+02  0.00000000000E+00 0. -1.
         11    1    3    3    0    0  0.64066700662E+01  0.80318779173E+01  0.57771630875E+01  0.11786946077E+02  0.51100000000E-03 0. -1.
        -11    1    3    3    0    0  0.22496324765E+02  0.16520226615E+02 -0.13405155068E+02  0.30962892275E+02  0.51100000000E-03 0.  1.
         12    1    3    3    0    0 -0.11062835959E+02 -0.27440650615E+02  0.27225079119E+01  0.29711743385E+02  0.00000000000E+00 0. -1.
</event>
<event>
 7    1  0.3050261E-013  0.7246165E+02  0.7816164E-02  0.1226708E+00
        -11   -1    0    0    0    0  0.00000000000E+00  0.00000000000E+00  0.45593999997E+02  0.45594000000E+02  0.51100000000E-03 0.  1.
         11   -1    0    0    0    0 -0.00000000000E+00 -0.00000000000E+00 -0.45593999997E+02  0.45594000000E+02  0.51100000000E-03 0. -1.
    9900012    2    1    2    0    0  0.10161381255E+02 -0.26580131567E+01  0.15503465082E+02  0.72461651384E+02  0.70000105634E+02 0.  0.
         12    1    1    2    0    0 -0.10161381255E+02  0.26580131567E+01 -0.15503465082E+02  0.18726348616E+02  0.00000000000E+00 0. -1.
         11    1    3    3    0    0  0.59928507227E+01 -0.70027514832E+01  0.11816484006E+02  0.14986062947E+02  0.51100000000E-03 0. -1.
        -11    1    3    3    0    0  0.30620831149E+02  0.14130027588E+01  0.35741337261E+01  0.30861080817E+02  0.51100000000E-03 0.  1.
         12    1    3    3    0    0 -0.26452300617E+02  0.29317355677E+01  0.11284734949E+00  0.26614507620E+02  0.00000000000E+00 0. -1.
</event>
<event>
 7    1  0.3050261E-013  0.7246163E+02  0.7816164E-02  0.1226708E+00
        -11   -1    0    0    0    0  0.00000000000E+00  0.00000000000E+00  0.45593999997E+02  0.45594000000E+02  0.51100000000E-03 0. -1.
         11   -1    0    0    0    0 -0.00000000000E+00 -0.00000000000E+00 -0.45593999997E+02  0.45594000000E+02  0.51100000000E-03 0.  1.
    9900012    2    1    2    0    0  0.72498229311E+01 -0.16245310749E+02 -0.58486521624E+01  0.72461633936E+02  0.70000082905E+02 0.  0.
         12    1    1    2    0    0 -0.72498229311E+01  0.16245310749E+02  0.58486521624E+01  0.18726366064E+02  0.00000000000E+00 0. -1.
         11    1    3    3    0    0 -0.23781337423E+02 -0.12124665241E+02  0.23712707402E+01  0.26798926135E+02  0.51100000000E-03 0. -1.
        -11    1    3    3    0    0 -0.29334126591E+01  0.77110993817E+01  0.15464490766E+01  0.83938947164E+01  0.51100000000E-03 0.  1.
         12    1    3    3    0    0  0.33964573013E+02 -0.11831744889E+02 -0.97663719792E+01  0.37268813084E+02  0.00000000000E+00 0. -1.
</event>
<event>
 7    1  0.3050261E-013  0.7246158E+02  0.7816164E-02  0.1226708E+00
        -11   -1    0    0    0    0  0.00000000000E+00  0.00000000000E+00  0.45593999997E+02  0.45594000000E+02  0.51100000000E-03 0. -1.
         11   -1    0    0    0    0 -0.00000000000E+00 -0.00000000000E+00 -0.45593999997E+02  0.45594000000E+02  0.51100000000E-03 0.  1.
    9900012    2    1    2    0    0  0.10736724363E+02 -0.15318647638E+02  0.86048544527E+00  0.72461584147E+02  0.70000018046E+02 0.  0.
         12    1    1    2    0    0 -0.10736724363E+02  0.15318647638E+02 -0.86048544527E+00  0.18726415853E+02  0.00000000000E+00 0. -1.
         11    1    3    3    0    0 -0.10418099391E+02 -0.69830773954E+01 -0.56376975197E+01  0.13750774466E+02  0.51100000000E-03 0. -1.
        -11    1    3    3    0    0  0.27515122905E+02 -0.15158173243E+02 -0.15343353260E+02  0.34960988173E+02  0.51100000000E-03 0.  1.
         12    1    3    3    0    0 -0.63602991514E+01  0.68226030006E+01  0.21841536225E+02  0.23749821508E+02  0.00000000000E+00 0. -1.
</event>
<event>
 7    1  0.3050261E-013  0.7246160E+02  0.7816164E-02  0.1226708E+00
        -11   -1    0    0    0    0  0.00000000000E+00  0.00000000000E+00  0.45593999997E+02  0.45594000000E+02  0.51100000000E-03 0.  1.
         11   -1    0    0    0    0 -0.00000000000E+00 -0.00000000000E+00 -0.45593999997E+02  0.45594000000E+02  0.51100000000E-03 0. -1.
    9900012    2    1    2    0    0 -0.92345588655E+01 -0.14930992658E+02 -0.65166274041E+01  0.72461600135E+02  0.70000038873E+02 0.  0.
         12    1    1    2    0    0  0.92345588655E+01  0.14930992658E+02  0.65166274041E+01  0.18726399865E+02  0.00000000000E+00 0. -1.
         11    1    3    3    0    0 -0.11102399503E+02 -0.58468550569E+01 -0.12595277613E+02  0.17778920304E+02  0.51100000000E-03 0. -1.
        -11    1    3    3    0    0 -0.46746028057E+00 -0.22509110918E+02 -0.16774045352E+02  0.28075740260E+02  0.51100000000E-03 0.  1.
         12    1    3    3    0    0  0.23353009179E+01  0.13424973317E+02  0.22852695561E+02  0.26606939571E+02  0.00000000000E+00 0. -1.
</event>
<event>
 7    1  0.3050261E-013  0.7246172E+02  0.7816164E-02  0.1226708E+00
        -11   -1    0    0    0    0  0.00000000000E+00  0.00000000000E+00  0.45593999997E+02  0.45594000000E+02  0.51100000000E-03 0. -1.
         11   -1    0    0    0    0 -0.00000000000E+00 -0.00000000000E+00 -0.45593999997E+02  0.45594000000E+02  0.51100000000E-03 0.  1.
    9900012    2    1    2    0    0  0.13352225840E+02 -0.11706028291E+02  0.59464781447E+01  0.72461718053E+02  0.70000192483E+02 0.  0.
         12    1    1    2    0    0 -0.13352225840E+02  0.11706028291E+02 -0.59464781447E+01  0.18726281947E+02  0.00000000000E+00 0. -1.
         11    1    3    3    0    0 -0.20606390903E+01  0.17779445958E+02 -0.50130233060E+01  0.18587235808E+02  0.51100000000E-03 0. -1.
        -11    1    3    3    0    0 -0.66073878262E+01  0.42827043417E+01 -0.62385122313E+01  0.10045803377E+02  0.51100000000E-03 0.  1.
         12    1    3    3    0    0  0.22020252756E+02 -0.33768178591E+02  0.17198013682E+02  0.43828678869E+02  0.00000000000E+00 0. -1.
</event>
<event>
 7    1  0.3050261E-013  0.7246155E+02  0.7816164E-02  0.1226708E+00
        -11   -1    0    0    0    0  0.00000000000E+00  0.00000000000E+00  0.45593999997E+02  0.45594000000E+02  0.51100000000E-03 0.  1.
         11   -1    0    0    0    0 -0.00000000000E+00 -0.00000000000E+00 -0.45593999997E+02  0.45594000000E+02  0.51100000000E-03 0. -1.
    9900012    2    1    2    0    0 -0.17524311740E+02  0.93948417999E+00  0.65342013537E+01  0.72461550262E+02  0.69999973904E+02 0.  0.
         12    1    1    2    0    0  0.17524311740E+02 -0.93948417999E+00 -0.65342013537E+01  0.18726449738E+02  0.00000000000E+00 0. -1.
         11    1    3    3    0    0 -0.15413440329E+02 -0.14866896593E+02 -0.16221663200E+02  0.26865239890E+02  0.51100000000E-03 0. -1.
        -11    1    3    3    0    0 -0.51056997613E+01 -0.98510592756E+01  0.14937276829E+02  0.18607358175E+02  0.51100000000E-03 0.  1.
        -12    1    3    3    0    0  0.29948283507E+01  0.25657440049E+02  0.78185877244E+01  0.26988952197E+02  0.00000000000E+00 0.  1.
</event>
<event>
 7    1  0.3050261E-013  0.7246159E+02  0.7816164E-02  0.1226708E+00
        -11   -1    0    0    0    0  0.00000000000E+00  0.00000000000E+00  0.45593999997E+02  0.45594000000E+02  0.51100000000E-03 0.  1.
         11   -1    0    0    0    0 -0.00000000000E+00 -0.00000000000E+00 -0.45593999997E+02  0.45594000000E+02  0.51100000000E-03 0. -1.
    9900012    2    1    2    0    0  0.99093576293E+00 -0.94632854815E+01  0.16128935609E+02  0.72461593786E+02  0.70000030603E+02 0.  0.
         12    1    1    2    0    0 -0.99093576293E+00  0.94632854815E+01 -0.16128935609E+02  0.18726406214E+02  0.00000000000E+00 0. -1.
         11    1    3    3    0    0  0.11032834956E+02 -0.55319731525E+01 -0.20100342335E+02  0.23587071382E+02  0.51100000000E-03 0. -1.
        -11    1    3    3    0    0  0.73153654631E+01 -0.43377550571E+01 -0.21332230568E+00  0.85074201413E+01  0.51100000000E-03 0.  1.
        -12    1    3    3    0    0 -0.17357264656E+02  0.40644272819E+00  0.36442600251E+02  0.40367102262E+02  0.00000000000E+00 0.  1.
</event>
<event>
 7    1  0.3050261E-013  0.7246148E+02  0.7816164E-02  0.1226708E+00
        -11   -1    0    0    0    0  0.00000000000E+00  0.00000000000E+00  0.45593999997E+02  0.45594000000E+02  0.51100000000E-03 0. -1.
         11   -1    0    0    0    0 -0.00000000000E+00 -0.00000000000E+00 -0.45593999997E+02  0.45594000000E+02  0.51100000000E-03 0.  1.
    9900012    2    1    2    0    0 -0.18567598054E+02 -0.96461549879E+00  0.22352270499E+01  0.72461483492E+02  0.69999886924E+02 0.  0.
         12    1    1    2    0    0  0.18567598054E+02  0.96461549879E+00 -0.22352270499E+01  0.18726516508E+02  0.00000000000E+00 0. -1.
         11    1    3    3    0    0  0.98137030272E-01  0.10442281393E+02 -0.60987809013E+01  0.12093221255E+02  0.51100000000E-03 0. -1.
        -11    1    3    3    0    0  0.54257529758E+01  0.17235292572E+02 -0.77127136131E+01  0.19646375160E+02  0.51100000000E-03 0.  1.
         12    1    3    3    0    0 -0.24091488060E+02 -0.28642189463E+02  0.16046721564E+02  0.40721887078E+02  0.00000000000E+00 0. -1.
</event>
<event>
 7    1  0.3050261E-013  0.7246132E+02  0.7816164E-02  0.1226709E+00
        -11   -1    0    0    0    0  0.00000000000E+00  0.00000000000E+00  0.45593999997E+02  0.45594000000E+02  0.51100000000E-03 0.  1.
         11   -1    0    0    0    0 -0.00000000000E+00 -0.00000000000E+00 -0.45593999997E+02  0.45594000000E+02  0.51100000000E-03 0. -1.
    9900012    2    1    2    0    0  0.27829054968E+01  0.16591355928E+02  0.82262361246E+01  0.72461318092E+02  0.69999671458E+02 0.  0.
         12    1    1    2    0    0 -0.27829054968E+01 -0.16591355928E+02 -0.82262361246E+01  0.18726681908E+02  0.00000000000E+00 0. -1.
         11    1    3    3    0    0  0.53191190651E+01  0.18127349843E+01  0.14584243930E+02  0.15629433995E+02  0.51100000000E-03 0. -1.
        -11    1    3    3    0    0 -0.12853921563E+02 -0.24406612136E+01  0.19877925442E+02  0.23797311757E+02  0.51100000000E-03 0.  1.
         12    1    3    3    0    0  0.10317707995E+02  0.17219282157E+02 -0.26235933248E+02  0.33034572339E+02  0.00000000000E+00 0. -1.
</event>
<event>
 7    1  0.3050261E-013  0.7246156E+02  0.7816164E-02  0.1226708E+00
        -11   -1    0    0    0    0  0.00000000000E+00  0.00000000000E+00  0.45593999997E+02  0.45594000000E+02  0.51100000000E-03 0. -1.
         11   -1    0    0    0    0 -0.00000000000E+00 -0.00000000000E+00 -0.45593999997E+02  0.45594000000E+02  0.51100000000E-03 0.  1.
    9900012    2    1    2    0    0 -0.18719808619E+02 -0.39303152931E-02 -0.49814095528E+00  0.72461564285E+02  0.69999992171E+02 0.  0.
         12    1    1    2    0    0  0.18719808619E+02  0.39303152931E-02  0.49814095528E+00  0.18726435715E+02  0.00000000000E+00 0. -1.
         11    1    3    3    0    0 -0.17091346828E+01 -0.11677847572E+02  0.19279473727E+02  0.22605118286E+02  0.51100000000E-03 0. -1.
        -11    1    3    3    0    0  0.20315315626E+01  0.12002266016E+02  0.91457935524E+01  0.15225867790E+02  0.51100000000E-03 0.  1.
        -12    1    3    3    0    0 -0.19042205499E+02 -0.32834875881E+00 -0.28923408234E+02  0.34630578208E+02  0.00000000000E+00 0.  1.
</event>
<event>
 7    1  0.3050261E-013  0.7246158E+02  0.7816164E-02  0.1226708E+00
        -11   -1    0    0    0    0  0.00000000000E+00  0.00000000000E+00  0.45593999997E+02  0.45594000000E+02  0.51100000000E-03 0.  1.
         11   -1    0    0    0    0 -0.00000000000E+00 -0.00000000000E+00 -0.45593999997E+02  0.45594000000E+02  0.51100000000E-03 0. -1.
    9900012    2    1    2    0    0 -0.12725195139E+02  0.10842903139E+01  0.13695717336E+02  0.72461576151E+02  0.70000007629E+02 0.  0.
         12    1    1    2    0    0  0.12725195139E+02 -0.10842903139E+01 -0.13695717336E+02  0.18726423849E+02  0.00000000000E+00 0. -1.
         11    1    3    3    0    0  0.21721856380E+01  0.15367804215E+02 -0.19587709121E+02  0.24991321407E+02  0.51100000000E-03 0. -1.
        -11    1    3    3    0    0  0.42554832338E+01  0.40441026812E+01  0.12413719743E+02  0.13731873221E+02  0.51100000000E-03 0.  1.
        -12    1    3    3    0    0 -0.19152864011E+02 -0.18327616582E+02  0.20869706714E+02  0.33738381522E+02  0.00000000000E+00 0.  1.
</event>
<event>
 7    1  0.3050261E-013  0.7246155E+02  0.7816164E-02  0.1226708E+00
        -11   -1    0    0    0    0  0.00000000000E+00  0.00000000000E+00  0.45593999997E+02  0.45594000000E+02  0.51100000000E-03 0.  1.
         11   -1    0    0    0    0 -0.00000000000E+00 -0.00000000000E+00 -0.45593999997E+02  0.45594000000E+02  0.51100000000E-03 0. -1.
    9900012    2    1    2    0    0  0.21485117915E+01 -0.37560040200E+01  0.18219669817E+02  0.72461547123E+02  0.69999969815E+02 0.  0.
         12    1    1    2    0    0 -0.21485117915E+01  0.37560040200E+01 -0.18219669817E+02  0.18726452877E+02  0.00000000000E+00 0. -1.
         11    1    3    3    0    0  0.35093837463E+01  0.94119545428E+01  0.96231638764E+01  0.13910641461E+02  0.51100000000E-03 0. -1.
        -11    1    3    3    0    0  0.14968742531E+02 -0.24016070253E+02  0.21099226016E+02  0.35298898313E+02  0.51100000000E-03 0.  1.
         12    1    3    3    0    0 -0.16329614486E+02  0.10848111690E+02 -0.12502720075E+02  0.23252007350E+02  0.00000000000E+00 0. -1.
</event>
<event>
 7    1  0.3050261E-013  0.7246158E+02  0.7816164E-02  0.1226708E+00
        -11   -1    0    0    0    0  0.00000000000E+00  0.00000000000E+00  0.45593999997E+02  0.45594000000E+02  0.51100000000E-03 0.  1.
         11   -1    0    0    0    0 -0.00000000000E+00 -0.00000000000E+00 -0.45593999997E+02  0.45594000000E+02  0.51100000000E-03 0. -1.
    9900012    2    1    2    0    0 -0.15313002416E+02  0.58198310097E+01 -0.90730596527E+01  0.72461577826E+02  0.70000009812E+02 0.  0.
         12    1    1    2    0    0  0.15313002416E+02 -0.58198310097E+01  0.90730596527E+01  0.18726422174E+02  0.00000000000E+00 0. -1.
         11    1    3    3    0    0 -0.23797619284E+02 -0.92830561175E+01 -0.19306762370E+02  0.32019570389E+02  0.51100000000E-03 0. -1.
        -11    1    3    3    0    0 -0.81245953097E+01 -0.72416786350E+01  0.55236047729E+01  0.12204964906E+02  0.51100000000E-03 0.  1.
        -12    1    3    3    0    0  0.16609212178E+02  0.22344565762E+02  0.47100979440E+01  0.28237042531E+02  0.00000000000E+00 0.  1.
</event>
<event>
 7    1  0.3050261E-013  0.7246142E+02  0.7816164E-02  0.1226708E+00
        -11   -1    0    0    0    0  0.00000000000E+00  0.00000000000E+00  0.45593999997E+02  0.45594000000E+02  0.51100000000E-03 0.  1.
         11   -1    0    0    0    0 -0.00000000000E+00 -0.00000000000E+00 -0.45593999997E+02  0.45594000000E+02  0.51100000000E-03 0. -1.
    9900012    2    1    2    0    0  0.11081227466E+02  0.31728461662E+01  0.14758873556E+02  0.72461417194E+02  0.69999800558E+02 0.  0.
         12    1    1    2    0    0 -0.11081227466E+02 -0.31728461662E+01 -0.14758873556E+02  0.18726582806E+02  0.00000000000E+00 0. -1.
         11    1    3    3    0    0 -0.19464725289E+02  0.15407288026E+02  0.21179890781E+02  0.32632006200E+02  0.51100000000E-03 0. -1.
        -11    1    3    3    0    0  0.15425909069E+02  0.42704982501E+01  0.15217118033E+01  0.16078290735E+02  0.51100000000E-03 0.  1.
        -12    1    3    3    0    0  0.15120043687E+02 -0.16504940110E+02 -0.79427290280E+01  0.23751120259E+02  0.00000000000E+00 0.  1.
</event>
<event>
 7    1  0.3050261E-013  0.7246162E+02  0.7816164E-02  0.1226708E+00
        -11   -1    0    0    0    0  0.00000000000E+00  0.00000000000E+00  0.45593999997E+02  0.45594000000E+02  0.51100000000E-03 0.  1.
         11   -1    0    0    0    0 -0.00000000000E+00 -0.00000000000E+00 -0.45593999997E+02  0.45594000000E+02  0.51100000000E-03 0. -1.
    9900012    2    1    2    0    0  0.17063415721E+02  0.37764444028E+00 -0.77054806460E+01  0.72461622791E+02  0.70000068386E+02 0.  0.
         12    1    1    2    0    0 -0.17063415721E+02 -0.37764444028E+00  0.77054806460E+01  0.18726377209E+02  0.00000000000E+00 0. -1.
         11    1    3    3    0    0  0.40439126277E+01 -0.17049516620E+02 -0.40269488617E+01  0.17979309322E+02  0.51100000000E-03 0. -1.
        -11    1    3    3    0    0  0.16161838742E+02 -0.26181017916E+01  0.18310156547E+02  0.24562600057E+02  0.51100000000E-03 0.  1.
         12    1    3    3    0    0 -0.31423356483E+01  0.20045262852E+02 -0.21988688331E+02  0.29919713412E+02  0.00000000000E+00 0. -1.
</event>
<event>
 7    1  0.3050261E-013  0.7246156E+02  0.7816164E-02  0.1226708E+00
        -11   -1    0    0    0    0  0.00000000000E+00  0.00000000000E+00  0.45593999997E+02  0.45594000000E+02  0.51100000000E-03 0.  1.
         11   -1    0    0    0    0 -0.00000000000E+00 -0.00000000000E+00 -0.45593999997E+02  0.45594000000E+02  0.51100000000E-03 0. -1.
    9900012    2    1    2    0    0  0.22732486074E+01  0.10965018155E+02  0.15009337733E+02  0.72461561429E+02  0.69999988452E+02 0.  0.
         12    1    1    2    0    0 -0.22732486074E+01 -0.10965018155E+02 -0.15009337733E+02  0.18726438571E+02  0.00000000000E+00 0. -1.
         11    1    3    3    0    0 -0.31228611758E+01  0.16842707086E+02  0.26033622141E+02  0.31163737356E+02  0.51100000000E-03 0. -1.
        -11    1    3    3    0    0  0.12120805007E+02 -0.16975497407E+02  0.42172365036E+01  0.21280660475E+02  0.51100000000E-03 0.  1.
         12    1    3    3    0    0 -0.67246952235E+01  0.11097808477E+02 -0.15241520912E+02  0.20017163599E+02  0.00000000000E+00 0. -1.
</event>
<event>
 7    1  0.3050261E-013  0.7246158E+02  0.7816164E-02  0.1226708E+00
        -11   -1    0    0    0    0  0.00000000000E+00  0.00000000000E+00  0.45593999997E+02  0.45594000000E+02  0.51100000000E-03 0.  1.
         11   -1    0    0    0    0 -0.00000000000E+00 -0.00000000000E+00 -0.45593999997E+02  0.45594000000E+02  0.51100000000E-03 0. -1.
    9900012    2    1    2    0    0 -0.61613993433E+01  0.15107250155E+02  0.91916701757E+01  0.72461584173E+02  0.70000018080E+02 0.  0.
         12    1    1    2    0    0  0.61613993433E+01 -0.15107250155E+02 -0.91916701757E+01  0.18726415827E+02  0.00000000000E+00 0. -1.
         11    1    3    3    0    0 -0.22205861435E+02  0.35206225821E+01 -0.43809782001E+00  0.22487485306E+02  0.51100000000E-03 0. -1.
        -11    1    3    3    0    0  0.14798604831E+01 -0.56475238143E+01  0.23011304398E+02  0.23740358941E+02  0.51100000000E-03 0.  1.
         12    1    3    3    0    0  0.14564601609E+02  0.17234151387E+02 -0.13381536402E+02  0.26233739926E+02  0.00000000000E+00 0. -1.
</event>
<event>
 7    1  0.3050261E-013  0.7246159E+02  0.7816164E-02  0.1226708E+00
        -11   -1    0    0    0    0  0.00000000000E+00  0.00000000000E+00  0.45593999997E+02  0.45594000000E+02  0.51100000000E-03 0.  1.
         11   -1    0    0    0    0 -0.00000000000E+00 -0.00000000000E+00 -0.45593999997E+02  0.45594000000E+02  0.51100000000E-03 0. -1.
    9900012    2    1    2    0    0  0.18135998047E+02 -0.45881625203E+01  0.84436611963E+00  0.72461585111E+02  0.70000019301E+02 0.  0.
         12    1    1    2    0    0 -0.18135998047E+02  0.45881625203E+01 -0.84436611963E+00  0.18726414889E+02  0.00000000000E+00 0. -1.
         11    1    3    3    0    0  0.10314887592E+02 -0.20380744788E+02 -0.35456954643E+01  0.23115873783E+02  0.51100000000E-03 0. -1.
        -11    1    3    3    0    0  0.19968222144E+02 -0.43366550478E+01  0.13101627941E+02  0.24273218319E+02  0.51100000000E-03 0.  1.
        -12    1    3    3    0    0 -0.12147111689E+02  0.20129237316E+02 -0.87115663568E+01  0.25072493009E+02  0.00000000000E+00 0.  1.
</event>
